Membrane in water
40155
    1TCq1    O1    1   2.039   2.226  11.236 -0.3320 -0.6158 -0.0101
    1TCq1    C1    2   2.107   2.321  11.168  0.6908  0.5110  0.3830
    1TCq1    O2    3   2.155   2.305  11.056  0.7154 -0.0068  0.5240
    1TCq1    C2    4   2.121   2.440  11.249  0.0720 -0.2685  0.5194
    1TCq1    C3    5   2.093   2.555  11.188  0.1156  0.5866  0.0621
    1TCq1    C4    6   2.107   2.675  11.254 -0.0907  0.2315  0.2045
    1TCq1    C5    7   2.142   2.676  11.379  0.2033  0.1490  0.0310
    1TCq1    C6    8   2.170   2.555  11.444  0.1588  0.5243 -0.4068
    1TCq1    C7    9   2.154   2.434  11.381 -0.0440 -0.0125  0.3882
    1TCq1    C8   10   2.223   2.553  11.583  0.4613  0.6118 -0.7417
    1TCq1    O4   11   2.272   2.449  11.622  0.6602  0.1366 -0.5446
    1TCq1    C9   12   2.076   2.801  11.187 -0.0978 -0.1675 -0.0466
    1TCq1    O5   13   2.046   2.892  11.263 -0.4374  0.2818 -0.4331
    1TCq1    O6   14   2.058   2.806  11.061  0.2586 -0.4105  0.1584
    1TCq1    H1   15   2.002   2.259  11.320 -0.8387 -0.3435 -0.3368
    1TCq1    H2   16   2.059   2.557  11.085  1.7863 -0.3879 -0.4995
    1TCq1    H3   17   2.165   2.769  11.431  0.7866  0.0497 -0.0428
    1TCq1    H4   18   2.195   2.346  11.429  0.7126  1.2325  2.0054
    2MPD2     C   19   2.229   2.735  12.047  0.4219  0.2690  0.1449
    2MPD2    C1   20   2.134   2.807  11.972  0.2590 -0.1670 -0.6294
    2MPD2    C2   21   2.126   2.781  11.839 -0.3035 -0.5760 -0.4048
    2MPD2    C3   22   2.208   2.688  11.785  0.5704  0.0489  0.1576
    2MPD2    C4   23   2.290   2.612  11.861 -0.3949 -0.2077  0.1518
    2MPD2    C5   24   2.300   2.633  11.994  0.1692 -0.3311  0.6666
    2MPD2     H   25   2.052   2.831  11.778  1.0797  0.5231 -1.2018
    2MPD2    H1   26   2.344   2.528  11.820  2.1836  0.6113  1.8263
    2MPD2    H2   27   2.254   2.756  12.151  0.8643 -0.1243  0.1226
    2MPD2    H3   28   2.370   2.574  12.051  0.3054 -0.6636  0.1579
    2MPD2     N   29   2.196   2.670  11.645 -0.1729  0.0703 -0.0247
    2MPD2    H5   30   2.148   2.746  11.598 -1.5644  0.1695  1.5647
    2MPD2    N1   31   2.041   2.895  12.033  0.3386  0.7829  0.0328
    2MPD2    H7   32   1.977   2.942  11.970  1.5658  0.5982 -1.3531
    3TCq1    O1   33   1.122   3.727  10.133  0.1565 -0.4938 -0.3915
    3TCq1    C1   34   1.234   3.679  10.190  0.0517  0.1348 -0.0487
    3TCq1    O2   35   1.281   3.567  10.177  0.5892 -0.2471 -0.5677
    3TCq1    C2   36   1.306   3.788  10.258  0.4140 -0.1643  0.4538
    3TCq1    C3   37   1.443   3.776  10.268 -0.2904  0.4013  0.4265
    3TCq1    C4   38   1.500   3.826  10.378  0.4654  0.0251 -0.4795
    3TCq1    C5   39   1.426   3.892  10.477  0.2732  0.3299 -0.5500
    3TCq1    C6   40   1.294   3.904  10.464  0.3119 -0.0117  0.0327
    3TCq1    C7   41   1.231   3.850  10.350  0.5641  0.2310 -0.0393
    3TCq1    C8   42   1.220   3.890  10.583  0.0255 -0.4014 -0.8077
    3TCq1    O4   43   1.130   3.806  10.578  0.2670  0.1043 -0.2566
    3TCq1    C9   44   1.644   3.816  10.385  0.1462  0.0610 -0.0663
    3TCq1    O5   45   1.704   3.796  10.274  0.3562  0.5928  0.4667
    3TCq1    O6   46   1.705   3.862  10.484 -0.0642  0.4926  0.5757
    3TCq1    H1   47   1.108   3.824  10.131 -0.1346 -0.5240  0.1626
    3TCq1    H2   48   1.504   3.715  10.201  2.7329  3.6382  0.2414
    3TCq1    H3   49   1.482   3.925  10.564 -0.9074  0.2921  0.2209
    3TCq1    H4   50   1.123   3.858  10.348  0.5882 -0.0677 -3.0064
    4MPD2     C   51   1.087   4.040  11.066  0.2960  0.1572  0.0797
    4MPD2    C1   52   1.203   4.111  11.037  0.3097 -0.3538 -0.1473
    4MPD2    C2   53   1.263   4.080  10.913 -0.4116 -0.5341 -0.3154
    4MPD2    C3   54   1.204   3.996  10.820  0.2466 -1.3267 -0.8228
    4MPD2    C4   55   1.087   3.931  10.855 -0.3937  0.2968  0.6692
    4MPD2    C5   56   1.031   3.956  10.974 -0.2317 -0.0016 -0.1225
    4MPD2     H   57   1.344   4.147  10.888 -0.4147 -0.2042  0.5616
    4MPD2    H1   58   1.031   3.858  10.797 -0.4134  1.4204 -0.7321
    4MPD2    H2   59   1.035   4.045  11.162 -1.0609 -1.2295 -0.5824
    4MPD2    H3   60   0.938   3.903  10.991  0.0054 -0.8293 -1.3687
    4MPD2     N   61   1.258   3.974  10.687 -0.4655  0.1981 -0.1993
    4MPD2    H5   62   1.341   4.026  10.659  1.1936 -1.1601  2.0946
    4MPD2    N1   63   1.249   4.211  11.125  0.4864 -0.0118 -0.7455
    4MPD2    H7   64   1.328   4.267  11.094  0.8187 -0.0941 -0.0469
    5TCq1    O1   65   1.110   0.779  10.866 -0.5342 -0.6477  0.3759
    5TCq1    C1   66   1.093   0.901  10.922 -0.9315  0.0454 -0.2828
    5TCq1    O2   67   1.012   0.938  11.007 -0.0694 -0.1992 -0.0399
    5TCq1    C2   68   1.146   0.988  10.823 -0.0759  0.0618  0.2563
    5TCq1    C3   69   1.094   1.115  10.807  0.0394 -0.3431 -0.2225
    5TCq1    C4   70   1.173   1.208  10.744 -0.2368  0.1615  0.1909
    5TCq1    C5   71   1.296   1.172  10.690  0.8278  0.3014 -0.2723
    5TCq1    C6   72   1.345   1.048  10.715 -0.7513 -0.5417 -0.3161
    5TCq1    C7   73   1.280   0.957  10.783  0.1356 -0.1736  1.3699
    5TCq1    C8   74   1.496   1.027  10.706  0.5952 -0.0904  0.3119
    5TCq1    O4   75   1.531   0.908  10.687 -0.5252 -0.1694 -0.4594
    5TCq1    C9   76   1.126   1.337  10.718  0.1893 -0.6100 -0.3607
    5TCq1    O5   77   1.003   1.355  10.744  0.4701 -0.5166  0.4077
    5TCq1    O6   78   1.217   1.429  10.715 -0.3883  0.0317 -0.1105
    5TCq1    H1   79   1.174   0.791  10.792 -0.5661 -0.6048  0.3555
    5TCq1    H2   80   1.003   1.140  10.859  0.3600 -2.4706  1.3177
    5TCq1    H3   81   1.339   1.245  10.622 -2.2266  1.7309 -0.6422
    5TCq1    H4   82   1.326   0.864  10.816  1.2050 -0.6839 -1.6090
    6MPD2     C   83   1.767   1.273  10.703  0.0109 -0.3162  0.2596
    6MPD2    C1   84   1.715   1.151  10.701  0.1938 -0.3975  0.3477
    6MPD2    C2   85   1.803   1.048  10.683 -0.3030 -0.0869  1.0275
    6MPD2    C3   86   1.938   1.061  10.658  0.1577  0.0010  0.3885
    6MPD2    C4   87   1.985   1.193  10.663  0.5259  0.6620  0.4613
    6MPD2    C5   88   1.898   1.296  10.691 -0.0890 -0.1154 -0.2239
    6MPD2     H   89   1.761   0.948  10.671 -2.7338  1.0413  0.1050
    6MPD2    H1   90   2.091   1.217  10.660  0.1865  2.5363  3.8398
    6MPD2    H2   91   1.704   1.361  10.714  2.0472  1.1795 -0.1451
    6MPD2    H3   92   1.936   1.396  10.708  1.2930 -0.6905  0.0785
    6MPD2     N   93   2.025   0.949  10.634 -0.3139  0.1477  0.4813
    6MPD2    H5   94   1.974   0.861  10.633 -1.5361  0.8825 -0.5273
    6MPD2    N1   95   1.572   1.144  10.717 -0.4039 -0.6216  0.0161
    6MPD2    H7   96   1.529   1.236  10.710  2.6861  0.7201 -1.8024
    7TCq1    O1   97   3.773   0.817  12.527  0.5880  0.0210 -0.0670
    7TCq1    C1   98   3.679   0.727  12.490 -0.4849  0.8344  0.4746
    7TCq1    O2   99   3.610   0.740  12.392 -0.1938 -0.4180  0.8188
    7TCq1    C2  100   3.648   0.650  12.615 -0.2993  0.7385  0.0483
    7TCq1    C3  101   3.520   0.624  12.649  0.0760  1.0220  0.6539
    7TCq1    C4  102   3.491   0.540  12.754  0.2584  0.2684 -0.3125
    7TCq1    C5  103   3.597   0.486  12.834  0.7783 -0.5721 -0.0786
    7TCq1    C6  104   3.722   0.516  12.791 -0.5336 -0.0438 -0.2066
    7TCq1    C7  105   3.747   0.595  12.678  0.9355  0.1749  0.1310
    7TCq1    C8  106   3.831   0.477  12.880  0.6490 -0.0184 -0.0749
    7TCq1    O4  107   3.815   0.374  12.941  0.1280 -0.5660 -0.2694
    7TCq1    C9  108   3.359   0.495  12.780 -0.9215 -0.1685 -0.4844
    7TCq1    O5  109   3.263   0.528  12.707  0.0077  0.5954 -0.0123
    7TCq1    O6  110   3.348   0.428  12.883  0.0945  0.2069 -0.2176
    7TCq1    H1  111   3.798   0.803  12.621 -0.1313 -0.8143  0.0017
    7TCq1    H2  112   3.444   0.677  12.593 -0.3071 -1.5582 -1.2796
    7TCq1    H3  113   3.569   0.426  12.920 -0.3810  0.2963  0.1546
    7TCq1    H4  114   3.846   0.620  12.642  0.7430 -0.4727 -0.8390
    8MPD2     C  115   4.150   0.579  13.260 -0.1024  0.0289  0.0073
    8MPD2    C1  116   4.128   0.464  13.185  0.2627 -0.0447  0.0634
    8MPD2    C2  117   4.055   0.472  13.064  0.2281 -0.1613  1.1880
    8MPD2    C3  118   3.992   0.586  13.026  0.2395 -0.3569  0.4319
    8MPD2    C4  119   4.013   0.695  13.102 -0.6366 -0.1388 -0.7880
    8MPD2    C5  120   4.095   0.697  13.211 -0.0759 -0.5373 -0.5786
    8MPD2     H  121   4.039   0.381  13.007 -0.0791 -0.0211  1.0493
    8MPD2    H1  122   3.970   0.787  13.063  0.0376  0.5566  0.1366
    8MPD2    H2  123   4.223   0.591  13.339  0.4923  0.0861 -0.5424
    8MPD2    H3  124   4.107   0.786  13.272 -0.4195 -0.2109 -0.9918
    8MPD2     N  125   3.898   0.589  12.920  0.3173 -0.2343  0.4770
    8MPD2    H5  126   3.848   0.675  12.899  0.6969 -0.1746 -0.1841
    8MPD2    N1  127   4.177   0.347  13.241  0.4396 -0.3243 -0.1279
    8MPD2    H7  128   4.221   0.347  13.332  0.7224 -0.6992 -0.2656
    9TCq1    O1  129   1.642   3.836  10.728 -0.3588  0.0908 -0.2799
    9TCq1    C1  130   1.701   3.756  10.817  0.1162 -0.7646  0.4141
    9TCq1    O2  131   1.658   3.738  10.929  0.2573 -0.1435  0.2836
    9TCq1    C2  132   1.838   3.781  10.800  0.1804 -0.6440  0.2235
    9TCq1    C3  133   1.892   3.748  10.679  0.2951 -0.0639 -0.2477
    9TCq1    C4  134   2.022   3.776  10.660 -0.1434 -0.1189 -0.3618
    9TCq1    C5  135   2.096   3.844  10.750  0.0581 -0.4328  0.0057
    9TCq1    C6  136   2.044   3.858  10.882 -0.4420  0.9407  0.5597
    9TCq1    C7  137   1.911   3.835  10.904  0.8280  0.1938 -0.3588
    9TCq1    C8  138   2.123   3.935  10.974 -0.6260  0.0976 -0.1435
    9TCq1    O4  139   2.236   3.965  10.938  0.3680 -0.1769 -0.5309
    9TCq1    C9  140   2.079   3.744  10.531  0.2227  0.2542 -0.0210
    9TCq1    O5  141   1.997   3.707  10.437 -0.0373  0.0175 -0.5865
    9TCq1    O6  142   2.200   3.779  10.516 -0.0707  0.1311  0.2178
    9TCq1    H1  143   1.670   3.833  10.634 -0.6721 -2.8960 -0.2789
    9TCq1    H2  144   1.832   3.697  10.604  0.0709 -0.4477  0.1919
    9TCq1    H3  145   2.196   3.872  10.720 -0.4264  1.6563  0.3312
    9TCq1    H4  146   1.872   3.846  11.005  3.1066  1.1167  0.4182
   10MPD2     C  147   2.211   4.133  11.178  0.8178 -0.3246  0.0663
   10MPD2    C1  148   2.108   4.038  11.195  0.0997  0.0825 -0.2715
   10MPD2    C2  149   2.025   4.048  11.303  0.2691  0.3748 -0.4208
   10MPD2    C3  150   2.046   4.145  11.404 -0.1318 -0.1550 -0.1031
   10MPD2    C4  151   2.154   4.235  11.395 -0.3529  0.0794  0.8263
   10MPD2    C5  152   2.226   4.224  11.276 -0.0077 -0.4797  0.0513
   10MPD2     H  153   1.948   3.972  11.296  1.0960 -0.3869 -1.2809
   10MPD2    H1  154   2.185   4.308  11.470  0.1399  0.7664 -0.0436
   10MPD2    H2  155   2.265   4.143  11.085 -1.6403 -3.1600 -1.6424
   10MPD2    H3  156   2.313   4.288  11.280  0.2743 -1.0319  2.6571
   10MPD2     N  157   1.971   4.155  11.523 -0.7065  0.5089  0.4402
   10MPD2    H5  158   1.998   4.225  11.591  0.2870  0.2460  0.3237
   10MPD2    N1  159   2.062   3.955  11.093 -0.0233  0.4742  0.4172
   10MPD2    H7  160   1.980   3.899  11.114  0.4270  0.6323  2.5704
   11TCq1    O1  161   2.107   4.063  13.915  0.7193  0.1937 -0.2251
   11TCq1    C1  162   2.217   4.079  13.840  0.5438 -0.4386 -0.6341
   11TCq1    O2  163   2.241   4.178  13.774 -0.0889 -0.0257  0.0277
   11TCq1    C2  164   2.321   3.980  13.857 -0.3200 -0.7033 -0.7215
   11TCq1    C3  165   2.450   4.007  13.825 -0.5716  0.0496 -0.6964
   11TCq1    C4  166   2.537   3.905  13.826  0.2643  0.3163 -0.9071
   11TCq1    C5  167   2.497   3.777  13.853 -0.0188  0.0676 -0.2927
   11TCq1    C6  168   2.363   3.750  13.864 -0.0770 -0.1801 -0.1832
   11TCq1    C7  169   2.275   3.853  13.882  0.5855  0.5174 -0.2151
   11TCq1    C8  170   2.324   3.606  13.897 -0.1997  0.0122  0.0404
   11TCq1    O4  171   2.227   3.591  13.965 -0.1830  0.0569 -0.4871
   11TCq1    C9  172   2.674   3.929  13.805 -0.1086 -0.1740 -0.6239
   11TCq1    O5  173   2.713   4.037  13.753  0.7676  0.4020  0.0616
   11TCq1    O6  174   2.754   3.835  13.821  0.4320  0.8048  0.4137
   11TCq1    H1  175   2.117   3.987  13.976  0.0953  0.3596  0.0919
   11TCq1    H2  176   2.479   4.108  13.796 -1.2560  0.8340  1.3065
   11TCq1    H3  177   2.576   3.703  13.843 -1.6375 -1.6796 -0.1422
   11TCq1    H4  178   2.172   3.836  13.910  0.5960 -0.1327 -0.5745
   12MPD2     C  179   2.310   3.305  13.889 -0.9220 -0.6336  0.6352
   12MPD2    C1  180   2.363   3.392  13.794 -0.1771  0.0921 -0.2513
   12MPD2    C2  181   2.402   3.340  13.669  0.4183 -0.4724  0.3987
   12MPD2    C3  182   2.385   3.209  13.636 -0.2518 -0.5494  0.5649
   12MPD2    C4  183   2.319   3.127  13.728  0.3374  0.2161  0.0215
   12MPD2    C5  184   2.292   3.171  13.855  0.2192  0.0982  0.2770
   12MPD2     H  185   2.445   3.404  13.592 -1.2118  2.1754  1.6852
   12MPD2    H1  186   2.297   3.023  13.708  0.2827  0.3547 -0.6388
   12MPD2    H2  187   2.261   3.348  13.975  0.0963  0.3175  0.7354
   12MPD2    H3  188   2.239   3.105  13.923 -2.3586  2.0660  0.1782
   12MPD2     N  189   2.415   3.149  13.516  0.6674 -0.3482 -0.1615
   12MPD2    H5  190   2.403   3.048  13.514  0.2220 -0.3276  1.7906
   12MPD2    N1  191   2.386   3.524  13.811 -0.7692 -0.2069  0.6733
   12MPD2    H7  192   2.445   3.572  13.744 -2.4022  2.0194  0.8445
   13TCq1    O1  193   2.422   3.466  10.863  0.5784 -0.4923 -0.1464
   13TCq1    C1  194   2.330   3.364  10.883 -1.1074  0.0002  0.4072
   13TCq1    O2  195   2.310   3.301  10.990 -0.7097 -0.2565  1.0467
   13TCq1    C2  196   2.230   3.362  10.776 -0.3409 -0.7463 -0.0582
   13TCq1    C3  197   2.276   3.364  10.649  0.7971  0.4922 -0.5162
   13TCq1    C4  198   2.181   3.391  10.554  0.0802  0.0255 -0.4412
   13TCq1    C5  199   2.050   3.413  10.580  0.8376  0.1758  0.4672
   13TCq1    C6  200   2.006   3.398  10.708 -1.1700 -0.0800  0.2729
   13TCq1    C7  201   2.102   3.380  10.807 -0.6388 -0.6091  0.9011
   13TCq1    C8  202   1.859   3.414  10.733  0.7382  0.0670 -0.1225
   13TCq1    O4  203   1.832   3.451  10.844 -0.6149  0.3703 -0.4232
   13TCq1    C9  204   2.232   3.401  10.420 -0.2935  0.3535 -0.0615
   13TCq1    O5  205   2.154   3.431  10.330 -0.4690 -0.2115 -0.0163
   13TCq1    O6  206   2.353   3.375  10.405 -0.2950 -0.2672 -0.1583
   13TCq1    H1  207   2.396   3.527  10.790  2.2595 -0.5751 -0.8217
   13TCq1    H2  208   2.380   3.342  10.627  0.3005 -0.5878 -1.7769
   13TCq1    H3  209   1.997   3.436  10.488  0.3961 -0.9063  0.4545
   13TCq1    H4  210   2.069   3.363  10.909 -1.4753  0.5356  0.8244
   14MPD2     C  211   1.583   3.452  10.479 -0.3624  0.3610  0.6025
   14MPD2    C1  212   1.649   3.446  10.602 -0.3590 -0.1286  0.2742
   14MPD2    C2  213   1.573   3.485  10.706  0.6555  0.1061 -0.3411
   14MPD2    C3  214   1.444   3.524  10.704  0.0063 -0.3422  0.4437
   14MPD2    C4  215   1.373   3.518  10.589  0.1517 -0.1069 -0.4920
   14MPD2    C5  216   1.446   3.484  10.475 -0.0202 -0.0042 -0.4188
   14MPD2     H  217   1.612   3.477  10.807  1.6979 -1.5409 -0.8772
   14MPD2    H1  218   1.276   3.565  10.594 -0.0395 -0.3703 -1.7706
   14MPD2    H2  219   1.632   3.442  10.383  0.1515  2.3502  0.6423
   14MPD2    H3  220   1.402   3.493  10.376  1.3192 -1.0417 -1.0962
   14MPD2     N  221   1.389   3.584  10.815 -0.6320  0.3497  0.3159
   14MPD2    H5  222   1.455   3.629  10.879  1.5752 -1.5110 -0.6668
   14MPD2    N1  223   1.783   3.416  10.616 -0.1272 -0.0330  0.7038
   14MPD2    H7  224   1.821   3.377  10.530  0.0618 -1.3698  1.4015
   15TCq1    O1  225   3.305   3.164   1.319 -0.4115  0.3215 -0.2059
   15TCq1    C1  226   3.337   3.218   1.442  0.7101 -0.0829 -1.0792
   15TCq1    O2  227   3.292   3.322   1.488 -0.0858  0.2581  0.2539
   15TCq1    C2  228   3.436   3.132   1.505  0.6178  0.6828  0.1102
   15TCq1    C3  229   3.414   3.080   1.637 -0.2624  0.0803  0.5012
   15TCq1    C4  230   3.500   2.989   1.695 -0.4309  0.0032 -0.2850
   15TCq1    C5  231   3.602   2.937   1.626  0.0374  0.0842 -0.0234
   15TCq1    C6  232   3.610   2.968   1.489  1.0126  0.6435  0.3765
   15TCq1    C7  233   3.534   3.068   1.433  0.2573  0.7356  0.3977
   15TCq1    C8  234   3.678   2.880   1.400  0.6172 -1.0688 -0.0194
   15TCq1    O4  235   3.763   2.805   1.451 -0.2524 -0.8211  0.0100
   15TCq1    C9  236   3.462   2.945   1.827 -0.0497 -0.2759  0.1558
   15TCq1    O5  237   3.539   2.872   1.890 -0.2324  0.0284  0.1687
   15TCq1    O6  238   3.345   2.966   1.870  0.2155 -0.2296  0.5787
   15TCq1    H1  239   3.345   3.076   1.305 -0.1519  0.1728  1.4289
   15TCq1    H2  240   3.335   3.127   1.695 -1.5824  1.6072 -2.5428
   15TCq1    H3  241   3.664   2.857   1.664  0.5006  1.0750  1.2984
   15TCq1    H4  242   3.549   3.105   1.332 -1.0065 -0.0169 -0.0613
   16MPD2     C  243   3.589   2.787   1.058  0.4825  0.2068 -0.2098
   16MPD2    C1  244   3.672   2.808   1.162 -0.0495 -0.4882  0.0343
   16MPD2    C2  245   3.798   2.752   1.157  0.1666 -0.2452 -0.1712
   16MPD2    C3  246   3.848   2.708   1.034 -0.4991  0.5347 -0.2786
   16MPD2    C4  247   3.763   2.695   0.932  0.0504 -0.1243  0.0265
   16MPD2    C5  248   3.638   2.732   0.946 -0.4869 -1.1507 -0.3106
   16MPD2     H  249   3.864   2.752   1.243  0.1749  0.9835 -0.1797
   16MPD2    H1  250   3.786   2.655   0.834 -0.8115 -0.7666  0.0894
   16MPD2    H2  251   3.486   2.820   1.064  0.1326 -0.8219 -0.6564
   16MPD2    H3  252   3.576   2.723   0.857  0.0964  0.9001 -0.9191
   16MPD2     N  253   3.986   2.676   1.020 -0.1661 -0.1835  0.3072
   16MPD2    H5  254   4.043   2.684   1.104  0.0035 -2.7752  0.4295
   16MPD2    N1  255   3.625   2.873   1.277 -0.2240  0.1892  0.6067
   16MPD2    H7  256   3.547   2.933   1.252 -0.5570 -0.3266  0.4204
   17TCq1    O1  257   1.712   2.726  10.272  0.6585  0.4755 -0.1234
   17TCq1    C1  258   1.769   2.776  10.386  0.4343 -0.9708  0.1385
   17TCq1    O2  259   1.705   2.796  10.490 -0.5459  1.0618  0.5324
   17TCq1    C2  260   1.902   2.802  10.357  0.1661 -0.7083 -0.9559
   17TCq1    C3  261   1.950   2.844  10.233  0.2052  0.5331 -0.6675
   17TCq1    C4  262   2.084   2.871  10.220 -0.0193 -0.3403 -0.1015
   17TCq1    C5  263   2.168   2.863  10.332 -0.2990  0.6512  0.2619
   17TCq1    C6  264   2.116   2.813  10.453 -0.3499 -0.0306  0.0786
   17TCq1    C7  265   1.981   2.786  10.467  0.8238  0.5277 -0.2041
   17TCq1    C8  266   2.208   2.764  10.555  0.6763 -0.0494 -0.2832
   17TCq1    O4  267   2.157   2.724  10.663  0.2278 -0.0506  0.3209
   17TCq1    C9  268   2.140   2.928  10.098  0.0084  0.0621 -0.0693
   17TCq1    O5  269   2.062   2.948  10.000  0.3698 -0.0291  0.2042
   17TCq1    O6  270   2.261   2.975  10.101  0.0163  0.3365  0.0463
   17TCq1    H1  271   1.777   2.696  10.205 -0.1510 -0.8161 -0.3321
   17TCq1    H2  272   1.890   2.860  10.144 -4.1349  2.0689  2.5012
   17TCq1    H3  273   2.270   2.898  10.319 -0.3329  0.2405 -1.1030
   17TCq1    H4  274   1.931   2.754  10.557 -1.3868  3.4077 -0.4421
   18MPD2     C  275   2.440   2.627  10.688 -0.6050 -0.1606  0.1660
   18MPD2    C1  276   2.450   2.723  10.587  1.0181  0.0931  0.1934
   18MPD2    C2  277   2.572   2.749  10.527 -0.1587  0.8933 -0.6824
   18MPD2    C3  278   2.684   2.686  10.575  0.1951 -0.1682 -0.1654
   18MPD2    C4  279   2.672   2.596  10.678 -0.9905 -0.1375 -0.1857
   18MPD2    C5  280   2.551   2.570  10.735  0.0777  0.0601 -0.3032
   18MPD2     H  281   2.574   2.808  10.436 -1.8179  0.4644 -1.0000
   18MPD2    H1  282   2.751   2.540  10.727  1.0591  2.9352  0.0299
   18MPD2    H2  283   2.343   2.609  10.731 -0.5472 -2.6719 -0.7098
   18MPD2    H3  284   2.551   2.495  10.814 -0.0606  1.0861  0.6641
   18MPD2     N  285   2.814   2.716  10.534 -0.9335 -0.7886 -0.5222
   18MPD2    H5  286   2.886   2.647  10.556 -1.4486 -0.6545  1.6059
   18MPD2    N1  287   2.342   2.786  10.523  0.4815 -0.0260 -0.1824
   18MPD2    H7  288   2.368   2.854  10.452  1.0011 -1.0238 -0.9422
   19TMC2    C1  289   3.085   3.478  13.913 -0.6408  0.9463 -0.3909
   19TMC2    C2  290   2.983   3.550  13.853  0.6133  0.2696  0.9828
   19TMC2    C3  291   2.851   3.510  13.853 -0.2725  0.5613 -0.1868
   19TMC2    C4  292   3.058   3.360  13.969 -0.0338  0.3185  0.9664
   19TMC2    C5  293   2.927   3.320  13.981 -0.6303  0.7143  0.4938
   19TMC2    C6  294   2.830   3.396  13.922 -0.1649 -0.0762 -0.2164
   19TMC2     C  295   3.216   3.485  13.857  0.1344  0.6212  0.2949
   19TMC2     O  296   3.228   3.547  13.757 -0.3527 -0.2137 -0.3776
   19TMC2     H  297   3.018   3.643  13.809 -0.5753 -0.0680 -0.6558
   19TMC2    H1  298   3.137   3.291  13.997 -0.6495 -0.1839  1.4857
   19TMC2    H2  299   2.730   3.358  13.904 -0.5469 -0.0249  1.8384
   19TMC2    C7  300   2.912   3.173  13.996 -1.3378 -0.0313 -0.2881
   19TMC2    C8  301   2.763   3.538  13.743 -0.4901 -0.2800 -0.1794
   19TMC2    O1  302   3.014   3.105  14.018  0.7189 -0.0881 -0.5576
   19TMC2    O2  303   2.690   3.452  13.698  0.0985 -0.2175  0.2037
   19TMC2    O5  304   2.825   3.637  13.669 -0.3284  0.1805 -0.7411
   19TMC2    H5  305   2.827   3.717  13.726  2.2702  1.2150 -2.2415
   20MPD2     C  306   3.507   3.525  13.815  0.1178  0.7290  0.6465
   20MPD2    C1  307   3.452   3.480  13.927 -0.4326 -0.9171  0.6210
   20MPD2    C2  308   3.536   3.449  14.028 -0.1294 -0.3535  0.3885
   20MPD2    C3  309   3.681   3.460  14.025  0.4586 -0.0286  0.0886
   20MPD2    C4  310   3.729   3.508  13.907 -0.7885 -0.2173  0.0321
   20MPD2    C5  311   3.643   3.545  13.806  0.0124 -0.0658 -0.7247
   20MPD2     H  312   3.483   3.402  14.110  1.4126  1.0685  2.1822
   20MPD2    H1  313   3.835   3.524  13.890 -1.2551  2.2456 -0.6283
   20MPD2    H2  314   3.455   3.548  13.723  1.2645  1.0670  0.0780
   20MPD2    H3  315   3.687   3.579  13.713  0.6290 -0.0410 -0.4255
   20MPD2     N  316   3.771   3.428  14.129 -0.0576  0.7930  0.2573
   20MPD2    H5  317   3.870   3.437  14.109  0.2907 -2.9915  0.2855
   20MPD2    N1  318   3.313   3.458  13.952  0.7791  0.4454 -0.3491
   20MPD2    H7  319   3.285   3.409  14.036  0.9160  1.9287  0.5603
   21MPD2     C  320   1.124   4.241  14.248  0.0212 -0.0450 -0.3701
   21MPD2    C1  321   1.152   4.135  14.334 -0.1023  0.7189 -0.5038
   21MPD2    C2  322   1.051   4.070  14.414  0.5861  0.6688  0.3940
   21MPD2    C3  323   0.924   4.107  14.386 -0.1369  0.0486  0.2379
   21MPD2    C4  324   0.894   4.207  14.296  0.2901 -0.5266  0.4383
   21MPD2    C5  325   0.996   4.273  14.228  0.3943 -0.8590  0.4191
   21MPD2     H  326   1.078   3.981  14.470 -0.9421  1.1494  1.9057
   21MPD2    H1  327   0.792   4.235  14.272  0.0898 -2.4272 -0.9690
   21MPD2    H2  328   1.195   4.292  14.183  1.5839 -0.3979  1.0405
   21MPD2    H3  329   0.970   4.355  14.161 -2.2099 -0.6491  1.6955
   21MPD2     N  330   0.812   4.042  14.450  0.1538  0.9564  0.5156
   21MPD2    H5  331   0.722   4.068  14.413 -0.3130  0.7886  1.5252
   21MPD2    N1  332   1.275   4.072  14.345 -0.0464 -0.5386 -0.2577
   21MPD2    H7  333   1.277   3.974  14.373  2.0405 -0.4665 -0.1615
   22TCq2    C1  334   0.827   3.957  14.556  0.1979  0.2617  0.2741
   22TCq2    O2  335   0.916   3.937  14.640 -0.4042 -0.1948  0.0690
   22TCq2    C2  336   0.710   3.888  14.590  0.6476  0.0246  0.3691
   22TCq2    C3  337   0.724   3.791  14.684 -0.7776 -0.4656  0.1615
   22TCq2    C4  338   0.629   3.694  14.690  0.4022  0.5912  0.0789
   22TCq2    C5  339   0.513   3.701  14.624 -0.1211 -0.5920  0.3332
   22TCq2    C6  340   0.499   3.803  14.539 -0.0078 -0.1450 -0.6922
   22TCq2    C7  341   0.597   3.894  14.513  0.5163 -0.3727 -0.7125
   22TCq2    C8  342   0.372   3.817  14.468  0.8555  0.8632  0.1220
   22TCq2    O4  343   0.295   3.724  14.467  0.0498  0.1932 -0.0933
   22TCq2    C9  344   0.643   3.596  14.795 -0.2299 -0.3361 -0.2390
   22TCq2    O5  345   0.756   3.579  14.847 -0.6657 -0.1706  0.2028
   22TCq2    O6  346   0.546   3.512  14.803 -0.1989 -0.2557 -0.3286
   22TCq2    H2  347   0.808   3.784  14.753 -0.4403 -2.7120 -0.4872
   22TCq2    H3  348   0.435   3.627  14.637  0.2882 -1.0950 -0.0768
   22TCq2    H4  349   0.584   3.976  14.444 -0.9260 -1.6697 -1.9882
   23MPD2     C  350   2.312   4.357  14.289 -0.6090 -0.1591 -1.1409
   23MPD2    C1  351   2.278   4.456  14.376 -0.1045  0.2042 -0.2681
   23MPD2    C2  352   2.197   4.552  14.327  0.2018 -0.4030  0.0562
   23MPD2    C3  353   2.127   4.527  14.204  0.2498 -0.0777  0.8476
   23MPD2    C4  354   2.154   4.420  14.127 -0.2476  0.0555  0.0478
   23MPD2    C5  355   2.253   4.336  14.165 -0.0848 -0.9186 -0.6857
   23MPD2     H  356   2.183   4.639  14.389 -0.7434 -0.4263 -0.1264
   23MPD2    H1  357   2.105   4.391  14.034 -0.6871 -2.2775  1.0161
   23MPD2    H2  358   2.377   4.274  14.316  1.4173  2.0171  0.6575
   23MPD2    H3  359   2.286   4.249  14.109 -0.9087 -2.3605  1.0637
   23MPD2     N  360   2.029   4.607  14.155  0.4644 -0.3178  0.1141
   23MPD2    H5  361   1.967   4.578  14.081  0.5171  1.5783 -0.6735
   23MPD2    N1  362   2.336   4.470  14.501 -0.1138 -0.0731  0.1063
   23MPD2    H7  363   2.328   4.561  14.545  1.3760  0.8626 -1.5441
   24TCq2    C1  364   2.007   0.012  14.189 -0.1190  0.4132 -0.3770
   24TCq2    O2  365   2.082   0.090  14.243  0.6956  0.1722  0.4129
   24TCq2    C2  366   1.890   0.061  14.123 -0.4831  0.2400 -0.7013
   24TCq2    C3  367   1.876   0.197  14.114 -0.2335  0.7186  0.4269
   24TCq2    C4  368   1.761   0.244  14.067 -0.0582  0.2384 -0.1676
   24TCq2    C5  369   1.649   0.167  14.036 -0.0851  0.3757 -0.1503
   24TCq2    C6  370   1.659   0.033  14.060  0.1635 -0.3488  0.4215
   24TCq2    C7  371   1.781   4.698  14.102 -0.0009 -0.2554  0.1818
   24TCq2    C8  372   1.534   4.689  14.101 -0.6607  0.3525  1.1053
   24TCq2    O4  373   1.546   4.568  14.114 -0.1475  0.2125 -0.2841
   24TCq2    C9  374   1.735   0.385  14.062  0.3614 -0.2118 -1.1645
   24TCq2    O5  375   1.840   0.457  14.049 -0.0673 -0.3011 -0.3944
   24TCq2    O6  376   1.625   0.420  14.020 -0.5909  0.6525 -0.7521
   24TCq2    H2  377   1.952   0.266  14.151 -1.3350  1.0628  2.0426
   24TCq2    H3  378   1.563   0.221  13.999  0.6005  0.6246 -1.3824
   24TCq2    H4  379   1.778   4.594  14.132  3.0294 -0.0134  1.3468
   25TMC2    C1  380   1.818   2.255  11.675 -0.8143  0.6686 -0.6848
   25TMC2    C2  381   1.939   2.300  11.725  0.6309  0.5233  0.4487
   25TMC2    C3  382   1.940   2.352  11.850 -0.1136 -0.0664  0.0458
   25TMC2    C4  383   1.707   2.243  11.751 -0.5946  0.9256 -0.0741
   25TMC2    C5  384   1.718   2.284  11.882  0.5158  0.1401 -0.2684
   25TMC2    C6  385   1.830   2.342  11.929  0.3047 -0.2714  0.9605
   25TMC2     C  386   1.806   2.236  11.528 -0.1284  0.1712  0.2242
   25TMC2     O  387   1.901   2.274  11.460 -0.6931  0.2218  0.1892
   25TMC2     H  388   2.023   2.291  11.658 -0.6030  0.2723 -1.0788
   25TMC2    H1  389   1.613   2.202  11.716  1.1760 -1.4324 -1.9696
   25TMC2    H2  390   1.829   2.372  12.033  0.7927 -3.6132  1.9501
   25TMC2    C7  391   1.598   2.293  11.963 -0.0938 -0.3373  0.5329
   25TMC2    C8  392   2.071   2.344  11.917  0.2869  0.1047  0.9482
   25TMC2    O1  393   1.515   2.203  11.950 -0.1179  0.1890  0.2798
   25TMC2    O2  394   2.156   2.262  11.886 -0.1443  0.0621 -0.1268
   25TMC2    O5  395   2.060   2.403  12.038 -0.2977 -0.1753 -0.2047
   25TMC2    H5  396   2.003   2.483  12.036 -0.3658 -0.2174  0.0207
   26MPD2     C  397   1.544   2.093  11.113  0.6519  0.2342 -0.4684
   26MPD2    C1  398   1.483   2.038  11.220 -0.1448 -0.2308 -0.1692
   26MPD2    C2  399   1.529   2.073  11.349  0.3396  0.0798 -0.1824
   26MPD2    C3  400   1.647   2.145  11.357 -0.2724 -0.2959 -0.1078
   26MPD2    C4  401   1.713   2.191  11.244  0.2218  0.3860 -0.9234
   26MPD2    C5  402   1.651   2.171  11.127  0.2857 -0.2014 -0.0704
   26MPD2     H  403   1.479   2.042  11.440 -1.0108  1.0012 -0.6158
   26MPD2    H1  404   1.800   2.256  11.251  0.7480 -0.5381  0.9708
   26MPD2    H2  405   1.497   2.082  11.016  0.7850 -1.7806 -0.3136
   26MPD2    H3  406   1.699   2.225  11.046  1.5250 -1.4748 -0.1714
   26MPD2     N  407   1.695   2.166  11.489 -0.6859  0.6725 -0.7629
   26MPD2    H5  408   1.642   2.126  11.566  2.9624 -2.2851  0.1924
   26MPD2    N1  409   1.370   1.953  11.204 -0.5346 -0.0801 -0.7044
   26MPD2    H7  410   1.340   1.927  11.111 -0.5001 -0.6360 -0.5584
   27TMC2    C1  411   0.623   4.215  12.135 -0.2425  0.2082 -0.1456
   27TMC2    C2  412   0.558   4.249  12.026  0.0065 -0.4384  0.2824
   27TMC2    C3  413   0.597   4.376  11.977 -0.0688  0.2204 -0.9581
   27TMC2    C4  414   0.721   4.289  12.194  0.0892 -0.2563  0.2151
   27TMC2    C5  415   0.743   4.416  12.152 -0.8060 -0.0508  0.3719
   27TMC2    C6  416   0.684   4.463  12.040  0.0399 -0.3921  0.6902
   27TMC2     C  417   0.571   4.117  12.226  0.3328  0.5663  0.3189
   27TMC2     O  418   0.651   4.051  12.293 -0.2146  0.1277 -0.6989
   27TMC2     H  419   0.471   4.195  11.993  0.6474 -1.9593  1.0759
   27TMC2    H1  420   0.779   4.253  12.279 -0.2340  1.4189  1.1445
   27TMC2    H2  421   0.714   4.559  11.999  2.0462 -1.2879  0.0588
   27TMC2    C7  422   0.747   4.517  12.256 -0.3696 -0.3057  0.6509
   27TMC2    C8  423   0.500   4.439  11.890 -0.3336 -0.2305  0.2326
   27TMC2    O1  424   0.760   4.471  12.371 -0.0574  0.2477 -0.4251
   27TMC2    O2  425   0.488   4.559  11.885  0.5581 -0.3036  0.3480
   27TMC2    O5  426   0.476   4.345  11.795 -0.2881  0.7566 -0.6851
   27TMC2    H5  427   0.498   4.251  11.812 -1.7418  0.2358 -1.7454
   28MPD2     C  428   0.198   3.919  12.510  0.4974  0.2696 -0.2200
   28MPD2    C1  429   0.156   4.033  12.459  0.0370 -0.0108  0.5469
   28MPD2    C2  430   0.233   4.104  12.377  0.1427 -0.0948 -0.4784
   28MPD2    C3  431   0.361   4.060  12.342 -1.3293 -0.8334  0.4353
   28MPD2    C4  432   0.401   3.931  12.390  0.2913 -0.6092 -0.3192
   28MPD2    C5  433   0.322   3.866  12.481  0.2251 -0.1807  1.1397
   28MPD2     H  434   0.211   4.205  12.347 -0.3204 -0.0573 -0.0022
   28MPD2    H1  435   0.495   3.891  12.353  0.5446 -1.5996  1.3835
   28MPD2    H2  436   0.139   3.852  12.572  1.5432  0.2574  0.7823
   28MPD2    H3  437   0.348   3.772  12.528  1.3778 -0.0950  0.6612
   28MPD2     N  438   0.439   4.129  12.245  0.4346  0.6970 -0.3145
   28MPD2    H5  439   0.391   4.195  12.183  0.2353  1.0551  0.2203
   28MPD2    N1  440   0.033   4.082  12.504  0.1714 -0.1747  0.1200
   28MPD2    H7  441   4.698   4.026  12.567  0.2744 -1.3911 -0.8665
   29MPD2     C  442   4.349   2.067  14.866  0.0856 -0.2461  0.2297
   29MPD2    C1  443   4.432   2.020  14.774 -0.9287  0.5456  0.2573
   29MPD2    C2  444   4.485   2.098  14.673 -0.6194 -1.1667 -0.9819
   29MPD2    C3  445   4.437   2.228  14.654  0.9669  0.7496 -0.1489
   29MPD2    C4  446   4.339   2.274  14.741 -0.4436 -0.2826  0.0719
   29MPD2    C5  447   4.296   2.195  14.845  1.2214 -0.3089  0.3292
   29MPD2     H  448   4.555   2.059  14.601  2.2676 -0.0700  1.2213
   29MPD2    H1  449   4.303   2.376  14.731  0.7888  0.2472  1.0584
   29MPD2    H2  450   4.305   2.014  14.950  0.8744 -1.6115 -0.2341
   29MPD2    H3  451   4.219   2.226  14.915 -0.0511 -2.2842 -0.1825
   29MPD2     N  452   4.491   2.322  14.559  0.3727  0.2209 -0.3415
   29MPD2    H5  453   4.441   2.410  14.551 -0.1196  0.2398  2.7568
   29MPD2    N1  454   4.470   1.885  14.764  0.0556  0.4546  0.3032
   29MPD2    H7  455   4.533   1.871  14.686  1.4722  2.1577  1.1222
   30TCq2    C1  456   4.600   2.305  14.481 -0.6900 -0.9832 -0.4139
   30TCq2    O2  457   4.667   2.206  14.459  0.2164 -0.1643  0.8183
   30TCq2    C2  458   4.641   2.441  14.433 -0.9189 -0.1935  0.0462
   30TCq2    C3  459   4.622   2.552  14.514 -0.0077  0.2893 -0.0270
   30TCq2    C4  460   4.706   2.660  14.502 -0.8119  0.5281 -1.1166
   30TCq2    C5  461   0.073   2.660  14.398  1.2517 -0.8210 -0.4288
   30TCq2    C6  462   0.088   2.549  14.323 -0.2409 -0.5848  1.0903
   30TCq2    C7  463   0.003   2.438  14.326  0.3631  0.4860 -0.2870
   30TCq2    C8  464   0.195   2.539  14.227  0.0670  0.5795 -0.6236
   30TCq2    O4  465   0.186   2.463  14.132  0.3520 -0.2146 -0.0288
   30TCq2    C9  466   4.685   2.783  14.580  0.3024 -0.5810  0.6262
   30TCq2    O5  467   4.584   2.777  14.653 -0.3732 -0.7121  0.3525
   30TCq2    O6  468   0.060   2.854  14.614 -0.6110  0.1189 -0.0954
   30TCq2    H2  469   4.556   2.555  14.600 -0.3030  0.4727 -0.2577
   30TCq2    H3  470   0.127   2.752  14.380  0.0922 -0.3624 -1.5849
   30TCq2    H4  471   0.030   2.352  14.265  2.7339  0.0091  1.4597
   31MPD2     C  472   2.498   0.958  14.448 -0.5771  0.8400  0.2549
   31MPD2    C1  473   2.370   0.943  14.397 -0.2117  0.1343 -0.4395
   31MPD2    C2  474   2.271   0.876  14.468  0.4054 -0.3231 -0.1670
   31MPD2    C3  475   2.292   0.833  14.598  0.0367 -0.4877  0.6179
   31MPD2    C4  476   2.419   0.846  14.645  0.2655  0.1669  0.0755
   31MPD2    C5  477   2.521   0.905  14.574 -0.0308  0.2867 -0.4539
   31MPD2     H  478   2.172   0.867  14.424  1.2662 -0.8410 -1.9968
   31MPD2    H1  479   2.436   0.794  14.738  0.3771 -0.0550 -0.0705
   31MPD2    H2  480   2.572   1.006  14.385  0.8356 -2.3270 -0.4943
   31MPD2    H3  481   2.619   0.908  14.621 -0.1648  0.3139 -0.1777
   31MPD2     N  482   2.189   0.777  14.679 -0.3151 -0.1317 -0.0920
   31MPD2    H5  483   2.214   0.741  14.770 -1.8548  0.4277  0.5659
   31MPD2    N1  484   2.346   1.001  14.268 -0.7496  0.3073 -0.5302
   31MPD2    H7  485   2.431   1.047  14.237 -1.1284 -0.3891 -2.6220
   32TCq2    C1  486   2.057   0.764  14.645 -0.2389 -0.1225 -0.0014
   32TCq2    O2  487   1.999   0.813  14.546  0.2505  0.0798  0.1709
   32TCq2    C2  488   1.974   0.689  14.740 -0.0379  0.4036  0.9518
   32TCq2    C3  489   1.836   0.717  14.725 -0.4305  0.2443 -0.4107
   32TCq2    C4  490   1.747   0.724  14.832  0.5998 -0.7330 -0.0012
   32TCq2    C5  491   1.799   0.697  14.957  0.9727 -0.3846  0.1426
   32TCq2    C6  492   1.932   0.680  14.974 -0.6917 -0.2477 -0.2766
   32TCq2    C7  493   2.023   0.672  14.868  0.6179  0.5844 -0.2115
   32TCq2    C8  494   1.991   0.684  15.107 -0.3730 -0.3260  0.0321
   32TCq2    O4  495   2.102   0.637  15.114 -0.1249  0.3954 -0.5634
   32TCq2    C9  496   1.609   0.762  14.815  0.4213  0.4701  0.4434
   32TCq2    O5  497   1.536   0.751  14.919  0.3429 -0.1374  0.0218
   32TCq2    O6  498   1.564   0.791  14.702  0.3358 -0.1669 -0.1767
   32TCq2    H2  499   1.797   0.741  14.626 -0.3428 -2.2529 -1.0428
   32TCq2    H3  500   1.729   0.697  15.041  1.3147  0.0414  0.4285
   32TCq2    H4  501   2.127   0.653  14.889  0.3664 -0.1764  0.3516
   33MPD2     C  502   3.249   3.373  10.159 -0.8429 -0.8720 -0.1351
   33MPD2    C1  503   3.128   3.335  10.205  1.3683  0.3403  0.4659
   33MPD2    C2  504   3.021   3.426  10.179  0.0500  0.3888 -0.3191
   33MPD2    C3  505   3.042   3.541  10.105  0.5428 -0.5967  0.3345
   33MPD2    C4  506   3.168   3.574  10.056 -0.0085  0.0477  0.1482
   33MPD2    C5  507   3.270   3.485  10.078  0.3716  0.5034  0.0115
   33MPD2     H  508   2.924   3.383  10.199 -0.0460  0.7322 -0.0545
   33MPD2    H1  509   3.182   3.655   9.986  1.8226 -0.0876  0.3534
   33MPD2    H2  510   3.335   3.311  10.182 -0.4135  0.6291  2.3376
   33MPD2    H3  511   3.361   3.499  10.022 -0.2825 -1.4519 -1.5458
   33MPD2     N  512   2.931   3.627  10.063 -0.3669  0.5281  0.4250
   33MPD2    H5  513   2.955   3.721  10.032  1.9579 -0.3407 -0.4589
   33MPD2    N1  514   3.098   3.216  10.281 -0.1902  0.0305  0.1303
   33MPD2    H7  515   3.001   3.185  10.288 -0.3366  0.3012 -0.6990
   34TCq2    C1  516   2.794   3.610  10.082  0.9512 -0.4109 -0.2104
   34TCq2    O2  517   2.746   3.502  10.092  0.6434 -0.1405 -0.0885
   34TCq2    C2  518   2.705   3.722  10.062 -0.0756  0.0346  0.0474
   34TCq2    C3  519   2.575   3.683  10.085  0.1271  0.2642  0.0295
   34TCq2    C4  520   2.495   3.764  10.158  0.2265  1.2249 -0.1150
   34TCq2    C5  521   2.548   3.879  10.212  0.2855 -0.4526 -0.5442
   34TCq2    C6  522   2.672   3.920  10.180 -0.1781  0.2654  0.0661
   34TCq2    C7  523   2.757   3.837  10.109  0.1499  0.2702  0.2935
   34TCq2    C8  524   2.725   4.043  10.233  0.3902  0.5671 -0.4145
   34TCq2    O4  525   2.832   4.072  10.176 -0.0039 -0.0011  0.9362
   34TCq2    C9  526   2.362   3.731  10.182 -1.0984 -0.1872 -0.4685
   34TCq2    O5  527   2.280   3.817  10.214 -0.1736  0.1895  0.4048
   34TCq2    O6  528   2.329   3.608  10.151 -0.1478 -0.7546  0.3521
   34TCq2    H2  529   2.535   3.594  10.037  1.5030  0.2204 -1.0425
   34TCq2    H3  530   2.492   3.935  10.286 -1.0509 -0.5593 -1.4637
   34TCq2    H4  531   2.860   3.865  10.091 -0.0101 -0.6481 -1.9663
   35MPD2     C  532   4.511   0.314  12.055 -0.9311  0.3629 -0.9157
   35MPD2    C1  533   4.514   0.180  12.094  0.1321  0.5093  0.0071
   35MPD2    C2  534   4.445   0.096  11.999  0.5935  0.2980 -0.1062
   35MPD2    C3  535   4.376   0.138  11.893 -0.5290  0.9180  0.0171
   35MPD2    C4  536   4.376   0.271  11.856  0.2593  0.1270 -0.3904
   35MPD2    C5  537   4.444   0.356  11.940 -0.1181  0.8135 -0.3580
   35MPD2     H  538   4.431   4.714  12.022  0.4854  0.3751  0.1721
   35MPD2    H1  539   4.317   0.314  11.776 -0.6162  1.9118  1.2102
   35MPD2    H2  540   4.555   0.400  12.104 -3.1131  0.3617  1.0484
   35MPD2    H3  541   4.422   0.461  11.925 -0.2852  0.7700 -0.4204
   35MPD2     N  542   4.295   0.045  11.824 -0.7502  0.1248  0.3413
   35MPD2    H5  543   4.323   4.670  11.830  0.3549  0.4171  0.0120
   35MPD2    N1  544   4.565   0.144  12.219 -0.1332 -0.3231 -0.0348
   35MPD2    H7  545   4.632   0.214  12.249  0.5602 -0.5638 -1.0008
   36TCq2    C1  546   4.202   0.069  11.725  0.1123 -0.3314  0.3210
   36TCq2    O2  547   4.164   0.175  11.679  0.2138 -0.1898  0.0360
   36TCq2    C2  548   4.142   4.671  11.673  0.2305  0.4785  0.2883
   36TCq2    C3  549   4.049   4.693  11.572 -0.5452  0.1037 -0.4254
   36TCq2    C4  550   3.947   4.602  11.557 -0.4419 -0.0492  0.4447
   36TCq2    C5  551   3.941   4.489  11.635 -0.5102 -0.2002 -0.2590
   36TCq2    C6  552   4.028   4.475  11.737  0.3977 -0.5537  0.9530
   36TCq2    C7  553   4.138   4.555  11.753  0.0602 -0.9864  0.2687
   36TCq2    C8  554   4.030   4.349  11.809  0.4762 -0.3289  0.3498
   36TCq2    O4  555   3.927   4.285  11.833 -0.2308  0.2242 -0.0416
   36TCq2    C9  556   3.836   4.639  11.478 -0.0692 -0.3418 -0.2787
   36TCq2    O5  557   3.753   4.552  11.450 -0.1460  0.2769 -0.3800
   36TCq2    O6  558   3.803   0.042  11.490  0.3064 -0.8402  0.0529
   36TCq2    H2  559   4.046   0.063  11.516 -0.1762  0.5787  0.3378
   36TCq2    H3  560   3.861   4.416  11.626 -0.0338 -1.0423  2.1606
   36TCq2    H4  561   4.195   4.534  11.843  2.0521  1.7375 -0.3510
   37TMC2    C1  562   1.374   0.066  11.940  0.0180  0.2367  0.6105
   37TMC2    C2  563   1.376   0.080  11.809 -1.0012  0.5981  0.1418
   37TMC2    C3  564   1.495   0.043  11.741 -0.1870  0.1138  0.1785
   37TMC2    C4  565   1.491   0.027  12.011  0.4838  0.2550 -0.7536
   37TMC2    C5  566   1.610   0.007  11.943 -1.1348 -0.1376 -0.3638
   37TMC2    C6  567   1.617   0.022  11.808 -0.7117 -0.0774  0.1083
   37TMC2     C  568   1.241   0.100  12.004  0.3855 -0.1410 -0.0069
   37TMC2     O  569   1.146   0.114  11.930  0.5164  0.2309 -0.1418
   37TMC2     H  570   1.286   0.086  11.748 -0.6472 -1.7094 -0.5991
   37TMC2    H1  571   1.490   0.021  12.119  0.6942  3.2170 -0.5809
   37TMC2    H2  572   1.703   4.706  11.755  0.4993  1.7256  0.7554
   37TMC2    C7  573   1.734   0.009  12.024  0.1861  0.4349 -0.6936
   37TMC2    C8  574   1.473   0.034  11.598 -0.6293 -0.6851 -0.7127
   37TMC2    O1  575   1.711   0.002  12.144 -0.3208  0.5377 -0.1494
   37TMC2    O2  576   1.388   0.107  11.550  0.5408  0.3169 -0.1625
   37TMC2    O5  577   1.598   0.024  11.552 -0.2293  0.3285  0.2858
   37TMC2    H5  578   1.648   4.669  11.587 -2.5734 -1.6131 -0.6705
   38MPD2     C  579   0.940   0.086  12.406 -0.3884  0.2494 -0.6058
   38MPD2    C1  580   1.069   0.074  12.453 -0.6250  0.2388  0.3031
   38MPD2    C2  581   1.177   0.080  12.364  0.0434 -0.4159 -0.0821
   38MPD2    C3  582   1.152   0.102  12.229 -0.2235  0.4112  0.0189
   38MPD2    C4  583   1.026   0.130  12.190  0.5723  0.0872  0.2855
   38MPD2    C5  584   0.917   0.121  12.277 -0.1190 -0.1793  0.2423
   38MPD2     H  585   1.271   0.045  12.404 -0.1596 -0.0249  0.7253
   38MPD2    H1  586   0.995   0.157  12.089  1.1947 -0.4781 -0.0575
   38MPD2    H2  587   0.853   0.070  12.467  0.4949 -1.8350  0.0801
   38MPD2    H3  588   0.813   0.115  12.246 -0.0165  2.6653 -0.6186
   38MPD2     N  589   1.251   0.096  12.138  0.0148  0.6264 -0.1381
   38MPD2    H5  590   1.344   0.093  12.180  0.1429  0.9964 -0.3972
   38MPD2    N1  591   1.099   0.038  12.584  0.5985 -0.4647  0.0736
   38MPD2    H7  592   1.194   0.035  12.620  1.2272 -1.6518 -1.6884
   39MPD2     C  593   0.204   2.391   1.003  0.2427 -0.7053  0.2780
   39MPD2    C1  594   0.119   2.440   1.103  0.1755 -0.5275 -0.2694
   39MPD2    C2  595   4.708   2.404   1.105 -0.0811 -0.9615 -0.5861
   39MPD2    C3  596   4.662   2.315   1.009  0.2587 -0.1702  0.1001
   39MPD2    C4  597   0.023   2.277   0.909  0.1513 -0.8200 -0.0407
   39MPD2    C5  598   0.157   2.307   0.906 -0.0888 -0.2460  0.0423
   39MPD2     H  599   4.636   2.448   1.173  1.2385  1.3268 -0.6546
   39MPD2    H1  600   4.709   2.213   0.830  0.5309 -2.1895  0.9043
   39MPD2    H2  601   0.308   2.421   1.001 -0.5184  1.7768 -1.5337
   39MPD2    H3  602   0.224   2.265   0.832 -1.1855 -0.5287 -0.7936
   39MPD2     N  603   4.528   2.274   1.005 -0.0651  0.1013  0.1509
   39MPD2    H5  604   4.501   2.200   0.941 -1.2541  0.8156 -0.1648
   39MPD2    N1  605   0.172   2.547   1.182  0.5962  0.2490 -0.4375
   39MPD2    H7  606   0.271   2.564   1.167  1.2367 -0.3176  3.2324
   40TCq2    C1  607   0.104   2.604   1.287  0.3418  0.3367  0.9402
   40TCq2    O2  608   4.716   2.579   1.334 -0.2556 -0.2540  0.0986
   40TCq2    C2  609   0.187   2.713   1.343 -0.7660  0.9410 -0.1703
   40TCq2    C3  610   0.139   2.761   1.453  0.4420 -0.5497 -0.6062
   40TCq2    C4  611   0.217   2.838   1.534 -0.5137 -0.2710  0.3210
   40TCq2    C5  612   0.341   2.877   1.501  0.8219 -0.1815  0.1965
   40TCq2    C6  613   0.385   2.834   1.383  0.5169 -0.3279 -0.0728
   40TCq2    C7  614   0.314   2.748   1.296  0.2097  0.0328  0.0866
   40TCq2    C8  615   0.519   2.884   1.333 -0.2450 -0.4511  0.2454
   40TCq2    O4  616   0.573   2.811   1.249  0.1298  0.2006  0.6061
   40TCq2    C9  617   0.158   2.891   1.652 -0.2292  0.0628 -0.3589
   40TCq2    O5  618   0.027   2.902   1.655  0.0302 -0.1615 -0.1091
   40TCq2    O6  619   0.239   2.954   1.726 -0.0609  0.0482  0.2043
   40TCq2    H2  620   0.031   2.762   1.467  0.7756  0.2442  1.9809
   40TCq2    H3  621   0.396   2.943   1.567 -0.3810  0.1898  0.8102
   40TCq2    H4  622   0.361   2.714   1.204  1.4759 -0.9928  1.1118
   41TMC2    C1  623   3.321   0.015  13.543  0.5648  0.6484 -0.0278
   41TMC2    C2  624   3.393   0.129  13.539 -0.0164 -0.0784  0.2792
   41TMC2    C3  625   3.422   0.188  13.416  0.0591 -0.0924  0.1377
   41TMC2    C4  626   3.264   4.684  13.429  0.1735 -0.6649  0.6723
   41TMC2    C5  627   3.296   0.019  13.312  0.2815 -0.1530  0.2550
   41TMC2    C6  628   3.376   0.129  13.296 -0.1430  0.8440 -0.1682
   41TMC2     C  629   3.313   4.662  13.662  0.1105  0.2337 -0.0366
   41TMC2     O  630   3.265   4.548  13.656 -0.3479 -0.3643 -0.0299
   41TMC2     H  631   3.432   0.188  13.621 -0.2513  0.3466  0.0830
   41TMC2    H1  632   3.198   4.599  13.439 -2.5556  1.3045 -0.6383
   41TMC2    H2  633   3.396   0.163  13.195 -2.3143  0.7209 -0.6565
   41TMC2    C7  634   3.250   4.664  13.200 -0.2490  0.1476 -0.2313
   41TMC2    C8  635   3.544   0.273  13.410 -0.1610  0.2948 -0.0825
   41TMC2    O1  636   3.168   4.576  13.221 -0.1406  0.0016 -0.3748
   41TMC2    O2  637   3.613   0.275  13.511  0.7786 -0.3666 -0.5204
   41TMC2    O5  638   3.584   0.260  13.282 -0.2128  0.1068  0.0980
   41TMC2    H5  639   3.509   0.281  13.223 -0.3798 -1.5268 -0.2676
   42MPD2     C  640   3.378   4.517  13.905 -0.0031  1.1590  0.2218
   42MPD2    C1  641   3.395   4.657  13.896 -0.3518 -0.2053 -0.0746
   42MPD2    C2  642   3.450   0.010  14.000  0.1476 -0.5318 -0.1504
   42MPD2    C3  643   3.485   4.668  14.118 -0.0429  0.8752  0.7304
   42MPD2    C4  644   3.479   4.536  14.127  0.0039 -0.1488 -0.3722
   42MPD2    C5  645   3.426   4.457  14.021  0.0248 -0.3252 -0.0340
   42MPD2     H  646   3.461   0.114  13.974 -1.5858 -0.1167  0.7396
   42MPD2    H1  647   3.517   4.482  14.213 -0.4487 -1.4959 -1.0058
   42MPD2    H2  648   3.339   4.451  13.828  1.7961 -0.1881  0.4619
   42MPD2    H3  649   3.418   4.353  14.051  2.7546 -0.4326  0.3947
   42MPD2     N  650   3.549   0.009  14.230 -0.2994  0.0371 -0.0373
   42MPD2    H5  651   3.566   4.673  14.311  0.1169  1.1345  0.6827
   42MPD2    N1  652   3.378   0.002  13.769  0.8695 -0.2376 -0.0722
   42MPD2    H7  653   3.423   0.092  13.756  0.0094  0.2962  0.6209
   43MPD2     C  654   0.267   3.933   0.198 -0.6738 -0.5255 -0.0697
   43MPD2    C1  655   0.318   3.900   0.323  0.2503 -0.1082 -0.6335
   43MPD2    C2  656   0.244   3.914   0.435 -0.3546  0.0747 -0.3976
   43MPD2    C3  657   0.114   3.965   0.431 -0.2170 -0.5866 -0.7732
   43MPD2    C4  658   0.065   3.999   0.306 -0.1332 -0.5837 -0.1114
   43MPD2    C5  659   0.144   3.995   0.197 -0.0110 -0.5887 -0.3051
   43MPD2     H  660   0.296   3.904   0.529  0.5477 -1.6503 -1.0788
   43MPD2    H1  661   4.685   4.030   0.295 -0.5633 -1.3793  1.7130
   43MPD2    H2  662   0.314   3.924   0.100 -0.1520  1.4509  0.0139
   43MPD2    H3  663   0.100   4.007   0.099 -0.7483 -2.5525 -0.2050
   43MPD2     N  664   0.034   3.989   0.543 -0.2952 -0.7605 -0.4019
   43MPD2    H5  665   4.669   4.039   0.533  0.1400  0.1610  0.4642
   43MPD2    N1  666   0.447   3.844   0.333 -0.6302  0.6770 -0.0091
   43MPD2    H7  667   0.475   3.804   0.422  1.1439  0.8665 -0.4756
   44TCq2    C1  668   4.715   4.183   1.089  0.3683  0.0663 -0.0853
   44TCq2    O2  669   0.110   4.171   1.104 -0.4574 -0.2330  0.3036
   44TCq2    C2  670   4.660   4.146   0.962 -0.3340 -0.2965  0.0959
   44TCq2    C3  671   4.541   4.191   0.923 -0.3083 -0.5041 -0.4279
   44TCq2    C4  672   4.505   4.167   0.800  0.5404  0.5555 -0.3777
   44TCq2    C5  673   4.577   4.088   0.717  0.0466  0.6369 -0.8007
   44TCq2    C6  674   4.694   4.029   0.762 -0.8604 -0.3074  0.3110
   44TCq2    C7  675   0.014   4.063   0.886  0.1355 -0.1007 -0.5438
   44TCq2    C8  676   0.060   3.956   0.673  0.3286  0.1897  0.2475
   44TCq2    O4  677   0.134   3.875   0.725  0.2441 -0.1562  0.0306
   44TCq2    C9  678   4.381   4.224   0.757  0.1225 -0.6579  0.4622
   44TCq2    O5  679   4.310   4.275   0.849 -0.1133  0.1020  0.2228
   44TCq2    O6  680   4.346   4.207   0.634  0.0682  0.1763  0.1501
   44TCq2    H2  681   4.477   4.240   0.996  1.6069  1.7890 -0.2794
   44TCq2    H3  682   4.528   4.058   0.625 -4.3356  0.8870  1.4431
   44TCq2    H4  683   0.103   4.017   0.926  0.8664  1.8936  0.1332
   45TMC2    C1  684   0.666   0.346   9.612  0.0513  0.3069 -0.2899
   45TMC2    C2  685   0.804   0.330   9.616  0.1697  0.1771 -0.1181
   45TMC2    C3  686   0.879   0.441   9.652  0.5129  0.2240  0.2829
   45TMC2    C4  687   0.602   0.456   9.655  0.0280  0.1427  0.1455
   45TMC2    C5  688   0.680   0.563   9.691  0.2148 -0.2482 -0.4199
   45TMC2    C6  689   0.818   0.561   9.678 -0.0193 -0.0514 -0.6209
   45TMC2     C  690   0.587   0.239   9.540 -0.1053 -0.4083  0.2959
   45TMC2     O  691   0.662   0.147   9.501  0.1665 -0.6223  0.6458
   45TMC2     H  692   0.856   0.238   9.591  1.8280  0.8737  0.7245
   45TMC2    H1  693   0.494   0.463   9.661  0.3220  0.7557  4.5476
   45TMC2    H2  694   0.885   0.640   9.707  0.4901 -0.3325 -1.0391
   45TMC2    C7  695   0.605   0.688   9.720 -0.7073 -0.3750 -0.2861
   45TMC2    C8  696   1.026   0.425   9.652  0.6343  0.0060 -1.0456
   45TMC2    O1  697   0.483   0.667   9.722 -0.0661 -0.0348  0.3523
   45TMC2    O2  698   1.078   0.320   9.667  0.4231  0.3437  0.0438
   45TMC2    O5  699   1.089   0.538   9.634 -0.1055  0.2329  0.3081
   45TMC2    H5  700   1.037   0.608   9.588  1.1333  1.8342  1.3609
   46MPD2     C  701   0.410   0.056   9.397 -0.5281  0.3106 -0.1018
   46MPD2    C1  702   0.359   0.160   9.474 -0.7638  0.0199  0.1474
   46MPD2    C2  703   0.228   0.180   9.493 -0.4031  0.8016  0.7060
   46MPD2    C3  704   0.139   0.088   9.425 -0.7216  0.0261  0.9042
   46MPD2    C4  705   0.187   4.712   9.337 -0.1485 -0.2797 -0.0266
   46MPD2    C5  706   0.326   4.692   9.343  0.7053  0.2580  0.5642
   46MPD2     H  707   0.201   0.242   9.577 -0.2843  2.3891 -0.4264
   46MPD2    H1  708   0.134   4.642   9.273  0.3334 -0.3128 -0.3862
   46MPD2    H2  709   0.512   0.026   9.375 -0.0174  1.6568  0.4355
   46MPD2    H3  710   0.367   4.614   9.279  4.2486  2.4675  0.1476
   46MPD2     N  711   4.722   0.115   9.436  0.2117  0.0914 -0.3838
   46MPD2    H5  712   4.701   0.194   9.496  0.9859  1.0916 -1.4263
   46MPD2    N1  713   0.448   0.256   9.536 -0.1644  0.0600 -0.2960
   46MPD2    H7  714   0.406   0.346   9.556  1.4489  0.6456  0.4429
   47TMC2    C1  715   3.414   1.123   9.363  0.4363 -0.0211  0.2539
   47TMC2    C2  716   3.445   1.080   9.239  0.2790  0.2033 -0.4901
   47TMC2    C3  717   3.353   1.122   9.151  0.5083  0.6811  0.2149
   47TMC2    C4  718   3.315   1.208   9.398  0.0365  0.2110  0.5210
   47TMC2    C5  719   3.225   1.242   9.301 -0.0934 -0.0687  0.5707
   47TMC2    C6  720   3.246   1.199   9.174 -0.3435 -0.2202 -0.3046
   47TMC2     C  721   3.504   1.081   9.469  0.1496  0.9990  0.0305
   47TMC2     O  722   3.535   1.171   9.547  0.6782 -0.8480 -0.5442
   47TMC2     H  723   3.521   1.003   9.229  0.2911  0.1894 -0.2900
   47TMC2    H1  724   3.308   1.240   9.501  0.4915  0.8543  0.3577
   47TMC2    H2  725   3.197   1.243   9.088 -0.0443  0.2323 -0.2442
   47TMC2    C7  726   3.123   1.349   9.315 -0.0357  0.6322  0.5634
   47TMC2    C8  727   3.376   1.096   9.008 -0.3552  0.1930  0.1036
   47TMC2    O1  728   3.038   1.353   9.230  0.3920 -0.4237  0.4539
   47TMC2    O2  729   3.491   1.088   8.966  0.7138  0.4237 -0.3079
   47TMC2    O5  730   3.264   1.031   8.963  0.4323 -0.2828 -0.2168
   47TMC2    H5  731   3.186   1.025   9.022  1.2004 -1.7820  0.6591
   48MPD2     C  732   3.723   0.972   9.624  0.0749 -0.0914  0.2121
   48MPD2    C1  733   3.656   0.897   9.532 -0.5585  0.5606  0.0021
   48MPD2    C2  734   3.691   0.768   9.516  0.1459  0.1443  0.6052
   48MPD2    C3  735   3.780   0.696   9.593 -0.1223 -0.3283 -0.4797
   48MPD2    C4  736   3.844   0.776   9.690  0.3066 -0.7702  0.4699
   48MPD2    C5  737   3.816   0.911   9.699  0.0195 -0.4710  0.2304
   48MPD2     H  738   3.644   0.708   9.438  0.4914  1.5134 -0.6415
   48MPD2    H1  739   3.911   0.743   9.767  1.7347  0.8739 -0.0745
   48MPD2    H2  740   3.722   1.080   9.626  2.0393 -0.0899  1.1407
   48MPD2    H3  741   3.882   0.971   9.760  0.5328 -0.7762 -0.0239
   48MPD2     N  742   3.804   0.558   9.570  0.7765  0.4724  0.5274
   48MPD2    H5  743   3.749   0.515   9.497  0.8250 -0.0578  0.8039
   48MPD2    N1  744   3.551   0.950   9.455  0.0069 -0.0861  0.3386
   48MPD2    H7  745   3.503   0.886   9.393  0.4056 -0.8412  0.8105
   49MPD2     C  746   1.315   2.703   9.759 -0.5864  0.5076  0.7526
   49MPD2    C1  747   1.243   2.705   9.880 -0.1054  0.4840  0.5459
   49MPD2    C2  748   1.285   2.781   9.985 -0.0887  0.5016 -0.1446
   49MPD2    C3  749   1.399   2.859   9.976  0.5936 -0.2075  0.2102
   49MPD2    C4  750   1.465   2.857   9.852  0.0382  0.0869  0.4171
   49MPD2    C5  751   1.428   2.775   9.750  0.1950 -0.0235 -0.4264
   49MPD2     H  752   1.224   2.776  10.075 -1.3489 -0.8212 -1.0674
   49MPD2    H1  753   1.555   2.915   9.836  0.1024 -1.1535 -3.4979
   49MPD2    H2  754   1.300   2.638   9.673 -0.6615 -1.2732  2.1114
   49MPD2    H3  755   1.498   2.774   9.668  1.9708  1.4582  1.0666
   49MPD2     N  756   1.461   2.919  10.087  0.4711 -0.3665  0.3423
   49MPD2    H5  757   1.543   2.977  10.072 -1.2492  1.4897 -2.0850
   49MPD2    N1  758   1.131   2.617   9.898 -0.0285 -0.2444 -0.2836
   49MPD2    H7  759   1.101   2.620   9.995 -1.7507 -1.0590 -0.7968
   50TCq2    C1  760   1.088   2.524   9.801 -0.3747 -0.8860 -0.1571
   50TCq2    O2  761   1.092   2.530   9.679  0.5708  0.6130  0.0707
   50TCq2    C2  762   0.969   2.457   9.852 -0.0677 -0.3305  0.2310
   50TCq2    C3  763   0.888   2.411   9.755  0.9157 -0.3545  0.2157
   50TCq2    C4  764   0.798   2.310   9.790  1.0603  0.2406  0.2382
   50TCq2    C5  765   0.788   2.268   9.917 -0.2308 -0.0778  0.4043
   50TCq2    C6  766   0.869   2.323  10.014 -0.5128  0.2359 -0.0665
   50TCq2    C7  767   0.967   2.413   9.983  0.1716 -0.0692 -0.0046
   50TCq2    C8  768   0.842   2.287  10.153  0.2664 -0.0776 -0.1546
   50TCq2    O4  769   0.776   2.187  10.168 -0.2707  0.4154 -0.1302
   50TCq2    C9  770   0.695   2.279   9.683 -0.0359 -1.1850  0.3091
   50TCq2    O5  771   0.606   2.197   9.717 -0.6029 -0.5158  0.5303
   50TCq2    O6  772   0.689   2.353   9.582 -0.2019  0.0718 -0.4033
   50TCq2    H2  773   0.881   2.457   9.657 -2.9129 -0.8329  0.2896
   50TCq2    H3  774   0.703   2.206   9.943  1.1566 -2.0742  0.1208
   50TCq2    H4  775   1.054   2.422  10.047 -0.3905 -0.2658  0.7842
   51MPD2     C  776   1.448   2.218   0.894  0.1044  0.5704 -0.0296
   51MPD2    C1  777   1.448   2.084   0.935 -0.6661  0.2513  0.6278
   51MPD2    C2  778   1.467   2.062   1.072  0.4455 -0.3084 -0.1912
   51MPD2    C3  779   1.486   2.156   1.169 -1.6640 -0.1483 -0.4692
   51MPD2    C4  780   1.508   2.282   1.122 -0.6446  0.2008 -0.0259
   51MPD2    C5  781   1.482   2.312   0.990  0.0408 -0.7748 -0.2568
   51MPD2     H  782   1.476   1.956   1.095 -1.8606 -0.4513  0.0792
   51MPD2    H1  783   1.531   2.370   1.181 -2.2346 -0.1153  1.0748
   51MPD2    H2  784   1.450   2.244   0.789 -0.3779  0.3199 -0.1020
   51MPD2    H3  785   1.497   2.417   0.967 -2.4603  0.0495  1.9945
   51MPD2     N  786   1.499   2.130   1.308  0.0589  0.3976 -0.5364
   51MPD2    H5  787   1.509   2.210   1.371  0.2831 -0.9624  1.1385
   51MPD2    N1  788   1.433   1.977   0.846 -0.5940 -0.0938  0.3335
   51MPD2    H7  789   1.449   1.885   0.885 -4.9231 -0.9716 -0.0358
   52TCq2    C1  790   1.508   2.009   1.362 -0.0556  0.6231 -0.1938
   52TCq2    O2  791   1.503   1.901   1.303  0.2892  0.4034 -0.5554
   52TCq2    C2  792   1.556   2.011   1.499 -0.5462  0.0921  0.1488
   52TCq2    C3  793   1.532   2.119   1.578 -0.2635  0.6035 -0.0209
   52TCq2    C4  794   1.599   2.131   1.697  0.5448  0.0060 -0.3096
   52TCq2    C5  795   1.695   2.044   1.738  0.4665 -0.4799  0.1434
   52TCq2    C6  796   1.717   1.939   1.655  0.4568 -0.1722 -0.4255
   52TCq2    C7  797   1.648   1.913   1.536  0.1804 -0.6391  0.7984
   52TCq2    C8  798   1.823   1.849   1.694 -0.4042  0.3949 -0.2208
   52TCq2    O4  799   1.912   1.885   1.772 -0.1351  0.8410  0.3206
   52TCq2    C9  800   1.582   2.243   1.779  0.7804 -0.4507 -0.3855
   52TCq2    O5  801   1.505   2.334   1.741  0.2019 -0.2588 -0.1135
   52TCq2    O6  802   1.615   2.231   1.901  0.0005  0.5163 -0.3065
   52TCq2    H2  803   1.472   2.207   1.559  0.6041  1.2222  0.1235
   52TCq2    H3  804   1.750   2.060   1.830  1.2258 -0.7562 -0.2682
   52TCq2    H4  805   1.647   1.821   1.479 -1.8726  1.5732 -2.8093
   53TMC2    C1  806   2.304   0.087  12.510  0.0111 -1.2272 -0.1386
   53TMC2    C2  807   2.332   4.691  12.578  0.8532 -0.6674  0.5527
   53TMC2    C3  808   2.263   4.685  12.700  0.3029  0.6437 -0.3615
   53TMC2    C4  809   2.217   0.179  12.560 -1.1375 -0.0291 -0.1233
   53TMC2    C5  810   2.147   0.157  12.670 -1.2723  0.5394 -0.5196
   53TMC2    C6  811   2.166   0.044  12.745  0.0520  0.0323  0.3366
   53TMC2     C  812   2.303   0.068  12.369 -0.0505  0.4514  0.1782
   53TMC2     O  813   2.407   0.021  12.322 -0.4125 -0.5002  0.2707
   53TMC2     H  814   2.397   4.607  12.553 -1.3569 -2.0776 -0.4347
   53TMC2    H1  815   2.191   0.271  12.509 -0.2458  1.6083  2.3717
   53TMC2    H2  816   2.114   0.027  12.838 -1.9590  0.2815 -0.7503
   53TMC2    C7  817   2.010   0.199  12.659 -0.0655 -0.2070 -0.5131
   53TMC2    C8  818   2.281   4.572  12.785 -0.0308  0.7434 -0.0809
   53TMC2    O1  819   1.979   0.205  12.538 -0.1407  0.1342  0.5444
   53TMC2    O2  820   2.198   4.541  12.875  0.1272 -0.3895 -0.1258
   53TMC2    O5  821   2.412   4.543  12.798 -0.2307 -0.4119 -0.3873
   53TMC2    H5  822   2.469   4.594  12.737  1.0827 -1.1702  0.1836
   54MPD2     C  823   2.247   0.098  12.083 -0.7780 -0.2464  0.3934
   54MPD2    C1  824   2.144   0.076  12.176  0.8397  0.1463 -0.2884
   54MPD2    C2  825   2.014   0.049  12.141  0.4243  0.4842 -0.2857
   54MPD2    C3  826   1.982   0.044  12.005  0.1147 -0.2157  0.2774
   54MPD2    C4  827   2.081   0.069  11.913  0.6935  0.2589 -0.6796
   54MPD2    C5  828   2.206   0.089  11.951  0.8361 -0.3585 -0.8809
   54MPD2     H  829   1.944   0.029  12.222  1.0119 -1.4821 -0.2718
   54MPD2    H1  830   2.069   0.048  11.808  1.0712 -0.2979 -0.6124
   54MPD2    H2  831   2.347   0.124  12.115 -0.6767  0.8798 -0.8185
   54MPD2    H3  832   2.282   0.115  11.878  2.4007 -1.1244  0.4839
   54MPD2     N  833   1.850   0.022  11.950 -0.4434  0.3127  0.2634
   54MPD2    H5  834   1.840   0.025  11.849  0.2455 -0.4478  0.1739
   54MPD2    N1  835   2.174   0.089  12.317 -0.2068 -0.1150  0.1170
   54MPD2    H7  836   2.089   0.094  12.371 -1.4501  0.0973 -1.8638
   55MPD2     C  837   2.622   2.952   1.469 -0.1518 -0.7045  0.2804
   55MPD2    C1  838   2.564   2.838   1.421 -0.2409  0.0215  0.9307
   55MPD2    C2  839   2.428   2.834   1.390  0.3894 -0.5618  0.5742
   55MPD2    C3  840   2.359   2.949   1.394  0.3462  0.0745  0.0643
   55MPD2    C4  841   2.422   3.069   1.439 -0.9236  0.1727 -0.5459
   55MPD2    C5  842   2.548   3.070   1.479 -0.3719 -0.9274 -0.1069
   55MPD2     H  843   2.377   2.759   1.330  1.6517 -0.9548 -0.0134
   55MPD2    H1  844   2.381   3.169   1.430 -2.5755 -0.6628 -2.1085
   55MPD2    H2  845   2.728   2.957   1.491 -0.2349 -0.2974  0.5909
   55MPD2    H3  846   2.591   3.165   1.509 -0.8588 -1.1243  1.1820
   55MPD2     N  847   2.226   2.958   1.336 -0.7518  0.3284 -0.5353
   55MPD2    H5  848   2.209   2.865   1.300  0.4862  0.4256 -1.3787
   55MPD2    N1  849   2.655   2.733   1.390 -0.1346  0.0844 -0.4306
   55MPD2    H7  850   2.752   2.747   1.415  0.1913 -1.2958 -0.8954
   56TCq2    C1  851   2.607   2.608   1.348 -0.6561  0.1798 -0.1420
   56TCq2    O2  852   2.495   2.556   1.345 -0.2256  0.4071  0.1497
   56TCq2    C2  853   2.710   2.520   1.312 -0.2058 -0.1695 -0.1258
   56TCq2    C3  854   2.830   2.558   1.253  0.6191 -0.3466  0.1034
   56TCq2    C4  855   2.919   2.473   1.204  1.3046 -0.4489  0.1092
   56TCq2    C5  856   2.892   2.342   1.216  0.3203  0.5719 -0.0398
   56TCq2    C6  857   2.780   2.297   1.284  0.7850  0.1847 -0.7085
   56TCq2    C7  858   2.679   2.389   1.325  0.2118 -0.0017  0.0348
   56TCq2    C8  859   2.744   2.154   1.277 -0.6480  0.8330 -0.3665
   56TCq2    O4  860   2.849   2.086   1.270 -0.1823 -0.2443  0.0180
   56TCq2    C9  861   3.026   2.516   1.118  0.7309  0.2388 -0.6984
   56TCq2    O5  862   3.089   2.428   1.059  0.0898 -0.1582 -0.2191
   56TCq2    O6  863   3.020   2.632   1.071 -0.0218  0.0533  0.2016
   56TCq2    H2  864   2.850   2.664   1.247  0.4619 -0.2906  0.5163
   56TCq2    H3  865   2.966   2.273   1.177 -0.6902 -0.5683  0.0518
   56TCq2    H4  866   2.594   2.352   1.380 -0.7563  1.7618 -0.2689
   57TMC2    C1  867   1.761   3.635  13.400  0.8429  0.1570  0.4286
   57TMC2    C2  868   1.776   3.498  13.385  0.3749 -0.2963  0.4315
   57TMC2    C3  869   1.843   3.455  13.273  0.7411 -0.6617  0.0207
   57TMC2    C4  870   1.832   3.722  13.324 -0.1919  0.2928  0.2083
   57TMC2    C5  871   1.902   3.678  13.222  0.4546 -0.3472 -0.2002
   57TMC2    C6  872   1.899   3.540  13.185 -0.1804 -0.2286 -0.2582
   57TMC2     C  873   1.665   3.689  13.493 -0.0463 -0.5020 -0.4114
   57TMC2     O  874   1.649   3.808  13.479  0.0306  0.3873  0.3570
   57TMC2     H  875   1.727   3.430  13.454 -0.6341 -0.3198 -0.3037
   57TMC2    H1  876   1.832   3.828  13.348  0.2812  0.0538  1.2970
   57TMC2    H2  877   1.939   3.497  13.094  4.2431 -1.6259  2.3423
   57TMC2    C7  878   2.029   3.753  13.190 -0.7167 -0.2082 -0.1750
   57TMC2    C8  879   1.860   3.311  13.245  0.3783 -0.1383  0.3002
   57TMC2    O1  880   2.053   3.867  13.220 -0.0277  0.0748 -0.1031
   57TMC2    O2  881   1.972   3.261  13.235 -0.0157  0.4560 -0.4540
   57TMC2    O5  882   1.733   3.262  13.273  0.0616  0.0283 -0.0935
   57TMC2    H5  883   1.660   3.322  13.247  0.1741  0.3112  0.2520
   58MPD2     C  884   1.417   3.698  13.942  0.7844 -0.8646  0.4434
   58MPD2    C1  885   1.408   3.793  13.841 -0.0927 -0.4823  0.3871
   58MPD2    C2  886   1.477   3.762  13.720 -0.3039  0.0017  0.0357
   58MPD2    C3  887   1.560   3.648  13.710 -0.1219  0.3166 -0.1335
   58MPD2    C4  888   1.569   3.563  13.816  0.2624 -0.1912  0.4252
   58MPD2    C5  889   1.494   3.589  13.928  0.3929 -0.2292  0.1733
   58MPD2     H  890   1.459   3.823  13.633 -1.1334 -1.8803 -1.1164
   58MPD2    H1  891   1.641   3.482  13.820  0.0476 -0.3851  0.3616
   58MPD2    H2  892   1.359   3.715  14.032 -0.3149  2.3737 -0.8773
   58MPD2    H3  893   1.516   3.521  14.010 -3.1747 -1.9588 -0.2703
   58MPD2     N  894   1.639   3.609  13.602 -0.0138  0.4159 -0.2273
   58MPD2    H5  895   1.681   3.517  13.608 -0.9659  0.0317  0.4959
   58MPD2    N1  896   1.328   3.907  13.851 -0.1278 -0.4214 -0.5816
   58MPD2    H7  897   1.324   3.957  13.763 -1.9380  0.8875  0.2388
   59MPD2     C  898   4.298   3.636  13.129 -0.2021 -0.2071 -0.2565
   59MPD2    C1  899   4.392   3.695  13.044  0.6575  0.1207 -0.1086
   59MPD2    C2  900   4.485   3.787  13.089 -0.0052 -0.7929  0.1722
   59MPD2    C3  901   4.489   3.823  13.222 -0.0419  0.1319  1.0990
   59MPD2    C4  902   4.392   3.764  13.309 -0.6479 -0.3535 -0.1670
   59MPD2    C5  903   4.296   3.669  13.262 -0.1599  0.5425 -0.3719
   59MPD2     H  904   4.559   3.815  13.016  1.8022 -4.1208  0.7500
   59MPD2    H1  905   4.410   3.789  13.413 -0.0961 -1.2069 -0.0594
   59MPD2    H2  906   4.236   3.550  13.106 -0.6515  0.5726 -1.9402
   59MPD2    H3  907   4.222   3.629  13.330  0.7656  0.1567  0.4143
   59MPD2     N  908   4.581   3.920  13.270  0.0501 -0.6980 -0.4570
   59MPD2    H5  909   4.574   3.947  13.367 -1.0989  2.5362 -1.4419
   59MPD2    N1  910   4.388   3.653  12.910 -0.7304 -0.0251  0.6203
   59MPD2    H7  911   4.467   3.678  12.850 -0.5467  1.3298  1.4214
   60TCq2    C1  912   4.293   3.577  12.849  0.3820 -0.4792 -0.5513
   60TCq2    O2  913   4.196   3.520  12.901 -0.3746  0.4331  0.6426
   60TCq2    C2  914   4.308   3.547  12.709 -0.5620 -0.7884 -0.2832
   60TCq2    C3  915   4.263   3.423  12.666 -0.6554 -0.2846 -0.8308
   60TCq2    C4  916   4.300   3.380  12.541  0.0028  0.8210 -0.7630
   60TCq2    C5  917   4.387   3.458  12.466  0.0371 -0.5607  0.4812
   60TCq2    C6  918   4.421   3.584  12.510 -0.4981  0.7149 -0.4179
   60TCq2    C7  919   4.385   3.634  12.633  0.2781 -0.1397 -0.0798
   60TCq2    C8  920   4.506   3.668  12.424 -0.1588 -0.0820 -0.1996
   60TCq2    O4  921   4.587   3.608  12.358  0.3622 -0.4623 -0.6530
   60TCq2    C9  922   4.246   3.252  12.489  0.2879  0.3097 -0.3368
   60TCq2    O5  923   4.304   3.203  12.392  0.4433 -0.1398 -0.3648
   60TCq2    O6  924   4.151   3.198  12.555  0.1376  0.2655 -0.4920
   60TCq2    H2  925   4.209   3.355  12.731  0.4579 -0.5387 -0.1726
   60TCq2    H3  926   4.411   3.434  12.363 -1.7691  1.0937 -0.3145
   60TCq2    H4  927   4.421   3.732  12.662  2.2415 -0.9388  0.1910
   61MPD2     C  928   3.574   0.660  15.388  0.4536 -0.6678 -0.2497
   61MPD2    C1  929   3.589   0.796  15.413 -0.3247 -0.6695  0.0126
   61MPD2    C2  930   3.701   0.866  15.368  0.5598  0.2838 -0.5693
   61MPD2    C3  931   3.805   0.795  15.297  0.3277 -0.4239  0.1994
   61MPD2    C4  932   3.790   0.656  15.279 -0.5558  0.4449 -0.3795
   61MPD2    C5  933   3.674   0.593  15.325  0.5968 -0.4658  0.6613
   61MPD2     H  934   3.717   0.970  15.393 -2.0472  0.8876 -1.4516
   61MPD2    H1  935   3.858   0.600  15.215  0.3786 -0.5991  1.5353
   61MPD2    H2  936   3.490   0.598  15.419  1.3961 -1.3675  0.9185
   61MPD2    H3  937   3.662   0.485  15.320  1.4796 -0.4226 -2.2369
   61MPD2     N  938   3.920   0.854  15.238  0.0554 -0.0833  0.2914
   61MPD2    H5  939   3.975   0.792  15.181 -1.3520 -1.2169  0.1563
   61MPD2    N1  940   3.491   0.868  15.484  0.0341  0.1125 -0.1784
   61MPD2    H7  941   3.525   0.961  15.508  1.8346 -1.1677  2.2579
   62TCq2    C1  942   3.392   0.812  15.564  0.6401  0.5288  0.4353
   62TCq2    O2  943   3.360   0.693  15.582 -0.1246 -0.2935  0.6863
   62TCq2    C2  944   3.312   0.909  15.624 -0.4807  0.4866 -0.1267
   62TCq2    C3  945   3.294   0.900  15.761  0.6555 -0.1486 -0.3683
   62TCq2    C4  946   3.262   1.010  15.831 -0.3209  0.5656 -0.5173
   62TCq2    C5  947   3.242   1.134  15.772 -0.4087  0.4367 -0.5298
   62TCq2    C6  948   3.276   1.138  15.637 -0.3339  0.1017  0.1142
   62TCq2    C7  949   3.306   1.029  15.566  0.6485  0.7595  0.7195
   62TCq2    C8  950   3.295   1.269  15.576  0.2111  0.6291 -0.1288
   62TCq2    O4  951   3.365   1.266  15.476  0.1090  0.1494  0.0181
   62TCq2    C9  952   3.261   1.003  15.975  0.5646  0.2820 -0.5557
   62TCq2    O5  953   3.217   0.896  16.021 -0.0626  0.8638  0.2823
   62TCq2    O6  954   3.270   1.111  16.036  0.2632 -0.2401  0.1365
   62TCq2    H2  955   3.299   0.806  15.815 -0.1390  0.4110  0.6669
   62TCq2    H3  956   3.237   1.228  15.825 -1.7180 -0.3645  0.7853
   62TCq2    H4  957   3.329   1.036  15.460  0.1948 -0.4386  0.5397
   63TMC2    C1  958   3.701   0.540  10.913  0.3690 -0.3676 -0.3091
   63TMC2    C2  959   3.814   0.544  10.993 -0.0993  0.5085 -0.0806
   63TMC2    C3  960   3.933   0.586  10.927 -0.0442  0.1612  0.6254
   63TMC2    C4  961   3.691   0.575  10.782 -0.1513  0.3327  0.1152
   63TMC2    C5  962   3.806   0.633  10.729 -0.1522  0.4747  0.5138
   63TMC2    C6  963   3.928   0.633  10.797  0.6274  0.3214 -0.1512
   63TMC2     C  964   3.580   0.501  10.978  0.0800  0.0559  1.1496
   63TMC2     O  965   3.584   0.525  11.098  0.1619  0.0376 -0.2276
   63TMC2     H  966   3.814   0.527  11.100  1.7790  0.4466 -0.0895
   63TMC2    H1  967   3.595   0.570  10.731  0.1642  3.1612 -0.7180
   63TMC2    H2  968   4.018   0.658  10.741  0.1016  0.6022 -0.8663
   63TMC2    C7  969   3.797   0.668  10.588 -0.8967  0.0838  0.3781
   63TMC2    C8  970   4.037   0.652  11.009 -0.1648 -0.4034 -0.2147
   63TMC2    O1  971   3.705   0.608  10.534  0.0616  0.6948  0.3929
   63TMC2    O2  972   4.066   0.765  10.976  0.4276  0.0637  0.2414
   63TMC2    O5  973   4.020   0.608  11.132  0.2480 -0.1119 -0.1338
   63TMC2    H5  974   4.012   0.510  11.135 -1.1883 -0.0406 -1.2882
   64MPD2     C  975   3.164   0.222  11.073  0.1383 -0.2885 -0.3020
   64MPD2    C1  976   3.229   0.167  10.967  0.7368 -0.0996  0.0034
   64MPD2    C2  977   3.327   0.243  10.910 -0.2739 -0.2894 -0.3906
   64MPD2    C3  978   3.379   0.360  10.962  0.3012 -0.2284  0.6505
   64MPD2    C4  979   3.315   0.414  11.075 -0.8844  0.2092  0.3368
   64MPD2    C5  980   3.193   0.352  11.111  0.4245  0.1101  0.2603
   64MPD2     H  981   3.392   0.202  10.834  0.4354  1.0671 -0.5232
   64MPD2    H1  982   3.345   0.511  11.114 -1.6181 -0.0080  1.4391
   64MPD2    H2  983   3.077   0.174  11.117 -0.7168  0.1203 -1.5417
   64MPD2    H3  984   3.136   0.406  11.187  0.6225 -1.1982  1.3363
   64MPD2     N  985   3.496   0.416  10.910  0.0182  0.2684  0.4873
   64MPD2    H5  986   3.534   0.368  10.828  0.3641  1.3091  0.0350
   64MPD2    N1  987   3.206   0.037  10.915  0.1296  0.1100  0.1174
   64MPD2    H7  988   3.264   0.006  10.837  1.1161  1.9485  0.1267
   65MPD2     C  989   4.080   0.125  15.651 -0.1296  0.8611 -0.2837
   65MPD2    C1  990   4.152   0.093  15.538  0.2539 -0.0741  0.2182
   65MPD2    C2  991   4.145   4.685  15.501  0.0601 -0.0093 -0.6292
   65MPD2    C3  992   4.078   4.587  15.576  0.2228 -0.3472  1.0725
   65MPD2    C4  993   4.020   4.628  15.699  0.0569 -1.0430 -0.1158
   65MPD2    C5  994   4.020   0.035  15.733 -0.5160 -0.4727  0.1009
   65MPD2     H  995   4.180   4.651  15.405  0.3470 -1.1129 -0.1343
   65MPD2    H1  996   3.976   4.558  15.770  1.5186 -3.8564 -1.9888
   65MPD2    H2  997   4.077   0.228  15.683 -1.2521  1.5352 -2.5874
   65MPD2    H3  998   3.967   0.068  15.821 -2.1268 -2.6948 -0.0511
   65MPD2     N  999   4.077   4.453  15.548  0.4372 -0.5559  0.5253
   65MPD2    H5 1000   4.039   4.395  15.623 -1.0269  1.0516  1.0201
   65MPD2    N1 1001   4.219   0.192  15.464 -0.3214 -0.5468  0.2156
   65MPD2    H7 1002   4.248   0.162  15.371  4.9393  1.9822  1.0214
   66TCq2    C1 1003   4.264   0.313  15.506 -0.7889  0.5981 -0.5547
   66TCq2    O2 1004   4.250   0.369  15.613  0.6468 -0.3535 -0.0128
   66TCq2    C2 1005   4.289   0.404  15.395 -0.0953  0.1497  0.0406
   66TCq2    C3 1006   4.286   0.364  15.262  0.1224  0.5457 -1.0266
   66TCq2    C4 1007   4.288   0.462  15.162 -0.1263  0.5117 -0.2269
   66TCq2    C5 1008   4.283   0.597  15.190 -0.3910  0.2664  0.6059
   66TCq2    C6 1009   4.271   0.625  15.323 -0.0316  0.0742 -0.3250
   66TCq2    C7 1010   4.287   0.534  15.424 -0.7857  0.8804  0.4633
   66TCq2    C8 1011   4.289   0.768  15.356  0.0009 -0.2316 -0.1278
   66TCq2    O4 1012   4.330   0.831  15.262 -0.1436  0.9217 -0.3340
   66TCq2    C9 1013   4.282   0.421  15.022 -0.2931  0.6519  0.9882
   66TCq2    O5 1014   4.276   0.296  15.001  0.1443  0.1872 -0.0120
   66TCq2    O6 1015   4.252   0.499  14.928 -0.0416 -0.1986 -0.2682
   66TCq2    H2 1016   4.284   0.259  15.235  3.8523  0.4507 -0.9438
   66TCq2    H3 1017   4.278   0.670  15.110  1.3240 -0.4519 -0.1738
   66TCq2    H4 1018   4.308   0.563  15.526  0.3620 -0.1911  0.5218
   67MPD2     C 1019   4.414   4.350  14.081 -0.2264 -0.3260 -0.2616
   67MPD2    C1 1020   4.332   4.385  14.188  0.4766 -0.0287  0.2265
   67MPD2    C2 1021   4.197   4.364  14.177  0.0742  0.4258  0.0161
   67MPD2    C3 1022   4.148   4.309  14.051  0.6264 -0.5596  0.2689
   67MPD2    C4 1023   4.231   4.284  13.948 -1.2944 -0.5093 -0.1274
   67MPD2    C5 1024   4.361   4.308  13.962 -0.3474  0.4332  1.0213
   67MPD2     H 1025   4.130   4.385  14.259  3.3648  0.8363  2.5992
   67MPD2    H1 1026   4.198   4.229  13.860 -1.9364  1.4083 -1.0817
   67MPD2    H2 1027   4.522   4.359  14.077 -0.3638  1.8195  0.7491
   67MPD2    H3 1028   4.426   4.283  13.879  0.2246  0.9422  1.3191
   67MPD2     N 1029   4.012   4.277  14.026 -0.2492  0.6053 -0.4457
   67MPD2    H5 1030   3.979   4.253  13.933 -2.2264  2.4110 -0.2005
   67MPD2    N1 1031   4.381   4.454  14.307  0.3412  0.3564 -0.2432
   67MPD2    H7 1032   4.310   4.481  14.375 -0.3777 -0.1905 -0.7826
   68TCq2    C1 1033   4.517   4.468  14.334 -1.0302 -0.1499 -0.5329
   68TCq2    O2 1034   4.615   4.438  14.260 -0.1405  0.0593 -0.5570
   68TCq2    C2 1035   4.542   4.546  14.456 -0.9205 -0.0338  0.0252
   68TCq2    C3 1036   4.451   4.635  14.507  0.6883 -0.7936  0.2244
   68TCq2    C4 1037   4.480   4.700  14.621  0.0693  0.3379  0.7007
   68TCq2    C5 1038   4.593   4.681  14.690 -0.2727  0.3651 -0.3330
   68TCq2    C6 1039   4.686   4.588  14.642 -0.1012 -0.2203 -1.1244
   68TCq2    C7 1040   4.664   4.527  14.517 -0.1266 -0.5873  0.0643
   68TCq2    C8 1041   0.068   4.540  14.729 -0.3624 -0.3385  0.0598
   68TCq2    O4 1042   0.167   4.478  14.690  0.3852  0.6972  0.5345
   68TCq2    C9 1043   4.391   0.068  14.677  0.1792  0.7075  0.3859
   68TCq2    O5 1044   4.400   0.096  14.796 -0.1955  0.4432  0.2917
   68TCq2    O6 1045   4.283   0.083  14.617  0.1209  0.1774  0.5456
   68TCq2    H2 1046   4.359   4.663  14.456  0.3084 -2.5378 -0.0494
   68TCq2    H3 1047   4.621   0.005  14.783  0.4789  0.9603 -0.8635
   68TCq2    H4 1048   0.002   4.449  14.474 -0.4664 -0.9289  0.2055
   69TMC2    C1 1049   1.716   0.735  12.091  0.3461 -0.3949  0.1445
   69TMC2    C2 1050   1.613   0.736  11.996  0.1053 -0.8569  0.4021
   69TMC2    C3 1051   1.647   0.756  11.870 -0.2852 -0.0041  0.0696
   69TMC2    C4 1052   1.843   0.725  12.048 -0.0973  0.1815  0.2186
   69TMC2    C5 1053   1.870   0.736  11.915  0.6290 -0.6449  0.6422
   69TMC2    C6 1054   1.771   0.751  11.821  0.1313  0.2736 -0.1932
   69TMC2     C 1055   1.681   0.702  12.222 -0.4221 -0.0642  0.4305
   69TMC2     O 1056   1.562   0.685  12.249 -0.5088  0.0815  0.7082
   69TMC2     H 1057   1.507   0.734  12.018 -0.2538 -1.1708 -1.3593
   69TMC2    H1 1058   1.922   0.739  12.120 -0.4305  0.2381  0.5722
   69TMC2    H2 1059   1.794   0.749  11.715  0.8576 -0.0076 -0.0296
   69TMC2    C7 1060   2.008   0.717  11.866 -0.2589 -0.1028  0.1157
   69TMC2    C8 1061   1.537   0.802  11.790 -0.2706 -0.7067 -0.3781
   69TMC2    O1 1062   2.042   0.736  11.749 -0.7396  0.0010  0.1900
   69TMC2    O2 1063   1.422   0.783  11.824  0.5294 -0.2376 -0.5660
   69TMC2    O5 1064   1.574   0.871  11.677 -0.0875  0.1897  0.3724
   69TMC2    H5 1065   1.669   0.897  11.672  0.5134 -2.4028 -1.6040
   70MPD2     C 1066   1.907   0.568  12.471 -0.0562 -0.7740 -0.5916
   70MPD2    C1 1067   1.789   0.617  12.423  0.7088 -0.3816  0.0729
   70MPD2    C2 1068   1.682   0.636  12.502  0.0308 -0.7124 -0.1789
   70MPD2    C3 1069   1.697   0.610  12.638  0.0915 -0.1125 -0.4211
   70MPD2    C4 1070   1.820   0.575  12.697  0.3442 -0.2171 -1.3538
   70MPD2    C5 1071   1.916   0.541  12.607 -0.1259 -0.0110  0.3919
   70MPD2     H 1072   1.588   0.673  12.463 -0.0482 -0.0864  0.5944
   70MPD2    H1 1073   1.836   0.558  12.803  0.1784 -0.0842 -1.3060
   70MPD2    H2 1074   1.982   0.546  12.396 -0.1994  0.7699 -1.1970
   70MPD2    H3 1075   2.010   0.508  12.650  0.2021  1.2573  0.6570
   70MPD2     N 1076   1.594   0.636  12.728  0.8304  0.4651  0.0585
   70MPD2    H5 1077   1.622   0.629  12.825 -0.7592  0.3407  0.5079
   70MPD2    N1 1078   1.785   0.641  12.281 -0.3361 -0.4522  0.2480
   70MPD2    H7 1079   1.868   0.640  12.222 -1.2550 -0.3310 -1.0395
   71TMC2    C1 1080   0.755   1.900   1.454 -0.8430  0.0434  0.1729
   71TMC2    C2 1081   0.829   1.986   1.533  0.5671 -0.0499  0.2387
   71TMC2    C3 1082   0.826   1.961   1.664  0.3549 -0.1812 -0.4918
   71TMC2    C4 1083   0.683   1.795   1.497  0.3381 -0.5096 -0.7435
   71TMC2    C5 1084   0.696   1.770   1.630  0.2442  0.5458 -0.4698
   71TMC2    C6 1085   0.759   1.858   1.718 -0.0000 -0.2961  0.3073
   71TMC2     C 1086   0.729   1.937   1.317 -0.1494  0.3356 -0.0235
   71TMC2     O 1087   0.677   1.848   1.250  0.0730 -0.4576  0.4445
   71TMC2     H 1088   0.887   2.069   1.495 -0.1634  1.3987  2.2740
   71TMC2    H1 1089   0.646   1.717   1.431 -1.9282  1.7712 -2.1766
   71TMC2    H2 1090   0.748   1.847   1.826  0.9363 -0.1910  0.4114
   71TMC2    C7 1091   0.608   1.668   1.699  0.1381 -0.5421 -1.0676
   71TMC2    C8 1092   0.876   2.047   1.765  0.7927 -0.1559  0.4924
   71TMC2    O1 1093   0.641   1.628   1.812 -0.7770 -0.2205  0.0475
   71TMC2    O2 1094   0.916   2.009   1.873 -0.1182 -0.0861  0.1002
   71TMC2    O5 1095   0.837   2.177   1.741  0.5589  0.2615 -0.0727
   71TMC2    H5 1096   0.793   2.190   1.654  1.0401  0.6859 -0.2538
   72MPD2     C 1097   0.686   2.253   0.924  0.0520 -0.0709 -0.1246
   72MPD2    C1 1098   0.653   2.121   0.938  0.3191  0.6589  0.0523
   72MPD2    C2 1099   0.683   2.059   1.062 -0.1270  0.8463 -0.3683
   72MPD2    C3 1100   0.745   2.125   1.167 -0.3396  0.5770 -0.1688
   72MPD2    C4 1101   0.782   2.254   1.138  0.9406 -0.0723  0.3184
   72MPD2    C5 1102   0.741   2.314   1.026  0.6502  0.0856 -0.0779
   72MPD2     H 1103   0.644   1.958   1.064  1.3813  0.3174  2.2694
   72MPD2    H1 1104   0.830   2.319   1.210  0.6719 -2.0749  2.3337
   72MPD2    H2 1105   0.671   2.316   0.837  1.6025  0.5472  0.0604
   72MPD2    H3 1106   0.766   2.417   1.004 -2.6302  1.2371  1.6353
   72MPD2     N 1107   0.769   2.064   1.291  0.1484 -0.9996 -0.0302
   72MPD2    H5 1108   0.823   2.107   1.365 -1.6307 -0.9029  1.2084
   72MPD2    N1 1109   0.579   2.048   0.845  0.0952  0.0348 -0.0165
   72MPD2    H7 1110   0.583   1.949   0.867  0.6118 -0.3618 -1.8759
   73TMC2    C1 1111   3.461   2.988  14.010  0.5459 -0.0683  0.6417
   73TMC2    C2 1112   3.380   3.086  14.077 -0.4433 -0.3495 -0.2985
   73TMC2    C3 1113   3.394   3.096  14.209 -0.5746  0.3980 -0.0618
   73TMC2    C4 1114   3.563   2.923  14.077  0.6653  0.0052  0.7440
   73TMC2    C5 1115   3.583   2.946  14.208  0.0543 -0.2897 -0.1757
   73TMC2    C6 1116   3.494   3.030  14.280 -0.0758 -0.2155  0.7733
   73TMC2     C 1117   3.516   3.024  13.878  0.1682  0.8973  0.1531
   73TMC2     O 1118   3.639   3.029  13.864 -0.7085  0.2182  0.7985
   73TMC2     H 1119   3.308   3.147  14.024 -0.7899  1.8838  2.7107
   73TMC2    H1 1120   3.627   2.859  14.018 -1.3525 -0.6541 -0.7400
   73TMC2    H2 1121   3.525   3.069  14.377  0.1930  1.7238 -0.0865
   73TMC2    C7 1122   3.724   2.983  14.230  0.5705  0.7892  0.4526
   73TMC2    C8 1123   3.334   3.214  14.274 -0.2305  0.2300 -0.1626
   73TMC2    O1 1124   3.780   2.948  14.332  0.3551 -0.2478 -0.3487
   73TMC2    O2 1125   3.268   3.290  14.205 -0.7020 -0.4383  0.3082
   73TMC2    O5 1126   3.314   3.183  14.406  0.5992  0.2241 -0.2909
   73TMC2    H5 1127   3.375   3.118  14.448 -2.6119 -1.9593  0.9399
   74MPD2     C 1128   3.488   3.323  13.456  0.2985  0.1585  0.2038
   74MPD2    C1 1129   3.599   3.288  13.520 -0.2256 -0.5894 -0.1997
   74MPD2    C2 1130   3.577   3.186  13.625 -0.8095 -0.6432 -0.3659
   74MPD2    C3 1131   3.446   3.150  13.670 -0.0286  0.0091 -1.0049
   74MPD2    C4 1132   3.341   3.199  13.598 -0.8663  0.3245  0.9499
   74MPD2    C5 1133   3.363   3.277  13.484 -0.1853  0.2282  0.5360
   74MPD2     H 1134   3.660   3.145  13.681 -1.3784 -1.5814 -0.2165
   74MPD2    H1 1135   3.240   3.165  13.618 -0.9359  0.2854  0.5137
   74MPD2    H2 1136   3.494   3.391  13.372  0.3174  0.4529  0.4430
   74MPD2    H3 1137   3.281   3.306  13.419 -0.0185 -1.0322 -0.2527
   74MPD2     N 1138   3.418   3.073  13.790  0.3569  0.8529 -0.2758
   74MPD2    H5 1139   3.320   3.063  13.814  0.0461  0.7332 -1.5998
   74MPD2    N1 1140   3.726   3.329  13.474 -0.3679  0.4692  0.7978
   74MPD2    H7 1141   3.740   3.398  13.401  2.8684 -0.3022  0.6681
   75TCq2    C1 1142   3.926   4.247  14.129 -0.6856 -0.1549  0.5100
   75TCq2    O2 1143   3.950   4.229  14.245 -0.2683  0.0577 -0.4953
   75TCq2    C2 1144   3.792   4.212  14.078 -0.1832 -0.0626  0.0883
   75TCq2    C3 1145   3.701   4.145  14.158  0.1798  0.2875 -0.3302
   75TCq2    C4 1146   3.582   4.114  14.104 -0.2540  0.0688 -1.0459
   75TCq2    C5 1147   3.552   4.147  13.976 -0.2222 -0.8916  0.1443
   75TCq2    C6 1148   3.633   4.233  13.912 -0.5177 -0.4730  0.3414
   75TCq2    C7 1149   3.757   4.265  13.960 -0.5007  0.4808  0.5958
   75TCq2    C8 1150   3.598   4.257  13.771 -0.5956  0.2747  0.1411
   75TCq2    O4 1151   3.534   4.167  13.712  0.0920 -0.2358 -0.0167
   75TCq2    C9 1152   3.473   4.054  14.181 -0.0617 -0.0856  0.4676
   75TCq2    O5 1153   3.507   4.009  14.297 -0.7748 -0.0359  0.0539
   75TCq2    O6 1154   3.362   4.071  14.141  0.6012 -0.2737  0.4831
   75TCq2    H2 1155   3.722   4.140  14.265 -1.4694 -1.1529 -0.0814
   75TCq2    H3 1156   3.455   4.125  13.934 -0.5099 -2.7740  1.7846
   75TCq2    H4 1157   3.813   4.342  13.907 -0.6190 -1.4788 -2.3606
   76MPD2     C 1158   3.152   0.243  11.628  0.0618  0.2703 -0.2820
   76MPD2    C1 1159   3.016   0.235  11.641 -0.3180 -0.2586  0.3166
   76MPD2    C2 1160   2.957   0.119  11.693 -0.7010  0.5173 -0.8638
   76MPD2    C3 1161   3.034   0.007  11.712 -0.0187 -0.7189  0.0902
   76MPD2    C4 1162   3.169   0.017  11.701 -0.3258 -0.0077  0.7357
   76MPD2    C5 1163   3.229   0.133  11.655 -0.5947  0.0466  0.1344
   76MPD2     H 1164   2.850   0.115  11.712 -0.3579  0.9270  1.1846
   76MPD2    H1 1165   3.232   4.652  11.705  0.9258  0.7921 -1.3130
   76MPD2    H2 1166   3.199   0.336  11.597 -1.5476  1.6183  1.2780
   76MPD2    H3 1167   3.334   0.129  11.630 -0.9727 -2.3867 -0.9494
   76MPD2     N 1168   2.983   4.604  11.753 -0.2849 -0.5899  0.3549
   76MPD2    H5 1169   3.053   4.531  11.760 -0.2861 -0.6059  0.2076
   76MPD2    N1 1170   2.926   0.340  11.601  0.0089  0.8856  0.0321
   76MPD2    H7 1171   2.830   0.332  11.635 -0.1717  1.0313 -0.4459
   77TCq2    C1 1172   2.852   4.560  11.761 -0.1662 -0.1358 -0.0644
   77TCq2    O2 1173   2.755   4.614  11.713 -0.1383  0.2678  0.1820
   77TCq2    C2 1174   2.840   4.423  11.806  0.0751 -0.5127 -0.3011
   77TCq2    C3 1175   2.712   4.379  11.820  0.1784 -0.5337  0.6474
   77TCq2    C4 1176   2.694   4.256  11.871 -0.5357  0.0980 -0.6332
   77TCq2    C5 1177   2.806   4.180  11.913 -0.3666 -0.3863  0.1170
   77TCq2    C6 1178   2.926   4.230  11.900 -0.0691  0.2839  0.2489
   77TCq2    C7 1179   2.951   4.356  11.848  0.0527  0.0862 -0.3221
   77TCq2    C8 1180   3.036   4.140  11.932 -0.2054  0.0609  0.5790
   77TCq2    O4 1181   3.013   4.021  11.939 -0.1850  0.0097  0.3051
   77TCq2    C9 1182   2.556   4.208  11.910  0.1564 -0.0668 -0.0639
   77TCq2    O5 1183   2.473   4.299  11.913 -0.4993 -0.6562 -0.0012
   77TCq2    O6 1184   2.534   4.085  11.918  0.2095  0.0044  0.1924
   77TCq2    H2 1185   2.629   4.445  11.796 -0.0999 -1.1481 -0.0787
   77TCq2    H3 1186   2.799   4.083  11.961 -0.3932 -0.0597  0.7762
   77TCq2    H4 1187   3.053   4.388  11.834 -0.1016  0.5289 -0.4396
   78MPD1     C 1188   3.520   1.891   2.012 -0.2961  0.1789 -0.4218
   78MPD1    C1 1189   3.553   1.820   1.900 -0.3646  0.3286 -0.5932
   78MPD1    C2 1190   3.679   1.775   1.888 -0.8463  0.0921  0.4477
   78MPD1    C3 1191   3.781   1.809   1.976 -0.1499 -0.3142 -0.1164
   78MPD1    C4 1192   3.747   1.881   2.089 -0.4205  0.2693  0.0668
   78MPD1    C5 1193   3.617   1.925   2.101 -0.4866 -0.1722  0.1869
   78MPD1     H 1194   3.686   1.704   1.806 -0.3253  0.5976  0.0587
   78MPD1    H1 1195   3.819   1.910   2.165 -0.5236 -1.6130  0.8968
   78MPD1    H2 1196   3.417   1.921   2.031  0.2658  1.5833  0.3787
   78MPD1    H3 1197   3.592   1.976   2.193 -0.5205  1.0769 -0.5094
   78MPD1     N 1198   3.914   1.754   1.979 -0.2855  0.4320  0.1317
   78MPD1    H5 1199   3.979   1.794   2.046  0.7666 -1.3285  0.1805
   78MPD1    N1 1200   3.457   1.767   1.812 -0.3890  0.0469  0.1130
   78MPD1    H6 1201   3.492   1.748   1.718  1.6551 -2.5566  1.3910
   78MPD1    H7 1202   3.380   1.833   1.800 -0.3605  0.4791  2.2630
   79TCq2    C1 1203   3.956   1.653   1.902 -0.2213  0.2090 -0.3521
   79TCq2    O2 1204   3.894   1.594   1.815  0.3449  0.3697  0.6254
   79TCq2    C2 1205   4.103   1.644   1.894 -0.7167  0.0553 -0.3484
   79TCq2    C3 1206   4.188   1.718   1.978  0.1829  0.1088 -0.0770
   79TCq2    C4 1207   4.325   1.699   1.968 -0.0585 -0.2461 -0.0117
   79TCq2    C5 1208   4.367   1.588   1.898 -0.3038  0.1434 -0.1532
   79TCq2    C6 1209   4.287   1.513   1.822  0.6501  0.1783 -0.2981
   79TCq2    C7 1210   4.156   1.541   1.827  0.6819 -0.6403 -0.4721
   79TCq2    C8 1211   4.350   1.414   1.741  0.2226  0.3098 -0.1467
   79TCq2    O4 1212   4.470   1.395   1.749 -0.5777 -1.0434 -1.0528
   79TCq2    C9 1213   4.417   1.792   2.022 -0.1182  0.4285  0.6052
   79TCq2    O5 1214   4.366   1.900   2.077 -0.6185  0.4346  0.0045
   79TCq2    O6 1215   4.539   1.772   2.006 -0.0457 -0.3908  0.4505
   79TCq2    H2 1216   4.152   1.803   2.035 -1.0729  1.7713 -3.2996
   79TCq2    H3 1217   4.474   1.589   1.886 -0.3574  0.3376 -0.6080
   79TCq2    H4 1218   4.088   1.476   1.773 -0.6514  0.7121 -0.4353
   80MPD2     C 1219   1.883   4.546  12.729  0.1936 -0.1051 -0.4974
   80MPD2    C1 1220   1.780   4.552  12.640 -0.4641 -0.5500  0.3365
   80MPD2    C2 1221   1.655   4.592  12.682 -0.2569 -0.0785  0.6479
   80MPD2    C3 1222   1.642   4.645  12.804  0.0895  0.7432 -0.0307
   80MPD2    C4 1223   1.744   4.639  12.897 -0.4628  0.3426  0.1748
   80MPD2    C5 1224   1.866   4.598  12.851 -0.8192  0.0400  0.6462
   80MPD2     H 1225   1.578   4.586  12.606  0.6071 -0.3052 -0.2170
   80MPD2    H1 1226   1.738   4.686  12.995 -0.5122 -1.0878  0.8606
   80MPD2    H2 1227   1.979   4.500  12.708 -0.4404 -1.1813 -1.0610
   80MPD2    H3 1228   1.946   4.591  12.923 -0.4665 -0.6085  0.1901
   80MPD2     N 1229   1.514   4.680  12.859  0.3833 -0.6205 -0.2746
   80MPD2    H5 1230   1.493   4.684  12.958 -0.3157  3.1877 -0.5464
   80MPD2    N1 1231   1.798   4.525  12.498  0.3524  0.4042 -0.2761
   80MPD2    H7 1232   1.710   4.518  12.449 -0.6516 -0.6218  1.7000
   81TCq2    C1 1233   1.918   4.515  12.431  0.9385  0.5856 -0.0707
   81TCq2    O2 1234   2.031   4.538  12.477 -1.1064 -0.4660 -0.3831
   81TCq2    C2 1235   1.910   4.464  12.298 -0.1916 -0.2682 -0.1170
   81TCq2    C3 1236   2.027   4.473  12.224  0.3270  0.4870  0.3637
   81TCq2    C4 1237   2.021   4.434  12.094 -0.2877 -0.1839  0.6904
   81TCq2    C5 1238   1.911   4.375  12.047  0.0439  0.1052  1.1132
   81TCq2    C6 1239   1.796   4.372  12.124 -0.7435  0.2124 -0.3934
   81TCq2    C7 1240   1.791   4.411  12.253 -0.0080 -0.0985  1.0819
   81TCq2    C8 1241   1.695   4.274  12.073 -0.8158  0.3693 -0.2694
   81TCq2    O4 1242   1.672   4.269  11.955 -0.5815 -0.0557 -0.4996
   81TCq2    C9 1243   2.142   4.448  12.018  0.2442  0.2192  0.2500
   81TCq2    O5 1244   2.246   4.483  12.084 -0.2145 -0.3458  0.2957
   81TCq2    O6 1245   2.140   4.431  11.889  0.3266  0.0348  0.7905
   81TCq2    H2 1246   2.117   4.523  12.256  1.3944 -1.2618  0.1305
   81TCq2    H3 1247   1.907   4.348  11.941 -0.8558 -1.8832  1.6442
   81TCq2    H4 1248   1.697   4.394  12.303 -0.3607  0.0562  0.4694
   82MPD2     C 1249   0.269   4.543  10.505 -0.0366 -0.0144 -0.1493
   82MPD2    C1 1250   0.218   4.413  10.494 -0.2414  0.0738 -0.0522
   82MPD2    C2 1251   0.275   4.315  10.563  0.1466  0.2741 -0.2081
   82MPD2    C3 1252   0.387   4.332  10.650 -0.2941  0.3170 -0.1041
   82MPD2    C4 1253   0.431   4.461  10.657 -0.5720 -0.2051  0.4992
   82MPD2    C5 1254   0.374   4.567  10.587  0.3991 -0.7129  0.4677
   82MPD2     H 1255   0.228   4.218  10.551 -0.4528  0.1829  2.7185
   82MPD2    H1 1256   0.504   4.494  10.729  1.3555  1.0731 -2.0268
   82MPD2    H2 1257   0.217   4.626  10.458  2.4679 -0.0546 -2.9603
   82MPD2    H3 1258   0.396   4.671  10.605  0.0893 -0.8265  1.4673
   82MPD2     N 1259   0.455   4.230  10.731  0.3771 -0.0391 -0.1127
   82MPD2    H5 1260   0.526   4.263  10.796 -1.7211  3.0932  0.6267
   82MPD2    N1 1261   0.103   4.400  10.419 -0.7379  0.1645 -0.2454
   82MPD2    H7 1262   0.069   4.486  10.377 -0.6864  1.1946  1.8030
   83TCq2    C1 1263   0.408   4.103  10.745  0.0018  0.2608  0.1859
   83TCq2    O2 1264   0.326   4.041  10.668 -0.1436 -0.3094  0.9979
   83TCq2    C2 1265   0.451   4.030  10.864 -0.3190 -0.7257 -0.2436
   83TCq2    C3 1266   0.507   4.103  10.968 -0.4410 -0.2674 -0.0846
   83TCq2    C4 1267   0.507   4.058  11.096 -0.0117 -0.0522  0.1634
   83TCq2    C5 1268   0.452   3.935  11.125  0.0712  0.1192 -0.1388
   83TCq2    C6 1269   0.404   3.861  11.023  0.2253 -0.5426 -0.7587
   83TCq2    C7 1270   0.399   3.908  10.887  0.3804 -0.1140 -0.2411
   83TCq2    C8 1271   0.340   3.735  11.061 -0.0649  0.1174  0.2910
   83TCq2    O4 1272   0.382   3.696  11.169  0.2515  0.4016  0.3582
   83TCq2    C9 1273   0.547   4.143  11.205  0.2955 -0.4819  0.3242
   83TCq2    O5 1274   0.545   4.268  11.193  0.6427  0.3851 -0.6467
   83TCq2    O6 1275   0.601   4.085  11.298 -0.4213 -0.0426  0.0194
   83TCq2    H2 1276   0.534   4.206  10.949 -0.0354 -0.1736  0.9994
   83TCq2    H3 1277   0.444   3.902  11.228 -0.8602 -0.9236 -0.5397
   83TCq2    H4 1278   0.370   3.840  10.809  1.7330 -2.1021  0.9818
   84TCq2    C1 1279   1.402   2.927  10.214  0.5192  0.5627 -0.7762
   84TCq2    O2 1280   1.310   2.869  10.259  0.7637  0.4891  0.5890
   84TCq2    C2 1281   1.502   2.991  10.310  0.2812  0.1961  0.1043
   84TCq2    C3 1282   1.612   3.058  10.265 -0.3254  0.0450  0.0498
   84TCq2    C4 1283   1.679   3.124  10.360 -0.7836 -0.0790  0.5350
   84TCq2    C5 1284   1.648   3.127  10.493 -0.0174  0.0645  0.3129
   84TCq2    C6 1285   1.537   3.057  10.530 -0.0556  0.5543 -0.4560
   84TCq2    C7 1286   1.464   2.990  10.439  0.4815 -0.0283 -0.0432
   84TCq2    C8 1287   1.491   3.064  10.670  0.0425  0.0796 -0.2731
   84TCq2    O4 1288   1.383   3.009  10.685 -0.0131 -0.1269  0.2487
   84TCq2    C9 1289   1.797   3.202  10.308 -0.7820  0.0012  0.1955
   84TCq2    O5 1290   1.876   3.258  10.388 -0.3645 -0.3827 -0.0753
   84TCq2    O6 1291   1.811   3.206  10.181  0.5401 -0.1906  0.1537
   84TCq2    H2 1292   1.633   3.060  10.159 -3.2758  2.4347 -0.4546
   84TCq2    H3 1293   1.711   3.181  10.562 -0.1800 -1.9336  2.0307
   84TCq2    H4 1294   1.374   2.935  10.467  1.4485  0.0717  3.2685
   85MPD2     C 1295   1.966   1.061  15.967  0.0810 -0.0544 -0.0506
   85MPD2    C1 1296   1.850   1.081  15.912  0.7076  1.2465 -0.0531
   85MPD2    C2 1297   1.833   1.182  15.817  0.4435 -0.5851 -0.1290
   85MPD2    C3 1298   1.937   1.253  15.764  0.4960 -0.6806  0.5735
   85MPD2    C4 1299   2.057   1.219  15.817  0.6121  0.0489 -0.3213
   85MPD2    C5 1300   2.077   1.120  15.911  0.2585 -0.5402  0.7474
   85MPD2     H 1301   1.734   1.196  15.774  1.0340  1.2992 -0.9014
   85MPD2    H1 1302   2.148   1.259  15.774  1.3019 -1.2694 -0.0927
   85MPD2    H2 1303   1.984   0.992  16.048 -0.1033 -0.2110 -0.1436
   85MPD2    H3 1304   2.175   1.080  15.935  0.1375  0.3541  2.7600
   85MPD2     N 1305   1.927   1.346  15.657 -0.1311 -0.0452 -0.3192
   85MPD2    H5 1306   1.839   1.345  15.607  0.0743 -2.0956 -0.6218
   85MPD2    N1 1307   1.750   1.002  15.965 -0.1164 -0.1910 -0.0052
   85MPD2    H7 1308   1.782   0.920  16.014  0.6895 -0.4600 -0.9839
   86TCq2    C1 1309   2.029   1.420  15.612 -0.0229 -0.5590 -0.7963
   86TCq2    O2 1310   2.134   1.454  15.670 -0.0745 -0.3340 -0.3114
   86TCq2    C2 1311   1.999   1.500  15.494 -0.4140 -0.0168  0.1669
   86TCq2    C3 1312   2.000   1.642  15.498  0.0658 -0.1102 -0.0713
   86TCq2    C4 1313   1.993   1.718  15.384 -0.3264 -0.0983  0.1212
   86TCq2    C5 1314   2.002   1.648  15.268  0.6059 -0.0118  0.5898
   86TCq2    C6 1315   1.986   1.508  15.263  0.6547  0.5168 -0.9175
   86TCq2    C7 1316   1.984   1.434  15.377 -0.4084  0.0178 -0.8022
   86TCq2    C8 1317   2.042   1.430  15.153  0.2076 -0.3840  0.9922
   86TCq2    O4 1318   2.048   1.310  15.161  0.2799 -0.3071  0.1013
   86TCq2    C9 1319   2.000   1.861  15.387 -0.5645  0.1204  0.8736
   86TCq2    O5 1320   1.991   1.918  15.498 -0.0924 -0.5401 -0.1850
   86TCq2    O6 1321   2.015   1.919  15.276  0.5293  0.5870 -0.0892
   86TCq2    H2 1322   1.992   1.691  15.594 -1.7568 -1.0904  0.2830
   86TCq2    H3 1323   2.004   1.705  15.176 -0.2702 -1.8268 -0.5454
   86TCq2    H4 1324   1.966   1.327  15.377  2.3665 -0.4534 -0.0399
   87MPD2     C 1325   3.659   0.064   1.305 -0.1606 -0.3977  0.0836
   87MPD2    C1 1326   3.707   0.039   1.179  0.3561 -0.0785 -0.1478
   87MPD2    C2 1327   3.630   4.704   1.072  0.0984 -0.3040  0.5302
   87MPD2    C3 1328   3.497   4.700   1.103  0.0259  1.4410  0.5070
   87MPD2    C4 1329   3.444   0.022   1.218 -0.6003 -0.2447 -0.0899
   87MPD2    C5 1330   3.524   0.050   1.327  0.4459 -0.1679 -0.1520
   87MPD2     H 1331   3.670   4.670   0.977 -0.6738  1.1753 -0.3201
   87MPD2    H1 1332   3.338   0.009   1.235 -1.0696  1.6671 -1.5620
   87MPD2    H2 1333   3.720   0.094   1.390  0.2215  0.1791 -0.4016
   87MPD2    H3 1334   3.481   0.067   1.425  1.3549  1.1499  0.0133
   87MPD2     N 1335   3.402   4.665   1.013  0.3534 -0.0489  0.4542
   87MPD2    H5 1336   3.304   4.693   1.021  0.1566 -0.2051 -1.4543
   87MPD2    N1 1337   3.846   0.062   1.152  0.2275  0.0570  0.2258
   87MPD2    H7 1338   3.894   0.024   1.072 -2.5024 -0.4043 -1.1760
   88TCq2    C1 1339   3.934   0.139   1.237 -0.2510 -0.6476 -1.0212
   88TCq2    O2 1340   3.903   0.214   1.329 -0.3461  0.3652 -0.2171
   88TCq2    C2 1341   4.064   0.160   1.176 -0.4003 -0.0493  0.1645
   88TCq2    C3 1342   4.130   0.279   1.198 -1.0989  1.1517 -0.2784
   88TCq2    C4 1343   4.241   0.298   1.125  0.1856  0.2176 -0.1719
   88TCq2    C5 1344   4.300   0.207   1.048 -0.5789 -0.5406 -0.0687
   88TCq2    C6 1345   4.226   0.094   1.026  0.4370  0.2363 -0.2759
   88TCq2    C7 1346   4.112   0.065   1.091  0.0046  0.0067  0.2782
   88TCq2    C8 1347   4.273   4.717   0.930  0.6032  0.0096 -0.1175
   88TCq2    O4 1348   4.234   4.602   0.944  0.5927  0.1222  0.2332
   88TCq2    C9 1349   4.312   0.422   1.158 -0.1388  0.6782 -0.6445
   88TCq2    O5 1350   4.278   0.484   1.260 -0.1635  0.1574  0.2207
   88TCq2    O6 1351   4.391   0.469   1.069  0.0855  0.3953  0.2515
   88TCq2    H2 1352   4.093   0.357   1.263  2.2504  1.8811  0.7553
   88TCq2    H3 1353   4.394   0.237   1.004 -0.1696 -1.1335  0.4000
   88TCq2    H4 1354   4.063   4.693   1.071  1.9275 -0.9061 -0.0861
   89MPD2     C 1355   0.778   3.013   1.288  0.3440 -0.1362 -0.6123
   89MPD2    C1 1356   0.669   3.086   1.339 -0.0913  0.0110  0.1242
   89MPD2    C2 1357   0.685   3.214   1.374 -0.3913 -0.1419 -0.0585
   89MPD2    C3 1358   0.803   3.281   1.349  0.2675  0.0118  0.0327
   89MPD2    C4 1359   0.914   3.212   1.299 -0.2144  0.5136 -0.2197
   89MPD2    C5 1360   0.901   3.072   1.272 -0.1140  0.9310 -0.4329
   89MPD2     H 1361   0.599   3.270   1.409  0.4208  1.5785 -0.8232
   89MPD2    H1 1362   1.016   3.249   1.290  0.0934  0.7347  4.1236
   89MPD2    H2 1363   0.778   2.905   1.276  0.4727  0.1595 -3.2660
   89MPD2    H3 1364   0.989   3.022   1.233 -0.9348 -0.9974  0.1985
   89MPD2     N 1365   0.812   3.413   1.387 -0.2277 -0.1247  0.6751
   89MPD2    H5 1366   0.727   3.453   1.425  0.1678 -1.1509  2.6327
   89MPD2    N1 1367   0.553   3.014   1.375  0.4577 -0.4708 -0.4156
   89MPD2    H7 1368   0.482   3.064   1.427  1.3612 -1.7238  1.9847
   90TCq2    C1 1369   0.915   3.499   1.357 -0.2503 -0.2460  0.6304
   90TCq2    O2 1370   1.028   3.478   1.317  0.1502 -0.2769 -0.5618
   90TCq2    C2 1371   0.883   3.635   1.406  0.2570  0.0659 -0.0575
   90TCq2    C3 1372   0.758   3.687   1.405 -0.4171 -1.1330  0.1192
   90TCq2    C4 1373   0.731   3.806   1.464 -0.2035 -0.1941 -0.3015
   90TCq2    C5 1374   0.828   3.888   1.505 -0.2776 -0.2547  0.5434
   90TCq2    C6 1375   0.950   3.836   1.508  0.9086 -1.0845  0.4178
   90TCq2    C7 1376   0.979   3.700   1.476 -0.0119  0.1728 -0.3515
   90TCq2    C8 1377   1.051   3.908   1.583  0.5327 -0.4135  0.0689
   90TCq2    O4 1378   1.013   4.004   1.651 -0.5971  0.3616  0.0690
   90TCq2    C9 1379   0.595   3.849   1.489  0.8956 -0.1873 -0.4628
   90TCq2    O5 1380   0.501   3.773   1.445 -0.0360 -0.3427 -0.0880
   90TCq2    O6 1381   0.581   3.952   1.559  0.4957  0.1041  0.5713
   90TCq2    H2 1382   0.676   3.625   1.369 -1.8312  0.9135 -0.1662
   90TCq2    H3 1383   0.807   3.986   1.545  2.4496  0.3411  0.4796
   90TCq2    H4 1384   1.077   3.654   1.469 -0.8841 -1.6756 -0.3446
   91TMC2    C1 1385   1.688   3.068  16.352 -0.4266 -0.1896 -0.0869
   91TMC2    C2 1386   1.612   3.169  16.398 -0.0969  0.3309 -0.4545
   91TMC2    C3 1387   1.541   3.152  16.516 -0.5334  0.2954 -0.2364
   91TMC2    C4 1388   1.696   2.949  16.423 -0.2280 -0.1589 -0.6753
   91TMC2    C5 1389   1.632   2.934  16.543  0.0685  0.1429  0.5845
   91TMC2    C6 1390   1.554   3.040  16.593 -0.4132  0.4201  0.5824
   91TMC2     C 1391   1.795   3.107  16.266 -0.3587  0.3317 -0.1029
   91TMC2     O 1392   1.777   3.196  16.186  0.2118 -0.8535 -0.0771
   91TMC2     H 1393   1.617   3.265  16.346  3.0716 -0.7870 -2.2495
   91TMC2    H1 1394   1.752   2.876  16.367 -0.5802 -1.8604  1.1969
   91TMC2    H2 1395   1.519   3.039  16.695 -2.6212  2.1703 -0.1607
   91TMC2    C7 1396   1.642   2.805  16.610 -0.0572 -0.1059 -0.2398
   91TMC2    C8 1397   1.529   3.270  16.593  0.0756 -0.3090  1.0642
   91TMC2    O1 1398   1.629   2.808  16.733  0.0061 -0.3224 -0.3157
   91TMC2    O2 1399   1.587   3.285  16.702  0.3554 -0.5289  0.9236
   91TMC2    O5 1400   1.505   3.368  16.513  0.0229  0.3079  0.1675
   91TMC2    H5 1401   1.452   3.330  16.440  0.5257  0.7694 -0.4294
   92MPD2     C 1402   2.052   3.175  16.126  0.8686  0.0112 -0.4503
   92MPD2    C1 1403   2.036   3.069  16.217  0.2280 -0.9091 -0.0618
   92MPD2    C2 1404   2.143   2.982  16.234  0.2371 -0.7095  0.2135
   92MPD2    C3 1405   2.264   3.009  16.167  0.4832  0.4068 -0.2661
   92MPD2    C4 1406   2.277   3.109  16.083  0.4021 -0.2742 -0.5076
   92MPD2    C5 1407   2.173   3.191  16.063 -0.2670  0.5756 -0.0274
   92MPD2     H 1408   2.131   2.893  16.294  0.6618 -2.0497 -1.7098
   92MPD2    H1 1409   2.371   3.134  16.036  0.1963 -1.0919 -1.3578
   92MPD2    H2 1410   1.976   3.251  16.113 -0.7190 -1.6602 -0.7613
   92MPD2    H3 1411   2.183   3.276  15.996 -1.1558 -1.1223 -2.3595
   92MPD2     N 1412   2.371   2.920  16.202  0.2648 -0.6393  0.1570
   92MPD2    H5 1413   2.363   2.859  16.283 -1.7677 -3.1558 -1.9437
   92MPD2    N1 1414   1.913   3.048  16.289  0.7298 -0.0718  0.2079
   92MPD2    H7 1415   1.920   2.981  16.364 -1.0374  1.1716  1.4703
   93MPD2     C 1416   3.656   1.735  13.983  0.3263 -0.0584 -0.4928
   93MPD2    C1 1417   3.636   1.869  13.958 -0.0500 -0.0236 -0.3263
   93MPD2    C2 1418   3.524   1.911  13.893  0.7679  0.1102  0.1098
   93MPD2    C3 1419   3.425   1.820  13.863  0.2518  0.9658 -0.1801
   93MPD2    C4 1420   3.449   1.684  13.882 -0.0875 -0.1691  0.3142
   93MPD2    C5 1421   3.575   1.645  13.933 -0.3303 -0.5525  0.5009
   93MPD2     H 1422   3.511   2.015  13.867 -1.3532 -0.2463 -0.2683
   93MPD2    H1 1423   3.382   1.601  13.861  0.9340 -1.1677  1.0339
   93MPD2    H2 1424   3.738   1.717  14.051 -0.7323 -2.1964  0.2037
   93MPD2    H3 1425   3.597   1.541  13.955 -0.7409 -0.3298  1.9527
   93MPD2     N 1426   3.308   1.870  13.802  0.3033 -0.2507  0.0994
   93MPD2    H5 1427   3.308   1.967  13.773 -2.0913 -0.9235 -2.1879
   93MPD2    N1 1428   3.717   1.974  14.016 -0.3171 -0.0449  0.1990
   93MPD2    H7 1429   3.678   2.067  14.015 -0.8034 -0.2330  1.7574
   94TCq2    C1 1430   3.840   1.945  14.082  0.0787 -0.0031  0.1219
   94TCq2    O2 1431   3.916   1.850  14.074 -0.1577 -0.0787  0.5445
   94TCq2    C2 1432   3.903   2.055  14.162 -0.1896 -0.2249  0.2213
   94TCq2    C3 1433   3.855   2.182  14.165  0.1256 -0.6379 -0.2675
   94TCq2    C4 1434   3.920   2.274  14.246 -0.5993 -0.0300  0.6199
   94TCq2    C5 1435   4.030   2.244  14.319  0.1858 -0.1687 -0.1759
   94TCq2    C6 1436   4.085   2.118  14.304  0.2394  0.5949 -0.3924
   94TCq2    C7 1437   4.022   2.026  14.227 -0.6896  0.4170  0.2830
   94TCq2    C8 1438   4.230   2.104  14.295 -0.7566  0.0952  0.8896
   94TCq2    O4 1439   4.281   1.998  14.328  0.1151  0.3649 -0.8432
   94TCq2    C9 1440   3.874   2.411  14.244  0.9282  0.1362  0.0371
   94TCq2    O5 1441   3.932   2.496  14.316 -0.2719 -0.2693  0.3977
   94TCq2    O6 1442   3.776   2.442  14.175 -0.0454 -0.0946  0.2891
   94TCq2    H2 1443   3.765   2.208  14.110  0.8923 -1.6346 -1.9822
   94TCq2    H3 1444   4.068   2.325  14.380 -1.6481 -1.2279  2.3616
   94TCq2    H4 1445   4.077   1.933  14.213 -1.9621 -0.4284  0.9527
   95TMC2    C1 1446   3.464   3.777  16.013  0.3270  0.6238  0.2803
   95TMC2    C2 1447   3.516   3.656  16.071 -0.4284 -0.3761 -0.0528
   95TMC2    C3 1448   3.524   3.647  16.208  0.6023  0.1009 -0.3400
   95TMC2    C4 1449   3.422   3.882  16.091  0.0154  0.0909  0.4743
   95TMC2    C5 1450   3.433   3.867  16.226  0.1387  0.3693  0.1811
   95TMC2    C6 1451   3.478   3.748  16.288  0.2505 -0.1237 -0.0141
   95TMC2     C 1452   3.510   3.808  15.874 -0.3960  0.4937 -0.5089
   95TMC2     O 1453   3.533   3.924  15.850  0.8403 -0.0054 -0.0305
   95TMC2     H 1454   3.557   3.578  16.008 -1.5772  0.3634 -1.7178
   95TMC2    H1 1455   3.365   3.957  16.038  0.7651 -0.2554 -0.8145
   95TMC2    H2 1456   3.517   3.752  16.389  1.5650 -0.1236 -0.5162
   95TMC2    C7 1457   3.355   3.957  16.308 -0.9193 -0.3220 -0.3174
   95TMC2    C8 1458   3.608   3.540  16.258  0.4977  0.3623 -0.0089
   95TMC2    O1 1459   3.324   4.062  16.251 -0.5101 -0.4973  0.1875
   95TMC2    O2 1460   3.671   3.471  16.183 -0.1600 -0.1958  0.5115
   95TMC2    O5 1461   3.559   3.504  16.377  0.0622 -0.0124  0.3204
   95TMC2    H5 1462   3.504   3.574  16.419  0.3448  1.1206 -1.1866
   96MPD2     C 1463   3.663   3.697  15.400  0.1563 -0.1434 -0.0424
   96MPD2    C1 1464   3.686   3.806  15.476  0.2952  0.1990 -0.2528
   96MPD2    C2 1465   3.631   3.816  15.601  0.2772  0.0318 -0.7774
   96MPD2    C3 1466   3.557   3.710  15.654  0.3241  0.1199 -0.0632
   96MPD2    C4 1467   3.532   3.601  15.570 -1.0458  0.2513 -0.1565
   96MPD2    C5 1468   3.581   3.592  15.441 -0.3501  0.1312 -0.1024
   96MPD2     H 1469   3.652   3.901  15.666  2.5942  0.4421 -2.0695
   96MPD2    H1 1470   3.463   3.524  15.603 -0.4701  0.3770  1.3417
   96MPD2    H2 1471   3.708   3.679  15.303 -0.1949  3.8037 -0.9469
   96MPD2    H3 1472   3.558   3.506  15.380 -1.4198  1.8342 -2.1159
   96MPD2     N 1473   3.516   3.703  15.787 -0.5981 -0.6831 -0.4009
   96MPD2    H5 1474   3.477   3.614  15.819  0.8094 -2.1715 -2.7895
   96MPD2    N1 1475   3.766   3.906  15.415  0.2828 -0.2366  0.5717
   96MPD2    H7 1476   3.788   3.895  15.317 -0.1027  2.8488  0.1244
   97MPD2     C 1477   0.912   1.687   0.677  0.6835 -1.0329  0.1509
   97MPD2    C1 1478   0.983   1.790   0.637 -0.1189 -0.6844  0.2164
   97MPD2    C2 1479   1.020   1.800   0.504  0.8537  0.3024 -0.3938
   97MPD2    C3 1480   0.989   1.706   0.410 -0.0581 -0.6649 -0.4076
   97MPD2    C4 1481   0.908   1.601   0.454 -0.3033  0.2756 -0.0688
   97MPD2    C5 1482   0.870   1.592   0.585  0.2942  0.1971  0.0031
   97MPD2     H 1483   1.086   1.880   0.472 -0.5273  1.5390 -0.1183
   97MPD2    H1 1484   0.872   1.516   0.396 -0.0902 -0.6567  1.1801
   97MPD2    H2 1485   0.874   1.691   0.779  2.7876 -0.5459  0.9226
   97MPD2    H3 1486   0.806   1.512   0.618  1.8989 -1.1767 -0.2357
   97MPD2     N 1487   1.031   1.725   0.279 -0.1359 -0.0302 -0.4092
   97MPD2    H5 1488   1.096   1.802   0.271  0.2779 -0.3206  0.1395
   97MPD2    N1 1489   1.014   1.882   0.744  0.2186  0.9122 -0.1964
   97MPD2    H7 1490   0.985   1.867   0.840  1.3228  0.4951  0.0754
   98TCq2    C1 1491   0.991   1.648   0.167  0.5564  0.0562  0.3275
   98TCq2    O2 1492   0.929   1.544   0.167  0.1842 -0.6106 -0.4286
   98TCq2    C2 1493   1.062   1.687   0.047 -0.1116 -0.0651  0.5177
   98TCq2    C3 1494   1.108   1.590  17.653  0.0216  0.5366  0.1977
   98TCq2    C4 1495   1.195   1.624  17.550 -0.1971 -0.2967 -0.8556
   98TCq2    C5 1496   1.234   1.749  17.535 -0.1529 -0.1947 -0.3340
   98TCq2    C6 1497   1.189   1.842  17.620 -0.2892  0.0159  0.2000
   98TCq2    C7 1498   1.109   1.816   0.040 -0.2076  0.1434 -0.1443
   98TCq2    C8 1499   1.252   1.978  17.622 -0.4347  0.6027 -0.6840
   98TCq2    O4 1500   1.373   1.972  17.648  0.9196  0.4977 -0.2923
   98TCq2    C9 1501   1.247   1.520  17.467  0.4505  0.0281  0.6053
   98TCq2    O5 1502   1.195   1.406  17.483  0.3058 -0.0185  0.0002
   98TCq2    O6 1503   1.356   1.536  17.413  0.3709 -0.1894  0.2402
   98TCq2    H2 1504   1.081   1.486  17.670 -0.2077  0.4692 -0.5995
   98TCq2    H3 1505   1.296   1.774  17.450  1.6171  3.9696  2.1669
   98TCq2    H4 1506   1.057   1.896   0.092 -3.2136 -0.1804 -2.5973
   99MPD2     C 1507   4.663   4.347   1.582 -0.0831  0.3814  0.1984
   99MPD2    C1 1508   4.543   4.364   1.520 -0.6728 -0.3508 -0.7227
   99MPD2    C2 1509   4.538   4.331   1.378 -0.3775 -0.5102 -0.2097
   99MPD2    C3 1510   4.644   4.274   1.314  0.0444  0.8384  0.8744
   99MPD2    C4 1511   0.042   4.271   1.376 -0.1298  0.3584 -0.1158
   99MPD2    C5 1512   0.048   4.300   1.509 -0.0284 -0.6081  0.8147
   99MPD2     H 1513   4.449   4.349   1.319  0.1306  1.2346 -0.4372
   99MPD2    H1 1514   0.140   4.246   1.336  1.1004 -0.4976  3.4512
   99MPD2    H2 1515   4.681   4.359   1.689  0.2815  1.7558 -0.0201
   99MPD2    H3 1516   0.146   4.290   1.555 -0.4511 -0.4791  1.7498
   99MPD2     N 1517   4.621   4.225   1.182  0.2533 -0.1549  0.1601
   99MPD2    H5 1518   4.522   4.232   1.162  0.1227 -2.4079 -0.0313
   99MPD2    N1 1519   4.430   4.415   1.593 -0.5478  0.9046 -0.5075
   99MPD2    H7 1520   4.342   4.407   1.543 -1.5537 -0.7510  1.5188
  100TCq2    C1 1521   4.429   4.473   1.718 -0.1222 -0.2933  0.2615
  100TCq2    O2 1522   4.522   4.500   1.791 -0.4332  0.3943 -0.2017
  100TCq2    C2 1523   4.294   4.506   1.757 -0.7508 -0.0380 -0.4285
  100TCq2    C3 1524   4.289   4.627   1.819  0.1444  0.2166  0.5330
  100TCq2    C4 1525   4.160   4.685   1.826  0.4352  1.1464  0.5511
  100TCq2    C5 1526   4.042   4.619   1.780 -0.3649 -0.3505 -0.1429
  100TCq2    C6 1527   4.057   4.497   1.725  0.5843  0.3231  0.2928
  100TCq2    C7 1528   4.183   4.445   1.695 -0.6930 -0.0356 -0.4091
  100TCq2    C8 1529   3.935   4.413   1.699  0.3272  1.1409  0.1771
  100TCq2    O4 1530   3.957   4.310   1.637  0.1356 -0.2782 -0.4900
  100TCq2    C9 1531   4.149   0.091   1.896 -0.4527  0.0693 -0.6474
  100TCq2    O5 1532   4.240   0.133   1.972  0.1468  0.7511 -0.6718
  100TCq2    O6 1533   4.036   0.149   1.900 -0.0330  0.3098 -0.1110
  100TCq2    H2 1534   4.375   4.679   1.859 -1.0185  1.2462  1.6722
  100TCq2    H3 1535   3.944   4.665   1.786 -0.9520 -1.4836 -1.1125
  100TCq2    H4 1536   4.188   4.349   1.646 -1.0394 -0.4038  0.2866
  101MPD2     C 1537   0.581   4.623  12.874  0.3258  0.0317 -0.7863
  101MPD2    C1 1538   0.456   4.669  12.891 -0.0199  0.1523  0.2877
  101MPD2    C2 1539   0.369   4.608  12.975  0.2300 -0.1382  0.0429
  101MPD2    C3 1540   0.408   4.493  13.039  0.0260  0.4903 -0.3409
  101MPD2    C4 1541   0.536   4.440  13.018  0.4451  0.4357 -1.0112
  101MPD2    C5 1542   0.620   4.505  12.930 -0.2624 -0.6994 -0.3267
  101MPD2     H 1543   0.268   4.644  12.992  0.4795  0.6730 -0.2329
  101MPD2    H1 1544   0.577   4.345  13.052 -1.4410 -0.4998 -1.3437
  101MPD2    H2 1545   0.646   4.673  12.802  1.3402 -0.5273 -0.2598
  101MPD2    H3 1546   0.708   4.448  12.904  1.6379  1.6912  0.9118
  101MPD2     N 1547   0.303   4.424  13.109  0.7922 -0.3782 -0.0300
  101MPD2    H5 1548   0.211   4.467  13.114  0.2627 -1.5513  0.4241
  101MPD2    N1 1549   0.415   0.052  12.807  0.9271 -0.2167 -0.0640
  101MPD2    H7 1550   0.481   0.064  12.731  0.2177 -0.3317 -0.7001
  102TCq2    C1 1551   0.508   0.349  12.438 -0.4475  0.0003 -0.3014
  102TCq2    O2 1552   0.602   0.363  12.511  0.3138 -0.2478  0.1846
  102TCq2    C2 1553   0.385   0.318  12.510  0.5111 -0.1141  0.0012
  102TCq2    C3 1554   0.267   0.319  12.446  0.9708 -0.7300 -0.6456
  102TCq2    C4 1555   0.153   0.297  12.521  0.1890  0.5060  0.5857
  102TCq2    C5 1556   0.161   0.247  12.649  0.2477 -0.2314 -0.1604
  102TCq2    C6 1557   0.286   0.225  12.704  0.9524 -0.0801 -0.0340
  102TCq2    C7 1558   0.396   0.275  12.639 -0.4251  0.1580  0.7693
  102TCq2    C8 1559   0.291   0.120  12.808 -0.4958  0.0731  0.2098
  102TCq2    O4 1560   0.189   0.102  12.874  0.2381  0.1546  0.1082
  102TCq2    C9 1561   0.027   0.294  12.458 -0.3281  0.6756  0.8463
  102TCq2    O5 1562   0.018   0.321  12.337 -0.4590  0.1002  0.0904
  102TCq2    O6 1563   4.659   0.241  12.520  0.4064  0.2988 -0.3898
  102TCq2    H2 1564   0.256   0.347  12.341  0.3637  2.3415  0.2282
  102TCq2    H3 1565   0.075   0.227  12.713  1.1303  0.3776  1.2096
  102TCq2    H4 1566   0.495   0.270  12.684  0.0496  0.2726 -0.2635
  103TMC2    C1 1567   3.653   4.412  12.330  0.1821  0.1498 -0.8371
  103TMC2    C2 1568   3.773   4.347  12.348 -0.1155 -0.1904 -0.0980
  103TMC2    C3 1569   3.848   4.387  12.454  0.5056 -0.1495 -0.1261
  103TMC2    C4 1570   3.604   4.504  12.417  0.2105  0.1799  0.3698
  103TMC2    C5 1571   3.680   4.526  12.532 -0.1343 -0.3400  0.0964
  103TMC2    C6 1572   3.802   4.462  12.550  0.2870 -0.2188  0.0463
  103TMC2     C 1573   3.570   4.384  12.219 -0.3269 -0.5953 -0.3732
  103TMC2     O 1574   3.483   4.467  12.191 -0.2084 -0.5829 -0.1002
  103TMC2     H 1575   3.828   4.304  12.265  2.2104  2.1767  0.2204
  103TMC2    H1 1576   3.521   4.568  12.387 -1.3923 -1.7693  0.6831
  103TMC2    H2 1577   3.862   4.480  12.639  0.4829  2.4247 -0.6278
  103TMC2    C7 1578   3.615   4.555  12.657  0.4140 -0.4540  0.8266
  103TMC2    C8 1579   3.968   4.311  12.489  0.3741 -0.1071 -0.0938
  103TMC2    O1 1580   3.686   4.576  12.753 -0.7192  0.2367 -0.1184
  103TMC2    O2 1581   4.051   4.355  12.569  0.2472 -0.2178  0.0982
  103TMC2    O5 1582   3.956   4.177  12.463  0.5036 -0.3387 -0.4011
  103TMC2    H5 1583   3.878   4.156  12.407  0.3523 -1.0348  0.0627
  104MPD2     C 1584   3.515   4.044  12.074 -0.0758 -0.4932 -0.2644
  104MPD2    C1 1585   3.485   4.175  12.104 -0.2187 -0.4982  0.1102
  104MPD2    C2 1586   3.370   4.227  12.058  0.4288  0.1197 -0.1067
  104MPD2    C3 1587   3.270   4.148  12.003  0.1055  0.2173  0.2374
  104MPD2    C4 1588   3.309   4.018  11.969  0.0349 -0.1946  0.4550
  104MPD2    C5 1589   3.429   3.966  12.008 -0.1231  0.7232  0.3310
  104MPD2     H 1590   3.377   4.335  12.052  0.6329  0.1219  0.1328
  104MPD2    H1 1591   3.241   3.954  11.912  0.3274  1.7433 -2.0647
  104MPD2    H2 1592   3.605   4.008  12.121 -0.2641  1.5845  1.6665
  104MPD2    H3 1593   3.450   3.860  11.997 -0.5386  0.7833 -0.9973
  104MPD2     N 1594   3.149   4.210  11.964 -0.1037  0.0436  0.4370
  104MPD2    H5 1595   3.147   4.306  11.999  0.2810  0.2124 -0.0059
  104MPD2    N1 1596   3.582   4.250  12.181 -0.1743  0.3559 -0.0740
  104MPD2    H7 1597   3.665   4.203  12.215  0.5932 -1.0867 -3.9650
  105MPD2     C 1598   0.474   4.550  17.365 -0.1096 -0.1195 -0.3503
  105MPD2    C1 1599   0.352   4.519  17.418  0.1199 -0.2647 -0.5879
  105MPD2    C2 1600   0.307   4.589  17.531 -0.0576  0.4314 -0.0699
  105MPD2    C3 1601   0.384   4.684  17.588 -0.2461  0.4802  0.1720
  105MPD2    C4 1602   0.506   4.712  17.538  0.4007  0.0162 -0.5039
  105MPD2    C5 1603   0.543   4.654  17.419 -0.2275 -0.0191  0.1689
  105MPD2     H 1604   0.209   4.570  17.574  0.0822  1.6205  0.7670
  105MPD2    H1 1605   0.574   0.051  17.595  1.3695 -1.1499 -0.3761
  105MPD2    H2 1606   0.516   4.506  17.276  0.0644 -0.9414  0.1291
  105MPD2    H3 1607   0.643   4.667  17.379 -0.5897  2.7258  0.1579
  105MPD2     N 1608   0.340   0.018   0.019 -0.4808 -0.1650 -0.0784
  105MPD2    H5 1609   0.254   4.706   0.061 -1.0645  0.2400 -0.9576
  105MPD2    N1 1610   0.256   4.427  17.356  0.8109  0.1171 -0.0485
  105MPD2    H7 1611   0.164   4.430  17.399  0.7102 -0.2669 -0.2332
  106TCq2    C1 1612   0.386   0.131   0.080  0.1053 -0.4414 -0.4283
  106TCq2    O2 1613   0.474   0.206   0.043 -0.5921 -0.0060  0.3483
  106TCq2    C2 1614   0.308   0.167   0.195 -0.0717 -0.0330  0.5152
  106TCq2    C3 1615   0.308   0.296   0.236 -0.4024 -0.2021  0.2204
  106TCq2    C4 1616   0.203   0.341   0.318 -0.7047 -0.1898 -0.0800
  106TCq2    C5 1617   0.114   0.253   0.375 -0.0431 -0.3844  0.5366
  106TCq2    C6 1618   0.107   0.131   0.323 -0.2175  0.5553  0.0231
  106TCq2    C7 1619   0.198   0.088   0.229  0.1236 -0.0003 -0.2307
  106TCq2    C8 1620   0.036   0.025   0.389  0.6598 -0.5338  0.4374
  106TCq2    O4 1621   0.069   4.631   0.363  0.5048 -0.3272  0.4117
  106TCq2    C9 1622   0.201   0.479   0.359  0.0248  0.2159  0.3049
  106TCq2    O5 1623   0.106   0.515   0.434  0.0813  0.2229 -0.3842
  106TCq2    O6 1624   0.313   0.538   0.345  0.0533  0.0372 -0.1206
  106TCq2    H2 1625   0.373   0.377   0.205 -0.8091 -0.9411 -2.5485
  106TCq2    H3 1626   0.031   0.297   0.430  0.9833  0.1330  1.6747
  106TCq2    H4 1627   0.196   4.708   0.197 -1.2556 -0.5270  1.5599
  107TMC2    C1 1628   0.881   3.069  11.347 -0.8937  0.2373  0.1734
  107TMC2    C2 1629   0.804   3.041  11.235  1.1582 -0.1834  0.4565
  107TMC2    C3 1630   0.847   3.090  11.113 -0.1354 -0.5606  0.0544
  107TMC2    C4 1631   0.996   3.141  11.349 -0.1512 -0.6203 -0.5069
  107TMC2    C5 1632   1.040   3.176  11.224  0.4930  0.2377 -0.3505
  107TMC2    C6 1633   0.967   3.159  11.108  0.5089  0.3031 -0.4295
  107TMC2     C 1634   0.841   3.004  11.473  0.3351  0.6672  0.1143
  107TMC2     O 1635   0.901   3.047  11.572  0.4273 -0.1542  0.1472
  107TMC2     H 1636   0.709   2.992  11.251  0.6854  0.3290 -0.8234
  107TMC2    H1 1637   1.053   3.156  11.440  0.1407  4.1957 -1.4556
  107TMC2    H2 1638   0.999   3.208  11.017 -0.5947 -0.0314 -1.0017
  107TMC2    C7 1639   1.182   3.215  11.215 -0.2347  0.1106  0.4886
  107TMC2    C8 1640   0.780   3.058  10.990 -0.3326 -0.1739  0.4156
  107TMC2    O1 1641   1.235   3.237  11.326  0.1399  0.3956  0.6080
  107TMC2    O2 1642   0.788   3.118  10.884  0.3137 -0.2502  0.0856
  107TMC2    O5 1643   0.691   2.962  11.021 -0.0536 -0.1569 -0.1986
  107TMC2    H5 1644   0.705   2.909  11.102 -1.0553  1.7348  1.2172
  108MPD2     C 1645   0.615   2.723  11.524 -0.2350  0.2111  0.3773
  108MPD2    C1 1646   0.711   2.812  11.557  0.4988  0.2955  0.6149
  108MPD2    C2 1647   0.724   2.834  11.695 -0.8527  0.8498 -0.2966
  108MPD2    C3 1648   0.664   2.758  11.787 -0.0693  0.1802 -0.6199
  108MPD2    C4 1649   0.581   2.656  11.746  0.0490 -0.6736 -0.2069
  108MPD2    C5 1650   0.552   2.641  11.614  0.5753 -0.4271 -0.0160
  108MPD2     H 1651   0.782   2.920  11.728  1.0469 -0.3942 -0.4090
  108MPD2    H1 1652   0.538   2.595  11.824  0.1828  0.4242  0.7321
  108MPD2    H2 1653   0.578   2.718  11.422  2.0697 -1.1929 -0.3823
  108MPD2    H3 1654   0.497   2.555  11.577  0.4289 -0.6120  0.6407
  108MPD2     N 1655   0.664   2.777  11.927 -0.0612  0.4470  0.3754
  108MPD2    H5 1656   0.606   2.715  11.983 -0.9895  0.7579 -0.2502
  108MPD2    N1 1657   0.757   2.895  11.457 -0.7212 -0.3086 -0.2021
  108MPD2    H7 1658   0.726   2.872  11.363  0.9195 -1.3109 -0.4918
  109MPD2     C 1659   0.500   1.177   1.944 -0.3334  0.7000  0.0722
  109MPD2    C1 1660   0.526   1.204   1.810  0.4876  0.7776  0.6401
  109MPD2    C2 1661   0.645   1.269   1.774  0.5925  0.5607  0.4723
  109MPD2    C3 1662   0.738   1.300   1.872 -0.0200 -0.2698  0.7326
  109MPD2    C4 1663   0.698   1.289   2.008 -0.1790 -0.4048 -0.6185
  109MPD2    C5 1664   0.580   1.231   2.043 -0.3920  0.0074  0.1071
  109MPD2     H 1665   0.658   1.295   1.670  0.5404  1.7433  0.7619
  109MPD2    H1 1666   0.766   1.314   2.088 -2.8742  1.1410  1.1918
  109MPD2    H2 1667   0.411   1.126   1.980 -1.2080  0.9961 -1.6865
  109MPD2    H3 1668   0.560   1.214   2.148 -1.4933 -0.2959 -0.1439
  109MPD2     N 1669   0.866   1.350   1.830 -0.7986  0.1689 -0.1549
  109MPD2    H5 1670   0.875   1.370   1.731  2.4994 -0.0513  0.0763
  109MPD2    N1 1671   0.419   1.160   1.725  0.3002  0.2337 -0.3828
  109MPD2    H7 1672   0.343   1.102   1.757 -1.1247  2.0848 -0.4235
  110TCq2    C1 1673   0.975   1.340   1.911  0.7097 -0.2163 -0.0291
  110TCq2    O2 1674   0.988   1.288   2.023 -0.0146 -0.5441  0.0972
  110TCq2    C2 1675   1.083   1.408   1.854  0.3267 -0.4039 -0.1354
  110TCq2    C3 1676   1.200   1.395   1.928  0.1743 -0.3188  0.5390
  110TCq2    C4 1677   1.305   1.481   1.893 -0.1772 -0.1563  0.0157
  110TCq2    C5 1678   1.287   1.572   1.795 -0.2717  0.6450 -0.4931
  110TCq2    C6 1679   1.163   1.587   1.737 -0.3408 -0.1631  0.2494
  110TCq2    C7 1680   1.063   1.499   1.752 -0.8423 -0.2191 -0.4060
  110TCq2    C8 1681   1.135   1.696   1.646 -0.0162  0.8137 -0.4738
  110TCq2    O4 1682   1.071   1.682   1.542 -0.5647  0.3835  0.0742
  110TCq2    C9 1683   1.426   1.474   1.975  0.3324 -0.0381  0.2354
  110TCq2    O5 1684   1.448   1.374   2.047  0.3437  0.2908  0.5142
  110TCq2    O6 1685   1.504   1.577   1.967 -0.3426  0.7285  0.3940
  110TCq2    H2 1686   1.214   1.330   2.014 -2.0207 -0.8773  0.4673
  110TCq2    H3 1687   1.362   1.649   1.778 -2.3735  2.4030 -1.7947
  110TCq2    H4 1688   0.963   1.533   1.729 -0.9916  0.9362  2.0938
  111TMC2    C1 1689   1.463   0.411  11.289  0.2078  0.5293  0.3324
  111TMC2    C2 1690   1.521   0.315  11.219  0.7980 -0.2314  0.7999
  111TMC2    C3 1691   1.637   0.256  11.268 -0.8834  0.0261 -0.7347
  111TMC2    C4 1692   1.517   0.458  11.403  1.0810  0.0790 -0.0558
  111TMC2    C5 1693   1.620   0.389  11.462 -0.6849  0.5480 -0.2523
  111TMC2    C6 1694   1.691   0.296  11.392 -0.0908  0.1422  0.6723
  111TMC2     C 1695   1.340   0.467  11.240  0.2271 -0.7980 -0.6328
  111TMC2     O 1696   1.287   0.411  11.138  0.1741 -0.0016  0.5274
  111TMC2     H 1697   1.492   0.282  11.120  1.0858  0.7581  0.3806
  111TMC2    H1 1698   1.466   0.532  11.464 -0.1100 -1.1052  0.4012
  111TMC2    H2 1699   1.779   0.246  11.429 -0.0394  1.4229  2.2769
  111TMC2    C7 1700   1.633   0.405  11.604 -0.7527  0.6092  0.1455
  111TMC2    C8 1701   1.734   0.192  11.193  0.4418 -0.4793 -0.4147
  111TMC2    O1 1702   1.559   0.490  11.658 -0.1323  0.5743 -0.0041
  111TMC2    O2 1703   1.852   0.227  11.204  0.4243  0.3664  0.1727
  111TMC2    O5 1704   1.690   0.131  11.085 -0.9850 -0.0837  0.1816
  111TMC2    H5 1705   1.601   0.099  11.112 -1.2559 -0.9240 -1.7206
  112MPD2     C 1706   0.884   0.644  11.301 -1.0176  0.7292 -0.1427
  112MPD2    C1 1707   0.951   0.632  11.186 -0.6687  0.3045 -0.1273
  112MPD2    C2 1708   1.086   0.610  11.190 -0.3942 -0.9399 -0.2912
  112MPD2    C3 1709   1.150   0.601  11.309 -0.2276  0.4301 -0.2059
  112MPD2    C4 1710   1.084   0.635  11.429  0.0848  0.4036  0.4041
  112MPD2    C5 1711   0.945   0.655  11.423 -0.0309 -0.3429 -0.1198
  112MPD2     H 1712   1.137   0.608  11.094  2.1873 -0.3124  1.0453
  112MPD2    H1 1713   1.123   0.622  11.529 -1.2763 -0.6504  0.8004
  112MPD2    H2 1714   0.775   0.636  11.302 -0.9676 -0.6345 -4.2746
  112MPD2    H3 1715   0.881   0.674  11.508  0.4067  1.8796 -0.2852
  112MPD2     N 1716   1.279   0.557  11.319  0.6031  0.5977  0.2976
  112MPD2    H5 1717   1.329   0.585  11.403 -0.1407  0.1632  0.8894
  112MPD2    N1 1718   0.891   0.625  11.061  0.2441  0.0389  0.8717
  112MPD2    H7 1719   0.956   0.613  10.983 -0.8526  1.3882 -0.2360
  113MPD2     C 1720   4.101   3.795   1.301  0.2401 -0.3892  0.0132
  113MPD2    C1 1721   3.967   3.812   1.263 -0.8218  0.2499  1.2597
  113MPD2    C2 1722   3.897   3.708   1.201 -0.1060 -0.4330 -0.2225
  113MPD2    C3 1723   3.969   3.599   1.154  0.1988  0.3481  0.8499
  113MPD2    C4 1724   4.102   3.581   1.197  0.0319  0.1511  0.2139
  113MPD2    C5 1725   4.164   3.679   1.272  0.5016  0.2435 -0.6692
  113MPD2     H 1726   3.794   3.718   1.169 -0.3446 -0.1729  0.6153
  113MPD2    H1 1727   4.163   3.494   1.173  1.1932  0.5106  1.8990
  113MPD2    H2 1728   4.164   3.870   1.347 -1.3067  0.3350  0.9411
  113MPD2    H3 1729   4.265   3.657   1.303  0.3393 -2.9261 -2.3105
  113MPD2     N 1730   3.906   3.507   1.069 -0.1271 -0.2969  0.7094
  113MPD2    H5 1731   3.807   3.518   1.049  0.1710 -2.5304 -2.0770
  113MPD2    N1 1732   3.903   3.935   1.296 -0.4388 -0.2003 -0.5780
  113MPD2    H7 1733   3.802   3.935   1.285 -0.4688  1.3897 -0.3114
  114TCq2    C1 1734   3.974   3.411   0.999  0.3444  0.3231 -0.0310
  114TCq2    O2 1735   4.092   3.388   0.996  0.0607  0.1787 -0.0474
  114TCq2    C2 1736   3.890   3.331   0.907 -0.1736 -0.9907  0.0974
  114TCq2    C3 1737   3.939   3.294   0.789  0.0131  0.2626  0.3356
  114TCq2    C4 1738   3.852   3.239   0.697 -0.7580 -0.2769 -0.6050
  114TCq2    C5 1739   3.719   3.205   0.732  0.2251 -0.6226  0.2232
  114TCq2    C6 1740   3.679   3.239   0.859  0.1273 -0.3984  0.1844
  114TCq2    C7 1741   3.760   3.304   0.948  0.1314 -1.0479  0.2903
  114TCq2    C8 1742   3.555   3.177   0.912 -1.3728  0.2212 -0.4518
  114TCq2    O4 1743   3.560   3.150   1.030 -0.5670 -0.2028  0.0088
  114TCq2    C9 1744   3.898   3.207   0.562 -0.7568  0.1485 -0.6980
  114TCq2    O5 1745   3.844   3.112   0.493 -0.4983 -0.2855  0.7837
  114TCq2    O6 1746   3.995   3.273   0.521 -0.2602  0.1004 -0.0821
  114TCq2    H2 1747   4.038   3.331   0.765  0.6512 -1.0418  0.9852
  114TCq2    H3 1748   3.658   3.165   0.652 -0.1373  0.1589  0.1139
  114TCq2    H4 1749   3.722   3.327   1.047 -1.7444 -0.7357 -0.4948
  115TMC2    C1 1750   4.225   1.746   0.160  1.2880 -0.0494 -0.1655
  115TMC2    C2 1751   4.115   1.821   0.180 -0.1091 -0.8692 -0.6769
  115TMC2    C3 1752   4.131   1.958   0.179  0.4390  0.1204 -0.1443
  115TMC2    C4 1753   4.346   1.799   0.135  0.5026 -0.4307 -0.0374
  115TMC2    C5 1754   4.355   1.933   0.143 -0.7226  0.6633 -0.0747
  115TMC2    C6 1755   4.252   2.019   0.175 -0.0817 -0.1490 -0.6323
  115TMC2     C 1756   4.205   1.606   0.148  0.2561  0.2972 -0.6352
  115TMC2     O 1757   4.094   1.573   0.121  0.0522 -0.0929 -0.1976
  115TMC2     H 1758   4.020   1.791   0.222  0.4343  0.6345  1.6497
  115TMC2    H1 1759   4.435   1.738   0.128  0.4129 -0.5197 -0.4370
  115TMC2    H2 1760   4.266   2.124   0.199 -1.8419 -0.1378  0.3710
  115TMC2    C7 1761   4.491   1.983   0.141 -0.3155 -0.9363 -0.1759
  115TMC2    C8 1762   4.018   2.038   0.214 -0.3548 -0.6735  0.2676
  115TMC2    O1 1763   4.574   1.906   0.184 -0.3146 -0.0323 -0.2335
  115TMC2    O2 1764   4.046   2.147   0.262  0.8092 -0.0082  0.4085
  115TMC2    O5 1765   3.910   2.006   0.137 -0.0876  0.3375  0.1911
  115TMC2    H5 1766   3.911   1.916   0.099 -1.9121  0.6043 -0.4786
  116MPD2     C 1767   4.334   1.113   0.151 -0.6292  0.4933 -0.3001
  116MPD2    C1 1768   4.245   1.185   0.068  0.3858 -0.2941  0.1171
  116MPD2    C2 1769   4.233   1.324   0.081 -0.2246  0.4413 -0.3049
  116MPD2    C3 1770   4.317   1.386   0.169 -0.1478  0.7539 -0.4005
  116MPD2    C4 1771   4.402   1.317   0.251 -0.2181  0.2121 -0.1809
  116MPD2    C5 1772   4.409   1.182   0.246  0.5580 -0.1737 -0.7221
  116MPD2     H 1773   4.173   1.390   0.020 -0.6384 -1.5259 -2.0472
  116MPD2    H1 1774   4.457   1.371   0.328  0.1310  1.9225 -1.6252
  116MPD2    H2 1775   4.362   1.009   0.150 -0.9637  0.4167 -1.1491
  116MPD2    H3 1776   4.458   1.116   0.316 -0.7853  1.1756  1.4822
  116MPD2     N 1777   4.308   1.528   0.191  0.1249  0.5535 -0.7360
  116MPD2    H5 1778   4.384   1.581   0.235  2.1238 -2.0474 -1.0879
  116MPD2    N1 1779   4.163   1.110  17.677 -0.0171 -0.0078 -1.0814
  116MPD2    H7 1780   4.178   1.010  17.671 -1.9456 -0.2384 -2.1589
  117TMC2    C1 1781   3.078   2.453  13.563 -0.2104  0.6395  0.3739
  117TMC2    C2 1782   3.169   2.370  13.621 -0.4566 -0.5085 -0.1939
  117TMC2    C3 1783   3.185   2.376  13.757 -0.3865 -1.0589 -0.5201
  117TMC2    C4 1784   3.009   2.545  13.637  0.9886 -0.0710 -0.1990
  117TMC2    C5 1785   3.027   2.554  13.772  0.3584  0.0562  0.0187
  117TMC2    C6 1786   3.121   2.468  13.827 -0.6900 -0.5482  0.6670
  117TMC2     C 1787   3.018   2.415  13.433  0.3711  0.0048 -0.3258
  117TMC2     O 1788   2.988   2.296  13.436 -0.3791  0.2370  0.0644
  117TMC2     H 1789   3.211   2.293  13.557  2.9490  3.0122 -2.1976
  117TMC2    H1 1790   2.951   2.619  13.583  1.3276 -1.1608 -2.0766
  117TMC2    H2 1791   3.132   2.477  13.934 -1.9165  0.9801  0.6800
  117TMC2    C7 1792   2.972   2.659  13.850  0.2617 -0.8357 -0.0870
  117TMC2    C8 1793   3.247   2.263  13.825  0.3268  0.4305 -0.0889
  117TMC2    O1 1794   3.047   2.725  13.922  0.0858 -0.3030 -0.2299
  117TMC2    O2 1795   3.242   2.149  13.784 -0.4340  0.2067 -0.2830
  117TMC2    O5 1796   3.337   2.325  13.911  0.9011  0.1247 -0.1039
  117TMC2    H5 1797   3.342   2.423  13.905  2.1458  0.2578  3.1119
  118MPD2     C 1798   2.634   2.786  13.815  0.0576  0.0674 -0.2248
  118MPD2    C1 1799   2.763   2.789  13.857  0.2955  0.7042  0.0830
  118MPD2    C2 1800   2.811   2.894  13.929  0.3261  0.0214 -0.1821
  118MPD2    C3 1801   2.732   3.016  13.935 -0.1504  0.2245 -0.1639
  118MPD2    C4 1802   2.598   3.009  13.893 -0.1264 -0.0792 -0.2534
  118MPD2    C5 1803   2.551   2.897  13.839  0.3827 -0.2687 -0.5597
  118MPD2     H 1804   2.913   2.900  13.964  0.9336 -0.8648 -1.8019
  118MPD2    H1 1805   2.534   3.095  13.900  0.2570  0.0435  1.7786
  118MPD2    H2 1806   2.586   2.702  13.765 -1.3655  0.4812  0.4375
  118MPD2    H3 1807   2.450   2.892  13.800 -0.9325  0.2650  2.7919
  118MPD2     N 1808   2.779   3.138  13.985 -0.7856 -0.7279 -0.0811
  118MPD2    H5 1809   2.708   3.211  13.991  1.9768  1.8962  0.5165
  118MPD2    N1 1810   2.850   2.687  13.813 -0.0185  0.4264  0.6743
  118MPD2    H7 1811   2.798   2.626  13.750  0.2726 -0.3569  1.1980
  119MPD2     C 1812   1.447   4.579  13.758 -0.4299  0.0799 -0.7270
  119MPD2    C1 1813   1.346   4.519  13.685 -0.1782 -0.2789 -0.2959
  119MPD2    C2 1814   1.300   4.588  13.578 -0.5147  0.0291 -0.6538
  119MPD2    C3 1815   1.369   4.701  13.527 -0.1861  0.0168 -0.2679
  119MPD2    C4 1816   1.469   0.038  13.601 -0.0316  0.1535  0.8110
  119MPD2    C5 1817   1.511   4.688  13.709  0.1990 -0.6091 -1.0969
  119MPD2     H 1818   1.205   4.562  13.533 -0.0267 -3.7745  0.5431
  119MPD2    H1 1819   1.521   0.126  13.565  2.2503 -1.8486 -0.7964
  119MPD2    H2 1820   1.485   4.540  13.852 -2.2401 -0.9189 -0.4183
  119MPD2    H3 1821   1.594   0.006  13.765  0.8413 -1.1906 -1.6163
  119MPD2     N 1822   1.325   0.045  13.412  1.0721 -0.3646  0.4697
  119MPD2    H5 1823   1.347   0.144  13.411  1.8261 -0.5403 -1.4538
  119MPD2    N1 1824   1.282   4.407  13.744  0.4506  0.2716 -0.2298
  119MPD2    H7 1825   1.316   4.377  13.835 -0.6730  0.3146  0.2043
  120TCq2    C1 1826   1.246   0.010  13.308  0.2751  0.1382 -0.1143
  120TCq2    O2 1827   1.176   0.080  13.237 -0.1939 -0.0780  0.0356
  120TCq2    C2 1828   1.237   4.598  13.278  0.7068 -0.0259  0.0737
  120TCq2    C3 1829   1.337   4.504  13.301 -0.4405  0.3004 -0.4574
  120TCq2    C4 1830   1.311   4.372  13.295  0.6699  0.1567 -0.5153
  120TCq2    C5 1831   1.185   4.323  13.286 -0.3922 -0.0823 -0.3960
  120TCq2    C6 1832   1.085   4.416  13.264 -0.4344  0.1961  0.0849
  120TCq2    C7 1833   1.105   4.549  13.254 -0.6346  0.1390 -0.2490
  120TCq2    C8 1834   0.948   4.384  13.267  0.2329 -0.0821  1.0801
  120TCq2    O4 1835   0.873   4.441  13.191  0.1426  0.5969 -0.2504
  120TCq2    C9 1836   1.423   4.285  13.323 -0.4054 -0.0724 -0.1877
  120TCq2    O5 1837   1.541   4.338  13.317  0.0291  0.0095 -0.2621
  120TCq2    O6 1838   1.399   4.160  13.337  0.2362  0.3746 -0.0032
  120TCq2    H2 1839   1.437   4.544  13.304  1.3212 -4.2589  0.7877
  120TCq2    H3 1840   1.174   4.217  13.305  0.0451  0.0246  0.4563
  120TCq2    H4 1841   1.022   4.618  13.244 -2.2393 -1.4232  2.1354
  121TMC2    C1 1842   2.109   0.823  13.800 -0.5799  0.2188  0.0536
  121TMC2    C2 1843   2.038   0.783  13.907 -0.7727  0.0452 -0.0336
  121TMC2    C3 1844   1.903   0.807  13.915  0.2919  0.0509  0.3090
  121TMC2    C4 1845   2.041   0.889  13.700  0.4837  0.1636  0.0560
  121TMC2    C5 1846   1.908   0.903  13.707 -0.5105  0.1889 -0.0392
  121TMC2    C6 1847   1.832   0.871  13.816 -0.3745 -0.2800 -0.0461
  121TMC2     C 1848   2.253   0.843  13.816 -0.3946  0.2962 -0.1241
  121TMC2     O 1849   2.300   0.785  13.914 -0.2062  0.4357 -0.2347
  121TMC2     H 1850   2.092   0.739  13.990  0.6361 -0.3604 -1.1700
  121TMC2    H1 1851   2.093   0.906  13.606 -2.9679 -0.6549 -1.9887
  121TMC2    H2 1852   1.724   0.878  13.830 -0.4084  0.6359 -0.7600
  121TMC2    C7 1853   1.843   0.941  13.579  0.3130  0.2717  0.4495
  121TMC2    C8 1854   1.857   0.813  14.046  0.1809 -0.0082  0.0552
  121TMC2    O1 1855   1.912   0.956  13.478 -0.0090  0.3065 -0.4073
  121TMC2    O2 1856   1.864   0.922  14.099  1.3151 -0.9915  0.1310
  121TMC2    O5 1857   1.876   0.703  14.117  0.5490  0.5215 -0.1953
  121TMC2    H5 1858   1.863   0.615  14.076  1.5842  0.3899 -0.2470
  122MPD2     C 1859   2.548   0.947  13.788  0.7933 -0.4435 -0.8075
  122MPD2    C1 1860   2.442   0.962  13.699  0.8205  0.4011 -0.7243
  122MPD2    C2 1861   2.471   1.035  13.584 -0.2996 -0.3680 -0.1608
  122MPD2    C3 1862   2.600   1.094  13.560 -0.1853  0.1088  0.2456
  122MPD2    C4 1863   2.694   1.099  13.665 -0.1353 -0.0843  0.7387
  122MPD2    C5 1864   2.657   1.029  13.781  0.7426  0.6015 -0.1687
  122MPD2     H 1865   2.395   1.036  13.507  0.8185  1.7605 -1.2178
  122MPD2    H1 1866   2.795   1.133  13.648 -0.9307  1.7621 -0.3104
  122MPD2    H2 1867   2.538   0.881  13.873 -2.8908  1.5289  0.2970
  122MPD2    H3 1868   2.744   1.021  13.846 -0.0860  1.2446  1.0045
  122MPD2     N 1869   2.619   1.150  13.436 -0.0700  0.7612 -0.7393
  122MPD2    H5 1870   2.545   1.136  13.368 -0.0118  1.6169 -0.9862
  122MPD2    N1 1871   2.313   0.908  13.705  0.5697 -0.3506  0.2041
  122MPD2    H7 1872   2.250   0.935  13.631 -0.3329 -1.1177  0.7009
  123MPD2     C 1873   1.522   4.492   9.730  0.4254  0.2633 -0.7233
  123MPD2    C1 1874   1.551   4.359   9.717 -0.1930 -0.2641  0.4245
  123MPD2    C2 1875   1.666   4.312   9.770  0.1533 -0.7371  0.5192
  123MPD2    C3 1876   1.767   4.393   9.821 -0.0094 -0.5345 -0.4267
  123MPD2    C4 1877   1.742   4.529   9.831  0.4169  0.3428  0.1928
  123MPD2    C5 1878   1.617   4.570   9.788 -0.7450 -0.2541  0.7195
  123MPD2     H 1879   1.697   4.208   9.765  1.2350 -0.2786 -2.4596
  123MPD2    H1 1880   1.809   4.605   9.870  2.2392 -1.1855  0.0360
  123MPD2    H2 1881   1.428   4.525   9.687  0.7117  0.4976 -1.1656
  123MPD2    H3 1882   1.594   4.673   9.811  0.2261 -0.0248  0.6724
  123MPD2     N 1883   1.886   4.328   9.861  0.0419  0.3288  0.3839
  123MPD2    H5 1884   1.892   4.229   9.841 -0.3418  1.1399 -3.7398
  123MPD2    N1 1885   1.456   4.276   9.650  0.0627 -0.5848 -0.6434
  123MPD2    H7 1886   1.369   4.326   9.634 -0.6889 -1.1117  1.6644
  124TCq2    C1 1887   1.983   4.389   9.937  0.1227 -0.2408  0.3839
  124TCq2    O2 1888   1.973   4.496  10.001  0.1497  0.3152 -0.4760
  124TCq2    C2 1889   2.091   4.296   9.966 -0.0204 -0.3411  0.0369
  124TCq2    C3 1890   2.158   4.313  10.085 -0.4678  0.4994 -0.0732
  124TCq2    C4 1891   2.245   4.221  10.134  0.9399  1.0092 -0.7627
  124TCq2    C5 1892   2.266   4.110  10.058  0.2667 -0.9677 -0.4690
  124TCq2    C6 1893   2.198   4.088   9.939 -0.5571  0.6104 -0.2226
  124TCq2    C7 1894   2.117   4.188   9.885 -0.2119  0.1736  0.1557
  124TCq2    C8 1895   2.201   3.956   9.864  0.2029 -0.2723 -0.0112
  124TCq2    O4 1896   2.102   3.927   9.801 -0.0714 -0.2816  0.5388
  124TCq2    C9 1897   2.290   4.222  10.272  0.7956  0.8309  0.2321
  124TCq2    O5 1898   2.353   4.122  10.311 -0.1087  0.0243 -0.2118
  124TCq2    O6 1899   2.237   4.317  10.343  0.7724  0.5766 -0.6406
  124TCq2    H2 1900   2.128   4.394  10.150  1.2145 -0.6345  2.0915
  124TCq2    H3 1901   2.330   4.030  10.094  2.5703  1.1906  0.2241
  124TCq2    H4 1902   2.060   4.180   9.794 -0.3255 -0.4358  0.2773
  125TMC2    C1 1903   2.288   1.743   9.176 -0.8666  0.4307 -0.2353
  125TMC2    C2 1904   2.326   1.702   9.054 -0.4740  0.3523  0.0458
  125TMC2    C3 1905   2.460   1.678   9.031  0.1804  1.1937  0.3657
  125TMC2    C4 1906   2.378   1.748   9.280 -0.0317 -0.3512 -0.3514
  125TMC2    C5 1907   2.511   1.708   9.254  0.2862 -0.8972 -0.6167
  125TMC2    C6 1908   2.556   1.690   9.130  0.7274  0.6075 -0.8444
  125TMC2     C 1909   2.148   1.782   9.195 -0.3249 -0.2291 -0.2208
  125TMC2     O 1910   2.079   1.789   9.091  0.3220 -0.5970  0.3880
  125TMC2     H 1911   2.249   1.701   8.977 -1.2460 -0.2586  0.8301
  125TMC2    H1 1912   2.349   1.750   9.384  0.3553  2.3491 -0.2962
  125TMC2    H2 1913   2.660   1.677   9.102  1.1272 -1.9351  1.8652
  125TMC2    C7 1914   2.604   1.743   9.359  0.3768 -0.2718 -0.2127
  125TMC2    C8 1915   2.504   1.647   8.896 -0.2218  0.2327  0.3880
  125TMC2    O1 1916   2.588   1.838   9.434 -0.7449 -0.2128 -0.1595
  125TMC2    O2 1917   2.622   1.641   8.870  0.1638  0.4746 -0.2892
  125TMC2    O5 1918   2.404   1.598   8.821  0.1133  0.0213 -0.2249
  125TMC2    H5 1919   2.329   1.564   8.874 -0.5318 -0.1233 -1.2352
  126MPD1     C 1920   1.737   1.806   9.497 -0.1111 -0.4704  0.0581
  126MPD1    C1 1921   1.839   1.824   9.585  0.5821 -1.0042 -0.0903
  126MPD1    C2 1922   1.972   1.828   9.527  0.3203 -0.5021 -1.2018
  126MPD1    C3 1923   1.984   1.812   9.388  0.1134 -0.3284  0.9067
  126MPD1    C4 1924   1.873   1.799   9.304  0.4835 -0.3444 -0.2879
  126MPD1    C5 1925   1.749   1.804   9.365  0.1154 -0.3681  0.0187
  126MPD1     H 1926   2.063   1.832   9.587  1.0191  1.7566 -2.4054
  126MPD1    H1 1927   1.878   1.797   9.195 -0.8968  0.8191 -0.3647
  126MPD1    H2 1928   1.638   1.816   9.540  0.2445 -0.3994  0.8577
  126MPD1    H3 1929   1.657   1.805   9.307  1.4444 -1.5826 -2.0763
  126MPD1     N 1930   2.110   1.814   9.328 -0.2965  0.1785 -0.4835
  126MPD1    H5 1931   2.184   1.829   9.396 -0.5526  1.1563 -0.4192
  126MPD1    N1 1932   1.809   1.808   9.725 -0.3085 -0.0847  0.1303
  126MPD1    H6 1933   1.710   1.827   9.742  0.5320  2.6480  2.0184
  126MPD1    H7 1934   1.872   1.871   9.775  0.9959 -0.7404 -0.6748
  127MPD2     C 1935   3.221   4.701  10.013  0.0386 -0.9103  0.1107
  127MPD2    C1 1936   3.340   4.667  10.064  0.6506 -0.7556  0.8666
  127MPD2    C2 1937   3.461   4.687   9.997 -0.3737 -0.4253 -0.0082
  127MPD2    C3 1938   3.455   0.028   9.873 -0.4898 -0.2081 -0.2269
  127MPD2    C4 1939   3.333   0.061   9.825  0.3021 -1.0279 -0.4627
  127MPD2    C5 1940   3.217   0.040   9.894  0.3382  0.2121  0.8507
  127MPD2     H 1941   3.556   4.664  10.043  0.3540  1.8657 -0.3746
  127MPD2    H1 1942   3.322   0.116   9.732  3.4392  0.8277  0.2725
  127MPD2    H2 1943   3.129   4.686  10.068  0.1527  0.2092  0.5951
  127MPD2    H3 1944   3.120   0.074   9.861  0.9497 -0.0938 -1.2658
  127MPD2     N 1945   3.574   0.056   9.808  0.4633  0.0370  0.9722
  127MPD2    H5 1946   3.662   0.032   9.854  0.9070 -0.7810 -0.3127
  127MPD2    N1 1947   3.330   4.612  10.194 -0.2486  0.1252 -0.1629
  127MPD2    H7 1948   3.238   4.596  10.233  0.8371  1.7942  3.0551
  128TCq2    C1 1949   3.429   4.563  10.279  0.2830 -0.5349 -0.2414
  128TCq2    O2 1950   3.548   4.561  10.263  0.0882  0.0904 -0.3207
  128TCq2    C2 1951   3.374   4.503  10.401 -0.3756  0.1588  0.3497
  128TCq2    C3 1952   3.431   4.381  10.434 -0.3667 -0.1385 -0.2865
  128TCq2    C4 1953   3.354   4.310  10.518  0.5299 -0.5601  0.6241
  128TCq2    C5 1954   3.235   4.347  10.571 -0.2496  0.4359  0.1119
  128TCq2    C6 1955   3.182   4.467  10.533  0.4261 -0.3613  0.4055
  128TCq2    C7 1956   3.246   4.542  10.444  0.9044 -0.0270 -0.2858
  128TCq2    C8 1957   3.040   4.487  10.537  0.9180 -0.3580 -0.2701
  128TCq2    O4 1958   2.994   4.600  10.532 -0.0024  0.1819  0.3100
  128TCq2    C9 1959   3.406   4.178  10.560  0.1352  0.2446 -0.3964
  128TCq2    O5 1960   3.363   4.150  10.677  1.0129  0.1967 -0.6316
  128TCq2    O6 1961   3.502   4.126  10.498  0.5611  0.4267 -0.1660
  128TCq2    H2 1962   3.526   4.351  10.392  0.3303 -0.1939  1.3210
  128TCq2    H3 1963   3.184   4.286  10.645 -0.2262  1.1058  0.6780
  128TCq2    H4 1964   3.199   4.626  10.395  0.1196 -0.5007 -0.3410
  129MPD2     C 1965   1.032   1.312   1.016 -0.3925 -0.2760  0.1309
  129MPD2    C1 1966   1.133   1.385   1.072  0.5641  0.0761 -0.1092
  129MPD2    C2 1967   1.210   1.470   0.994 -0.3890 -0.6230 -1.3399
  129MPD2    C3 1968   1.189   1.471   0.853  0.1941  0.3544  0.1319
  129MPD2    C4 1969   1.074   1.413   0.804 -0.1321 -0.0647 -0.7759
  129MPD2    C5 1970   0.994   1.331   0.887  0.0862 -0.1128 -0.0129
  129MPD2     H 1971   1.293   1.519   1.043  0.1093 -1.0945 -1.7088
  129MPD2    H1 1972   1.051   1.402   0.699  0.1069 -0.1242 -0.8233
  129MPD2    H2 1973   0.964   1.245   1.068 -0.2048  1.0039  2.0176
  129MPD2    H3 1974   0.914   1.272   0.844  0.8066 -1.0582 -0.0428
  129MPD2     N 1975   1.278   1.541   0.774 -0.7529  0.0680 -0.2928
  129MPD2    H5 1976   1.347   1.601   0.819 -0.7582  1.3679 -1.9877
  129MPD2    N1 1977   1.175   1.372   1.210  0.3450  0.1324 -0.0102
  129MPD2    H7 1978   1.264   1.413   1.236 -0.6477  1.3128  1.4997
  130TCq2    C1 1979   1.099   1.318   1.313  0.8730  0.2725 -0.5727
  130TCq2    O2 1980   0.985   1.270   1.310  0.2551  0.1433  0.2133
  130TCq2    C2 1981   1.173   1.305   1.438  0.6448 -0.0629 -0.1860
  130TCq2    C3 1982   1.306   1.331   1.442 -0.3860  0.0734  0.1201
  130TCq2    C4 1983   1.394   1.264   1.523 -0.0941  0.6348 -0.2776
  130TCq2    C5 1984   1.340   1.171   1.606  0.2511  0.1679  0.1026
  130TCq2    C6 1985   1.204   1.148   1.610 -0.3628 -0.0766 -0.1073
  130TCq2    C7 1986   1.128   1.205   1.517  0.2821  0.3127  0.3306
  130TCq2    C8 1987   1.137   1.031   1.683 -0.7253 -0.0161  0.8705
  130TCq2    O4 1988   1.015   1.016   1.669  0.4638 -0.2750  0.2880
  130TCq2    C9 1989   1.532   1.277   1.509 -0.2931 -0.1816  0.4658
  130TCq2    O5 1990   1.570   1.362   1.426 -0.6763 -0.1704 -0.5522
  130TCq2    O6 1991   1.596   1.180   1.550 -0.4746  0.8038  0.0325
  130TCq2    H2 1992   1.350   1.410   1.383  0.3733  0.2807  0.9646
  130TCq2    H3 1993   1.406   1.109   1.666  1.5751  0.6768 -0.8276
  130TCq2    H4 1994   1.022   1.187   1.510  0.4790 -0.2375 -1.2211
  131MPD2     C 1995   0.730   4.557   9.346 -0.7737  0.6952 -0.0177
  131MPD2    C1 1996   0.859   4.602   9.326  0.1324 -0.7233  0.5879
  131MPD2    C2 1997   0.962   4.510   9.337 -0.4168  0.0055  0.2700
  131MPD2    C3 1998   0.932   4.376   9.373 -0.0024  0.3852  0.8563
  131MPD2    C4 1999   0.798   4.339   9.397 -0.0013  0.4121 -0.0110
  131MPD2    C5 2000   0.696   4.434   9.391 -0.1027 -0.2583 -0.5436
  131MPD2     H 2001   1.064   4.536   9.314  0.0029 -1.7235  0.1769
  131MPD2    H1 2002   0.769   4.243   9.438  1.2355  0.5192  1.1387
  131MPD2    H2 2003   0.652   4.626   9.319 -2.1477 -1.1465 -0.6815
  131MPD2    H3 2004   0.594   4.406   9.415  0.6684 -1.7406  1.0654
  131MPD2     N 2005   1.044   4.290   9.391  0.0375 -0.0227  0.4476
  131MPD2    H5 2006   1.140   4.321   9.382  0.5913 -1.0898  2.6678
  131MPD2    N1 2007   0.882   0.018   9.312 -0.8543 -0.2659  0.5548
  131MPD2    H7 2008   0.802   0.080   9.314 -1.0430 -0.5511  1.4813
  132TCq2    C1 2009   0.767   0.484   9.274 -0.0978 -0.2236  0.2241
  132TCq2    O2 2010   0.667   0.410   9.260  0.4837  0.5500 -0.2215
  132TCq2    C2 2011   0.896   0.412   9.265  0.3047 -0.7891 -0.8712
  132TCq2    C3 2012   1.010   0.482   9.272  0.4331  0.1913  0.1235
  132TCq2    C4 2013   1.122   0.421   9.315  0.6487  0.0366 -0.3114
  132TCq2    C5 2014   1.116   0.293   9.363  1.1761  0.2821 -1.1408
  132TCq2    C6 2015   1.002   0.222   9.341  0.4891 -0.5739  0.1228
  132TCq2    C7 2016   0.886   0.282   9.303  0.7730 -0.1936  0.8055
  132TCq2    C8 2017   1.004   0.071   9.345  0.0602 -0.1657  1.3659
  132TCq2    O4 2018   1.106   0.019   9.390 -0.4399 -0.2230  0.1030
  132TCq2    C9 2019   1.240   0.497   9.309 -0.9011 -0.7977  0.0933
  132TCq2    O5 2020   1.224   0.624   9.325  0.1072 -0.4945  0.3180
  132TCq2    O6 2021   1.346   0.437   9.271 -0.1663  1.0042  0.2344
  132TCq2    H2 2022   1.020   0.576   9.219 -1.2811  0.6715  0.6674
  132TCq2    H3 2023   1.209   0.247   9.395  0.3324 -0.2601  0.5419
  132TCq2    H4 2024   0.789   0.233   9.293  0.5751  0.7704 -2.2698
  133MPD2     C 2025   3.663   4.565   9.466  0.1756  0.4309 -0.3178
  133MPD2    C1 2026   3.763   4.508   9.545 -0.3173 -0.6420 -0.6655
  133MPD2    C2 2027   3.891   4.560   9.524  0.2982 -0.5255 -0.2550
  133MPD2    C3 2028   3.915   4.666   9.441  0.1657 -0.2364  0.9187
  133MPD2    C4 2029   3.814   0.012   9.381  0.0059  0.0240  0.6374
  133MPD2    C5 2030   3.692   4.673   9.387 -0.1627  0.0516 -0.7473
  133MPD2     H 2031   3.961   4.524   9.598  0.9865 -1.5066 -1.3783
  133MPD2    H1 2032   3.822   0.102   9.320 -0.9862 -1.4075 -1.6260
  133MPD2    H2 2033   3.561   4.529   9.460 -0.3921  1.8595  0.7690
  133MPD2    H3 2034   3.605   4.708   9.332 -0.3338  0.4928 -0.1943
  133MPD2     N 2035   4.037   0.008   9.432  0.2107 -0.0907 -0.5733
  133MPD2    H5 2036   4.033   0.095   9.379 -0.0538 -1.3779 -2.6605
  133MPD2    N1 2037   3.720   4.391   9.620 -0.8466 -0.5815 -0.0562
  133MPD2    H7 2038   3.622   4.366   9.626 -0.6874 -0.8465  1.4472
  134TCq2    C1 2039   3.797   4.326   9.713  0.4226  0.1039  0.6922
  134TCq2    O2 2040   3.904   4.364   9.760 -0.7084 -0.2984  0.0403
  134TCq2    C2 2041   3.747   4.200   9.759  0.0440 -0.4655 -0.1286
  134TCq2    C3 2042   3.667   4.124   9.676  0.9549 -0.3198  0.5783
  134TCq2    C4 2043   3.645   3.990   9.715  0.2863  0.5838  0.4447
  134TCq2    C5 2044   3.706   3.938   9.824 -0.1089  0.4606 -0.4260
  134TCq2    C6 2045   3.805   4.009   9.886  0.7391 -0.7196 -0.0563
  134TCq2    C7 2046   3.830   4.138   9.854  0.0965 -0.8168 -0.1413
  134TCq2    C8 2047   3.856   3.948  10.010  0.1072  0.3712  0.1484
  134TCq2    O4 2048   3.782   3.868  10.066  0.1222  0.4550  0.2830
  134TCq2    C9 2049   3.579   3.901   9.630  0.3789  0.3151  0.4344
  134TCq2    O5 2050   3.535   3.793   9.674  0.5153  0.3345 -0.0227
  134TCq2    O6 2051   3.588   3.927   9.509 -1.0038 -0.4119  0.0275
  134TCq2    H2 2052   3.609   4.160   9.592  1.1495 -0.8016  0.2396
  134TCq2    H3 2053   3.689   3.837   9.858  2.0677  0.2111 -0.0842
  134TCq2    H4 2054   3.910   4.194   9.900 -2.0790  1.9802  0.2744
  135MPD2     C 2055   2.301   2.085   8.937  0.0307  0.3446 -0.2543
  135MPD2    C1 2056   2.311   2.104   9.074 -0.4412 -0.3209  0.6336
  135MPD2    C2 2057   2.435   2.090   9.132 -0.2092 -0.6332  0.2060
  135MPD2    C3 2058   2.545   2.047   9.058 -0.0191  0.2554  0.4208
  135MPD2    C4 2059   2.535   2.019   8.923 -0.0706 -0.0108 -0.4923
  135MPD2    C5 2060   2.412   2.043   8.867  0.0631 -0.1448 -0.5321
  135MPD2     H 2061   2.443   2.096   9.240  0.3049  0.4401  0.1118
  135MPD2    H1 2062   2.619   1.980   8.866 -0.3699  1.1363 -1.7323
  135MPD2    H2 2063   2.206   2.106   8.888  0.5466  2.2220 -0.4454
  135MPD2    H3 2064   2.403   2.028   8.760  0.7121  0.0851 -0.6177
  135MPD2     N 2065   2.668   2.027   9.124  0.0512  0.1367 -0.0228
  135MPD2    H5 2066   2.682   2.078   9.210  0.4331 -0.6355  0.3797
  135MPD2    N1 2067   2.198   2.123   9.161  0.1890  0.1750  0.1438
  135MPD2    H7 2068   2.213   2.124   9.262  2.9502 -0.8343 -0.2671
  136TCq2    C1 2069   2.070   2.151   9.122 -0.0606  0.8055 -0.4475
  136TCq2    O2 2070   2.029   2.152   9.006  0.0665  0.4361  0.4917
  136TCq2    C2 2071   1.972   2.183   9.228  0.5013 -0.1586 -0.0536
  136TCq2    C3 2072   1.844   2.200   9.185 -0.6173  0.0400 -0.4888
  136TCq2    C4 2073   1.742   2.206   9.271 -0.7227  0.5055  0.0166
  136TCq2    C5 2074   1.772   2.219   9.406 -0.1583  0.2709  0.4255
  136TCq2    C6 2075   1.899   2.198   9.453  0.2565  0.7567  0.0453
  136TCq2    C7 2076   2.000   2.179   9.363 -0.2065 -0.9057 -0.2628
  136TCq2    C8 2077   1.924   2.224   9.593 -0.1806 -0.0599 -0.4866
  136TCq2    O4 2078   2.038   2.249   9.628 -0.3433 -0.2132 -0.4359
  136TCq2    C9 2079   1.602   2.202   9.230  0.0526  0.0740 -0.5733
  136TCq2    O5 2080   1.520   2.163   9.321 -1.0896  0.0799 -0.1372
  136TCq2    O6 2081   1.573   2.226   9.109 -0.3237  0.2799  0.2951
  136TCq2    H2 2082   1.825   2.198   9.079 -2.5462 -1.1777 -0.1128
  136TCq2    H3 2083   1.690   2.236   9.474 -0.3205  0.4482  0.1890
  136TCq2    H4 2084   2.096   2.146   9.403 -0.1814  0.6708  1.0206
  137MPD2     C 2085   2.361   1.472   9.543  0.1752  0.6146 -0.4264
  137MPD2    C1 2086   2.233   1.440   9.559 -0.2823  0.6401 -0.6896
  137MPD2    C2 2087   2.189   1.376   9.678 -0.1267 -0.8188  0.2455
  137MPD2    C3 2088   2.286   1.342   9.770  1.0304 -0.2385  0.4697
  137MPD2    C4 2089   2.416   1.392   9.760  0.5076 -0.8074  0.0635
  137MPD2    C5 2090   2.448   1.446   9.639 -0.7898  0.0669  1.3994
  137MPD2     H 2091   2.086   1.341   9.686  0.6534 -2.9951  0.6359
  137MPD2    H1 2092   2.489   1.391   9.840  2.7406 -1.8181 -1.9836
  137MPD2    H2 2093   2.390   1.512   9.447  3.3109  0.8510  0.6125
  137MPD2    H3 2094   2.552   1.470   9.619 -0.1800 -3.5938  0.1912
  137MPD2     N 2095   2.251   1.259   9.882  0.4657  0.6876 -0.3819
  137MPD2    H5 2096   2.154   1.230   9.882  1.5956 -3.1635 -0.2012
  137MPD2    N1 2097   2.152   1.463   9.445  0.0230  0.1319  0.3321
  137MPD2    H7 2098   2.193   1.487   9.355  0.7814  0.2538  0.7091
  138TCq2    C1 2099   2.020   1.428   9.429 -0.1327 -0.4341  0.0914
  138TCq2    O2 2100   1.940   1.404   9.521 -0.3710  0.3506 -0.3352
  138TCq2    C2 2101   1.984   1.434   9.288  0.4757  0.2023  0.8331
  138TCq2    C3 2102   2.077   1.420   9.189 -0.9529 -0.4518  0.8546
  138TCq2    C4 2103   2.052   1.465   9.060  0.4699 -0.1600 -0.3271
  138TCq2    C5 2104   1.926   1.506   9.038  0.4399 -0.6990  0.6037
  138TCq2    C6 2105   1.835   1.507   9.138 -0.0145  0.1741  0.4611
  138TCq2    C7 2106   1.859   1.475   9.270 -0.3102 -0.4062  0.1682
  138TCq2    C8 2107   1.717   1.582   9.106  0.7763  0.3795 -0.4081
  138TCq2    O4 2108   1.713   1.647   9.005  0.0893  0.2181 -0.2772
  138TCq2    C9 2109   2.143   1.454   8.945  0.0889 -0.2797 -0.0675
  138TCq2    O5 2110   2.104   1.509   8.842 -0.8793 -0.4599  0.1646
  138TCq2    O6 2111   2.259   1.413   8.968  0.0969 -0.3300  0.4831
  138TCq2    H2 2112   2.179   1.389   9.204 -0.3799  0.3795 -1.2577
  138TCq2    H3 2113   1.896   1.541   8.940  2.3342  1.5964  0.8396
  138TCq2    H4 2114   1.791   1.490   9.353 -0.3665 -0.3261  0.1074
  139TMC2    C1 2115   2.816   3.577  13.355 -0.1793  0.5009 -0.4042
  139TMC2    C2 2116   2.879   3.685  13.298 -0.0563 -0.4821 -0.0954
  139TMC2    C3 2117   2.807   3.805  13.302 -0.1372  0.6362 -0.4586
  139TMC2    C4 2118   2.688   3.584  13.407 -0.5259 -0.5983 -0.3982
  139TMC2    C5 2119   2.628   3.703  13.401  0.1455  0.1760 -0.6120
  139TMC2    C6 2120   2.680   3.815  13.348  0.4982 -0.1178 -0.1898
  139TMC2     C 2121   2.898   3.455  13.362 -0.0897  0.1921  0.1792
  139TMC2     O 2122   3.019   3.459  13.336 -0.1353  0.5613  0.5323
  139TMC2     H 2123   2.974   3.680  13.247  0.0645  0.5071  0.0268
  139TMC2    H1 2124   2.642   3.502  13.461  0.6287 -0.6690  0.4725
  139TMC2    H2 2125   2.619   3.903  13.336  0.6217  0.1553  1.1613
  139TMC2    C7 2126   2.487   3.721  13.440  0.0026  0.2432  0.2241
  139TMC2    C8 2127   2.879   3.927  13.259  0.4208  0.9705  0.2069
  139TMC2    O1 2128   2.451   3.833  13.484 -0.4791 -0.2742  0.0241
  139TMC2    O2 2129   2.982   3.921  13.194 -0.1487  0.3888  0.1849
  139TMC2    O5 2130   2.884   3.992  13.375 -0.4510 -0.0838 -0.4696
  139TMC2    H5 2131   2.801   3.993  13.426  0.8585 -0.5795  1.6541
  140MPD2     C 2132   2.793   3.151  13.549 -0.1237 -0.5969  0.2049
  140MPD2    C1 2133   2.865   3.233  13.464  0.1939  0.8435 -1.0468
  140MPD2    C2 2134   2.967   3.172  13.394 -0.2823 -0.7561  0.1467
  140MPD2    C3 2135   3.012   3.047  13.423  0.3725  0.4146  0.3284
  140MPD2    C4 2136   2.951   2.975  13.519 -0.2437 -0.6121  0.2146
  140MPD2    C5 2137   2.836   3.021  13.578 -0.6119  0.1269 -1.0797
  140MPD2     H 2138   3.012   3.225  13.311  0.3622  0.0575  1.0129
  140MPD2    H1 2139   2.994   2.882  13.556 -0.9385 -1.3879 -0.9179
  140MPD2    H2 2140   2.721   3.204  13.611 -0.8604 -0.3385 -0.8668
  140MPD2    H3 2141   2.781   2.962  13.651 -0.6594 -0.0881 -1.2918
  140MPD2     N 2142   3.117   2.990  13.345  0.2285 -0.1378  0.1751
  140MPD2    H5 2143   3.160   3.049  13.274 -2.2567  0.9732 -0.4162
  140MPD2    N1 2144   2.827   3.362  13.435 -0.2520 -0.6330  0.0628
  140MPD2    H7 2145   2.748   3.393  13.490  0.6421  1.9494 -0.0576
  141TCq2    C1 2146   3.575   0.146  14.246 -0.2370 -0.8381 -0.3941
  141TCq2    O2 2147   3.538   0.242  14.179  0.2004 -0.3435 -0.1933
  141TCq2    C2 2148   3.659   0.185  14.364 -0.0364 -0.3692  0.2790
  141TCq2    C3 2149   3.653   0.117  14.481  0.0918  0.1858 -0.4076
  141TCq2    C4 2150   3.701   0.182  14.590 -0.2709  0.3742 -0.8336
  141TCq2    C5 2151   3.760   0.308  14.576 -0.0271  0.1726 -0.2646
  141TCq2    C6 2152   3.767   0.364  14.451  0.8982 -0.6516 -0.0620
  141TCq2    C7 2153   3.720   0.304  14.343 -0.5422 -0.3884  0.1524
  141TCq2    C8 2154   3.852   0.474  14.426  0.6565  0.3212  0.2991
  141TCq2    O4 2155   3.863   0.510  14.310 -0.3670  0.6173  0.2275
  141TCq2    C9 2156   3.691   0.130  14.729 -0.4992 -0.0342 -0.6103
  141TCq2    O5 2157   3.611   0.033  14.748  0.0403  0.2188 -0.4296
  141TCq2    O6 2158   3.758   0.190  14.814 -0.5991 -0.1666 -0.3807
  141TCq2    H2 2159   3.602   0.022  14.495  0.5272  0.1525  0.9966
  141TCq2    H3 2160   3.800   0.354  14.666  1.5182  0.5336 -1.1487
  141TCq2    H4 2161   3.730   0.342  14.243 -0.7288 -2.6143 -0.7223
  142MPD2     C 2162   1.287   3.228  10.002 -0.4222  0.1133  0.0478
  142MPD2    C1 2163   1.297   3.174   9.879 -0.2288 -0.3099  0.1824
  142MPD2    C2 2164   1.403   3.191   9.800 -0.0591  0.1129 -0.0266
  142MPD2    C3 2165   1.514   3.263   9.843  0.7126 -0.6771 -0.6561
  142MPD2    C4 2166   1.505   3.322   9.973  0.6428  0.0207  0.6205
  142MPD2    C5 2167   1.392   3.304  10.045  0.0640  0.1903  0.3506
  142MPD2     H 2168   1.403   3.129   9.711 -0.2244 -0.3358  0.2903
  142MPD2    H1 2169   1.586   3.386  10.009  0.8538 -1.5046  2.8425
  142MPD2    H2 2170   1.201   3.215  10.067  0.5068  1.0468  1.4554
  142MPD2    H3 2171   1.392   3.348  10.144 -1.2053  0.9059  0.0237
  142MPD2     N 2172   1.626   3.285   9.763 -0.4305 -0.3013  0.3737
  142MPD2    H5 2173   1.698   3.338   9.811  0.7361 -2.2209  0.7011
  142MPD2    N1 2174   1.181   3.093   9.847 -0.2839 -0.4930 -0.0888
  142MPD2    H7 2175   1.110   3.088   9.919 -1.4771 -0.3161 -1.2341
  143TCq2    C1 2176   1.657   3.224   9.648  0.8734  0.0727  0.2049
  143TCq2    O2 2177   1.598   3.147   9.574  0.0920 -0.1557 -0.0519
  143TCq2    C2 2178   1.791   3.265   9.599  0.6651  0.6973  0.3623
  143TCq2    C3 2179   1.831   3.206   9.477  0.3642  0.4111  0.1465
  143TCq2    C4 2180   1.955   3.235   9.431 -0.1831  0.4863  0.8103
  143TCq2    C5 2181   2.033   3.325   9.496 -0.1410  0.0310 -0.4868
  143TCq2    C6 2182   1.984   3.386   9.606 -0.3645 -0.1857  0.7317
  143TCq2    C7 2183   1.859   3.363   9.655  0.5435  0.5751  0.3323
  143TCq2    C8 2184   2.066   3.489   9.671 -0.0571  0.1460  0.3017
  143TCq2    O4 2185   2.011   3.550   9.761  0.2367 -0.4215  0.3269
  143TCq2    C9 2186   2.000   3.193   9.300  0.9843  0.1229  0.6354
  143TCq2    O5 2187   2.119   3.220   9.265  0.0957 -0.3616  0.6061
  143TCq2    O6 2188   1.933   3.104   9.242 -0.6729  0.4029  0.4601
  143TCq2    H2 2189   1.761   3.148   9.417  3.1772 -2.2220 -0.6523
  143TCq2    H3 2190   2.124   3.357   9.445 -0.7913  2.8124  0.0682
  143TCq2    H4 2191   1.813   3.429   9.727 -0.8642 -0.1671  0.1109
  144MPD2     C 2192   4.334   3.063   0.812  0.1269 -0.2402  0.4407
  144MPD2    C1 2193   4.209   3.012   0.846 -0.6198 -0.5656 -0.4781
  144MPD2    C2 2194   4.176   2.998   0.975  0.6094  0.1222 -0.6434
  144MPD2    C3 2195   4.272   3.039   1.070  0.0608 -0.2016 -0.8575
  144MPD2    C4 2196   4.396   3.090   1.039 -0.3260 -0.3985 -0.5115
  144MPD2    C5 2197   4.420   3.100   0.910  0.7473  0.0046  0.3928
  144MPD2     H 2198   4.082   2.952   1.000  0.6111  1.5938  2.1169
  144MPD2    H1 2199   4.467   3.121   1.114 -1.4237  0.8593 -0.0031
  144MPD2    H2 2200   4.375   3.074   0.713  0.0295 -0.1025  0.4157
  144MPD2    H3 2201   4.508   3.159   0.887 -0.4917  1.9606  0.6345
  144MPD2     N 2202   4.250   3.013   1.207  0.4687 -0.5632 -0.4042
  144MPD2    H5 2203   4.325   3.020   1.275 -0.5895  0.8650  0.6189
  144MPD2    N1 2204   4.126   2.938   0.756  0.3243  0.7510  0.6511
  144MPD2    H7 2205   4.051   2.883   0.795  1.1260  0.8452  2.3194
  145TCq2    C1 2206   4.127   2.984   1.269 -0.4218 -0.3148 -0.3600
  145TCq2    O2 2207   4.011   3.008   1.229  0.1086 -0.3427  0.0602
  145TCq2    C2 2208   4.150   2.968   1.416 -0.8524 -0.8944  0.5817
  145TCq2    C3 2209   4.265   2.899   1.449  0.6921  0.3156 -0.5537
  145TCq2    C4 2210   4.301   2.898   1.578 -0.1779  0.1834 -0.5009
  145TCq2    C5 2211   4.230   2.955   1.676  0.2240 -0.4412  0.2053
  145TCq2    C6 2212   4.117   3.023   1.641  0.4212  0.9164  0.1616
  145TCq2    C7 2213   4.079   3.038   1.506  0.1614  0.0330  0.7028
  145TCq2    C8 2214   4.028   3.055   1.746  0.5530  0.1966 -0.1679
  145TCq2    O4 2215   4.041   2.994   1.851 -0.3717  0.3549 -0.2716
  145TCq2    C9 2216   4.418   2.827   1.620  0.8134 -0.0961  0.7506
  145TCq2    O5 2217   4.475   2.749   1.538  0.1744  0.4186 -0.0897
  145TCq2    O6 2218   4.444   2.837   1.745 -0.3944 -0.4296  0.0005
  145TCq2    H2 2219   4.323   2.847   1.374  1.9601  1.9881 -0.7336
  145TCq2    H3 2220   4.249   2.936   1.781  0.1736  0.1918  0.3287
  145TCq2    H4 2221   3.980   3.074   1.482  0.6769  1.0648  0.1627
  146TMC2    C1 2222   4.481   1.075  12.601  0.4557  1.0893 -0.4192
  146TMC2    C2 2223   4.352   1.066  12.562 -0.0226  0.4803 -0.3850
  146TMC2    C3 2224   4.319   0.970  12.469 -0.5421 -0.0887 -1.0078
  146TMC2    C4 2225   4.572   0.979  12.568  0.1629  0.4645 -1.0392
  146TMC2    C5 2226   4.541   0.892  12.467 -0.3010 -0.4697  0.5836
  146TMC2    C6 2227   4.411   0.883  12.417  0.1374  0.2057 -0.2476
  146TMC2     C 2228   4.509   1.181  12.694  0.6031 -0.1536 -0.1368
  146TMC2     O 2229   4.443   1.283  12.682 -0.0314 -0.4157 -0.2933
  146TMC2     H 2230   4.271   1.128  12.600 -2.3158 -1.3631 -2.2765
  146TMC2    H1 2231   4.672   0.987  12.608  0.3343 -1.1017 -1.1634
  146TMC2    H2 2232   4.381   0.806  12.346 -1.6025 -0.0546  0.7823
  146TMC2    C7 2233   4.648   0.802  12.411  0.1226  0.2728 -0.9165
  146TMC2    C8 2234   4.204   1.009  12.391 -0.3694  0.4385 -0.0021
  146TMC2    O1 2235   4.627   0.738  12.306 -0.2664  0.3662 -0.9196
  146TMC2    O2 2236   4.179   1.124  12.365  0.1151  0.5030  1.0064
  146TMC2    O5 2237   4.173   0.907  12.315  0.2894  0.8091  0.0679
  146TMC2    H5 2238   4.190   0.823  12.364  0.8221  1.7186  1.4325
  147MPD2     C 2239   0.432   0.674  12.413  0.2007 -0.3869 -0.1585
  147MPD2    C1 2240   0.383   0.672  12.543  0.6615  0.0295  0.9511
  147MPD2    C2 2241   0.255   0.714  12.562  0.1316  0.0931  0.3071
  147MPD2    C3 2242   0.166   0.739  12.458 -0.7276 -0.0431 -0.4321
  147MPD2    C4 2243   0.215   0.730  12.330  0.0390 -0.5715 -0.2161
  147MPD2    C5 2244   0.349   0.702  12.306  0.4038  0.5035  0.0083
  147MPD2     H 2245   0.218   0.722  12.664  0.4337  1.5898  0.3054
  147MPD2    H1 2246   0.146   0.753  12.249 -0.8531  0.3986  0.8187
  147MPD2    H2 2247   0.538   0.659  12.392  0.1204  0.1892 -0.9670
  147MPD2    H3 2248   0.389   0.702  12.205 -0.6587 -0.2346 -0.4123
  147MPD2     N 2249   0.038   0.786  12.496  0.2736  0.3676  0.1894
  147MPD2    H5 2250   0.026   0.808  12.595 -1.0035  0.6404 -0.0232
  147MPD2    N1 2251   0.472   0.645  12.646  0.5082  0.0008  0.5440
  147MPD2    H7 2252   0.569   0.655  12.618  0.6513 -0.5470  0.8535
  148MPD2     C 2253   1.222   4.315  10.603 -0.6096  0.5151  0.1249
  148MPD2    C1 2254   1.183   4.269  10.479 -0.0831  0.2492  0.0878
  148MPD2    C2 2255   1.053   4.245  10.455 -0.2775  0.6449  0.5228
  148MPD2    C3 2256   0.958   4.269  10.558  0.5619 -0.4308  0.0196
  148MPD2    C4 2257   1.006   4.318  10.684  0.5141  0.1831 -0.4632
  148MPD2    C5 2258   1.138   4.345  10.702 -0.1923  0.1545  0.3702
  148MPD2     H 2259   1.024   4.206  10.358 -0.2910 -0.8124  1.1220
  148MPD2    H1 2260   0.931   4.349  10.755 -0.0435 -2.1607 -0.0331
  148MPD2    H2 2261   1.328   4.314  10.626 -0.3566 -1.1861 -1.1801
  148MPD2    H3 2262   1.172   4.379  10.799 -0.0378 -0.1568  0.4245
  148MPD2     N 2263   0.812   4.261  10.543 -0.0462  0.3189 -0.5664
  148MPD2    H5 2264   0.758   4.283  10.626 -0.2743 -1.3224 -0.2793
  148MPD2    N1 2265   1.270   4.251  10.369  0.0158 -0.3219  0.1656
  148MPD2    H7 2266   1.233   4.229  10.277  1.6239 -0.4336 -0.4468
  149TCq2    C1 2267   1.406   4.270  10.374 -0.1881 -0.0943 -0.8424
  149TCq2    O2 2268   1.479   4.300  10.470 -0.7188 -0.4291 -0.4012
  149TCq2    C2 2269   1.477   4.253  10.249  0.0862  0.7125  0.6014
  149TCq2    C3 2270   1.611   4.223  10.263  0.0317  0.6115 -0.6983
  149TCq2    C4 2271   1.677   4.163  10.151 -0.2934 -0.5759  0.2656
  149TCq2    C5 2272   1.605   4.115  10.045 -1.0277 -0.3215 -0.7907
  149TCq2    C6 2273   1.469   4.138  10.046  0.1411  0.0440  0.6736
  149TCq2    C7 2274   1.406   4.205  10.144  0.1940  0.3577 -0.1945
  149TCq2    C8 2275   1.379   4.062   9.959  0.6796 -0.1955  0.4262
  149TCq2    O4 2276   1.264   4.095   9.964 -0.2060 -0.0862  0.1003
  149TCq2    C9 2277   1.812   4.109  10.166  0.4492 -0.7274 -0.1601
  149TCq2    O5 2278   1.877   4.129  10.273 -0.4813  0.0419 -0.4205
  149TCq2    O6 2279   1.852   4.038  10.068  0.1266  0.0492 -0.5987
  149TCq2    H2 2280   1.663   4.237  10.357  0.0566 -1.1507 -0.4572
  149TCq2    H3 2281   1.655   4.086   9.954  0.7401 -1.5321  0.5761
  149TCq2    H4 2282   1.298   4.216  10.136  0.2792  0.8210 -0.6797
  150MPD2     C 2283   2.190   3.836  12.268 -0.3498  0.5765  0.0415
  150MPD2    C1 2284   2.207   3.923  12.163 -0.5934  0.0764 -0.1875
  150MPD2    C2 2285   2.320   3.998  12.155 -0.1386 -0.0580 -0.9117
  150MPD2    C3 2286   2.419   3.993  12.250  0.9180  0.2037  0.2401
  150MPD2    C4 2287   2.400   3.915  12.356 -0.1741  0.3703  0.4594
  150MPD2    C5 2288   2.297   3.823  12.358  0.3408  0.0623 -0.1776
  150MPD2     H 2289   2.336   4.067  12.073  1.4466  0.2653 -0.3265
  150MPD2    H1 2290   2.475   3.902  12.433  0.9170 -0.6575 -0.7910
  150MPD2    H2 2291   2.100   3.786  12.302 -0.6058  1.0143 -0.0012
  150MPD2    H3 2292   2.307   3.750  12.437 -1.7033 -0.2920 -0.2345
  150MPD2     N 2293   2.535   4.065  12.220 -0.2964  0.1711  0.1355
  150MPD2    H5 2294   2.517   4.123  12.138  1.6296 -0.9986 -1.1158
  150MPD2    N1 2295   2.091   3.947  12.087 -0.6708 -0.2557  0.1843
  150MPD2    H7 2296   2.023   3.875  12.109 -1.6224  0.3757 -0.6746
  151TCq2    C1 2297   2.657   4.054  12.277  0.6378  0.2652 -0.1998
  151TCq2    O2 2298   2.701   3.977  12.367  0.0934 -0.4223 -0.3766
  151TCq2    C2 2299   2.740   4.163  12.240  0.3268 -0.4433  1.3051
  151TCq2    C3 2300   2.684   4.289  12.208  0.6313  0.1978 -0.2136
  151TCq2    C4 2301   2.772   4.391  12.188 -0.3272 -0.7996  0.1207
  151TCq2    C5 2302   2.900   4.385  12.239 -0.4382 -0.1278  0.5654
  151TCq2    C6 2303   2.946   4.265  12.271  0.2626  0.1226  0.1865
  151TCq2    C7 2304   2.868   4.151  12.279 -0.7132  0.9852 -0.2099
  151TCq2    C8 2305   3.084   4.262  12.324 -0.3345 -0.0351  0.6163
  151TCq2    O4 2306   3.147   4.371  12.321 -0.0049 -0.3308 -0.3642
  151TCq2    C9 2307   2.740   4.512  12.124 -0.3756  0.0841  0.4010
  151TCq2    O5 2308   2.823   4.608  12.114 -0.0637  0.3680 -0.8042
  151TCq2    O6 2309   2.615   4.529  12.106 -0.0028 -0.0398 -0.6405
  151TCq2    H2 2310   2.583   4.298  12.169  0.3089 -0.2451  0.5300
  151TCq2    H3 2311   2.960   4.475  12.235  0.0048 -0.5070 -1.3761
  151TCq2    H4 2312   2.898   4.049  12.301 -1.8471  0.4988 -0.9460
  152MPD2     C 2313   2.054   3.330  12.867  0.1669 -0.5876  0.1470
  152MPD2    C1 2314   2.061   3.449  12.804  0.6967 -0.3898  0.2964
  152MPD2    C2 2315   1.936   3.516  12.782 -0.7381 -0.0243  0.5518
  152MPD2    C3 2316   1.817   3.467  12.828  0.0696  0.6925  0.2795
  152MPD2    C4 2317   1.816   3.352  12.905  0.6003 -0.2050  0.0763
  152MPD2    C5 2318   1.936   3.280  12.910  0.2609  0.6299 -0.2025
  152MPD2     H 2319   1.939   3.601  12.714  0.3325  0.5949  1.3672
  152MPD2    H1 2320   1.729   3.311  12.955  0.1525 -0.1276 -0.6461
  152MPD2    H2 2321   2.144   3.275  12.893 -1.0612 -1.9013  1.6063
  152MPD2    H3 2322   1.937   3.186  12.965 -0.4579  0.1926 -0.9354
  152MPD2     N 2323   1.707   3.549  12.793  0.3088  0.2694  0.6046
  152MPD2    H5 2324   1.720   3.635  12.741  0.1766 -0.1143 -0.0623
  152MPD2    N1 2325   2.184   3.503  12.768  0.6347 -0.6267  0.3658
  152MPD2    H7 2326   2.267   3.450  12.794  1.1295 -0.0383 -0.0182
  153TCq2    C1 2327   2.202   3.628  12.718 -0.0939 -0.3614  0.4546
  153TCq2    O2 2328   2.117   3.717  12.707 -0.1171 -0.4713  0.3888
  153TCq2    C2 2329   2.339   3.668  12.700 -0.2427 -0.2586  0.0468
  153TCq2    C3 2330   2.433   3.576  12.653 -0.6825  0.2425 -0.0987
  153TCq2    C4 2331   2.562   3.616  12.661 -0.0067  1.3555 -0.4930
  153TCq2    C5 2332   2.604   3.744  12.694  0.2327 -0.2985  0.3483
  153TCq2    C6 2333   2.507   3.832  12.727 -0.5154 -0.4031 -0.5462
  153TCq2    C7 2334   2.372   3.797  12.723  0.3652 -0.1694  0.6803
  153TCq2    C8 2335   2.544   3.958  12.788 -0.1406 -0.1168 -0.3480
  153TCq2    O4 2336   2.458   4.046  12.800  0.1991 -0.2609 -0.4605
  153TCq2    C9 2337   2.667   3.520  12.642  0.0780  0.3316 -0.3632
  153TCq2    O5 2338   2.770   3.543  12.709  0.1249  0.0103  0.5676
  153TCq2    O6 2339   2.647   3.418  12.572  0.0345 -0.8868  0.1100
  153TCq2    H2 2340   2.411   3.474  12.625  2.8343 -0.6237  0.3420
  153TCq2    H3 2341   2.711   3.761  12.682  0.3030 -0.4202  0.8144
  153TCq2    H4 2342   2.299   3.868  12.761 -0.8382 -1.7548  1.3233
  154MPD2     C 2343   3.723   3.584   0.651  0.5350  0.1573  0.4611
  154MPD2    C1 2344   3.698   3.658   0.766  0.2589  0.2789 -0.0901
  154MPD2    C2 2345   3.570   3.648   0.815  0.1011  0.0608  0.2421
  154MPD2    C3 2346   3.468   3.566   0.758  0.1528  0.0700 -0.1182
  154MPD2    C4 2347   3.503   3.487   0.648  0.3274  0.0083  0.3619
  154MPD2    C5 2348   3.630   3.493   0.592  0.1157 -0.1709 -0.0390
  154MPD2     H 2349   3.528   3.702   0.899 -2.3547  0.4889 -1.2456
  154MPD2    H1 2350   3.432   3.414   0.612 -0.6184  0.8180  0.5758
  154MPD2    H2 2351   3.825   3.587   0.614 -0.2607 -0.2949 -1.7946
  154MPD2    H3 2352   3.660   3.430   0.509 -0.6477  1.0244 -1.2160
  154MPD2     N 2353   3.345   3.561   0.822  0.1008 -0.4541 -0.4054
  154MPD2    H5 2354   3.339   3.609   0.912  1.5674 -4.8061  2.0593
  154MPD2    N1 2355   3.796   3.744   0.814  0.7493  0.9893  0.2393
  154MPD2    H7 2356   3.887   3.759   0.772  1.0770 -0.3312  0.4930
  155TCq2    C1 2357   3.765   3.841   0.910  0.2998  0.2374  0.3178
  155TCq2    O2 2358   3.659   3.873   0.964 -0.4115  0.0205  0.1396
  155TCq2    C2 2359   3.886   3.919   0.937  0.5254  0.3963 -0.5204
  155TCq2    C3 2360   3.871   4.050   0.980 -0.1628 -0.6476  0.2105
  155TCq2    C4 2361   3.985   4.122   0.997  0.2442 -0.1527 -0.3674
  155TCq2    C5 2362   4.110   4.063   0.984 -0.0730 -0.4930 -0.3943
  155TCq2    C6 2363   4.117   3.932   0.948  0.8650 -0.3404  0.1483
  155TCq2    C7 2364   4.007   3.860   0.927 -0.3166  0.7451 -0.0735
  155TCq2    C8 2365   4.242   3.860   0.968 -0.7935 -0.0592  0.8405
  155TCq2    O4 2366   4.250   3.741   0.941 -0.3072  0.0520 -0.1701
  155TCq2    C9 2367   3.966   4.263   1.028  0.3650 -0.6691  0.3550
  155TCq2    O5 2368   4.058   4.332   1.078 -0.3273  0.4009  0.3379
  155TCq2    O6 2369   3.852   4.304   0.993 -0.3897 -0.1923  0.1144
  155TCq2    H2 2370   3.772   4.093   0.981 -0.1567 -0.6813  1.4761
  155TCq2    H3 2371   4.195   4.130   0.988 -0.1149 -0.4986  0.5207
  155TCq2    H4 2372   4.005   3.753   0.911 -1.2985  1.1299 -2.5346
  156MPD2     C 2373   2.473   0.826  12.066 -0.1877 -0.8798  0.1416
  156MPD2    C1 2374   2.416   0.904  11.963  0.1252 -0.2906  0.0396
  156MPD2    C2 2375   2.330   1.006  12.003 -0.0833 -0.3615  0.0438
  156MPD2    C3 2376   2.306   1.023  12.133 -0.2392 -0.3434 -0.2297
  156MPD2    C4 2377   2.345   0.930  12.228 -0.2914 -0.8318 -0.2363
  156MPD2    C5 2378   2.439   0.834  12.196 -0.5417 -0.0083  0.2287
  156MPD2     H 2379   2.276   1.072  11.936  3.6319  1.1718 -1.4157
  156MPD2    H1 2380   2.331   0.934  12.335 -1.4099 -1.8126 -0.3523
  156MPD2    H2 2381   2.544   0.747  12.045 -1.2549 -1.4312 -1.3872
  156MPD2    H3 2382   2.480   0.766  12.270  2.0456  0.7551 -0.5037
  156MPD2     N 2383   2.214   1.128  12.151 -0.5511 -0.7330 -0.1741
  156MPD2    H5 2384   2.168   1.160  12.066  0.4379 -4.1662 -2.0318
  156MPD2    N1 2385   2.467   0.908  11.829  0.1041  0.2575  0.3107
  156MPD2    H7 2386   2.551   0.852  11.814 -0.9484 -0.9163 -1.1834
  157TCq2    C1 2387   2.413   0.982  11.729 -0.3283  0.0448  0.2505
  157TCq2    O2 2388   2.324   1.062  11.720 -0.1263 -0.2734 -0.3411
  157TCq2    C2 2389   2.508   0.987  11.617  0.3066  0.3189  0.5471
  157TCq2    C3 2390   2.642   1.003  11.641 -0.2257  0.4262  0.6103
  157TCq2    C4 2391   2.713   1.052  11.535 -0.0781  0.3348  0.6208
  157TCq2    C5 2392   2.658   1.102  11.419 -0.1932  0.1822 -0.1655
  157TCq2    C6 2393   2.521   1.107  11.414  0.1498 -0.7234 -0.0042
  157TCq2    C7 2394   2.453   1.029  11.504 -0.0545  0.1007 -0.5725
  157TCq2    C8 2395   2.469   1.240  11.378 -0.2743 -0.0729  0.3956
  157TCq2    O4 2396   2.530   1.309  11.292  0.1287 -0.4277 -0.7079
  157TCq2    C9 2397   2.853   1.082  11.552 -0.0985  0.1307  0.2541
  157TCq2    O5 2398   2.897   1.061  11.669 -0.2849 -0.4233  0.1545
  157TCq2    O6 2399   2.923   1.149  11.468 -0.0364  0.0191  0.9820
  157TCq2    H2 2400   2.685   0.998  11.740  0.5534  0.7200  0.2926
  157TCq2    H3 2401   2.717   1.147  11.340  2.1465 -0.4745  1.2139
  157TCq2    H4 2402   2.349   1.001  11.489  0.0412 -0.4091 -0.2942
  158TMC2    C1 2403   2.681   0.031  13.981 -0.3339 -1.2945  0.0836
  158TMC2    C2 2404   2.777   0.111  13.920 -0.1509  0.0365  0.2243
  158TMC2    C3 2405   2.739   0.181  13.802  0.5696 -0.3791 -0.0103
  158TMC2    C4 2406   2.555   0.017  13.935 -0.3612  0.4962 -0.3789
  158TMC2    C5 2407   2.524   0.090  13.826  0.3909  0.1695  0.7516
  158TMC2    C6 2408   2.609   0.172  13.758  0.3187 -0.7995  0.0352
  158TMC2     C 2409   2.729   4.689  14.105 -0.3184  0.0759 -0.1246
  158TMC2     O 2410   2.823   0.024  14.156 -0.3655  0.4807 -0.7271
  158TMC2     H 2411   2.878   0.101  13.959 -0.0601 -0.5968 -0.1734
  158TMC2    H1 2412   2.491   4.672  13.991  0.5983 -0.0151  0.0998
  158TMC2    H2 2413   2.580   0.223  13.667 -0.2852  0.9740  1.2309
  158TMC2    C7 2414   2.394   0.070  13.770 -0.6085  0.6927 -0.6816
  158TMC2    C8 2415   2.834   0.254  13.724 -0.3169  0.2297 -0.4378
  158TMC2    O1 2416   2.357   0.156  13.689 -0.2804  0.2191 -0.1343
  158TMC2    O2 2417   2.793   0.353  13.660  0.1603 -0.1889  0.5068
  158TMC2    O5 2418   2.962   0.196  13.725 -0.1001  0.2218 -0.4333
  158TMC2    H5 2419   2.979   0.118  13.782  2.4057 -0.2027 -1.7488
  159MPD2     C 2420   2.787   4.300  14.418 -0.0600  0.9042  0.5746
  159MPD2    C1 2421   2.696   4.262  14.321  0.8911 -0.0996  0.5723
  159MPD2    C2 2422   2.655   4.362  14.237  0.4783 -0.1379 -0.3387
  159MPD2    C3 2423   2.699   4.484  14.247  0.5336  0.6745  0.1682
  159MPD2    C4 2424   2.783   4.522  14.352 -0.4098 -0.3784  0.1324
  159MPD2    C5 2425   2.821   4.432  14.445  0.2693  0.3439  0.0626
  159MPD2     H 2426   2.584   4.350  14.156  0.2227  1.3850 -0.3256
  159MPD2    H1 2427   2.831   4.620  14.352  1.2824 -1.2162  0.5512
  159MPD2    H2 2428   2.833   4.225  14.481 -0.1763 -0.7787 -1.3721
  159MPD2    H3 2429   2.891   4.451  14.525  1.5651 -1.1799 -0.7167
  159MPD2     N 2430   2.669   4.566  14.130 -0.4723 -0.6908 -0.0442
  159MPD2    H5 2431   2.608   4.531  14.057 -1.9710 -0.6059  1.1632
  159MPD2    N1 2432   2.655   4.131  14.315  0.1652 -0.4763 -0.0797
  159MPD2    H7 2433   2.676   4.070  14.393  0.1801  0.4293  0.6194
  160TMC2    C1 2434   3.042   3.407   1.841  0.3016  0.1197 -0.4384
  160TMC2    C2 2435   3.113   3.356   1.945 -0.5833 -0.3544 -0.3689
  160TMC2    C3 2436   3.134   3.223   1.945  0.3329  0.3115 -0.6304
  160TMC2    C4 2437   3.011   3.335   1.727 -0.6125 -0.5001 -0.1831
  160TMC2    C5 2438   3.051   3.203   1.726 -0.4784  0.2036 -0.1137
  160TMC2    C6 2439   3.102   3.137   1.837  0.1951 -0.3025  1.1280
  160TMC2     C 2440   3.013   3.547   1.845 -0.0685 -0.1700 -0.0737
  160TMC2     O 2441   3.086   3.614   1.918 -0.4311 -0.1835 -0.8378
  160TMC2     H 2442   3.144   3.407   2.035  0.5010 -0.3813 -0.7185
  160TMC2    H1 2443   2.979   3.380   1.634 -1.5165 -1.3602 -0.2726
  160TMC2    H2 2444   3.111   3.029   1.841  0.2798 -0.3702 -0.9856
  160TMC2    C7 2445   3.033   3.128   1.605 -0.0732  0.4111 -0.5114
  160TMC2    C8 2446   3.144   3.157   2.075 -0.3574  0.2205  0.7558
  160TMC2    O1 2447   3.105   3.029   1.597  0.1275  0.4823 -0.4207
  160TMC2    O2 2448   3.088   3.207   2.172  0.5104 -0.2106 -0.5388
  160TMC2    O5 2449   3.245   3.070   2.082 -0.0498 -0.3125  0.1820
  160TMC2    H5 2450   3.290   3.046   1.998 -1.2742  0.1943 -0.6293
  161MPD2     C 2451   2.867   3.807   1.870  0.6272 -0.4623 -0.4999
  161MPD2    C1 2452   2.837   3.705   1.779  0.8304 -0.1881 -0.4298
  161MPD2    C2 2453   2.726   3.725   1.693 -0.4189  0.8260  0.2913
  161MPD2    C3 2454   2.656   3.850   1.693  0.6154 -0.2126  0.2221
  161MPD2    C4 2455   2.693   3.952   1.781  0.6868 -0.1555  0.2421
  161MPD2    C5 2456   2.789   3.923   1.872 -0.1499  0.6558  0.1662
  161MPD2     H 2457   2.693   3.643   1.631 -0.6048  2.6136 -2.0015
  161MPD2    H1 2458   2.638   4.045   1.788  0.7297  0.1600 -3.8516
  161MPD2    H2 2459   2.953   3.808   1.935  0.7552 -1.3431 -0.6495
  161MPD2    H3 2460   2.808   3.990   1.955  3.2749  2.4729 -2.0887
  161MPD2     N 2461   2.536   3.870   1.629 -0.5189  0.6625 -0.2437
  161MPD2    H5 2462   2.502   3.965   1.645  0.7257  1.0427  0.1316
  161MPD2    N1 2463   2.905   3.583   1.770 -0.1095  0.4179 -0.0327
  161MPD2    H7 2464   2.863   3.516   1.706  2.4509 -0.7019 -0.5435
  162TMC2    C1 2465   0.324   0.534   0.739 -0.1940 -0.5503 -0.0339
  162TMC2    C2 2466   0.275   0.631   0.655  0.1107  0.5175  0.2952
  162TMC2    C3 2467   0.183   0.717   0.711 -0.9699  0.1235  0.2703
  162TMC2    C4 2468   0.288   0.531   0.874  0.5067 -0.9822 -0.0529
  162TMC2    C5 2469   0.206   0.625   0.922 -0.3382 -0.5212  0.2627
  162TMC2    C6 2470   0.138   0.714   0.841  0.5060  0.1768 -0.7339
  162TMC2     C 2471   0.426   0.439   0.690 -0.2874 -0.7075  0.2228
  162TMC2     O 2472   0.446   0.431   0.569 -0.2709  0.0418 -0.3718
  162TMC2     H 2473   0.317   0.655   0.558 -0.3946  0.6556  0.1104
  162TMC2    H1 2474   0.301   0.436   0.926 -0.9034 -1.9637 -1.4719
  162TMC2    H2 2475   0.067   0.787   0.878 -0.4794 -0.9331 -0.4105
  162TMC2    C7 2476   0.164   0.622   1.060  0.2421  0.3808 -0.3203
  162TMC2    C8 2477   0.127   0.820   0.628 -0.2166 -0.2700 -0.1755
  162TMC2    O1 2478   0.056   0.677   1.092  0.1141  0.2057 -0.5846
  162TMC2    O2 2479   0.088   0.925   0.682  0.2729 -0.7946 -0.1067
  162TMC2    O5 2480   0.111   0.778   0.504 -0.4853  0.3000 -0.1416
  162TMC2    H5 2481   0.118   0.681   0.491  1.0059  0.2282  1.1716
  163MPD2     C 2482   0.747   0.031   0.663 -0.0896 -0.0325 -0.0363
  163MPD2    C1 2483   0.689   0.109   0.564  0.0430 -0.0118 -0.0318
  163MPD2    C2 2484   0.598   0.212   0.605  0.4521  0.5808  0.1418
  163MPD2    C3 2485   0.581   0.252   0.735 -0.6063  0.2354  0.7410
  163MPD2    C4 2486   0.646   0.172   0.829 -0.5462  0.1440 -0.7006
  163MPD2    C5 2487   0.732   0.071   0.796 -0.1480  0.2741 -0.3952
  163MPD2     H 2488   0.524   0.242   0.531 -1.2941  0.8779  2.0278
  163MPD2    H1 2489   0.629   0.180   0.936 -1.9522  0.3121 -0.9333
  163MPD2    H2 2490   0.813   4.673   0.632 -0.6269 -0.2970 -0.5165
  163MPD2    H3 2491   0.771   0.019   0.883 -0.9055  0.3596 -0.0055
  163MPD2     N 2492   0.496   0.360   0.780 -0.0431  0.0150 -0.0499
  163MPD2    H5 2493   0.485   0.382   0.878  4.8391 -2.1151  0.9831
  163MPD2    N1 2494   0.713   0.072   0.430 -0.0559  0.0451  0.2115
  163MPD2    H7 2495   0.778   4.721   0.407 -0.7539 -0.5258  0.0569
  164TCq2    C1 2496   1.191   4.251  11.249  0.2667  0.5449  0.2679
  164TCq2    O2 2497   1.104   4.202  11.316  0.4098 -0.2524 -0.2716
  164TCq2    C2 2498   1.254   4.374  11.293  0.3328 -0.0440 -0.2900
  164TCq2    C3 2499   1.376   4.419  11.240 -0.7261  0.0342 -0.1374
  164TCq2    C4 2500   1.388   4.554  11.255  0.7057 -0.7618 -0.4370
  164TCq2    C5 2501   1.295   4.635  11.316  0.2564 -0.1791 -0.3122
  164TCq2    C6 2502   1.185   4.584  11.380  0.6475 -0.2691 -0.6148
  164TCq2    C7 2503   1.157   4.451  11.360  0.3999 -0.2397 -0.2071
  164TCq2    C8 2504   1.069   4.674  11.408  0.2684 -0.7978 -0.1467
  164TCq2    O4 2505   0.956   4.634  11.395 -0.0867 -0.0572  0.0689
  164TCq2    C9 2506   1.498   4.617  11.190  0.1597 -0.2113  0.4537
  164TCq2    O5 2507   1.562   4.542  11.115 -0.2339 -0.0974  0.9747
  164TCq2    O6 2508   1.481   0.016  11.159  0.2665 -0.0935  0.3548
  164TCq2    H2 2509   1.443   4.357  11.181 -0.1353  1.4984 -1.0068
  164TCq2    H3 2510   1.310   0.020  11.310  0.5877 -0.1255  1.3240
  164TCq2    H4 2511   1.061   4.412  11.388  0.9329 -0.3140  1.5124
  165MPD2     C 2512   1.898   1.539   1.527 -0.0689 -0.1666  0.4825
  165MPD2    C1 2513   1.939   1.665   1.570 -0.0855  1.0155  0.0464
  165MPD2    C2 2514   2.068   1.703   1.585  0.0024  0.2237 -0.3309
  165MPD2    C3 2515   2.160   1.620   1.545 -0.2656 -0.3337  0.4004
  165MPD2    C4 2516   2.133   1.498   1.484 -0.5294 -0.3308 -0.0656
  165MPD2    C5 2517   1.995   1.460   1.480 -0.3509  0.4057 -0.1678
  165MPD2     H 2518   2.085   1.803   1.623 -0.3005  0.0839  0.1640
  165MPD2    H1 2519   2.208   1.432   1.442  0.3156 -1.6519  3.4780
  165MPD2    H2 2520   1.793   1.515   1.528 -0.3279  0.8726 -1.2963
  165MPD2    H3 2521   1.968   1.370   1.426 -0.1874  0.7355 -0.8052
  165MPD2     N 2522   2.295   1.649   1.555  0.5897 -0.3949  0.4998
  165MPD2    H5 2523   2.367   1.591   1.514 -0.5503 -0.1957 -1.8181
  165MPD2    N1 2524   1.830   1.740   1.610  0.0868  0.3418  0.1818
  165MPD2    H7 2525   1.741   1.704   1.577 -1.4776  2.5214  1.9981
  166TCq2    C1 2526   2.344   1.765   1.603  0.2078 -0.6049 -0.7180
  166TCq2    O2 2527   2.291   1.872   1.627  0.4861 -0.0367 -0.4025
  166TCq2    C2 2528   2.491   1.776   1.601 -0.5464  0.8093 -0.3599
  166TCq2    C3 2529   2.560   1.663   1.642 -0.2904 -0.2610 -0.5814
  166TCq2    C4 2530   2.691   1.674   1.681 -0.0239  0.8753  0.4469
  166TCq2    C5 2531   2.747   1.797   1.700  0.0819 -0.6301 -0.7787
  166TCq2    C6 2532   2.673   1.907   1.662 -0.5605 -0.1361 -0.4868
  166TCq2    C7 2533   2.541   1.902   1.615  0.2501  0.3291 -0.3045
  166TCq2    C8 2534   2.728   2.040   1.674  0.3002 -0.0370  0.6683
  166TCq2    O4 2535   2.849   2.051   1.671  0.1093  0.2738  0.0198
  166TCq2    C9 2536   2.754   1.558   1.735 -0.0747  0.6379 -0.0347
  166TCq2    O5 2537   2.679   1.455   1.754 -0.0394 -0.3065  0.4215
  166TCq2    O6 2538   2.865   1.584   1.795 -1.0784 -0.3663  0.0450
  166TCq2    H2 2539   2.504   1.570   1.645 -0.1233 -0.3860 -1.3638
  166TCq2    H3 2540   2.843   1.820   1.743 -0.1169  0.7492 -1.0786
  166TCq2    H4 2541   2.494   1.995   1.585  1.7339  1.2176  0.1401
  167TMC2    C1 2542   0.200   4.409  12.718 -0.1910  0.6245 -0.4900
  167TMC2    C2 2543   0.080   4.428  12.796  0.1265  1.3907 -0.0693
  167TMC2    C3 2544   0.051   4.333  12.885  0.1573  0.8670  0.5896
  167TMC2    C4 2545   0.291   4.309  12.748 -0.0225 -0.2027 -0.1284
  167TMC2    C5 2546   0.243   4.208  12.822  0.1682 -0.3862  0.6257
  167TMC2    C6 2547   0.122   4.218  12.883 -0.1608 -0.0906 -0.0858
  167TMC2     C 2548   0.217   4.516  12.620 -0.4380 -0.4348 -0.3615
  167TMC2     O 2549   0.118   4.587  12.597  0.7500  0.1903  0.4980
  167TMC2     H 2550   0.031   4.523  12.783  0.3158  1.1699 -2.5708
  167TMC2    H1 2551   0.385   4.298  12.695 -1.1163 -3.8388 -1.3190
  167TMC2    H2 2552   0.095   4.141  12.955  1.9848 -0.2888  0.5074
  167TMC2    C7 2553   0.316   4.085  12.851 -0.3546 -0.5057  0.2792
  167TMC2    C8 2554   4.640   4.322  12.935  0.1481 -0.4043 -0.0666
  167TMC2    O1 2555   0.276   4.006  12.937 -0.7052  0.5738 -0.2565
  167TMC2    O2 2556   4.585   4.213  12.947 -0.2430 -0.2432  0.4983
  167TMC2    O5 2557   4.582   4.439  12.960  0.1831 -0.2098 -0.1242
  167TMC2    H5 2558   4.629   4.524  12.955  0.9418 -0.4735  2.9561
  168MPD2     C 2559   0.301   4.697  12.405  0.1487  0.3810 -0.5195
  168MPD2    C1 2560   0.382   4.602  12.463  0.3561 -0.3783 -0.4602
  168MPD2    C2 2561   0.499   4.588  12.407  0.3914 -0.6640 -0.4402
  168MPD2    C3 2562   0.545   4.661  12.294 -0.7244  0.1044  0.3914
  168MPD2    C4 2563   0.469   0.041  12.245 -0.5727  0.2709 -0.6176
  168MPD2    C5 2564   0.349   0.054  12.300  0.5276 -0.6467  0.2093
  168MPD2     H 2565   0.559   4.507  12.447  0.9175 -0.3263 -0.5492
  168MPD2    H1 2566   0.507   0.097  12.161 -0.8423 -0.2359 -1.0798
  168MPD2    H2 2567   0.198   4.712  12.433  0.3066  0.5190 -0.0243
  168MPD2    H3 2568   0.285   0.134  12.264 -0.0871 -1.5052 -0.5757
  168MPD2     N 2569   0.662   4.620  12.222 -0.0162  0.1644  0.2146
  168MPD2    H5 2570   0.697   4.667  12.139  3.2041  0.2729  1.6476
  168MPD2    N1 2571   0.342   4.518  12.574  0.1525 -0.1602  0.2322
  168MPD2    H7 2572   0.415   4.453  12.605 -1.0021 -0.7631  1.6685
  169MPD1     C 2573   2.048   3.676   9.355 -0.1120  0.2356 -0.0716
  169MPD1    C1 2574   2.106   3.761   9.445 -0.9746  0.1453  0.4985
  169MPD1    C2 2575   2.243   3.764   9.459 -0.5138  0.2074 -0.2174
  169MPD1    C3 2576   2.322   3.685   9.370 -0.3356 -0.2489 -0.0349
  169MPD1    C4 2577   2.258   3.604   9.279 -0.4200  0.2329  0.4808
  169MPD1    C5 2578   2.120   3.602   9.274 -0.3783  0.1745  0.3584
  169MPD1     H 2579   2.297   3.831   9.524 -0.1613  0.6997 -1.0176
  169MPD1    H1 2580   2.309   3.524   9.227 -3.2056 -0.6656 -0.8818
  169MPD1    H2 2581   1.940   3.665   9.348 -0.2968  2.2736 -0.3040
  169MPD1    H3 2582   2.071   3.530   9.210 -0.6572 -0.9288  1.8060
  169MPD1     N 2583   2.463   3.682   9.386 -0.4720 -0.2252  0.7865
  169MPD1    H5 2584   2.496   3.770   9.427 -1.2546 -0.1340  1.2259
  169MPD1    N1 2585   2.028   3.872   9.494  0.2347 -0.0219 -0.7953
  169MPD1    H6 2586   2.080   3.915   9.571  0.3910 -0.9761 -0.3591
  169MPD1    H7 2587   1.935   3.844   9.525  0.4270  4.7153  4.0358
  170MPD1     C 2588   0.909   2.226  12.895  0.6552 -0.6287  1.3587
  170MPD1    C1 2589   0.916   2.350  12.958 -0.5658  0.2205 -0.1502
  170MPD1    C2 2590   0.962   2.350  13.093 -0.1970  0.2364 -0.2146
  170MPD1    C3 2591   0.975   2.234  13.166  0.6138  0.5869  0.1340
  170MPD1    C4 2592   0.972   2.114  13.098 -1.2437 -0.5424  0.2426
  170MPD1    C5 2593   0.934   2.115  12.969  0.1013 -0.5238 -0.3337
  170MPD1     H 2594   0.983   2.442  13.145  0.3016 -0.7962  1.4041
  170MPD1    H1 2595   0.998   2.018  13.141 -1.6561 -0.8308 -0.1602
  170MPD1    H2 2596   0.885   2.220  12.790  0.9715  2.4813  1.1384
  170MPD1    H3 2597   0.927   2.023  12.912 -1.1719 -0.0636 -0.9237
  170MPD1     N 2598   1.024   2.245  13.307  0.2644 -0.1594  0.2505
  170MPD1    H5 2599   1.042   2.339  13.340  0.2062 -0.4766  1.2030
  170MPD1    N1 2600   0.899   2.469  12.882 -0.1138  0.5146 -0.1849
  170MPD1    H6 2601   0.909   2.558  12.930  0.2090 -1.3695  3.2050
  170MPD1    H7 2602   0.819   2.466  12.818 -0.8989  1.8899  0.7341
  171MPD1     C 2603   4.003   2.965  15.745 -0.1305  0.2774 -0.4483
  171MPD1    C1 2604   4.099   3.059  15.730  0.3379 -0.0565  0.1642
  171MPD1    C2 2605   4.225   3.018  15.706 -0.2891  0.0370 -0.8004
  171MPD1    C3 2606   4.270   2.883  15.715  0.7762 -0.2283  0.2168
  171MPD1    C4 2607   4.172   2.792  15.743  0.0943  0.4423  0.1596
  171MPD1    C5 2608   4.040   2.834  15.750  0.2678  0.7467  0.5546
  171MPD1     H 2609   4.295   3.097  15.685  0.3381  0.2842  2.2195
  171MPD1    H1 2610   4.187   2.687  15.763 -2.1920 -0.3181 -2.1464
  171MPD1    H2 2611   3.901   2.998  15.763 -0.6294 -2.6518  1.9858
  171MPD1    H3 2612   3.958   2.766  15.766  0.5514  1.2927  4.3010
  171MPD1     N 2613   4.403   2.834  15.713 -0.2838  0.3993  0.0789
  171MPD1    H5 2614   4.412   2.736  15.689  2.0336  0.1295  2.0168
  171MPD1    N1 2615   4.069   3.193  15.714 -0.4659 -0.1612  0.4077
  171MPD1    H6 2616   4.136   3.257  15.757 -1.0486  0.6294  0.1440
  171MPD1    H7 2617   3.985   3.201  15.771 -1.4482 -0.3769 -1.0333
  172MPD1     C 2618   4.273   2.491   0.128 -0.3103 -0.4312 -0.3399
  172MPD1    C1 2619   4.202   2.585   0.051  0.0069 -0.1306  0.9999
  172MPD1    C2 2620   4.210   2.720   0.080 -0.5061  0.8057 -0.0555
  172MPD1    C3 2621   4.275   2.760   0.199  0.5537 -0.7071 -0.2973
  172MPD1    C4 2622   4.348   2.664   0.264 -0.3672 -0.5597  0.9183
  172MPD1    C5 2623   4.351   2.530   0.228 -0.2284  0.1313 -0.9418
  172MPD1     H 2624   4.182   2.790   0.002  0.5716  0.2405 -0.9368
  172MPD1    H1 2625   4.412   2.692   0.346 -0.2952  2.0239 -0.0252
  172MPD1    H2 2626   4.280   2.391   0.088  1.5665 -0.8476  1.0957
  172MPD1    H3 2627   4.398   2.455   0.290 -1.5929  0.0747  0.0160
  172MPD1     N 2628   4.292   2.896   0.232 -0.6365 -0.1314  0.3215
  172MPD1    H5 2629   4.356   2.910   0.310  1.2239  2.0300 -1.6034
  172MPD1    N1 2630   4.152   2.546  17.617  0.3784  0.2008 -0.0784
  172MPD1    H6 2631   4.079   2.609  17.585  0.0914 -1.5866 -2.8798
  172MPD1    H7 2632   4.107   2.456  17.630 -1.2495  1.1840  1.1609
  173MPD1     C 2633   0.753   2.351  13.655 -0.3601 -0.2453 -1.0206
  173MPD1    C1 2634   0.618   2.342  13.638  0.1907  0.1854 -0.3551
  173MPD1    C2 2635   0.546   2.310  13.752 -0.0176 -0.3308  0.0068
  173MPD1    C3 2636   0.604   2.269  13.869 -0.6015  0.2498 -0.0912
  173MPD1    C4 2637   0.742   2.273  13.878  0.5892  0.4999  0.4669
  173MPD1    C5 2638   0.819   2.312  13.770 -0.1674 -0.6054 -0.2221
  173MPD1     H 2639   0.438   2.310  13.744 -0.0073 -2.5233 -0.2639
  173MPD1    H1 2640   0.785   2.233  13.969 -1.1965  2.2302  2.0842
  173MPD1    H2 2641   0.817   2.380  13.573 -1.6200  0.4283 -1.7708
  173MPD1    H3 2642   0.927   2.310  13.780 -0.1818 -2.2259 -0.4525
  173MPD1     N 2643   0.515   2.252  13.978  0.1960 -0.6390 -0.2189
  173MPD1    H5 2644   0.419   2.265  13.948  0.1572  2.2617  1.1248
  173MPD1    N1 2645   0.557   2.394  13.519  0.2083 -0.4513 -0.3955
  173MPD1    H6 2646   0.621   2.396  13.440 -1.3784 -0.2752 -1.6711
  173MPD1    H7 2647   0.474   2.338  13.498  0.7029 -0.8228 -1.3829
  174MPD1     C 2648   4.541   1.627  14.386  0.0896 -0.3902 -0.9637
  174MPD1    C1 2649   4.495   1.752  14.421  0.5710 -0.6011 -0.6507
  174MPD1    C2 2650   4.589   1.853  14.407  0.8846 -0.0699  0.7940
  174MPD1    C3 2651   4.706   1.839  14.337 -0.2199  0.1943 -0.0928
  174MPD1    C4 2652   0.027   1.712  14.306 -0.6572 -0.2195  0.1424
  174MPD1    C5 2653   4.672   1.608  14.337 -0.2742 -0.0346  0.1835
  174MPD1     H 2654   4.555   1.950  14.440 -1.1717 -0.7041  0.5518
  174MPD1    H1 2655   0.132   1.699  14.285 -0.8621  0.8268 -1.5571
  174MPD1    H2 2656   4.478   1.539  14.384  1.1728 -1.2460  1.5113
  174MPD1    H3 2657   4.704   1.505  14.329  1.3648  0.2835  2.6200
  174MPD1     N 2658   0.061   1.954  14.335 -0.5049 -0.4867 -0.4757
  174MPD1    H5 2659   0.027   2.040  14.377  0.0276  0.0924 -1.2413
  174MPD1    N1 2660   4.372   1.764  14.486 -0.1357  0.8313  0.1817
  174MPD1    H6 2661   4.297   1.699  14.461 -1.6230  0.8497  4.5768
  174MPD1    H7 2662   4.343   1.861  14.476  1.2308  1.2710  0.5148
  175MPD1     C 2663   3.787   3.321  15.632  0.5774 -0.2763  0.4462
  175MPD1    C1 2664   3.737   3.193  15.661  0.3399 -0.2774 -0.3269
  175MPD1    C2 2665   3.688   3.166  15.787  0.5337  0.2838  0.1252
  175MPD1    C3 2666   3.706   3.259  15.896  0.2583  0.7932 -0.1985
  175MPD1    C4 2667   3.766   3.380  15.866 -0.2191 -0.1424 -0.0809
  175MPD1    C5 2668   3.801   3.415  15.733 -0.3143  0.2175  0.7567
  175MPD1     H 2669   3.640   3.071  15.803  0.8454 -0.1709 -1.6389
  175MPD1    H1 2670   3.790   3.459  15.936  0.9115 -1.5887  1.1486
  175MPD1    H2 2671   3.816   3.347  15.531 -0.9570  1.2615  0.3887
  175MPD1    H3 2672   3.839   3.513  15.708  0.5276  0.2493  2.1178
  175MPD1     N 2673   3.683   3.234  16.032  0.5924  0.4213  0.0244
  175MPD1    H5 2674   3.713   3.302  16.100  1.8384  1.4355 -1.5475
  175MPD1    N1 2675   3.700   3.109  15.552 -0.1570  0.3187  0.1136
  175MPD1    H6 2676   3.693   3.010  15.576  2.2827  0.3962  1.1421
  175MPD1    H7 2677   3.765   3.117  15.475 -2.4028 -0.7203 -1.8857
  176MPD1     C 2678   1.803   1.308  17.654 -0.0854 -0.8877  0.0597
  176MPD1    C1 2679   1.713   1.408  17.644  0.5796 -0.3743  0.3566
  176MPD1    C2 2680   1.600   1.381  17.563  0.1564 -0.0747  0.1472
  176MPD1    C3 2681   1.574   1.263  17.506 -0.3792 -0.3898 -0.2919
  176MPD1    C4 2682   1.663   1.155  17.528 -0.1892 -0.1977  0.6337
  176MPD1    C5 2683   1.780   1.183  17.594  0.0153  0.1175  0.0700
  176MPD1     H 2684   1.536   1.466  17.540  0.0651 -0.4258 -0.8865
  176MPD1    H1 2685   1.659   1.058  17.481  1.8066  0.2663 -0.4820
  176MPD1    H2 2686   1.889   1.315   0.026 -0.0710  1.6846 -0.2504
  176MPD1    H3 2687   1.860   1.110  17.602 -0.8276 -0.7304  0.7783
  176MPD1     N 2688   1.468   1.260  17.412  0.1725 -0.1509 -0.0389
  176MPD1    H5 2689   1.424   1.351  17.403 -1.9495 -1.2831 -1.2217
  176MPD1    N1 2690   1.744   1.537  17.690  0.0152 -0.2140 -0.3586
  176MPD1    H6 2691   1.661   1.589   0.025  0.2555  0.3846 -0.7466
  176MPD1    H7 2692   1.807   1.526   0.076  0.2086  1.7085 -0.2309
  177MPD1     C 2693   4.563   4.718   9.910  0.4528  0.2799 -0.4739
  177MPD1    C1 2694   4.546   0.136   9.902 -0.2947 -0.2650 -0.2233
  177MPD1    C2 2695   4.418   0.177   9.865 -0.2454  0.2824  0.5522
  177MPD1    C3 2696   4.308   0.094   9.851  0.3583  0.0806  1.0974
  177MPD1    C4 2697   4.329   4.684   9.872  0.2771  0.7124  0.0975
  177MPD1    C5 2698   4.454   4.635   9.897 -0.3053 -0.2029 -0.1780
  177MPD1     H 2699   4.396   0.282   9.850  0.5392  0.0926 -2.0515
  177MPD1    H1 2700   4.250   4.611   9.865  0.3253  1.0407 -3.9285
  177MPD1    H2 2701   4.660   4.671   9.926  0.1105 -0.0828  0.5532
  177MPD1    H3 2702   4.468   4.532   9.928 -1.9593 -0.1072  0.8637
  177MPD1     N 2703   4.181   0.154   9.827  0.0143  0.4498  0.6234
  177MPD1    H5 2704   4.180   0.253   9.805 -0.4569  0.4267  0.5247
  177MPD1    N1 2705   4.654   0.220   9.904 -0.4778 -0.5726 -0.3234
  177MPD1    H6 2706   0.009   0.188   9.962 -2.6961 -0.1504  2.8499
  177MPD1    H7 2707   4.632   0.316   9.931  0.9071 -1.3137  3.3458
  178MPD1     C 2708   2.618   1.168   0.107  0.3589 -0.1994  0.5744
  178MPD1    C1 2709   2.501   1.091   0.107 -0.0945 -0.2138 -0.8166
  178MPD1    C2 2710   2.400   1.132   0.015 -0.0768 -0.1868 -0.0740
  178MPD1    C3 2711   2.425   1.233  17.611  0.3080 -0.0461  0.0817
  178MPD1    C4 2712   2.555   1.286  17.608  0.5267 -0.4069 -0.1148
  178MPD1    C5 2713   2.641   1.265   0.017  0.2790  0.4336  1.2278
  178MPD1     H 2714   2.304   1.083   0.025  0.4942 -1.4878 -1.0304
  178MPD1    H1 2715   2.586   1.346  17.523 -0.5505  0.2983 -0.0129
  178MPD1    H2 2716   2.697   1.152   0.178  2.4743 -0.7748 -1.8905
  178MPD1    H3 2717   2.739   1.313   0.017  1.3323 -1.7428 -0.7218
  178MPD1     N 2718   2.338   1.265  17.505  0.2405 -0.1979 -0.3706
  178MPD1    H5 2719   2.368   1.328  17.431  1.3066 -2.0232 -1.4811
  178MPD1    N1 2720   2.486   1.000   0.215  0.1136 -0.3004 -0.2631
  178MPD1    H6 2721   2.575   0.969   0.255  1.2364  0.0933 -2.4627
  178MPD1    H7 2722   2.421   0.925   0.192 -0.2815 -0.3236  0.9023
  179MPD1     C 2723   1.472   4.465  15.864  0.4384  0.4559 -0.5180
  179MPD1    C1 2724   1.345   4.511  15.861 -0.2930 -0.1418  0.1602
  179MPD1    C2 2725   1.242   4.419  15.832  0.1686 -0.5778 -0.3900
  179MPD1    C3 2726   1.270   4.287  15.822  0.5128 -0.6115 -0.4006
  179MPD1    C4 2727   1.399   4.241  15.845 -0.0422  1.0068  0.0764
  179MPD1    C5 2728   1.502   4.333  15.866 -0.8496  0.3116 -0.0165
  179MPD1     H 2729   1.141   4.459  15.832  0.3036 -0.2541 -1.1936
  179MPD1    H1 2730   1.442   4.142  15.832 -2.1412  0.2804 -1.3563
  179MPD1    H2 2731   1.557   4.530  15.881  0.9489 -0.1967 -0.5995
  179MPD1    H3 2732   1.603   4.297  15.880 -1.1891 -2.4535 -4.3600
  179MPD1     N 2733   1.164   4.195  15.796  0.3341  0.1966  0.1169
  179MPD1    H5 2734   1.195   4.098  15.789  0.7498  0.0791  3.4852
  179MPD1    N1 2735   1.314   4.646  15.865  0.1207 -0.1834  0.2590
  179MPD1    H6 2736   1.392   4.693  15.911  0.8700 -1.9407  0.7624
  179MPD1    H7 2737   1.225   4.673  15.905 -0.3208 -1.6039  0.2337
  180MPD1     C 2738   1.228   1.454  15.186 -0.4852  0.2001 -0.2820
  180MPD1    C1 2739   1.222   1.494  15.053 -0.1567  0.8732 -0.3832
  180MPD1    C2 2740   1.168   1.399  14.966  0.3177 -0.3130 -0.2834
  180MPD1    C3 2741   1.129   1.273  15.012 -0.9635  0.3753  0.1126
  180MPD1    C4 2742   1.131   1.243  15.148  0.0713  0.3737 -0.0415
  180MPD1    C5 2743   1.194   1.333  15.230  0.0461  0.4130  0.2682
  180MPD1     H 2744   1.157   1.413  14.859 -0.9983 -0.4323 -0.1571
  180MPD1    H1 2745   1.087   1.155  15.195  2.4542 -0.8150 -0.0221
  180MPD1    H2 2746   1.268   1.520  15.261 -1.2787  0.3056  0.0515
  180MPD1    H3 2747   1.199   1.301  15.333 -0.2520  0.4910  0.3073
  180MPD1     N 2748   1.087   1.179  14.917  0.0513 -0.0052  0.3895
  180MPD1    H5 2749   1.090   1.216  14.823  0.3761 -0.2519  0.3032
  180MPD1    N1 2750   1.292   1.605  15.013  0.2222 -0.1511 -0.2155
  180MPD1    H6 2751   1.309   1.679  15.081  2.0750  0.3779 -1.2620
  180MPD1    H7 2752   1.259   1.649  14.928  1.4157 -0.7230 -0.9716
  181MPD1     C 2753   2.488   1.768   9.829 -0.0749 -0.2416 -0.0219
  181MPD1    C1 2754   2.440   1.870   9.904 -0.6200  0.0679  0.8475
  181MPD1    C2 2755   2.519   1.980   9.942  0.5405 -1.2657  0.1612
  181MPD1    C3 2756   2.648   1.980   9.897  0.1373  0.0603  0.1072
  181MPD1    C4 2757   2.698   1.876   9.824  0.3720 -0.1110  0.6752
  181MPD1    C5 2758   2.621   1.769   9.790  0.2480  0.1738  0.1707
  181MPD1     H 2759   2.478   2.056  10.008  2.0043 -0.0036 -0.3839
  181MPD1    H1 2760   2.804   1.865   9.805  0.7164 -0.4897  2.8430
  181MPD1    H2 2761   2.418   1.690   9.804 -0.7833 -0.3842  2.3691
  181MPD1    H3 2762   2.660   1.678   9.744 -0.2380  0.5835 -1.0424
  181MPD1     N 2763   2.748   2.081   9.931  0.4899 -0.2255 -0.0965
  181MPD1    H5 2764   2.837   2.067   9.883  1.4568 -0.6726  1.7845
  181MPD1    N1 2765   2.311   1.855   9.956  0.3142 -0.1950  0.0655
  181MPD1    H6 2766   2.261   1.940   9.982 -1.9795 -1.5762  0.1737
  181MPD1    H7 2767   2.256   1.792   9.898 -0.6263  2.8599 -2.3203
  182MPD1     C 2768   4.478   1.907   1.242  0.2674 -0.1991 -0.3514
  182MPD1    C1 2769   4.486   1.824   1.135  0.0047 -0.0542  0.1792
  182MPD1    C2 2770   4.372   1.799   1.061  0.2224  0.2758  0.0313
  182MPD1    C3 2771   4.248   1.832   1.105  0.8511 -0.3565 -0.1222
  182MPD1    C4 2772   4.240   1.908   1.216  0.0155  0.1678 -1.0015
  182MPD1    C5 2773   4.355   1.950   1.277  0.2125  0.5431  0.4291
  182MPD1     H 2774   4.366   1.746   0.966  2.2524  0.6901 -0.3298
  182MPD1    H1 2775   4.144   1.948   1.247 -0.2723 -1.7391  0.6059
  182MPD1    H2 2776   4.560   1.937   1.306  1.0834  1.6260 -2.2353
  182MPD1    H3 2777   4.340   2.021   1.358 -5.0161 -0.9090  0.7053
  182MPD1     N 2778   4.126   1.802   1.036  0.3976 -0.3028 -0.6016
  182MPD1    H5 2779   4.044   1.848   1.075 -0.0909 -0.0387 -1.9296
  182MPD1    N1 2780   4.618   1.786   1.095 -0.8058 -0.4160  0.7592
  182MPD1    H6 2781   4.628   1.701   1.039 -1.0922  0.0965 -0.0570
  182MPD1    H7 2782   4.674   1.770   1.179  0.4787 -1.3994 -0.2812
  183MPD1     C 2783   3.627   1.817   9.018 -0.1804 -0.0569 -0.1247
  183MPD1    C1 2784   3.653   1.840   9.154  0.2242 -0.5102 -0.1794
  183MPD1    C2 2785   3.760   1.930   9.180 -0.2078 -0.6410  0.2745
  183MPD1    C3 2786   3.808   2.012   9.080 -0.5581  0.7613  0.1210
  183MPD1    C4 2787   3.766   1.994   8.951 -0.9986 -0.0530  0.3129
  183MPD1    C5 2788   3.679   1.892   8.920 -0.1037  0.2111 -0.8480
  183MPD1     H 2789   3.795   1.947   9.281  0.7217 -0.2497 -0.1194
  183MPD1    H1 2790   3.826   2.038   8.872 -1.4983 -2.1848 -1.2455
  183MPD1    H2 2791   3.552   1.750   8.979 -0.2373 -0.6632  1.0516
  183MPD1    H3 2792   3.648   1.882   8.817  0.2271 -4.0404 -0.5619
  183MPD1     N 2793   3.881   2.117   9.130  0.3655 -0.1436  0.1364
  183MPD1    H5 2794   3.920   2.112   9.223  1.1831  0.5977 -0.1713
  183MPD1    N1 2795   3.594   1.754   9.246 -0.4435  0.2510  0.0431
  183MPD1    H6 2796   3.586   1.802   9.335  1.9268 -0.4759  0.6298
  183MPD1    H7 2797   3.497   1.731   9.221 -0.6384  1.9821 -0.7902
  184MPD1     C 2798   2.190   0.911   9.751  0.5366  0.0065 -0.8899
  184MPD1    C1 2799   2.322   0.951   9.714 -0.0469  0.8895  0.0453
  184MPD1    C2 2800   2.422   0.864   9.745  0.3422 -0.2098  0.0331
  184MPD1    C3 2801   2.409   0.750   9.818  0.2068 -0.0009  0.5150
  184MPD1    C4 2802   2.282   0.716   9.861 -0.3068  1.0141 -0.1212
  184MPD1    C5 2803   2.173   0.793   9.816  0.0696 -0.8626  0.2375
  184MPD1     H 2804   2.521   0.884   9.707 -1.1890  2.4776 -2.5418
  184MPD1    H1 2805   2.259   0.624   9.913  1.7289 -0.5801 -2.0492
  184MPD1    H2 2806   2.106   0.966   9.710  0.2424 -1.3538 -2.1251
  184MPD1    H3 2807   2.073   0.765   9.846 -0.8483  3.3161  1.1038
  184MPD1     N 2808   2.518   0.654   9.837 -0.4089  0.0561  0.7450
  184MPD1    H5 2809   2.485   0.574   9.890 -1.1428 -0.6129 -0.7051
  184MPD1    N1 2810   2.344   1.050   9.619  0.5026  0.0161  0.4630
  184MPD1    H6 2811   2.292   1.136   9.636 -0.4709 -0.5043  0.0922
  184MPD1    H7 2812   2.442   1.077   9.609  0.4845  0.1633  0.6841
  185MPD1     C 2813   2.486   4.542  10.101  0.0581 -0.6613  0.3064
  185MPD1    C1 2814   2.622   4.571  10.118  0.4360 -0.4894  0.1714
  185MPD1    C2 2815   2.668   4.699  10.089 -0.5287  0.2477  0.3969
  185MPD1    C3 2816   2.580   0.078  10.063 -0.4116  0.2270  0.1563
  185MPD1    C4 2817   2.446   0.047  10.034  0.3050 -0.1003  0.2316
  185MPD1    C5 2818   2.398   4.638  10.056 -0.4185  0.4727 -0.1792
  185MPD1     H 2819   2.775   4.712  10.084 -0.5613  0.0571 -0.7748
  185MPD1    H1 2820   2.373   0.118   9.997 -1.8401 -1.5660  1.6602
  185MPD1    H2 2821   2.439   4.446  10.120 -1.4801 -0.0679 -0.4726
  185MPD1    H3 2822   2.298   4.602  10.037 -0.3727  0.1075  0.2897
  185MPD1     N 2823   2.624   0.201  10.015  0.4172 -0.3589 -0.0126
  185MPD1    H5 2824   2.553   0.268   9.987  1.2545  0.9808  1.0583
  185MPD1    N1 2825   2.709   4.468  10.143 -0.3145 -0.2037  0.1030
  185MPD1    H6 2826   2.792   4.488  10.198 -1.4041  0.2221  1.6027
  185MPD1    H7 2827   2.665   4.391  10.192 -2.0064  1.3518  1.0639
  186MPD1     C 2828   1.804   3.880  15.961 -0.8323  0.1947 -0.9054
  186MPD1    C1 2829   1.839   3.991  15.893  0.2422  0.0563 -0.2553
  186MPD1    C2 2830   1.825   4.114  15.943 -0.5103  0.2060  0.0534
  186MPD1    C3 2831   1.768   4.125  16.068 -0.3124 -0.6619 -0.2574
  186MPD1    C4 2832   1.722   4.011  16.132 -0.1065  0.7026 -0.3278
  186MPD1    C5 2833   1.743   3.889  16.078 -0.3496  0.3847 -0.9078
  186MPD1     H 2834   1.845   4.196  15.876  3.7958  0.2120  1.3769
  186MPD1    H1 2835   1.668   4.013  16.226  1.4018 -0.2536  0.5532
  186MPD1    H2 2836   1.827   3.781  15.925  0.8009  0.5040 -0.7096
  186MPD1    H3 2837   1.700   3.802  16.125 -0.7457  0.7153 -0.6520
  186MPD1     N 2838   1.761   4.248  16.132  0.0303 -0.4918  0.2831
  186MPD1    H5 2839   1.726   4.239  16.227 -0.9815 -0.4081 -0.0768
  186MPD1    N1 2840   1.864   3.975  15.753  0.3862  0.1937  0.1788
  186MPD1    H6 2841   1.913   4.055  15.714 -0.4959  0.9235  0.5754
  186MPD1    H7 2842   1.903   3.890  15.713 -0.4995 -0.1052 -0.0613
  187MPD1     C 2843   0.627   1.848   0.405  0.4419  0.4940 -0.4368
  187MPD1    C1 2844   0.548   1.752   0.357 -0.2885 -0.8486 -0.0050
  187MPD1    C2 2845   0.456   1.787   0.263 -0.3979  0.6198  0.2115
  187MPD1    C3 2846   0.440   1.919   0.223 -0.5950  1.1578  0.0306
  187MPD1    C4 2847   0.528   2.013   0.267 -0.4449  0.2637 -0.4155
  187MPD1    C5 2848   0.611   1.977   0.363  0.7496  0.1572 -0.4041
  187MPD1     H 2849   0.397   1.703   0.227  1.6492 -1.1569  1.0297
  187MPD1    H1 2850   0.539   2.119   0.246 -0.1646  0.4441  0.6879
  187MPD1    H2 2851   0.702   1.826   0.480 -1.1883 -1.0220  0.7319
  187MPD1    H3 2852   0.675   2.057   0.401 -1.8277  2.8875 -1.8585
  187MPD1     N 2853   0.352   1.955   0.123  0.4093 -0.1208  0.0263
  187MPD1    H5 2854   0.345   2.046   0.078 -2.6446 -0.2244  0.3025
  187MPD1    N1 2855   0.565   1.616   0.398  0.0475  0.4265  0.2789
  187MPD1    H6 2856   0.642   1.605   0.464 -1.0758  1.2152  1.6929
  187MPD1    H7 2857   0.484   1.561   0.423 -0.6037  0.4412 -1.8312
  188MPD1     C 2858   0.481   1.650  10.880  0.5401  0.0262 -0.2669
  188MPD1    C1 2859   0.431   1.713  10.762 -0.4591  0.0299  0.1443
  188MPD1    C2 2860   0.466   1.658  10.639 -0.4121 -0.0156  0.1362
  188MPD1    C3 2861   0.552   1.546  10.630  0.0053  0.0646 -0.0543
  188MPD1    C4 2862   0.609   1.502  10.744 -0.2394  0.0231  0.5912
  188MPD1    C5 2863   0.572   1.549  10.868  0.4211  0.0116 -0.3358
  188MPD1     H 2864   0.428   1.709  10.551  1.7073  2.1759  0.4721
  188MPD1    H1 2865   0.661   1.408  10.732 -1.2207 -0.3615 -0.6315
  188MPD1    H2 2866   0.468   1.686  10.982  2.2917 -1.1137  0.3683
  188MPD1    H3 2867   0.606   1.513  10.964 -0.3936 -0.4470 -0.2215
  188MPD1     N 2868   0.584   1.478  10.510  0.9500  0.4396  0.1133
  188MPD1    H5 2869   0.669   1.422  10.511  0.2932 -0.5950 -1.3078
  188MPD1    N1 2870   0.336   1.819  10.767 -0.1263 -0.0932 -0.1210
  188MPD1    H6 2871   0.346   1.871  10.680  0.8033 -2.3173 -1.3339
  188MPD1    H7 2872   0.347   1.880  10.848 -0.9740 -1.5996  1.1359
  189MPD1     C 2873   2.244   1.904   0.407 -0.3123 -0.2820 -0.0670
  189MPD1    C1 2874   2.103   1.888   0.402 -0.8999 -0.5401 -0.8506
  189MPD1    C2 2875   2.023   1.990   0.357 -0.2543  0.0606 -0.3186
  189MPD1    C3 2876   2.087   2.102   0.305 -0.2748  0.3988 -0.7927
  189MPD1    C4 2877   2.227   2.111   0.295  0.2587 -0.2221 -0.1081
  189MPD1    C5 2878   2.306   2.013   0.357 -0.3790  0.1140  0.0607
  189MPD1     H 2879   1.914   1.985   0.363 -0.3362  1.9409 -0.3339
  189MPD1    H1 2880   2.275   2.200   0.256  0.5030 -0.8297 -1.2027
  189MPD1    H2 2881   2.301   1.822   0.450  0.1996  0.4612  0.6554
  189MPD1    H3 2882   2.414   2.018   0.365 -0.4600  1.1017  0.5808
  189MPD1     N 2883   1.992   2.209   0.276 -0.2678 -0.1641  0.1444
  189MPD1    H5 2884   1.893   2.185   0.279  0.0353 -1.1404  2.2869
  189MPD1    N1 2885   2.052   1.775   0.469 -0.2726  0.2342  0.0502
  189MPD1    H6 2886   1.953   1.754   0.458 -0.3319  0.4697  0.1344
  189MPD1    H7 2887   2.106   1.690   0.453 -0.3190  0.2281 -0.0720
  190MPD1     C 2888   4.681   1.068  15.904  0.2723  0.1406 -0.3059
  190MPD1    C1 2889   0.062   1.139  15.970  0.2526  0.5209  0.7054
  190MPD1    C2 2890   0.194   1.105  15.944 -0.4687 -0.5008  0.5089
  190MPD1    C3 2891   0.232   1.017  15.849 -0.4677 -0.0084 -0.5577
  190MPD1    C4 2892   0.137   0.955  15.785 -0.0001 -0.4793  0.2466
  190MPD1    C5 2893   0.004   0.979  15.812 -0.0450  0.7440  0.2838
  190MPD1     H 2894   0.275   1.155  15.995 -0.8061 -1.9094  2.4119
  190MPD1    H1 2895   0.157   0.872  15.717  0.2875  1.5856 -2.1988
  190MPD1    H2 2896   4.576   1.088  15.916  0.4120 -0.3429  1.7637
  190MPD1    H3 2897   4.646   0.927  15.762  0.7627  0.7018 -0.9490
  190MPD1     N 2898   0.365   1.002  15.811  0.1966 -0.0989 -0.5877
  190MPD1    H5 2899   0.433   1.054  15.865  0.3669 -1.2009  0.2502
  190MPD1    N1 2900   0.025   1.214  16.080 -0.2468 -0.2172 -0.2233
  190MPD1    H6 2901   0.095   1.280  16.113 -1.4699  1.5047 -1.0724
  190MPD1    H7 2902   4.657   1.258  16.069 -0.4344 -0.1604  1.5583
  191MPD1     C 2903   0.826   2.026  11.380  0.3449  0.2291 -0.1879
  191MPD1    C1 2904   0.951   2.084  11.391 -0.3587  0.7110 -0.0204
  191MPD1    C2 2905   1.007   2.095  11.519  0.1922 -0.2713 -0.2604
  191MPD1    C3 2906   0.944   2.040  11.633 -0.6862  0.5450  0.6900
  191MPD1    C4 2907   0.822   1.979  11.616  0.0903 -0.1230  0.2680
  191MPD1    C5 2908   0.754   1.986  11.495 -0.2818  0.2003 -0.8102
  191MPD1     H 2909   1.085   2.168  11.536  0.8788 -0.7680 -1.2714
  191MPD1    H1 2910   0.762   1.939  11.697  1.8734  1.7813  2.5578
  191MPD1    H2 2911   0.770   2.025  11.287  0.6336  1.9875 -0.3879
  191MPD1    H3 2912   0.648   1.964  11.489 -0.3921  0.7304 -0.8085
  191MPD1     N 2913   1.012   2.064  11.751  0.1349  0.4833 -0.3324
  191MPD1    H5 2914   1.081   2.138  11.746  0.3321  0.3466  0.3155
  191MPD1    N1 2915   1.003   2.160  11.293  0.0950 -0.5049 -0.2990
  191MPD1    H6 2916   1.102   2.175  11.311  0.2884 -0.5563 -1.3283
  191MPD1    H7 2917   0.982   2.125  11.200  1.6121 -0.5105 -0.6458
  192MPD1     C 2918   0.628   1.959  12.696  0.1543  0.0506 -0.3556
  192MPD1    C1 2919   0.748   1.892  12.682  0.2538 -0.3937 -0.0486
  192MPD1    C2 2920   0.820   1.932  12.573  0.3697  0.2112 -0.2659
  192MPD1    C3 2921   0.796   2.051  12.510 -0.3381  0.1597  0.0511
  192MPD1    C4 2922   0.707   2.136  12.561 -0.1638  0.3409 -1.0798
  192MPD1    C5 2923   0.614   2.084  12.645 -0.6647  0.1575  0.6512
  192MPD1     H 2924   0.898   1.863  12.543 -0.1008 -0.4523  0.0234
  192MPD1    H1 2925   0.696   2.235  12.518  0.2759  0.3908 -1.0764
  192MPD1    H2 2926   0.548   1.921  12.759  2.3277 -1.5274  1.4406
  192MPD1    H3 2927   0.520   2.136  12.662 -2.4650 -2.4094 -1.6581
  192MPD1     N 2928   0.872   2.108  12.407 -0.4994 -0.1093  0.0743
  192MPD1    H5 2929   0.848   2.202  12.379  0.3745  0.2268  0.4738
  192MPD1    N1 2930   0.770   1.767  12.756  1.2306 -0.0712  0.4043
  192MPD1    H6 2931   0.869   1.763  12.778  1.5900  0.0041 -1.1679
  192MPD1    H7 2932   0.730   1.783  12.848 -0.6471  0.4134 -0.4868
  193MPD1     C 2933   4.449   2.724  16.084 -0.1645 -0.3475  0.1548
  193MPD1    C1 2934   4.451   2.860  16.102  0.7217  0.4450 -0.0222
  193MPD1    C2 2935   4.550   2.916  16.189  1.2192  0.0591  0.3276
  193MPD1    C3 2936   4.650   2.834  16.238  0.8497 -0.1635 -0.2392
  193MPD1    C4 2937   4.643   2.699  16.221  0.3093 -0.0335 -0.0534
  193MPD1    C5 2938   4.544   2.642  16.144 -0.4086  0.2766  0.5708
  193MPD1     H 2939   4.544   3.021  16.211 -0.5700  0.0842 -0.2921
  193MPD1    H1 2940   4.712   2.630  16.268  0.9962  3.0508  3.4339
  193MPD1    H2 2941   4.364   2.674  16.040 -1.7707  1.8154  0.7939
  193MPD1    H3 2942   4.537   2.534  16.135  0.0750  0.0913  2.5010
  193MPD1     N 2943   0.037   2.884  16.313 -1.1942  0.1370  0.2848
  193MPD1    H5 2944   0.110   2.821  16.345 -1.6944 -0.4447  0.2688
  193MPD1    N1 2945   4.343   2.933  16.060  0.1971  0.3098  0.4432
  193MPD1    H6 2946   4.379   3.027  16.045 -2.0355  1.2096  0.7486
  193MPD1    H7 2947   4.302   2.890  15.977 -0.0979  0.5226  0.4806
  194MPD1     C 2948   2.380   0.823  16.884  0.0314 -0.2402 -0.0275
  194MPD1    C1 2949   2.406   0.731  16.784  0.0588  0.1491  0.0236
  194MPD1    C2 2950   2.458   0.611  16.821 -0.2565  0.4904  0.4693
  194MPD1    C3 2951   2.466   0.565  16.949  0.1180  0.1387 -0.1243
  194MPD1    C4 2952   2.435   0.645  17.052 -0.3855 -0.0242 -0.0126
  194MPD1    C5 2953   2.392   0.777  17.018 -0.4776  0.2773 -0.0636
  194MPD1     H 2954   2.483   0.549  16.735  3.1726  0.1329  1.6932
  194MPD1    H1 2955   2.452   0.621  17.156  0.5855 -2.2510 -0.6853
  194MPD1    H2 2956   2.328   0.918  16.873 -0.0714 -0.3744 -0.6798
  194MPD1    H3 2957   2.346   0.846  17.088 -0.0931  0.2278  0.2340
  194MPD1     N 2958   2.520   0.434  16.976 -0.2210 -0.3618 -0.1195
  194MPD1    H5 2959   2.535   0.406  17.073 -0.4367 -0.1945 -0.0382
  194MPD1    N1 2960   2.413   0.768  16.647  0.6707 -0.1602  0.9265
  194MPD1    H6 2961   2.429   0.687  16.587  3.4583  1.3756 -0.4159
  194MPD1    H7 2962   2.335   0.818  16.606 -0.0471 -0.9974  1.2876
  195MPD1     C 2963   0.007   1.512  17.685  0.5523  0.3730  0.3121
  195MPD1    C1 2964   0.086   1.512  17.570  0.3467 -0.2780  0.4164
  195MPD1    C2 2965   0.077   1.393  17.497  0.2707 -0.2798 -0.0848
  195MPD1    C3 2966   4.720   1.284  17.532 -0.6469  0.9771 -0.9877
  195MPD1    C4 2967   4.642   1.294  17.646  0.3145  0.2898 -0.0054
  195MPD1    C5 2968   4.645   1.410   0.024  0.0796  0.0257 -0.1655
  195MPD1     H 2969   0.134   1.392  17.406 -0.8008  0.4702 -0.7709
  195MPD1    H1 2970   4.586   1.213  17.691 -3.1310  2.1716 -0.9493
  195MPD1    H2 2971   0.023   1.599   0.056  0.3236  0.0477  0.8163
  195MPD1    H3 2972   4.581   1.423   0.111 -1.3656 -2.0151 -0.9452
  195MPD1     N 2973   0.006   1.156  17.470  0.3142  0.1491  0.7134
  195MPD1    H5 2974   4.669   1.080  17.500 -1.2443  1.5651  1.1865
  195MPD1    N1 2975   0.154   1.620  17.523  0.1827  0.0844 -0.1385
  195MPD1    H6 2976   0.189   1.673  17.602  3.3475 -0.2741 -1.3114
  195MPD1    H7 2977   0.234   1.587  17.469 -1.1493  1.0626 -2.7036
  196MPD1     C 2978   0.128   1.235   0.451  0.0822  0.1584 -0.1399
  196MPD1    C1 2979   0.207   1.266   0.555 -0.9548 -0.4759 -0.3200
  196MPD1    C2 2980   0.248   1.393   0.568  0.0110 -0.4852  0.0290
  196MPD1    C3 2981   0.197   1.497   0.488  0.5835  0.0262  0.2198
  196MPD1    C4 2982   0.105   1.466   0.386 -0.2720 -0.3273  0.6035
  196MPD1    C5 2983   0.070   1.334   0.375  0.2815  0.4295  0.1030
  196MPD1     H 2984   0.312   1.415   0.653 -0.9161 -1.9422  1.0998
  196MPD1    H1 2985   0.050   1.537   0.326 -0.5322  0.4362  1.7590
  196MPD1    H2 2986   0.109   1.133   0.419 -2.4066  0.7403 -0.4860
  196MPD1    H3 2987   0.011   1.306   0.288 -0.0764 -0.4291  0.6256
  196MPD1     N 2988   0.235   1.631   0.508 -0.6204 -0.1677 -0.3079
  196MPD1    H5 2989   0.184   1.694   0.448  0.4963  1.7761  0.7970
  196MPD1    N1 2990   0.256   1.171   0.649  0.2872 -0.1989 -0.0062
  196MPD1    H6 2991   0.200   1.087   0.660  0.3711 -0.6197 -2.6920
  196MPD1    H7 2992   0.282   1.209   0.740 -0.2975  0.9673 -0.3440
  197MPD1     C 2993   3.438   3.813   0.001  0.6528  0.3209 -0.0541
  197MPD1    C1 2994   3.325   3.881  17.665  0.1823 -0.3872 -0.1959
  197MPD1    C2 2995   3.328   3.946  17.538  0.7237  0.2071 -0.2129
  197MPD1    C3 2996   3.413   3.912  17.441 -0.6147  0.3016  0.2397
  197MPD1    C4 2997   3.518   3.825  17.468 -0.2875  0.7901 -0.1010
  197MPD1    C5 2998   3.535   3.796  17.605  0.6410  0.0304  0.1919
  197MPD1     H 2999   3.252   4.022  17.519  0.0208 -0.8639 -1.6776
  197MPD1    H1 3000   3.592   3.806  17.391 -0.2691  0.0456  0.1054
  197MPD1    H2 3001   3.462   3.785   0.103  0.3651 -1.0408 -0.3644
  197MPD1    H3 3002   3.624   3.737  17.626  1.1280  0.3694 -0.9563
  197MPD1     N 3003   3.406   3.970  17.315  0.2114 -0.4151  0.8782
  197MPD1    H5 3004   3.482   3.943  17.254  0.8809 -1.3977  2.1578
  197MPD1    N1 3005   3.245   3.934   0.079  0.2383 -0.3341  0.2320
  197MPD1    H6 3006   3.155   3.973   0.049  0.4665  0.6261  0.7897
  197MPD1    H7 3007   3.231   3.883   0.165  1.0229  1.1918  1.2667
  198MPD1     C 3008   0.720   1.615  15.891  0.0810  0.5372  0.0147
  198MPD1    C1 3009   0.834   1.617  15.812  0.2428 -0.3536  0.2674
  198MPD1    C2 3010   0.930   1.713  15.836 -0.6752  0.2934 -0.0673
  198MPD1    C3 3011   0.924   1.790  15.949 -0.1370 -0.0279 -0.3287
  198MPD1    C4 3012   0.820   1.783  16.036 -0.1271 -0.0769  0.8996
  198MPD1    C5 3013   0.722   1.691  16.005  0.2126 -1.3019 -0.8098
  198MPD1     H 3014   1.018   1.696  15.774 -1.1414  0.6206 -0.8249
  198MPD1    H1 3015   0.811   1.856  16.116 -0.5010  1.8095 -0.8684
  198MPD1    H2 3016   0.629   1.558  15.874 -0.3250  1.1044  0.2685
  198MPD1    H3 3017   0.644   1.687  16.082 -0.4391 -2.1902 -1.5129
  198MPD1     N 3018   1.035   1.880  15.968 -0.3444  0.1297  0.0674
  198MPD1    H5 3019   1.103   1.883  15.893 -0.1999 -0.5128  0.1668
  198MPD1    N1 3020   0.826   1.543  15.686 -0.1686  0.3786 -0.0745
  198MPD1    H6 3021   0.918   1.515  15.650 -0.0107  0.7274  0.0532
  198MPD1    H7 3022   0.774   1.457  15.700  0.0261  0.3970  0.7506
  199MPD1     C 3023   3.317   2.074   8.914  0.6388  0.8311  0.3581
  199MPD1    C1 3024   3.347   2.140   9.029 -0.0268 -0.8005  0.0183
  199MPD1    C2 3025   3.251   2.213   9.088 -0.7269  0.8268  0.6364
  199MPD1    C3 3026   3.123   2.228   9.028 -0.1287 -0.9483 -0.3768
  199MPD1    C4 3027   3.099   2.160   8.908 -0.1483 -0.7383 -0.4554
  199MPD1    C5 3028   3.193   2.079   8.851 -0.4049 -0.1648  0.1435
  199MPD1     H 3029   3.276   2.249   9.188  1.7595 -0.5561  0.5218
  199MPD1    H1 3030   3.002   2.171   8.860 -0.7278 -2.6916  0.2498
  199MPD1    H2 3031   3.395   2.028   8.854 -0.0341 -0.0045  0.1219
  199MPD1    H3 3032   3.168   2.026   8.760  0.7277  0.5975 -0.6059
  199MPD1     N 3033   3.026   2.311   9.090 -0.1349  0.2867  0.1760
  199MPD1    H5 3034   2.935   2.317   9.046  0.6328 -0.0883 -1.4386
  199MPD1    N1 3035   3.475   2.134   9.081 -0.2999  0.1444  0.0202
  199MPD1    H6 3036   3.482   2.150   9.181 -2.4840  0.8663  0.0551
  199MPD1    H7 3037   3.528   2.051   9.053 -0.7226 -1.1852  3.2440
  200MPD1     C 3038   1.940   3.027  15.290 -0.0491  0.2272  0.0574
  200MPD1    C1 3039   1.836   3.009  15.203  0.4871 -0.2368 -0.2536
  200MPD1    C2 3040   1.866   3.025  15.066 -0.3818 -0.0554 -0.6158
  200MPD1    C3 3041   1.988   3.068  15.017 -0.4551  0.2438 -0.3854
  200MPD1    C4 3042   2.090   3.085  15.114 -0.2288 -0.1224 -0.0835
  200MPD1    C5 3043   2.060   3.066  15.242 -0.8780  0.4901 -0.4902
  200MPD1     H 3044   1.791   3.003  14.991  0.7204 -1.8613 -1.1742
  200MPD1    H1 3045   2.190   3.119  15.088 -0.2574  0.3607  0.4381
  200MPD1    H2 3046   1.921   3.025  15.397  0.1893  1.7923  0.1350
  200MPD1    H3 3047   2.140   3.098  15.308  1.2724  0.3390 -3.0572
  200MPD1     N 3048   2.007   3.077  14.877 -0.2050  0.0692 -0.7141
  200MPD1    H5 3049   1.929   3.075  14.812 -1.8079  2.2438  1.1446
  200MPD1    N1 3050   1.708   2.961  15.246 -0.3125  0.0587  0.6033
  200MPD1    H6 3051   1.685   2.991  15.341  1.3892 -0.6515  1.2335
  200MPD1    H7 3052   1.633   2.994  15.185 -0.8850  1.5765  2.1468
  201MPD1     C 3053   3.084   1.604  13.283 -0.0845  0.3059 -0.5864
  201MPD1    C1 3054   3.192   1.669  13.230 -0.0931  0.6389 -0.3219
  201MPD1    C2 3055   3.317   1.639  13.274 -0.5440  0.2821  0.1459
  201MPD1    C3 3056   3.340   1.562  13.383  0.2668  0.0001 -0.0477
  201MPD1    C4 3057   3.229   1.510  13.450 -0.2779 -0.1494 -0.0065
  201MPD1    C5 3058   3.106   1.521  13.392  0.1448 -0.1298  0.1676
  201MPD1     H 3059   3.402   1.693  13.235 -0.8780  1.1279  0.5981
  201MPD1    H1 3060   3.245   1.449  13.538 -2.0726  0.3915  0.6982
  201MPD1    H2 3061   2.984   1.628  13.250 -0.4288  1.3586  1.2070
  201MPD1    H3 3062   3.029   1.474  13.451  0.9649  2.1314  3.0639
  201MPD1     N 3063   3.472   1.557  13.428  0.2248  0.6159  0.1883
  201MPD1    H5 3064   3.541   1.603  13.370  0.5898 -0.3822 -0.1717
  201MPD1    N1 3065   3.169   1.740  13.113  0.0943  0.0913 -0.3920
  201MPD1    H6 3066   3.147   1.685  13.030  1.0148  0.5344 -0.9210
  201MPD1    H7 3067   3.258   1.783  13.089 -0.6585  1.4407 -0.8007
  202MPD1     C 3068   4.156   1.244   9.117  0.4870 -0.3736  0.4850
  202MPD1    C1 3069   4.105   1.366   9.164 -0.3757  0.8155  0.1930
  202MPD1    C2 3070   4.169   1.422   9.280  1.0752  0.5319  0.2921
  202MPD1    C3 3071   4.257   1.348   9.367  0.1953  0.1444  0.1981
  202MPD1    C4 3072   4.293   1.228   9.309 -0.7963  0.4243  0.5580
  202MPD1    C5 3073   4.239   1.173   9.195 -0.1242 -0.8640 -0.1296
  202MPD1     H 3074   4.136   1.522   9.302 -3.2753 -1.0703  1.1007
  202MPD1    H1 3075   4.363   1.166   9.364  0.1246 -0.0489 -1.1359
  202MPD1    H2 3076   4.140   1.199   9.020 -0.4193  1.1070 -0.0546
  202MPD1    H3 3077   4.276   1.078   9.160 -2.0508 -1.5783 -0.2321
  202MPD1     N 3078   4.305   1.387   9.499 -0.0331 -0.1529 -0.0248
  202MPD1    H5 3079   4.365   1.320   9.546 -0.5391  0.1041  0.9861
  202MPD1    N1 3080   4.050   1.449   9.070  0.0182 -0.0426 -0.1947
  202MPD1    H6 3081   3.991   1.398   9.005  0.0911 -0.5385  0.1328
  202MPD1    H7 3082   3.992   1.525   9.106  1.4666  1.9677 -2.1084
  203MPD1     C 3083   2.209   2.292  12.318  0.1713  0.2845 -0.1256
  203MPD1    C1 3084   2.212   2.191  12.417 -0.0143 -0.6796  0.0044
  203MPD1    C2 3085   2.334   2.129  12.442 -0.0241  0.3097  0.1773
  203MPD1    C3 3086   2.453   2.182  12.382  0.7665  0.5922 -0.1343
  203MPD1    C4 3087   2.441   2.277  12.285 -0.0007 -0.5558  0.6960
  203MPD1    C5 3088   2.325   2.327  12.248  0.2785  0.2074 -0.1974
  203MPD1     H 3089   2.339   2.055  12.521 -0.6782 -2.6007 -2.5238
  203MPD1    H1 3090   2.519   2.321  12.223  0.5708 -2.5305  0.0075
  203MPD1    H2 3091   2.124   2.353  12.292 -0.0196 -0.3324 -0.9317
  203MPD1    H3 3092   2.306   2.399  12.169  0.6493 -0.9354 -1.3224
  203MPD1     N 3093   2.576   2.135  12.424  0.3573 -0.2627 -0.3506
  203MPD1    H5 3094   2.579   2.051  12.481  2.0513  0.2192  0.2750
  203MPD1    N1 3095   2.088   2.158  12.469 -0.2598  0.0557 -1.1559
  203MPD1    H6 3096   2.099   2.107  12.556  0.7307 -2.7330 -2.9420
  203MPD1    H7 3097   2.039   2.244  12.496  0.8792  0.6973 -1.1429
  204MPD1     C 3098   2.400   3.063   1.012 -0.0102  0.0381 -0.3274
  204MPD1    C1 3099   2.460   2.941   0.973  0.1962  0.3912  0.8764
  204MPD1    C2 3100   2.427   2.892   0.848  0.3199 -0.2783 -0.8340
  204MPD1    C3 3101   2.347   2.961   0.761  0.2630 -0.0243  0.2600
  204MPD1    C4 3102   2.289   3.081   0.797  0.3521 -0.1390  0.2003
  204MPD1    C5 3103   2.316   3.131   0.925 -0.2338 -0.4416 -0.5790
  204MPD1     H 3104   2.472   2.799   0.813  2.8641  0.7637 -0.3206
  204MPD1    H1 3105   2.218   3.139   0.740 -0.5119  1.0403  2.4814
  204MPD1    H2 3106   2.407   3.104   1.112 -0.2354 -0.3605 -0.1489
  204MPD1    H3 3107   2.255   3.212   0.965  1.3071  0.4923 -0.1329
  204MPD1     N 3108   2.328   2.912   0.630  0.1204  0.1459 -0.4595
  204MPD1    H5 3109   2.393   2.837   0.609  0.0573  0.0429 -0.2876
  204MPD1    N1 3110   2.532   2.862   1.061 -0.0282  0.5675 -0.0888
  204MPD1    H6 3111   2.574   2.920   1.134  1.2524 -0.7791  0.2310
  204MPD1    H7 3112   2.609   2.824   1.007 -1.3327  0.6538 -2.0133
  205MPD1     C 3113   3.024   1.944  17.050  0.5790 -0.7251 -0.0410
  205MPD1    C1 3114   3.044   1.836  17.127  0.1501 -0.0917  0.4378
  205MPD1    C2 3115   2.980   1.826  17.247  0.7535  0.1923  0.3806
  205MPD1    C3 3116   2.907   1.929  17.302 -0.0774 -1.0230 -0.5237
  205MPD1    C4 3117   2.896   2.043  17.225 -0.5965 -0.8466 -0.1851
  205MPD1    C5 3118   2.949   2.050  17.096  0.4893 -0.5149 -0.7695
  205MPD1     H 3119   2.994   1.738  17.309  1.1271 -0.2051 -0.2694
  205MPD1    H1 3120   2.850   2.124  17.281  0.3611 -0.6541  0.3173
  205MPD1    H2 3121   3.046   1.950  16.944 -1.1873 -1.6547 -0.4664
  205MPD1    H3 3122   2.930   2.140  17.038  0.0728 -0.1114 -0.0141
  205MPD1     N 3123   2.838   1.917  17.425 -0.3347  0.4072  0.4491
  205MPD1    H5 3124   2.786   1.999  17.455  1.0274  1.4990 -0.1509
  205MPD1    N1 3125   3.109   1.729  17.069 -0.3870 -0.0766 -0.1571
  205MPD1    H6 3126   3.170   1.759  16.994 -1.3417  0.2162 -0.8122
  205MPD1    H7 3127   3.165   1.672  17.133  0.9308 -1.9226 -2.9340
  206MPD1     C 3128   2.998   0.591  16.212 -0.6665 -0.0384 -0.0700
  206MPD1    C1 3129   2.888   0.544  16.280 -0.2244 -0.6715  0.2886
  206MPD1    C2 3130   2.770   0.531  16.213  0.6189 -0.7450  0.2270
  206MPD1    C3 3131   2.759   0.553  16.081 -0.2363  0.9579  0.1474
  206MPD1    C4 3132   2.865   0.591  16.013 -0.3742  0.0928 -0.5538
  206MPD1    C5 3133   2.985   0.614  16.077 -0.3326 -0.3507 -0.1526
  206MPD1     H 3134   2.686   0.482  16.262  1.0534 -2.2637 -0.5348
  206MPD1    H1 3135   2.863   0.625  15.910 -0.5844  0.4080 -0.4469
  206MPD1    H2 3136   3.090   0.611  16.265 -1.3220  1.7296  0.4057
  206MPD1    H3 3137   3.069   0.651  16.020  0.9606 -0.4527  1.7081
  206MPD1     N 3138   2.642   0.545  16.006 -0.3765 -0.0948  0.4075
  206MPD1    H5 3139   2.642   0.572  15.908 -0.9126  0.7990  0.6545
  206MPD1    N1 3140   2.904   0.523  16.414  0.2458  0.1702 -0.4096
  206MPD1    H6 3141   2.996   0.489  16.442 -0.8388 -1.3300  1.3394
  206MPD1    H7 3142   2.840   0.449  16.443 -1.4190 -0.3897 -5.5291
  207MPD1     C 3143   0.331   2.871   9.206  0.1497 -0.1509  0.2199
  207MPD1    C1 3144   0.411   2.988   9.205 -0.0767  0.3484  0.5926
  207MPD1    C2 3145   0.533   2.978   9.277 -0.3063 -0.5754 -0.6143
  207MPD1    C3 3146   0.557   2.871   9.362  0.2299  0.0619  0.6166
  207MPD1    C4 3147   0.471   2.770   9.370  0.2354  0.2361 -0.9655
  207MPD1    C5 3148   0.360   2.765   9.289  0.0947  0.2246  0.0218
  207MPD1     H 3149   0.599   3.063   9.269 -0.8472  0.1610  2.4120
  207MPD1    H1 3150   0.494   2.690   9.439 -1.6496  0.7182  0.2097
  207MPD1    H2 3151   0.240   2.860   9.148  0.6040 -0.0544 -0.5166
  207MPD1    H3 3152   0.292   2.681   9.297 -0.3839  0.4576 -1.6553
  207MPD1     N 3153   0.672   2.858   9.446 -0.0230  0.1916 -0.5260
  207MPD1    H5 3154   0.676   2.772   9.500 -0.5069 -0.7072 -1.9477
  207MPD1    N1 3155   0.385   3.097   9.123  0.9161 -0.0617  0.3859
  207MPD1    H6 3156   0.286   3.114   9.103  1.7692  3.3860 -1.0223
  207MPD1    H7 3157   0.422   3.180   9.169 -1.9501  1.5924 -0.2495
  208MPD1     C 3158   3.217   0.190   0.173  0.0128  0.2719 -0.1114
  208MPD1    C1 3159   3.130   0.238   0.269  0.7163  0.4025  0.2260
  208MPD1    C2 3160   3.129   0.376   0.294 -0.4485 -0.4445  0.1332
  208MPD1    C3 3161   3.229   0.461   0.250  0.4192 -0.3185  0.7689
  208MPD1    C4 3162   3.329   0.399   0.168  0.3687 -0.3303 -0.6747
  208MPD1    C5 3163   3.315   0.271   0.132 -0.4159  0.7742  1.1418
  208MPD1     H 3164   3.053   0.422   0.357  2.2846  2.5663  1.2076
  208MPD1    H1 3165   3.422   0.439   0.129 -0.0153 -1.4284 -2.7014
  208MPD1    H2 3166   3.222   0.089   0.136 -1.2069 -0.8847  2.8770
  208MPD1    H3 3167   3.388   0.229   0.064  0.2098  2.0316  1.0444
  208MPD1     N 3168   3.235   0.601   0.276  0.0747 -0.0848  0.0875
  208MPD1    H5 3169   3.166   0.628   0.346 -1.1114 -1.7396 -0.4551
  208MPD1    N1 3170   3.026   0.157   0.309 -0.0337  0.1264 -0.5204
  208MPD1    H6 3171   2.993   0.180   0.403 -0.3007  0.7667 -0.7724
  208MPD1    H7 3172   3.048   0.058   0.311  0.2237  0.1681 -1.4041
  209MPD1     C 3173   0.331   1.932  11.109  0.5340  0.0731  0.0181
  209MPD1    C1 3174   0.466   1.959  11.126 -0.2902  0.1843  0.2017
  209MPD1    C2 3175   0.516   2.060  11.049  0.1483 -0.3954  0.3039
  209MPD1    C3 3176   0.449   2.144  10.964 -0.5028 -0.8863 -0.4552
  209MPD1    C4 3177   0.314   2.117  10.957 -0.1704  0.0989 -0.0626
  209MPD1    C5 3178   0.261   2.007  11.022  0.2245 -0.2235 -0.0059
  209MPD1     H 3179   0.621   2.088  11.059 -0.1717  1.2149 -0.9153
  209MPD1    H1 3180   0.247   2.173  10.893 -1.5269 -0.2144  1.0805
  209MPD1    H2 3181   0.295   1.843  11.159 -1.1954  0.1929 -1.0053
  209MPD1    H3 3182   0.155   1.987  11.019  0.3157 -0.5294 -0.9642
  209MPD1     N 3183   0.518   2.244  10.893 -0.2493  0.6553 -0.4431
  209MPD1    H5 3184   0.619   2.252  10.906 -0.1951 -1.7022  0.5295
  209MPD1    N1 3185   0.551   1.875  11.202  0.1037 -0.1622  0.8084
  209MPD1    H6 3186   0.626   1.929  11.244  1.1338  1.9217 -3.6403
  209MPD1    H7 3187   0.504   1.829  11.279  0.6290 -0.9951  0.6286
  210MPD1     C 3188   1.192   2.890  11.085 -0.0230  0.0336  0.0543
  210MPD1    C1 3189   1.097   2.822  11.159 -0.5068  0.0136 -0.4613
  210MPD1    C2 3190   0.993   2.760  11.087  0.0741  0.0363  0.4364
  210MPD1    C3 3191   0.979   2.781  10.949 -0.0365 -0.2632 -0.3240
  210MPD1    C4 3192   1.071   2.858  10.888  0.7963 -0.0334 -0.0943
  210MPD1    C5 3193   1.180   2.897  10.959  0.5551 -0.0769  0.1712
  210MPD1     H 3194   0.915   2.700  11.134  0.5258 -1.2697 -0.4517
  210MPD1    H1 3195   1.070   2.888  10.784 -0.3771 -0.0097 -0.0745
  210MPD1    H2 3196   1.282   2.931  11.131 -1.3964  2.3669  0.6378
  210MPD1    H3 3197   1.257   2.946  10.901 -0.2627  1.6860  0.5443
  210MPD1     N 3198   0.874   2.729  10.866  0.7243 -0.6547  0.4693
  210MPD1    H5 3199   0.865   2.763  10.771  0.1959 -1.1935  0.3231
  210MPD1    N1 3200   1.125   2.784  11.287  0.4310  0.0493 -0.5578
  210MPD1    H6 3201   1.170   2.850  11.351 -0.3286  0.7001 -0.6916
  210MPD1    H7 3202   1.043   2.749  11.336  0.1782 -0.2819 -1.2160
  211MPD1     C 3203   3.337   2.424  16.112  1.0260  0.4886  0.2299
  211MPD1    C1 3204   3.274   2.404  16.231 -0.0886 -0.3050 -0.7511
  211MPD1    C2 3205   3.155   2.461  16.255  0.0772  0.0299 -0.4871
  211MPD1    C3 3206   3.083   2.525  16.159  0.7148 -0.8487 -0.1022
  211MPD1    C4 3207   3.141   2.543  16.031 -0.5936 -0.5631  0.1385
  211MPD1    C5 3208   3.270   2.497  16.018  0.6041 -0.0824 -0.6966
  211MPD1     H 3209   3.105   2.440  16.350  0.8223  1.1269  0.1496
  211MPD1    H1 3210   3.104   2.595  15.944  0.5734  0.0520 -0.0005
  211MPD1    H2 3211   3.441   2.396  16.107  0.8839  0.1435 -0.6499
  211MPD1    H3 3212   3.317   2.525  15.924  1.0883  0.5397 -0.2691
  211MPD1     N 3213   2.956   2.566  16.188 -0.0570 -0.0257 -0.6677
  211MPD1    H5 3214   2.923   2.539  16.281  0.0188  0.8377 -0.3885
  211MPD1    N1 3215   3.354   2.360  16.344  0.1422 -0.7507  1.0338
  211MPD1    H6 3216   3.294   2.308  16.408 -0.9608 -0.3003  0.3682
  211MPD1    H7 3217   3.423   2.299  16.300 -0.3360 -1.8426  1.7719
  212MPD1     C 3218   2.013   1.358  16.705  0.4105  0.1580  0.0050
  212MPD1    C1 3219   2.108   1.294  16.635 -0.0906 -0.6710  0.5676
  212MPD1    C2 3220   2.101   1.154  16.631  0.0851 -0.0648  0.0139
  212MPD1    C3 3221   2.000   1.084  16.693 -0.6480 -0.1299 -0.7769
  212MPD1    C4 3222   1.908   1.153  16.758  0.8432  0.3370  0.4071
  212MPD1    C5 3223   1.909   1.291  16.769 -0.0046 -0.2512 -0.2855
  212MPD1     H 3224   2.179   1.110  16.569 -2.5360 -3.9274 -0.5186
  212MPD1    H1 3225   1.834   1.095  16.812  0.7150 -0.6493 -0.8393
  212MPD1    H2 3226   2.023   1.465  16.721  0.9300  0.3258 -1.4699
  212MPD1    H3 3227   1.835   1.334  16.835  0.4224  1.0241 -0.6362
  212MPD1     N 3228   1.978   0.941  16.682 -0.4415 -0.1426  0.5330
  212MPD1    H5 3229   1.920   0.901  16.755 -0.7097  1.4705  1.1885
  212MPD1    N1 3230   2.232   1.358  16.610 -0.0646  0.1106 -0.1391
  212MPD1    H6 3231   2.283   1.314  16.533  0.9647  1.0963 -0.0094
  212MPD1    H7 3232   2.222   1.451  16.570 -0.0483  0.6770  1.1774
  213MPD1     C 3233   0.971   1.217  15.768  0.0156  1.0539 -0.0635
  213MPD1    C1 3234   0.953   1.156  15.648  0.0041  0.5408  0.1767
  213MPD1    C2 3235   0.821   1.157  15.601 -0.3680  0.2698 -0.2457
  213MPD1    C3 3236   0.718   1.208  15.675 -0.5201  0.3493 -0.1663
  213MPD1    C4 3237   0.739   1.248  15.806 -0.2901 -0.4222  0.0311
  213MPD1    C5 3238   0.866   1.239  15.848 -0.1783  0.1190  0.0469
  213MPD1     H 3239   0.798   1.120  15.502  1.5204  0.4279 -0.7511
  213MPD1    H1 3240   0.669   1.274  15.885 -2.7023 -0.0794 -2.2240
  213MPD1    H2 3241   1.073   1.218  15.803 -0.1068  1.6167  0.2912
  213MPD1    H3 3242   0.896   1.254  15.951 -0.6723  0.4381  0.1488
  213MPD1     N 3243   0.596   1.227  15.607  0.1452  0.2852  0.0340
  213MPD1    H5 3244   0.575   1.176  15.522 -2.4418 -1.7287  1.8654
  213MPD1    N1 3245   1.064   1.161  15.557 -0.4272  0.0544  0.0723
  213MPD1    H6 3246   1.052   1.091  15.484  0.7332  0.2504 -0.3077
  213MPD1    H7 3247   1.149   1.129  15.605 -0.7758 -2.5038 -1.0294
  214MPD1     C 3248   4.466   1.614  15.859 -0.0025 -0.0896  0.4775
  214MPD1    C1 3249   4.583   1.579  15.919 -0.1852  0.6152 -1.0389
  214MPD1    C2 3250   4.675   1.507  15.851 -0.7646  0.0084 -0.9113
  214MPD1    C3 3251   4.650   1.476  15.719 -0.7138 -0.5619  0.7608
  214MPD1    C4 3252   4.527   1.505  15.663  0.2032  1.0666 -0.0063
  214MPD1    C5 3253   4.431   1.579  15.731 -0.1309  0.2217 -0.2515
  214MPD1     H 3254   0.051   1.483  15.889 -1.4169 -0.2747  0.5872
  214MPD1    H1 3255   4.512   1.487  15.557 -2.4941 -4.3290  1.2699
  214MPD1    H2 3256   4.392   1.673  15.912  0.1585  0.1607  0.4211
  214MPD1    H3 3257   4.337   1.606  15.685  0.2759  1.5241 -0.3082
  214MPD1     N 3258   0.032   1.407  15.658 -1.0032  0.3444  0.1113
  214MPD1    H5 3259   0.117   1.398  15.713 -1.7077  0.2779  1.1997
  214MPD1    N1 3260   4.631   1.639  16.032  0.1144  0.9948 -0.3677
  214MPD1    H6 3261   4.680   1.564  16.080 -3.0272 -0.5503  0.4224
  214MPD1    H7 3262   4.562   1.674  16.099 -0.7164 -0.4955 -0.4543
  215MPD1     C 3263   4.291   1.976  11.133  0.8769  0.1425 -0.2276
  215MPD1    C1 3264   4.323   2.012  11.266 -0.5617  0.0776 -0.0079
  215MPD1    C2 3265   4.442   2.086  11.283  0.0486 -0.7873  1.0283
  215MPD1    C3 3266   4.522   2.127  11.178 -0.4804 -0.4896 -0.5650
  215MPD1    C4 3267   4.487   2.086  11.052 -0.0801 -0.1027  0.3446
  215MPD1    C5 3268   4.377   2.013  11.025  0.5051  1.4525  0.7454
  215MPD1     H 3269   4.479   2.110  11.382 -1.1403  0.0506  1.2690
  215MPD1    H1 3270   4.554   2.113  10.971 -0.3313  0.2146  0.2453
  215MPD1    H2 3271   4.219   1.901  11.103  2.1928 -1.9836  1.9323
  215MPD1    H3 3272   4.366   1.987  10.920  1.8815 -0.3674  1.0594
  215MPD1     N 3273   4.638   2.206  11.197  0.1297  0.4326 -0.9516
  215MPD1    H5 3274   4.645   2.228  11.296 -0.6513 -1.7879 -0.3916
  215MPD1    N1 3275   4.260   1.952  11.374  0.4030  0.2679 -0.2705
  215MPD1    H6 3276   4.171   1.907  11.354  0.0886 -0.8168  3.5593
  215MPD1    H7 3277   4.245   2.014  11.454 -2.1666  1.3033 -1.5656
  216MPD1     C 3278   2.622   0.897  17.302  0.5856 -0.7080 -0.3880
  216MPD1    C1 3279   2.652   0.768  17.322  0.2869  0.0464 -0.0925
  216MPD1    C2 3280   2.573   0.680  17.385 -0.3356 -0.0610  0.6554
  216MPD1    C3 3281   2.450   0.721  17.431  0.6709 -0.1569  0.5844
  216MPD1    C4 3282   2.416   0.855  17.416 -0.1146  0.9769  0.0936
  216MPD1    C5 3283   2.502   0.948  17.351 -0.0669  0.5696  0.2176
  216MPD1     H 3284   2.612   0.578  17.382  0.9692  0.4627 -0.1210
  216MPD1    H1 3285   2.318   0.896  17.438  0.5520  2.3221  0.5403
  216MPD1    H2 3286   2.676   0.972  17.245 -1.5262  2.3101  1.5347
  216MPD1    H3 3287   2.471   1.049  17.328 -0.3173  0.0373 -1.7791
  216MPD1     N 3288   2.368   0.624  17.485 -0.2876 -0.5994  0.0554
  216MPD1    H5 3289   2.396   0.527  17.490  0.3165 -0.4268  0.0440
  216MPD1    N1 3290   2.779   0.728  17.287 -0.0810  0.1371 -0.0280
  216MPD1    H6 3291   2.788   0.627  17.281 -0.2421  0.0589  1.1562
  216MPD1    H7 3292   2.804   0.775  17.200  2.2422  0.8808  1.0494
  217MPD1     C 3293   2.888   2.530   9.741 -0.5207 -0.0892 -0.2457
  217MPD1    C1 3294   2.999   2.511   9.665 -0.0701  0.3556 -0.0475
  217MPD1    C2 3295   3.014   2.403   9.581  0.5815  0.6400  0.9115
  217MPD1    C3 3296   2.919   2.303   9.572  0.0946 -0.4333 -0.0244
  217MPD1    C4 3297   2.810   2.316   9.652 -0.1856 -1.0516 -0.1249
  217MPD1    C5 3298   2.792   2.431   9.731 -0.6386 -0.1450 -0.4358
  217MPD1     H 3299   3.100   2.398   9.515 -0.2932 -0.5130 -0.1315
  217MPD1    H1 3300   2.732   2.241   9.652  1.0448 -2.3031  3.0595
  217MPD1    H2 3301   2.882   2.616   9.806 -2.3171  0.0058 -0.5443
  217MPD1    H3 3302   2.699   2.443   9.785 -0.7632 -0.3341 -0.6123
  217MPD1     N 3303   2.926   2.196   9.481 -0.9433 -0.1931  0.4726
  217MPD1    H5 3304   2.835   2.157   9.460 -0.4394 -0.2730 -1.5589
  217MPD1    N1 3305   3.103   2.608   9.664  0.0188  0.2154  0.6744
  217MPD1    H6 3306   3.199   2.577   9.646 -0.3441 -0.9848  0.8617
  217MPD1    H7 3307   3.113   2.674   9.741  0.6541  0.8733  0.0451
  218MPD1     C 3308   3.573   2.612  12.058 -0.4885 -0.0896 -0.2730
  218MPD1    C1 3309   3.646   2.702  12.132 -0.4551 -0.4378 -0.1100
  218MPD1    C2 3310   3.728   2.652  12.233  0.0261  0.6772 -0.2945
  218MPD1    C3 3311   3.737   2.510  12.249  0.1184 -0.3495 -1.6683
  218MPD1    C4 3312   3.676   2.424  12.159  0.4957 -0.5805 -0.3323
  218MPD1    C5 3313   3.593   2.475  12.063 -0.4122 -0.4377 -0.1158
  218MPD1     H 3314   3.789   2.704  12.306 -1.1981 -0.1020  1.2848
  218MPD1    H1 3315   3.689   2.316  12.158  0.1523 -0.6161 -0.8859
  218MPD1    H2 3316   3.488   2.637  11.996 -1.1132 -1.3119  0.0863
  218MPD1    H3 3317   3.533   2.420  11.992  0.6031 -1.2404 -0.3564
  218MPD1     N 3318   3.819   2.462  12.352  0.0077 -0.1751  0.0777
  218MPD1    H5 3319   3.863   2.527  12.416 -2.4206  1.0271  0.4909
  218MPD1    N1 3320   3.631   2.839  12.118  0.1150  0.3008 -0.2638
  218MPD1    H6 3321   3.636   2.858  12.018  1.5740  0.6674 -0.1239
  218MPD1    H7 3322   3.705   2.893  12.163  0.5584 -0.6758  0.1712
  219MPD1     C 3323   4.185   2.933  12.969 -0.4201  0.5732  0.4079
  219MPD1    C1 3324   4.248   2.814  12.983  0.2336  0.3946  0.2596
  219MPD1    C2 3325   4.207   2.699  12.917  0.3161  0.0832  0.0782
  219MPD1    C3 3326   4.112   2.711  12.820  0.2191 -0.2000  0.3208
  219MPD1    C4 3327   4.036   2.825  12.820 -0.0078 -0.2117  0.3822
  219MPD1    C5 3328   4.067   2.933  12.900  0.2382 -0.2056  0.1059
  219MPD1     H 3329   4.263   2.609  12.943 -0.5974 -1.0002 -1.6909
  219MPD1    H1 3330   3.952   2.827  12.751  1.2397 -1.1176 -1.1616
  219MPD1    H2 3331   4.216   3.024  13.020 -0.7661  1.3045 -0.6764
  219MPD1    H3 3332   4.013   3.027  12.895 -1.0737 -0.9443  0.3088
  219MPD1     N 3333   4.081   2.609  12.728  0.3045  0.1258  0.0989
  219MPD1    H5 3334   3.996   2.623  12.675  0.1428  0.9823  0.5831
  219MPD1    N1 3335   4.350   2.804  13.082 -0.2964 -0.3644 -0.4715
  219MPD1    H6 3336   4.407   2.888  13.078  0.5737 -1.0659 -2.3572
  219MPD1    H7 3337   4.403   2.719  13.063  0.5725  0.2517 -0.7692
  220MPD1     C 3338   0.601   3.211   9.634  0.1314 -0.0097  0.4712
  220MPD1    C1 3339   0.642   3.218   9.760 -0.3888  0.1251 -0.1111
  220MPD1    C2 3340   0.590   3.125   9.854  0.9695  0.7780 -0.3221
  220MPD1    C3 3341   0.484   3.038   9.811  0.4499 -0.3536  1.1498
  220MPD1    C4 3342   0.450   3.035   9.679 -0.0278  0.1997 -0.2220
  220MPD1    C5 3343   0.515   3.121   9.593  0.1720  0.2141 -0.4839
  220MPD1     H 3344   0.614   3.129   9.960  3.2474  1.2989 -0.8585
  220MPD1    H1 3345   0.387   2.959   9.634  0.2594 -0.7807  1.0541
  220MPD1    H2 3346   0.652   3.282   9.569  1.1625  1.3425  2.7758
  220MPD1    H3 3347   0.484   3.109   9.490 -2.0196 -2.0108  0.4624
  220MPD1     N 3348   0.430   2.945   9.899 -0.5682  0.0941  0.1375
  220MPD1    H5 3349   0.462   2.946   9.995  1.7993 -0.5100 -0.6402
  220MPD1    N1 3350   0.725   3.312   9.805 -0.3165 -0.1675 -0.1454
  220MPD1    H6 3351   0.781   3.359   9.734 -2.3794  0.0692 -1.5979
  220MPD1    H7 3352   0.790   3.274   9.873  0.8921  1.4948 -0.3523
  221MPD1     C 3353   1.610   1.396  15.930 -0.3901 -0.2671 -0.0693
  221MPD1    C1 3354   1.646   1.498  15.845 -0.3487  0.3183 -0.0828
  221MPD1    C2 3355   1.765   1.565  15.862  0.6058 -0.0173  0.2594
  221MPD1    C3 3356   1.853   1.526  15.965 -0.4824  0.3593  0.1754
  221MPD1    C4 3357   1.811   1.431  16.053 -0.8112  0.1371 -0.4883
  221MPD1    C5 3358   1.690   1.362  16.038  0.0112 -0.1978  0.4905
  221MPD1     H 3359   1.814   1.614  15.779  0.2205 -0.0692 -0.0014
  221MPD1    H1 3360   1.876   1.417  16.138  0.4633 -0.6184 -1.5989
  221MPD1    H2 3361   1.526   1.330  15.907 -0.1367 -0.3529 -0.7395
  221MPD1    H3 3362   1.661   1.279  16.101 -1.0288  1.4033  2.0956
  221MPD1     N 3363   1.986   1.567  15.978 -0.8231  0.1228 -0.4957
  221MPD1    H5 3364   2.041   1.513  16.044 -3.3923  2.2201  3.3897
  221MPD1    N1 3365   1.584   1.511  15.721 -0.0762 -0.0475 -0.2530
  221MPD1    H6 3366   1.491   1.470  15.724 -0.1090  0.1188  0.8275
  221MPD1    H7 3367   1.567   1.610  15.702 -1.4598 -0.3507 -0.5458
  222MPD1     C 3368   2.517   0.943  16.104 -0.9036 -0.4195  0.7378
  222MPD1    C1 3369   2.469   1.049  16.177  0.4923 -0.6225 -0.4617
  222MPD1    C2 3370   2.475   1.050  16.313  0.5133  0.1843 -0.0819
  222MPD1    C3 3371   2.571   0.969  16.363  0.6402 -0.2280 -0.4431
  222MPD1    C4 3372   2.636   0.875  16.292 -0.9840 -0.0017  0.9480
  222MPD1    C5 3373   2.598   0.856  16.160 -0.2456 -0.2328 -0.4823
  222MPD1     H 3374   2.425   1.123  16.375 -1.3621 -1.9890  0.9618
  222MPD1    H1 3375   2.723   0.825  16.335 -1.5941 -0.0538  2.1144
  222MPD1    H2 3376   2.494   0.942  15.999  1.5962  2.0972  0.1716
  222MPD1    H3 3377   2.650   0.791  16.091  0.7273 -0.3632  0.3847
  222MPD1     N 3378   2.615   0.984  16.494 -0.8590  0.0262  0.1543
  222MPD1    H5 3379   2.672   0.911  16.537 -2.3645 -0.9259  0.5196
  222MPD1    N1 3380   2.390   1.144  16.109  0.2548  0.4798 -0.2590
  222MPD1    H6 3381   2.409   1.229  16.161 -1.3070 -0.1000  1.2490
  222MPD1    H7 3382   2.430   1.149  16.015 -0.5028 -0.0248 -0.6159
  223MPD1     C 3383   2.956   0.350  16.912  0.8106  0.3464  0.4313
  223MPD1    C1 3384   2.882   0.369  16.799 -0.4677  0.1901 -0.0058
  223MPD1    C2 3385   2.805   0.486  16.795 -0.0748  0.6338  0.3236
  223MPD1    C3 3386   2.816   0.590  16.890 -0.6531  0.4161  0.2543
  223MPD1    C4 3387   2.887   0.561  17.004 -0.8147  0.8154  0.1807
  223MPD1    C5 3388   2.955   0.443  17.013 -0.0413  0.6625 -0.2274
  223MPD1     H 3389   2.740   0.514  16.714  0.1988 -0.2164 -0.1938
  223MPD1    H1 3390   2.902   0.639  17.079  1.3643  1.3777 -0.8546
  223MPD1    H2 3391   3.017   0.262  16.930 -0.9219 -0.7072  1.1096
  223MPD1    H3 3392   3.022   0.411  17.092 -1.4203  0.8152  1.0039
  223MPD1     N 3393   2.764   0.712  16.866  0.3192 -0.4022  0.3517
  223MPD1    H5 3394   2.713   0.703  16.779 -0.0288 -1.9952  0.7341
  223MPD1    N1 3395   2.884   0.281  16.689  0.0878  0.1142  0.6103
  223MPD1    H6 3396   2.797   0.289  16.637 -1.4286 -0.8500  2.9743
  223MPD1    H7 3397   2.894   0.180  16.701  0.5786  0.3239  2.0170
  224MPD1     C 3398   3.796   2.578   9.480  0.0804  0.1079 -0.8121
  224MPD1    C1 3399   3.865   2.624   9.593  0.0545  1.0081 -0.5119
  224MPD1    C2 3400   3.886   2.530   9.696  0.3820  0.8012 -0.1702
  224MPD1    C3 3401   3.862   2.397   9.680  1.2576  0.1020 -0.2000
  224MPD1    C4 3402   3.799   2.358   9.556 -0.2481  0.3633  0.3417
  224MPD1    C5 3403   3.771   2.446   9.459  1.4698 -0.0736 -0.4555
  224MPD1     H 3404   3.921   2.564   9.793  2.1587  1.8364 -1.1741
  224MPD1    H1 3405   3.771   2.254   9.549  2.2258 -0.1447 -1.5894
  224MPD1    H2 3406   3.754   2.640   9.402  0.0582 -0.3615 -1.1704
  224MPD1    H3 3407   3.725   2.416   9.366  1.1435 -0.2132 -0.2469
  224MPD1     N 3408   3.885   2.296   9.777 -0.5773 -0.4999  0.1446
  224MPD1    H5 3409   3.836   2.209   9.758 -0.2382 -0.6008 -0.2683
  224MPD1    N1 3410   3.870   2.766   9.607  0.1922 -0.3969  0.3503
  224MPD1    H6 3411   3.946   2.794   9.669  1.0396 -1.0040 -0.4290
  224MPD1    H7 3412   3.881   2.816   9.519  0.0818  1.5904  1.4571
  225MPD1     C 3413   0.183   3.794  11.708 -0.4371  0.0820  0.4923
  225MPD1    C1 3414   0.167   3.660  11.677  0.3508 -0.3058  0.8289
  225MPD1    C2 3415   0.070   3.581  11.739  0.6121  0.1867 -0.2218
  225MPD1    C3 3416   4.704   3.643  11.821 -0.8601  0.2857 -0.0955
  225MPD1    C4 3417   0.001   3.776  11.850  0.4204  0.2020  0.6099
  225MPD1    C5 3418   0.100   3.854  11.799  0.3138 -0.1601 -0.1847
  225MPD1     H 3419   0.076   3.474  11.721 -0.0340 -0.4144  3.1180
  225MPD1    H1 3420   4.651   3.817  11.920 -2.8416 -1.1122 -2.0301
  225MPD1    H2 3421   0.267   3.849  11.667  0.2497 -1.1684  0.2322
  225MPD1    H3 3422   0.118   3.953  11.840 -3.3208  0.1767  0.6305
  225MPD1     N 3423   4.605   3.569  11.898 -0.2711  0.0083 -0.7022
  225MPD1    H5 3424   4.531   3.620  11.945  1.4822  0.7697  1.2314
  225MPD1    N1 3425   0.276   3.590  11.621  0.3913  1.0597  0.4288
  225MPD1    H6 3426   0.238   3.524  11.553  0.0509  1.4471  0.2369
  225MPD1    H7 3427   0.335   3.653  11.567 -0.4257  0.8231 -0.7484
  226MPD1     C 3428   2.779   2.641   8.936  0.2175 -0.1558 -0.0854
  226MPD1    C1 3429   2.717   2.755   8.989 -0.0296 -0.0523  0.2706
  226MPD1    C2 3430   2.800   2.854   9.036 -0.3624 -0.0733  0.3392
  226MPD1    C3 3431   2.934   2.839   9.049  0.2453 -0.3797  0.4106
  226MPD1    C4 3432   2.994   2.727   8.996 -0.3499  0.5611  0.3274
  226MPD1    C5 3433   2.916   2.629   8.938  0.8006  0.4175 -0.5575
  226MPD1     H 3434   2.757   2.944   9.078 -0.8396 -0.1105 -0.0692
  226MPD1    H1 3435   3.101   2.709   9.003 -0.4670 -0.2614 -0.0104
  226MPD1    H2 3436   2.725   2.558   8.891  1.3455 -1.5391  1.1326
  226MPD1    H3 3437   2.962   2.535   8.912 -1.2436 -0.8880  0.5187
  226MPD1     N 3438   3.009   2.939   9.111  0.0022  0.3449  0.0896
  226MPD1    H5 3439   2.962   3.023   9.144 -0.7085 -0.3187  0.7591
  226MPD1    N1 3440   2.576   2.779   8.976 -0.0239 -0.2974 -0.2389
  226MPD1    H6 3441   2.528   2.693   8.952 -1.6767  0.1569  1.4440
  226MPD1    H7 3442   2.528   2.815   9.058 -0.1768  0.0159 -0.4627
  227MPD1     C 3443   2.779   3.750   8.998  0.5208 -0.4374 -0.6741
  227MPD1    C1 3444   2.721   3.621   9.006  0.1492 -0.5261 -0.2542
  227MPD1    C2 3445   2.797   3.508   9.033 -0.1820 -0.3097 -0.0913
  227MPD1    C3 3446   2.928   3.525   9.063 -0.3492  0.3185 -0.4234
  227MPD1    C4 3447   2.989   3.645   9.044 -0.0131  0.0152 -0.3569
  227MPD1    C5 3448   2.911   3.757   9.006 -0.3723 -0.0041  0.9959
  227MPD1     H 3449   2.749   3.411   9.048 -2.6826  1.0048  0.3444
  227MPD1    H1 3450   3.097   3.655   9.041 -0.1967  1.7474 -1.0007
  227MPD1    H2 3451   2.723   3.842   8.987 -0.9245 -1.2730 -0.3072
  227MPD1    H3 3452   2.966   3.850   8.999 -0.6251 -0.0394 -1.5970
  227MPD1     N 3453   3.005   3.413   9.102  0.3491 -0.6884 -0.2455
  227MPD1    H5 3454   2.946   3.332   9.119 -0.0484  0.4900  3.7701
  227MPD1    N1 3455   2.585   3.608   8.986  0.5973  0.2684  0.0209
  227MPD1    H6 3456   2.533   3.668   9.049  0.7466  0.9409 -0.4893
  227MPD1    H7 3457   2.542   3.516   8.988  0.0335  0.4952 -1.2717
  228MPD1     C 3458   1.195   0.992  12.649 -0.4993 -0.2415  0.4518
  228MPD1    C1 3459   1.107   0.930  12.564  0.3950  0.3997 -0.1294
  228MPD1    C2 3460   1.002   0.851  12.623  0.1846 -0.2544 -0.3122
  228MPD1    C3 3461   1.009   0.815  12.750  0.2717  0.4448 -0.0944
  228MPD1    C4 3462   1.117   0.861  12.832  0.1469 -0.1975  0.0449
  228MPD1    C5 3463   1.207   0.955  12.782 -0.4590  0.5849 -1.3994
  228MPD1     H 3464   0.929   0.809  12.555  0.3267 -2.0283  0.6158
  228MPD1    H1 3465   1.119   0.850  12.940 -0.9691 -2.9389 -0.2122
  228MPD1    H2 3466   1.265   1.068  12.618 -0.9067 -0.5424 -1.1846
  228MPD1    H3 3467   1.284   0.995  12.846 -0.8774 -2.3203  0.9093
  228MPD1     N 3468   0.910   0.739  12.798  0.2782  0.1996 -0.3724
  228MPD1    H5 3469   0.842   0.719  12.725  1.1987 -1.3181 -0.8313
  228MPD1    N1 3470   1.104   0.949  12.428 -0.1595 -0.7832  0.4134
  228MPD1    H6 3471   1.187   0.909  12.385 -1.4613 -2.7634 -0.2935
  228MPD1    H7 3472   1.034   0.886  12.388  0.4843 -1.0794 -0.2538
  229MPD1     C 3473   1.804   0.086  14.439  0.4584 -0.1366 -1.0393
  229MPD1    C1 3474   1.673   0.120  14.428  0.1353  0.1162 -0.0098
  229MPD1    C2 3475   1.583   0.032  14.481 -0.6268  0.4893  0.3877
  229MPD1    C3 3476   1.618   4.626  14.519  0.3858 -0.0134 -0.6403
  229MPD1    C4 3477   1.749   4.588  14.513 -0.1260 -0.5058 -0.1286
  229MPD1    C5 3478   1.840   4.682  14.472  0.2566  0.5169 -0.3010
  229MPD1     H 3479   1.479   0.060  14.493 -0.1606  1.6734  1.6586
  229MPD1    H1 3480   1.775   4.487  14.540 -0.3407 -0.6426 -0.4369
  229MPD1    H2 3481   1.888   0.148  14.409  0.7872  0.1440  0.4484
  229MPD1    H3 3482   1.944   4.652  14.474 -0.1235 -0.9005 -1.5103
  229MPD1     N 3483   1.517   4.540  14.573 -0.6630  0.0154  0.2535
  229MPD1    H5 3484   1.421   4.569  14.565 -0.2726  0.6580 -2.1129
  229MPD1    N1 3485   1.632   0.235  14.361  0.0929 -0.6776  0.7912
  229MPD1    H6 3486   1.552   0.277  14.408 -1.2036 -0.8622 -1.2632
  229MPD1    H7 3487   1.709   0.302  14.360  0.2919 -0.9066  0.6953
  230MPD1     C 3488   0.553   4.415  14.771 -0.0939 -0.0974 -0.0257
  230MPD1    C1 3489   0.594   4.289  14.794 -0.6662  0.7213  0.3017
  230MPD1    C2 3490   0.726   4.260  14.770  0.9807 -0.3880  0.2739
  230MPD1    C3 3491   0.817   4.359  14.733  0.5609 -0.1608 -0.1801
  230MPD1    C4 3492   0.775   4.490  14.719  0.2947 -0.0586 -1.0225
  230MPD1    C5 3493   0.642   4.517  14.737 -0.1449  0.1003  0.6746
  230MPD1     H 3494   0.764   4.160  14.783 -0.0763 -0.7233  0.7067
  230MPD1    H1 3495   0.837   4.572  14.685 -0.3886  0.1819 -1.6829
  230MPD1    H2 3496   0.450   4.450  14.769 -0.2349 -0.6304 -1.9364
  230MPD1    H3 3497   0.606   4.617  14.717 -0.2890  0.3141  1.9944
  230MPD1     N 3498   0.945   4.321  14.717 -0.3113 -0.1365  0.3286
  230MPD1    H5 3499   0.964   4.223  14.733  0.5942  0.1329  0.9598
  230MPD1    N1 3500   0.504   4.181  14.808  0.0132  0.3259 -0.1071
  230MPD1    H6 3501   0.527   4.103  14.869  1.9676  0.1363 -1.1027
  230MPD1    H7 3502   0.405   4.202  14.821  0.3949  0.3459  2.6621
  231MPD1     C 3503   4.232   2.031  15.963 -0.8897 -0.1956  0.6211
  231MPD1    C1 3504   4.188   1.936  15.872  0.1365 -0.7921 -0.1526
  231MPD1    C2 3505   4.263   1.944  15.753 -0.3298  0.6495  0.1694
  231MPD1    C3 3506   4.344   2.051  15.712  0.7540  0.1485  0.1627
  231MPD1    C4 3507   4.367   2.147  15.811 -0.4080 -0.5906  0.0150
  231MPD1    C5 3508   4.314   2.135  15.929 -0.0312  0.7498 -0.5545
  231MPD1     H 3509   4.246   1.860  15.686 -0.7069  0.8003  0.0756
  231MPD1    H1 3510   4.445   2.219  15.788 -0.4003 -0.6783 -0.2367
  231MPD1    H2 3511   4.205   2.030  16.068  0.9192 -1.0024  1.0721
  231MPD1    H3 3512   4.354   2.208  15.998 -0.5073  1.3136 -0.8727
  231MPD1     N 3513   4.411   2.053  15.592  0.2228  0.8352 -0.5305
  231MPD1    H5 3514   4.402   1.969  15.535 -2.5295  1.9257 -1.6870
  231MPD1    N1 3515   4.117   1.822  15.903  0.3338  0.1916 -0.1225
  231MPD1    H6 3516   4.047   1.838  15.975 -0.4570 -1.6639 -0.5022
  231MPD1    H7 3517   4.073   1.779  15.822  3.8141 -2.7525 -0.4495
  232MPD1     C 3518   2.228   4.092   0.155  0.2265  0.0921 -0.5420
  232MPD1    C1 3519   2.164   4.120   0.272  0.0402  0.5478 -0.2018
  232MPD1    C2 3520   2.029   4.091   0.283 -0.9554 -0.0584  0.2922
  232MPD1    C3 3521   1.963   4.015   0.184  0.1322 -0.3666  0.5948
  232MPD1    C4 3522   2.035   3.986   0.069  0.2621  0.3686 -0.0340
  232MPD1    C5 3523   2.161   4.026   0.056 -0.6424 -0.9721  0.2444
  232MPD1     H 3524   1.978   4.121   0.374  0.0436  0.9107  0.5320
  232MPD1    H1 3525   1.995   3.930  17.678 -2.1229  1.5616  0.2876
  232MPD1    H2 3526   2.332   4.112   0.132  0.3660 -2.0939 -1.8356
  232MPD1    H3 3527   2.214   4.009  17.656 -0.0013  0.8348  0.2631
  232MPD1     N 3528   1.831   3.988   0.200  0.4915  0.4562  0.4788
  232MPD1    H5 3529   1.786   4.012   0.288 -2.4506  0.6969 -1.0755
  232MPD1    N1 3530   2.226   4.196   0.366 -0.6793  0.2947  0.1938
  232MPD1    H6 3531   2.324   4.170   0.380 -0.1929  1.7832 -0.4345
  232MPD1    H7 3532   2.185   4.194   0.459 -0.4359 -1.0107  0.2839
  233MPD1     C 3533   3.234   2.339   2.326 -0.2297 -0.1957  0.6719
  233MPD1    C1 3534   3.176   2.271   2.223  0.3609 -0.1128 -0.3567
  233MPD1    C2 3535   3.248   2.250   2.102 -0.0093 -0.1934 -1.0451
  233MPD1    C3 3536   3.374   2.300   2.076 -0.3882  0.5213 -0.4389
  233MPD1    C4 3537   3.427   2.378   2.182 -0.6276  0.9006 -0.5715
  233MPD1    C5 3538   3.358   2.393   2.296  0.5724  0.0912 -0.0832
  233MPD1     H 3539   3.194   2.189   2.030 -1.0715 -0.8255  0.2913
  233MPD1    H1 3540   3.528   2.414   2.169 -0.6538  0.8565 -0.8878
  233MPD1    H2 3541   3.197   2.358   2.426 -0.2127 -1.2510  0.8810
  233MPD1    H3 3542   3.402   2.438   2.384 -1.1465 -3.0450  2.4197
  233MPD1     N 3543   3.453   2.261   1.963  0.3305  0.5278 -0.0571
  233MPD1    H5 3544   3.545   2.301   1.955  0.5480 -0.0869 -0.6172
  233MPD1    N1 3545   3.043   2.237   2.239 -0.3084  0.2697  0.5109
  233MPD1    H6 3546   3.021   2.223   2.338  0.7591 -3.5022  0.2326
  233MPD1    H7 3547   3.024   2.150   2.190 -1.4323  0.5810  0.3954
  234MPD1     C 3548   3.901   0.483   9.108 -0.1881  0.1256  0.2642
  234MPD1    C1 3549   3.964   0.517   9.226 -0.3410  0.4649 -0.2424
  234MPD1    C2 3550   3.945   0.647   9.275  0.4314 -0.4856 -0.4029
  234MPD1    C3 3551   3.901   0.745   9.198 -0.8403  0.7491 -0.6463
  234MPD1    C4 3552   3.849   0.709   9.076  0.2333 -0.1777 -0.0794
  234MPD1    C5 3553   3.850   0.583   9.025 -0.1158  0.0144  0.1951
  234MPD1     H 3554   3.973   0.678   9.375 -1.5048 -1.3349  0.4168
  234MPD1    H1 3555   3.815   0.785   9.006 -3.5371 -1.2900  0.5492
  234MPD1    H2 3556   3.898   0.382   9.068 -1.4814  0.7767 -1.2872
  234MPD1    H3 3557   3.807   0.560   8.928  2.2333  1.2942 -1.1737
  234MPD1     N 3558   3.901   0.886   9.238 -0.1171 -0.4257 -0.2047
  234MPD1    H5 3559   3.935   0.900   9.333 -0.8387  1.3062 -0.2000
  234MPD1    N1 3560   3.972   0.413   9.321  0.1383 -0.1230 -0.0521
  234MPD1    H6 3561   4.032   0.444   9.397 -0.8685  2.0275 -0.1219
  234MPD1    H7 3562   4.008   0.328   9.278 -1.1333 -1.1565  0.9053
  235MPD1     C 3563   1.168   3.262   9.309  0.3631 -0.3500 -0.4927
  235MPD1    C1 3564   1.051   3.331   9.313 -0.2185 -0.0856  0.3454
  235MPD1    C2 3565   1.059   3.470   9.323 -0.2566  0.0656 -0.1239
  235MPD1    C3 3566   1.184   3.533   9.361 -0.5301  0.4865  0.1400
  235MPD1    C4 3567   1.297   3.453   9.373 -0.1726  0.5151 -0.0511
  235MPD1    C5 3568   1.292   3.325   9.333 -0.4253 -0.4540 -0.3923
  235MPD1     H 3569   0.973   3.534   9.309 -0.6406 -0.4800 -0.2567
  235MPD1    H1 3570   1.391   3.497   9.405  1.1102 -0.9112 -1.8894
  235MPD1    H2 3571   1.176   3.156   9.291  0.5237 -0.3626 -0.3488
  235MPD1    H3 3572   1.369   3.251   9.351  1.0452  0.9106 -1.0402
  235MPD1     N 3573   1.196   3.676   9.380  0.1279  0.2679 -0.0302
  235MPD1    H5 3574   1.109   3.726   9.365  0.6358  1.2173  0.2024
  235MPD1    N1 3575   0.929   3.273   9.297 -0.1038  0.2564  1.2548
  235MPD1    H6 3576   0.915   3.176   9.326 -0.4443 -0.4987 -1.4867
  235MPD1    H7 3577   0.849   3.327   9.327 -0.7770  1.1184 -2.1413
  236MPD1     C 3578   0.341   0.244  10.231  0.4265  0.3119  0.0459
  236MPD1    C1 3579   0.251   0.140  10.201  0.0608  0.3105 -0.1290
  236MPD1    C2 3580   0.302   0.013  10.179  0.0433 -0.1210 -0.1866
  236MPD1    C3 3581   0.433   4.699  10.205  0.3773 -0.3923  0.2977
  236MPD1    C4 3582   0.521   0.078  10.233  0.4695 -0.1846  0.4132
  236MPD1    C5 3583   0.468   0.205  10.254 -0.6943  0.3742  0.0191
  236MPD1     H 3584   0.225   4.663  10.155  0.3082  0.0827 -1.6632
  236MPD1    H1 3585   0.623   0.053  10.259 -0.4984 -2.4876  2.0449
  236MPD1    H2 3586   0.315   0.349  10.240  0.4410  0.1504  1.9700
  236MPD1    H3 3587   0.541   0.281  10.281 -0.7607  0.8299 -1.0981
  236MPD1     N 3588   0.486   4.568  10.191 -0.9570 -0.3371  0.6011
  236MPD1    H5 3589   0.584   4.561  10.219 -0.7581  1.4751  0.3839
  236MPD1    N1 3590   0.120   0.165  10.176  0.1296 -0.2819  0.1817
  236MPD1    H6 3591   0.084   0.237  10.238  1.9588  1.0667 -0.3039
  236MPD1    H7 3592   0.066   0.085  10.207  0.1772 -2.1558 -4.7144
  237MPD1     C 3593   4.722   2.885  15.336  0.5459 -0.8730 -0.0358
  237MPD1    C1 3594   4.670   2.760  15.327  0.7584 -0.8253  0.4798
  237MPD1    C2 3595   4.536   2.742  15.359 -0.5543  0.3356  0.3778
  237MPD1    C3 3596   4.453   2.856  15.365 -0.7112 -0.6893  0.1140
  237MPD1    C4 3597   4.502   2.977  15.340 -0.0248 -0.2157 -0.2298
  237MPD1    C5 3598   4.637   2.995  15.322 -0.8656 -0.6430 -0.8059
  237MPD1     H 3599   4.490   2.644  15.359 -0.5894  0.3483 -0.0263
  237MPD1    H1 3600   4.441   3.067  15.341  0.5494  0.1735  0.0667
  237MPD1    H2 3601   0.107   2.896  15.335  0.7145 -2.5979 -0.1590
  237MPD1    H3 3602   4.680   3.094  15.321 -2.2189 -0.0550 -0.3854
  237MPD1     N 3603   4.312   2.848  15.361 -0.6724  0.2522 -0.8109
  237MPD1    H5 3604   4.254   2.922  15.320  1.0090  1.8208 -0.3628
  237MPD1    N1 3605   0.030   2.644  15.326  0.0972 -0.5935  0.2675
  237MPD1    H6 3606   0.120   2.658  15.280  1.1519 -2.9512  1.6881
  237MPD1    H7 3607   4.708   2.566  15.278 -1.0526 -0.8660  1.8135
  238MPD1     C 3608   1.436   2.104  14.508  0.0274  1.1097  0.4589
  238MPD1    C1 3609   1.477   2.006  14.594  0.0657 -0.0322 -0.4440
  238MPD1    C2 3610   1.377   1.919  14.637 -0.0853 -0.0579  0.0253
  238MPD1    C3 3611   1.242   1.941  14.587  0.3648 -0.0752 -0.0804
  238MPD1    C4 3612   1.215   2.047  14.500 -0.5730  0.2933  0.3107
  238MPD1    C5 3613   1.309   2.135  14.464 -0.1541  0.1127  0.0562
  238MPD1     H 3614   1.400   1.826  14.687 -1.2136 -0.4962 -0.2736
  238MPD1    H1 3615   1.117   2.056  14.454  0.1045  0.4371 -1.1304
  238MPD1    H2 3616   1.508   2.174  14.467  0.4144 -0.5960 -1.7620
  238MPD1    H3 3617   1.282   2.220  14.401 -0.4470  0.2721  0.3907
  238MPD1     N 3618   1.130   1.852  14.611  0.1367  0.3348  0.5994
  238MPD1    H5 3619   1.040   1.882  14.576  0.2637 -0.1946 -0.1684
  238MPD1    N1 3620   1.614   1.975  14.605 -0.3989 -0.1467  0.2127
  238MPD1    H6 3621   1.629   1.932  14.696 -0.3446 -3.0315 -1.1707
  238MPD1    H7 3622   1.677   2.053  14.588 -0.7986  0.3648  1.0458
  239MPD1     C 3623   1.151   1.862  15.176 -0.1406 -0.0576  0.4489
  239MPD1    C1 3624   1.270   1.919  15.227 -0.3080 -0.2876  0.1360
  239MPD1    C2 3625   1.331   2.011  15.140  0.0118 -0.3906  0.2422
  239MPD1    C3 3626   1.282   2.027  15.015  0.7248 -0.9446 -0.3705
  239MPD1    C4 3627   1.164   1.972  14.970 -0.7089 -0.2021 -0.4533
  239MPD1    C5 3628   1.095   1.890  15.050 -1.0544 -0.0979 -0.0385
  239MPD1     H 3629   1.429   2.047  15.166  0.4915 -1.2578 -0.3748
  239MPD1    H1 3630   1.131   1.976  14.866 -0.6404  2.5332 -0.3600
  239MPD1    H2 3631   1.086   1.797  15.234  0.6058 -1.1658  0.0504
  239MPD1    H3 3632   0.997   1.855  15.022 -0.6691 -1.4106  0.2771
  239MPD1     N 3633   1.343   2.111  14.918  0.3359 -0.1791  0.2439
  239MPD1    H5 3634   1.282   2.116  14.837  0.5996 -0.8337  0.0044
  239MPD1    N1 3635   1.300   1.919  15.362  0.1609  0.5355  0.0908
  239MPD1    H6 3636   1.270   1.827  15.396 -0.4703  0.2985 -1.1119
  239MPD1    H7 3637   1.400   1.924  15.381  0.3127 -2.9689  0.2506
  240MPD1     C 3638   0.503   1.993  13.424 -0.2620  0.7816 -0.1325
  240MPD1    C1 3639   0.638   1.984  13.447  0.1254  0.2147 -0.5793
  240MPD1    C2 3640   0.683   1.953  13.580  0.1300  0.0954  0.3670
  240MPD1    C3 3641   0.594   1.946  13.681 -0.2095 -0.1328  0.6029
  240MPD1    C4 3642   0.461   1.972  13.650  0.3255 -0.2275  0.3892
  240MPD1    C5 3643   0.414   1.986  13.521 -0.0067  0.3493 -0.3344
  240MPD1     H 3644   0.781   1.909  13.594  0.2090  0.1222 -0.0898
  240MPD1    H1 3645   0.390   1.986  13.731  1.4598 -0.8102  1.4887
  240MPD1    H2 3646   0.479   2.017  13.321 -2.8051 -0.2694  0.2218
  240MPD1    H3 3647   0.314   2.023  13.501  0.1055  0.9354  0.2136
  240MPD1     N 3648   0.641   1.909  13.815 -0.4506 -0.3083  0.6894
  240MPD1    H5 3649   0.740   1.889  13.824 -0.3817 -0.7153 -0.8820
  240MPD1    N1 3650   0.724   1.976  13.334 -0.0032 -0.2761 -0.0157
  240MPD1    H6 3651   0.682   2.044  13.270 -2.8422 -0.4085  1.6674
  240MPD1    H7 3652   0.813   2.016  13.360 -1.1060  2.0681  0.1583
  241MPD1     C 3653   1.197   2.414  14.062  0.6834 -0.0303 -0.3179
  241MPD1    C1 3654   1.231   2.283  14.074 -0.2667 -0.0430  0.1118
  241MPD1    C2 3655   1.141   2.192  14.123 -0.3622 -0.6689  0.6410
  241MPD1    C3 3656   1.011   2.226  14.136 -0.8120 -0.0474 -0.0359
  241MPD1    C4 3657   0.970   2.359  14.096  0.4640 -0.2850  0.1554
  241MPD1    C5 3658   1.068   2.444  14.062 -0.7865  0.1163 -0.5444
  241MPD1     H 3659   1.177   2.094  14.154  1.9341 -0.4735 -1.3990
  241MPD1    H1 3660   0.865   2.387  14.098  0.0562 -1.7820 -0.4380
  241MPD1    H2 3661   1.267   2.493  14.040  2.6912 -1.4607  0.9706
  241MPD1    H3 3662   1.044   2.545  14.033 -0.8597 -0.1328 -1.3518
  241MPD1     N 3663   0.906   2.133  14.183  0.5467 -0.4989 -0.0810
  241MPD1    H5 3664   0.814   2.174  14.178  2.4254  3.6966 -0.5454
  241MPD1    N1 3665   1.373   2.256  14.081 -0.7926 -0.0342 -0.8054
  241MPD1    H6 3666   1.437   2.306  14.020 -0.7393  0.9182  0.0332
  241MPD1    H7 3667   1.386   2.155  14.083  0.3990  0.1261 -0.2461
  242MPD1     C 3668   0.296   0.410  15.888  0.3654  0.7469 -0.1321
  242MPD1    C1 3669   0.281   0.510  15.796  0.6729 -0.4256 -0.6888
  242MPD1    C2 3670   0.257   0.469  15.664 -0.6368 -0.2202  0.0627
  242MPD1    C3 3671   0.251   0.336  15.623 -0.2459 -1.1163 -0.1018
  242MPD1    C4 3672   0.253   0.244  15.718 -0.2187 -0.1477  0.6840
  242MPD1    C5 3673   0.274   0.275  15.850 -0.0068 -0.1636 -0.0568
  242MPD1     H 3674   0.258   0.542  15.584  0.7431  1.0088  1.2080
  242MPD1    H1 3675   0.251   0.139  15.694  2.3858  0.5816 -2.7505
  242MPD1    H2 3676   0.338   0.429  15.986  1.4343 -4.0383  0.3788
  242MPD1    H3 3677   0.290   0.192  15.919 -0.6442 -0.0032  0.2857
  242MPD1     N 3678   0.243   0.284  15.489 -0.2275 -0.4908 -0.1437
  242MPD1    H5 3679   0.248   0.187  15.462  1.6310 -0.6930  0.9581
  242MPD1    N1 3680   0.297   0.642  15.833  0.1785  0.3047 -0.0601
  242MPD1    H6 3681   0.255   0.708  15.768  1.1337 -0.4126 -1.4136
  242MPD1    H7 3682   0.254   0.648  15.925 -0.0745 -1.6586 -0.0502
  243MPD1     C 3683   1.839   3.547   0.527  0.4927 -0.1184  0.6577
  243MPD1    C1 3684   1.724   3.493   0.468  0.9538 -0.6748  0.9102
  243MPD1    C2 3685   1.708   3.522   0.336 -1.0479 -0.0251 -0.3558
  243MPD1    C3 3686   1.808   3.575   0.258 -0.6336 -0.5234  0.3703
  243MPD1    C4 3687   1.916   3.634   0.322  0.6523 -0.1310  0.3683
  243MPD1    C5 3688   1.934   3.611   0.456 -0.0383  0.3609  0.5213
  243MPD1     H 3689   1.628   3.470   0.284  0.2551 -1.5721 -0.8145
  243MPD1    H1 3690   1.994   3.692   0.274 -0.2383  0.9743  0.2778
  243MPD1    H2 3691   1.847   3.544   0.635  1.1726  0.2857  0.6261
  243MPD1    H3 3692   2.014   3.659   0.511  0.7923  0.7125 -0.9914
  243MPD1     N 3693   1.788   3.583   0.120  0.5516 -0.1039 -0.1541
  243MPD1    H5 3694   1.703   3.549   0.077  1.3185 -1.8252 -0.2959
  243MPD1    N1 3695   1.624   3.432   0.550 -0.3361 -0.4425  0.9210
  243MPD1    H6 3696   1.566   3.371   0.492  0.2303  0.9494 -1.0949
  243MPD1    H7 3697   1.653   3.383   0.635  1.6028 -1.0178 -0.0760
  244MPD1     C 3698   1.203   3.962  17.107  0.7274 -0.1245  0.1519
  244MPD1    C1 3699   1.317   3.944  17.038 -0.0099  0.4293 -0.0180
  244MPD1    C2 3700   1.417   3.877  17.105 -0.3504  0.2689 -0.1422
  244MPD1    C3 3701   1.407   3.817  17.229  0.3468 -0.0759 -0.7869
  244MPD1    C4 3702   1.290   3.841  17.306 -0.0310  0.4103  0.1647
  244MPD1    C5 3703   1.186   3.909  17.231 -0.1453 -1.0260  0.3127
  244MPD1     H 3704   1.511   3.874  17.050  0.7097 -0.9256  1.7598
  244MPD1    H1 3705   1.267   3.795  17.401  0.0914 -1.5636 -0.7427
  244MPD1    H2 3706   1.113   4.011  17.073  1.4293  0.1572 -1.2813
  244MPD1    H3 3707   1.090   3.911  17.281  0.4595 -0.5788  1.4637
  244MPD1     N 3708   1.528   3.759  17.268 -0.3693  0.4062  0.2033
  244MPD1    H5 3709   1.610   3.758  17.210  1.3166  0.8155  2.5693
  244MPD1    N1 3710   1.324   3.970  16.900  0.5054  0.2104  0.3698
  244MPD1    H6 3711   1.417   3.984  16.862 -0.5967  1.4826 -1.8512
  244MPD1    H7 3712   1.276   4.056  16.874  3.6945  1.4345 -1.5184
  245MPD1     C 3713   4.150   3.998  13.188  0.1975 -0.0840  0.4313
  245MPD1    C1 3714   4.076   4.056  13.289 -0.0796 -0.0365  0.8845
  245MPD1    C2 3715   4.103   4.195  13.304  0.2190  0.0072  0.2701
  245MPD1    C3 3716   4.194   4.262  13.226 -0.6569 -1.1250 -0.0573
  245MPD1    C4 3717   4.245   4.202  13.117 -0.2795 -0.4084  0.2376
  245MPD1    C5 3718   4.214   4.070  13.101 -0.4172  1.0847 -0.3318
  245MPD1     H 3719   4.057   4.247  13.388 -0.4422 -0.2692  0.0731
  245MPD1    H1 3720   4.316   4.247  13.049 -2.3729  0.1608 -1.5320
  245MPD1    H2 3721   4.141   3.892  13.167 -2.5148  0.4413 -1.0691
  245MPD1    H3 3722   4.286   4.014  13.041 -2.0926 -1.4771  0.0578
  245MPD1     N 3723   4.221   4.400  13.248  0.3560 -0.8471 -0.7166
  245MPD1    H5 3724   4.181   4.442  13.332  3.7017  0.1092  0.3978
  245MPD1    N1 3725   4.012   3.982  13.389  0.2240  0.0959  0.4031
  245MPD1    H6 3726   3.970   3.900  13.346  4.0007 -1.6916  0.1198
  245MPD1    H7 3727   3.935   4.041  13.421  0.7117  0.9389  0.0258
  246MPD1     C 3728   4.227   3.876  10.337  0.6308  0.3256 -0.3040
  246MPD1    C1 3729   4.280   3.942  10.228 -0.6854 -0.4850 -0.6178
  246MPD1    C2 3730   4.188   3.987  10.139  0.1045  0.5769 -0.9241
  246MPD1    C3 3731   4.047   3.981  10.163  0.2605 -0.1696  0.5064
  246MPD1    C4 3732   4.002   3.920  10.272 -0.1089  0.1051  0.6320
  246MPD1    C5 3733   4.094   3.869  10.359  0.7119 -0.1530  0.3763
  246MPD1     H 3734   4.223   4.024  10.043 -0.2666  1.0802 -0.8653
  246MPD1    H1 3735   3.897   3.927  10.298 -0.0634  0.5048  0.7128
  246MPD1    H2 3736   4.290   3.832  10.413 -0.3107 -0.9095 -0.2368
  246MPD1    H3 3737   4.051   3.839  10.454 -1.7659 -0.1236 -0.7324
  246MPD1     N 3738   3.977   4.004  10.042 -0.2403 -0.4440 -0.1673
  246MPD1    H5 3739   4.028   4.043   9.963  0.5036 -0.3150  0.3810
  246MPD1    N1 3740   4.422   3.930  10.200  0.1552  0.0196  0.0857
  246MPD1    H6 3741   4.491   3.931  10.274 -0.1138 -0.0875  0.3378
  246MPD1    H7 3742   4.454   4.000  10.134  1.3704 -0.7001 -0.0982
  247MPD1     C 3743   3.140   4.139  16.742  0.6905  0.3974  0.1965
  247MPD1    C1 3744   3.145   4.192  16.615 -0.2503 -0.0200  0.2117
  247MPD1    C2 3745   3.199   4.116  16.513 -0.7346 -0.2282 -0.4017
  247MPD1    C3 3746   3.262   3.994  16.536  0.0346 -0.2686  0.6876
  247MPD1    C4 3747   3.252   3.937  16.659  0.2350  0.3034  0.2757
  247MPD1    C5 3748   3.197   4.011  16.760  0.3293 -0.9710 -0.0618
  247MPD1     H 3749   3.196   4.170  16.419  2.7427  0.8867  0.1138
  247MPD1    H1 3750   3.291   3.838  16.676 -0.1538  0.1758  0.4201
  247MPD1    H2 3751   3.097   4.194  16.825  1.8103  1.5833 -0.0270
  247MPD1    H3 3752   3.197   3.968  16.859 -0.0970 -2.0072 -0.5123
  247MPD1     N 3753   3.323   3.911  16.437  0.2635 -0.0081 -0.2293
  247MPD1    H5 3754   3.363   3.821  16.460 -0.6469 -0.4399 -0.3333
  247MPD1    N1 3755   3.083   4.314  16.596  0.1358 -0.0257 -0.6709
  247MPD1    H6 3756   3.085   4.381  16.672  0.9745 -0.2640 -0.4780
  247MPD1    H7 3757   3.114   4.363  16.512 -2.3664  0.5436 -1.2498
  248MPD1     C 3758   4.692   3.763   1.189  0.1004 -0.0001 -0.1350
  248MPD1    C1 3759   4.625   3.843   1.276 -0.0736 -0.1746  0.1087
  248MPD1    C2 3760   4.505   3.897   1.231 -0.2413  0.6163  0.0625
  248MPD1    C3 3761   4.444   3.862   1.109  0.2288  0.0502  0.4136
  248MPD1    C4 3762   4.514   3.778   1.024  0.4839  0.5705 -0.7257
  248MPD1    C5 3763   4.642   3.744   1.066 -0.4565 -0.2573 -0.1231
  248MPD1     H 3764   4.453   3.962   1.300  0.5877 -1.0792  2.3155
  248MPD1    H1 3765   4.486   3.743   0.925 -1.5677 -0.2460  0.1455
  248MPD1    H2 3766   0.063   3.729   1.230 -1.6821 -2.5261  1.8681
  248MPD1    H3 3767   4.703   3.690   0.994 -2.0234 -1.6637 -0.3892
  248MPD1     N 3768   4.320   3.920   1.070 -0.0340 -0.1837  0.0724
  248MPD1    H5 3769   4.280   3.991   1.130  0.6461  0.6639 -0.4679
  248MPD1    N1 3770   4.691   3.888   1.390  0.1132 -0.2045 -0.3595
  248MPD1    H6 3771   4.628   3.928   1.460 -0.0101  1.1174 -1.2124
  248MPD1    H7 3772   0.019   3.810   1.432  2.8387  1.6653 -0.1185
  249MPD1     C 3773   0.935   2.305  10.657  0.4783 -0.2094  0.1099
  249MPD1    C1 3774   0.986   2.415  10.600  0.8125  0.2829  0.1647
  249MPD1    C2 3775   0.977   2.424  10.454 -0.6791  0.5060  0.1354
  249MPD1    C3 3776   0.907   2.336  10.382 -0.5027  0.4469  0.6246
  249MPD1    C4 3777   0.848   2.233  10.445  0.5342 -0.3218 -0.1653
  249MPD1    C5 3778   0.858   2.223  10.582  0.1480  0.1260 -0.1791
  249MPD1     H 3779   1.017   2.512  10.406 -1.2062  1.0128  0.6350
  249MPD1    H1 3780   0.799   2.153  10.389 -0.4889  0.1346  0.0801
  249MPD1    H2 3781   0.959   2.277  10.759 -2.3233 -2.4128  0.1424
  249MPD1    H3 3782   0.820   2.138  10.637  1.5831 -0.6255 -0.3258
  249MPD1     N 3783   0.911   2.361  10.247  0.4068  0.3876  0.2053
  249MPD1    H5 3784   0.946   2.450  10.213 -0.2065  0.7567  0.5331
  249MPD1    N1 3785   1.066   2.507  10.678 -0.1628 -1.1044 -0.4177
  249MPD1    H6 3786   1.070   2.596  10.627  0.7122 -0.0286  1.5381
  249MPD1    H7 3787   1.045   2.526  10.775 -2.6076  0.0263 -1.1507
  250MPD2     C 3788   2.699   2.616  12.661  0.1326 -0.3687 -0.5684
  250MPD2    C1 3789   2.604   2.693  12.728  0.1150 -0.1659 -1.0181
  250MPD2    C2 3790   2.480   2.630  12.740 -0.9387 -0.1548  0.5979
  250MPD2    C3 3791   2.456   2.495  12.702 -0.2494 -0.9752 -0.2515
  250MPD2    C4 3792   2.560   2.426  12.640  0.1312  0.2360 -0.1409
  250MPD2    C5 3793   2.682   2.486  12.619  0.2693  0.1261 -0.2325
  250MPD2     H 3794   2.400   2.699  12.767  2.4114  2.9648  2.5021
  250MPD2    H1 3795   2.545   2.323  12.610 -0.6644 -0.1174  1.4763
  250MPD2    H2 3796   2.794   2.662  12.637  0.4854 -0.4947  0.6167
  250MPD2    H3 3797   2.759   2.438  12.560  0.4220  1.7827 -1.3789
  250MPD2     N 3798   2.332   2.423  12.713 -0.3681 -0.5271 -0.1088
  250MPD2    H5 3799   2.326   2.327  12.683  2.0482 -1.4730  2.3633
  250MPD2    N1 3800   2.632   2.830  12.742  0.3448  0.2628 -0.1248
  250MPD2    H7 3801   2.722   2.859  12.707  0.3859  0.1973 -0.0749
  251TMC3    C1 3802   2.615   3.056  12.815 -0.0390 -0.9275 -0.5039
  251TMC3    C2 3803   2.532   3.160  12.846 -0.1398 -0.5940 -0.3642
  251TMC3    C3 3804   2.593   3.265  12.908 -0.5126  0.7885 -0.2712
  251TMC3    C4 3805   2.749   3.051  12.852 -0.5844 -0.5489  0.2973
  251TMC3    C5 3806   2.800   3.156  12.915 -0.5916 -0.3836 -0.3528
  251TMC3    C6 3807   2.721   3.262  12.955  0.1913  0.7540 -0.0566
  251TMC3     C 3808   2.549   2.929  12.782  0.5088  0.1468 -0.1981
  251TMC3     O 3809   2.426   2.921  12.793  0.6788 -0.7217  0.0188
  251TMC3     H 3810   2.430   3.162  12.808 -0.7508 -1.2556  1.2396
  251TMC3    H1 3811   2.808   2.962  12.830  0.1235 -0.1351  0.5336
  251TMC3    H2 3812   2.755   3.352  13.006  0.8575  1.4458 -1.7208
  251TMC3    C7 3813   2.943   3.146  12.957 -0.2519  0.2274 -0.3829
  251TMC3    C8 3814   2.499   3.362  12.966 -0.3594  0.1034  0.1163
  251TMC3    O1 3815   2.993   3.038  12.947 -0.1804 -0.7280 -0.3693
  251TMC3    O2 3816   2.381   3.338  12.951  0.5753 -0.2865 -0.2814
  252TMC3    C1 3817   2.680   3.609   9.386 -0.3633  0.2861 -0.6993
  252TMC3    C2 3818   2.738   3.726   9.345 -0.4726 -0.7268 -0.5664
  252TMC3    C3 3819   2.870   3.741   9.365 -0.3096  0.3613  0.3417
  252TMC3    C4 3820   2.752   3.511   9.439 -0.4425  0.6169 -1.0515
  252TMC3    C5 3821   2.889   3.529   9.453  0.0899  0.3031 -0.5687
  252TMC3    C6 3822   2.948   3.645   9.418  0.0386 -0.3930 -1.1766
  252TMC3     C 3823   2.545   3.585   9.351 -0.2588  0.5564 -0.3985
  252TMC3     O 3824   2.513   3.470   9.321  0.5881 -0.4299  0.1388
  252TMC3     H 3825   2.677   3.804   9.301 -0.3805 -0.9611 -1.1099
  252TMC3    H1 3826   2.706   3.420   9.477  0.9145 -0.1108 -1.1693
  252TMC3    H2 3827   3.055   3.655   9.410  0.2008 -0.5047  0.8754
  252TMC3    C7 3828   2.986   3.430   9.504  0.2713 -0.1708 -0.0935
  252TMC3    C8 3829   2.926   3.875   9.360 -0.0955 -0.0570 -0.4890
  252TMC3    O1 3830   3.087   3.468   9.562  0.1549 -1.3338 -0.1363
  252TMC3    O2 3831   2.879   3.955   9.278  0.1235 -0.1306  0.2771
  253MPD2     C 3832   3.663   2.773  15.898 -0.4690  0.0278  0.6315
  253MPD2    C1 3833   3.535   2.807  15.888  0.5811  0.4274 -0.2923
  253MPD2    C2 3834   3.454   2.797  16.002 -0.3350  0.2091  0.6334
  253MPD2    C3 3835   3.505   2.774  16.124 -0.3513  0.6673 -0.3567
  253MPD2    C4 3836   3.636   2.751  16.130 -0.0839 -0.5462  0.6731
  253MPD2    C5 3837   3.718   2.759  16.020  0.3470  0.0788 -0.0950
  253MPD2     H 3838   3.349   2.821  15.998 -0.2351  0.5802  0.2974
  253MPD2    H1 3839   3.681   2.738  16.228 -2.9714 -1.1037  1.9174
  253MPD2    H2 3840   3.727   2.761  15.811 -0.7904  3.1151 -0.0132
  253MPD2    H3 3841   3.825   2.741  16.028  0.3434  0.5591  1.0333
  253MPD2     N 3842   3.426   2.779  16.239  0.6719  0.9660  0.2477
  253MPD2    H5 3843   3.458   2.730  16.322  2.0130  1.1643 -0.1530
  253MPD2    N1 3844   3.479   2.831  15.762 -0.2038  1.0223 -0.0037
  253MPD2    H7 3845   3.377   2.832  15.760 -0.1720  1.2099 -1.3551
  254TMC3    C1 3846   3.238   2.818  16.372  0.1158  0.6720 -0.0106
  254TMC3    C2 3847   3.143   2.915  16.405  0.6120  0.0377 -0.3726
  254TMC3    C3 3848   3.075   2.905  16.524 -0.5764  0.2019 -0.2192
  254TMC3    C4 3849   3.269   2.711  16.457  0.2751  0.9405 -0.8163
  254TMC3    C5 3850   3.200   2.703  16.577  0.2403 -0.4241  0.1203
  254TMC3    C6 3851   3.107   2.804  16.610 -0.3925 -0.0974  0.4620
  254TMC3     C 3852   3.295   2.828  16.248  0.4634  0.7415 -0.3946
  254TMC3     O 3853   3.223   2.884  16.169 -0.2651  0.0372 -0.5413
  254TMC3     H 3854   3.149   3.007  16.348  1.6765  0.5644  0.5872
  254TMC3    H1 3855   3.348   2.640  16.436 -2.3421 -2.2139  0.0517
  254TMC3    H2 3856   3.046   2.811  16.699 -1.8820 -0.7094 -0.5111
  254TMC3    C7 3857   3.213   2.595  16.677 -0.3230  0.7997  0.4026
  254TMC3    C8 3858   3.029   3.026  16.589  0.3135  0.5623  0.2782
  254TMC3    O1 3859   3.129   2.597  16.767  0.3774 -0.3365 -0.4119
  254TMC3    O2 3860   3.048   3.036  16.709 -0.0958 -0.1107  0.2625
  255MPD2     C 3861   1.550   1.184  10.377 -0.5771 -0.2889 -0.4726
  255MPD2    C1 3862   1.633   1.290  10.354  0.0273  0.0104  0.4362
  255MPD2    C2 3863   1.758   1.262  10.311  0.0895 -0.6039 -0.8341
  255MPD2    C3 3864   1.809   1.134  10.289 -0.5781  0.2446 -0.3713
  255MPD2    C4 3865   1.722   1.032  10.326  0.2433  0.3164 -0.3770
  255MPD2    C5 3866   1.591   1.058  10.362 -0.3509  0.2175 -0.4605
  255MPD2     H 3867   1.823   1.345  10.286 -2.7312  0.9130 -3.1308
  255MPD2    H1 3868   1.745   0.926  10.317 -1.7618 -0.0523 -1.2818
  255MPD2    H2 3869   1.447   1.199  10.404 -0.7751 -3.9679  0.8950
  255MPD2    H3 3870   1.521   0.982  10.395 -0.1804 -0.1971 -1.0591
  255MPD2     N 3871   1.940   1.114  10.246 -0.4725 -0.5876  0.0150
  255MPD2    H5 3872   1.991   1.201  10.235 -0.7779  0.0524  3.6388
  255MPD2    N1 3873   1.574   1.415  10.352  0.1916  0.2676 -0.2492
  255MPD2    H7 3874   1.476   1.415  10.377 -0.0875 -1.9309 -1.3921
  256TMC3    C1 3875   1.533   1.645  10.318  0.1017 -0.2479 -0.0925
  256TMC3    C2 3876   1.590   1.768  10.315  0.5082 -0.4397  0.5633
  256TMC3    C3 3877   1.529   1.864  10.238  0.4867 -0.1894  0.3041
  256TMC3    C4 3878   1.435   1.612  10.229 -0.2962 -0.4204 -0.1102
  256TMC3    C5 3879   1.368   1.710  10.162 -0.1903 -0.2575  0.3026
  256TMC3    C6 3880   1.418   1.837  10.166  0.4964 -0.0525 -1.5666
  256TMC3     C 3881   1.633   1.535  10.339 -0.1128  0.0841  0.1178
  256TMC3     O 3882   1.751   1.569  10.340  0.1704 -0.1130 -0.3460
  256TMC3     H 3883   1.656   1.792  10.397  1.3621  1.3181 -0.6488
  256TMC3    H1 3884   1.394   1.511  10.235 -4.0929  1.0996 -0.0764
  256TMC3    H2 3885   1.365   1.919  10.120 -1.4046 -0.6127 -0.3778
  256TMC3    C7 3886   1.265   1.660  10.071  0.7659  0.5541  0.2861
  256TMC3    C8 3887   1.599   1.991  10.209 -0.7629  0.3864  1.1750
  256TMC3    O1 3888   1.268   1.549  10.016  0.5377 -0.6009  0.1475
  256TMC3    O2 3889   1.652   2.041  10.308 -0.5386  0.2009  0.2406
  257MPD2     C 3890   1.586   2.799  13.278 -0.6011  0.0926  0.8596
  257MPD2    C1 3891   1.468   2.754  13.230  0.5581  0.6400  0.2109
  257MPD2    C2 3892   1.393   2.667  13.303  0.0230  0.0972  1.1292
  257MPD2    C3 3893   1.450   2.605  13.411  0.4613  0.4465  0.1972
  257MPD2    C4 3894   1.572   2.647  13.463 -0.5601 -0.0504 -0.4631
  257MPD2    C5 3895   1.636   2.745  13.391  0.4404  0.3114 -0.7685
  257MPD2     H 3896   1.292   2.636  13.277  0.9453 -1.9066 -0.0421
  257MPD2    H1 3897   1.615   2.604  13.553  3.3120  3.9701 -0.4056
  257MPD2    H2 3898   1.643   2.878  13.230 -0.5806  0.8191  2.0829
  257MPD2    H3 3899   1.734   2.773  13.429  0.2869  1.7602 -1.4332
  257MPD2     N 3900   1.368   2.501  13.474  0.0236  0.0022  0.0036
  257MPD2    H5 3901   1.286   2.474  13.420  2.0839 -2.3632 -1.9199
  257MPD2    N1 3902   1.418   2.813  13.112 -0.2843  0.3465  0.5441
  257MPD2    H7 3903   1.474   2.880  13.061  1.1028 -1.0243  0.2877
  258TMC3    C1 3904   1.323   2.301  13.582  0.1107  0.3596 -0.7354
  258TMC3    C2 3905   1.235   2.274  13.478 -0.8447  0.4673  1.3613
  258TMC3    C3 3906   1.152   2.165  13.493  0.1100 -0.2727 -0.5501
  258TMC3    C4 3907   1.337   2.221  13.691 -0.2123  0.0784 -0.5314
  258TMC3    C5 3908   1.257   2.109  13.692  0.6966  0.6841 -0.7726
  258TMC3    C6 3909   1.159   2.081  13.598  0.0646 -1.0117  0.3527
  258TMC3     C 3910   1.394   2.428  13.586  0.0142 -0.1333 -0.3242
  258TMC3     O 3911   1.472   2.449  13.681 -0.1182  0.0139 -0.4085
  258TMC3     H 3912   1.253   2.320  13.382 -2.0274  0.0872  0.9494
  258TMC3    H1 3913   1.406   2.249  13.770 -1.1889  0.5688  0.1576
  258TMC3    H2 3914   1.103   1.989  13.586 -0.7267 -0.7424  2.0180
  258TMC3    C7 3915   1.274   2.011  13.792 -0.2858 -0.0973  0.6105
  258TMC3    C8 3916   1.064   2.139  13.380  0.2096  0.2144 -0.1693
  258TMC3    O1 3917   1.175   1.947  13.831 -0.4192  0.4365 -0.1874
  258TMC3    O2 3918   1.021   2.027  13.367 -0.0022  0.2512 -0.3834
  259MPD2     C 3919   0.394   4.127   0.751 -0.2809  0.0062  0.0988
  259MPD2    C1 3920   0.337   4.250   0.720  0.1728  0.1163  0.4812
  259MPD2    C2 3921   0.340   4.279   0.586  0.0585 -0.2992  0.0146
  259MPD2    C3 3922   0.431   4.217   0.492 -0.1593 -0.0602  0.5186
  259MPD2    C4 3923   0.494   4.104   0.536  0.4949  0.7152  0.0548
  259MPD2    C5 3924   0.474   4.053   0.659 -0.2381 -0.1974 -0.0581
  259MPD2     H 3925   0.294   4.366   0.539 -1.0589 -0.4052  0.9292
  259MPD2    H1 3926   0.548   4.041   0.467  0.6915  1.8209 -0.8010
  259MPD2    H2 3927   0.383   4.094   0.853 -0.0409 -4.7005 -1.3894
  259MPD2    H3 3928   0.527   3.968   0.700 -0.7131 -0.8657 -0.8260
  259MPD2     N 3929   0.433   4.253   0.351  0.0243  0.1572  0.0468
  259MPD2    H5 3930   0.371   4.326   0.318  0.7327  0.5210 -0.4649
  259MPD2    N1 3931   0.262   4.322   0.816 -0.7351 -0.5783  0.0847
  259MPD2    H7 3932   0.286   4.288   0.908 -0.3734 -1.0787 -0.1947
  260TMC3    C1 3933   0.517   4.264   0.126 -0.8973  0.2091  0.5491
  260TMC3    C2 3934   0.639   4.276   0.066  0.4592 -0.5972 -0.1182
  260TMC3    C3 3935   0.643   4.280  17.622 -0.2588 -0.4701  0.2060
  260TMC3    C4 3936   0.404   4.247   0.052  0.8225  0.2130  0.0321
  260TMC3    C5 3937   0.408   4.258  17.610  0.2826 -0.1421 -0.1572
  260TMC3    C6 3938   0.530   4.272  17.550 -0.4326 -0.4275  0.0012
  260TMC3     C 3939   0.520   4.211   0.260 -0.2740 -0.5483  0.0253
  260TMC3     O 3940   0.621   4.147   0.282 -0.8206  0.2600 -0.3575
  260TMC3     H 3941   0.730   4.274   0.125  0.1493 -2.4789  0.2832
  260TMC3    H1 3942   0.311   4.234   0.106  0.9662  1.8214  0.6718
  260TMC3    H2 3943   0.535   4.280  17.442  2.4269  0.5069  0.2003
  260TMC3    C7 3944   0.348   4.143  17.546 -0.0007 -0.3896  0.3168
  260TMC3    C8 3945   0.767   4.266  17.539  0.7928  0.4220 -0.0665
  260TMC3    O1 3946   0.414   4.051  17.497 -0.4666  0.1114 -0.4345
  260TMC3    O2 3947   0.764   4.304  17.422 -0.0397 -0.5429 -0.1866
  261MPD2     C 3948   1.543   2.527  12.771 -0.0268  0.4566 -0.0131
  261MPD2    C1 3949   1.677   2.539  12.727  0.0703  0.4900  0.5395
  261MPD2    C2 3950   1.711   2.637  12.647  0.7302  0.2531 -1.0137
  261MPD2    C3 3951   1.625   2.723  12.585  0.7503 -0.4228  0.0088
  261MPD2    C4 3952   1.490   2.710  12.622 -0.4547 -0.6527 -0.5782
  261MPD2    C5 3953   1.451   2.608  12.709 -0.0854  0.9625 -0.0562
  261MPD2     H 3954   1.815   2.643  12.621  1.1318  0.0573  0.5069
  261MPD2    H1 3955   1.409   2.769  12.580 -0.0415 -0.2277 -0.7714
  261MPD2    H2 3956   1.506   2.450  12.837  1.3862 -0.8433 -0.7410
  261MPD2    H3 3957   1.346   2.602  12.737  0.1314  0.3463  0.6250
  261MPD2     N 3958   1.679   2.815  12.493  0.2366  0.4169 -0.7209
  261MPD2    H5 3959   1.780   2.811  12.486  0.2381  0.8932 -0.9242
  261MPD2    N1 3960   1.784   2.460  12.780  0.0806 -1.1457  0.4321
  261MPD2    H7 3961   1.873   2.463  12.731 -0.2388  0.3128 -0.0577
  262TMC3    C1 3962   1.707   2.984  12.336  0.1261 -0.4877 -0.0788
  262TMC3    C2 3963   1.660   3.077  12.250 -0.6193 -0.6632 -0.3550
  262TMC3    C3 3964   1.747   3.119  12.149  0.5054  0.4221  0.4448
  262TMC3    C4 3965   1.832   2.924  12.311 -0.2933  0.1278  0.2419
  262TMC3    C5 3966   1.901   2.962  12.207  0.6181 -0.1445  0.2428
  262TMC3    C6 3967   1.868   3.067  12.124  0.5205  0.0855  0.3745
  262TMC3     C 3968   1.612   2.914  12.422  0.2015 -0.3127 -1.0070
  262TMC3     O 3969   1.489   2.935  12.423  0.0484  0.5355  0.2290
  262TMC3     H 3970   1.583   3.145  12.284 -0.2725 -0.6265  0.3568
  262TMC3    H1 3971   1.860   2.832  12.361  1.2180 -0.3056 -1.3937
  262TMC3    H2 3972   1.934   3.112  12.050  0.3867 -0.8631 -0.3297
  262TMC3    C7 3973   2.021   2.888  12.172  0.0352  0.2909  0.3475
  262TMC3    C8 3974   1.735   3.256  12.107 -0.5278 -0.7838  0.1952
  262TMC3    O1 3975   2.048   2.800  12.254 -0.0007 -0.1938  0.8106
  262TMC3    O2 3976   1.836   3.319  12.089 -0.4707  0.1416  0.1053
  263MPD2     C 3977   2.927   1.906  11.349  0.0523  0.2021 -0.4201
  263MPD2    C1 3978   3.055   1.953  11.335  0.5341  0.3398 -0.3841
  263MPD2    C2 3979   3.078   2.063  11.254  0.1714 -0.0812 -0.5361
  263MPD2    C3 3980   2.976   2.130  11.196 -0.8066  0.1477  0.3564
  263MPD2    C4 3981   2.851   2.077  11.201 -0.4208  0.1409 -0.3635
  263MPD2    C5 3982   2.828   1.964  11.273  0.1546 -0.4158 -0.8779
  263MPD2     H 3983   3.179   2.100  11.241 -0.6669  2.3218 -0.1531
  263MPD2    H1 3984   2.758   2.122  11.168 -2.0646 -2.7619  0.2945
  263MPD2    H2 3985   2.898   1.835  11.426 -2.7928  1.4648 -0.3576
  263MPD2    H3 3986   2.726   1.929  11.285 -0.1269  0.3363 -1.0968
  263MPD2     N 3987   3.010   2.246  11.118  0.0496 -0.4169 -0.3233
  263MPD2    H5 3988   3.108   2.271  11.109  0.3851 -2.0787 -1.1882
  263MPD2    N1 3989   3.150   1.883  11.411 -0.1556 -0.0954  0.3156
  263MPD2    H7 3990   3.116   1.811  11.474  1.6731 -0.3023  1.0663
  264TMC3    C1 3991   2.976   2.445  10.977 -0.6479  0.0323 -0.2884
  264TMC3    C2 3992   2.887   2.549  10.955  0.1502 -1.2248 -0.1703
  264TMC3    C3 3993   2.932   2.657  10.888  0.0808 -0.0335  0.1071
  264TMC3    C4 3994   3.104   2.440  10.927  0.2350 -0.3912  0.0327
  264TMC3    C5 3995   3.138   2.542  10.849  0.1226  0.5901  0.8443
  264TMC3    C6 3996   3.053   2.651  10.828 -0.1883 -0.0093 -0.8755
  264TMC3     C 3997   2.919   2.332  11.058 -0.0170  0.3464  0.6731
  264TMC3     O 3998   2.796   2.326  11.067  0.4151  0.2137  0.1144
  264TMC3     H 3999   2.793   2.549  11.009 -0.0744  0.6299 -0.5853
  264TMC3    H1 4000   3.174   2.358  10.942  0.8799 -0.0473 -1.0686
  264TMC3    H2 4001   3.076   2.727  10.754  2.2509 -2.0067 -2.1598
  264TMC3    C7 4002   3.266   2.537  10.776  0.3290  0.5854 -0.6290
  264TMC3    C8 4003   2.915   2.779  10.969 -0.0390  0.3605 -0.3304
  264TMC3    O1 4004   3.328   2.432  10.766 -0.0471  0.6969 -0.6469
  264TMC3    O2 4005   2.809   2.776  11.030  0.1365 -0.4456 -0.4355
  265MPD2     C 4006   0.071   2.216  15.592  0.0222  0.3850 -0.4021
  265MPD2    C1 4007   0.097   2.336  15.528  0.4073  0.7028  0.8978
  265MPD2    C2 4008   0.166   2.328  15.409 -0.2902  0.0908 -0.4447
  265MPD2    C3 4009   0.202   2.211  15.345 -0.2747 -0.2467  0.1933
  265MPD2    C4 4010   0.172   2.095  15.413 -0.6169  0.2556  0.0473
  265MPD2    C5 4011   0.108   2.096  15.536 -0.3161  0.0853  1.2389
  265MPD2     H 4012   0.191   2.425  15.369  0.9163 -0.2922 -0.6088
  265MPD2    H1 4013   0.188   1.996  15.371  0.1858  0.0610  0.7924
  265MPD2    H2 4014   0.026   2.211  15.691  0.1107  0.9805 -0.3337
  265MPD2    H3 4015   0.093   1.995  15.573  2.0840 -0.7175  0.0044
  265MPD2     N 4016   0.282   2.209  15.229  0.0395  0.5673 -0.0401
  265MPD2    H5 4017   0.322   2.121  15.198 -0.7695 -0.0705  0.7232
  265MPD2    N1 4018   0.061   2.466  15.583 -0.1994  0.4553  0.2820
  265MPD2    H7 4019   0.068   2.547  15.522 -1.0526  0.6723  0.4677
  266TMC3    C1 4020   0.015   2.628  15.753  0.4149 -0.0453 -0.0178
  266TMC3    C2 4021   0.094   2.672  15.854 -0.7302 -0.2387 -0.4261
  266TMC3    C3 4022   0.083   2.805  15.885 -0.3503  0.1047  0.7711
  266TMC3    C4 4023   4.652   2.708  15.680  0.2817  0.3992  0.1669
  266TMC3    C5 4024   4.645   2.842  15.720 -0.0722 -0.7978  0.1790
  266TMC3    C6 4025   0.002   2.894  15.819 -0.6830  0.3831  0.8911
  266TMC3     C 4026   0.029   2.487  15.721 -0.2368 -1.2073  0.5969
  266TMC3     O 4027   0.031   2.406  15.813 -0.2752 -0.6703  0.1580
  266TMC3     H 4028   0.152   2.594  15.902 -0.1025 -0.4174 -1.4977
  266TMC3    H1 4029   4.588   2.656  15.609  0.3575 -0.9189  1.0524
  266TMC3    H2 4030   4.687   2.976  15.879  0.1770  1.6670 -0.3171
  266TMC3    C7 4031   4.519   2.916  15.722 -0.1696  0.9113  0.2407
  266TMC3    C8 4032   0.194   2.859  15.960 -0.2095 -0.0146  0.2812
  266TMC3    O1 4033   4.521   3.036  15.753  0.2048 -0.1409  0.1079
  266TMC3    O2 4034   0.283   2.776  15.988 -0.5081  0.7865  0.3296
  267MPD2     C 4035   2.100   0.130   0.516  0.2377  0.1105 -0.1338
  267MPD2    C1 4036   2.208   0.113   0.425 -0.1283 -0.9113  0.4136
  267MPD2    C2 4037   2.185   0.161   0.298 -0.1712  0.4130  0.2927
  267MPD2    C3 4038   2.071   0.224   0.258 -0.1124 -0.0962  0.3773
  267MPD2    C4 4039   1.965   0.230   0.350  0.3800 -0.0989 -0.0765
  267MPD2    C5 4040   1.977   0.182   0.474  0.3530 -0.6920  0.0454
  267MPD2     H 4041   2.266   0.154   0.227 -1.6745  0.0610 -1.3955
  267MPD2    H1 4042   1.867   0.272   0.329 -1.0513 -2.9635  0.8382
  267MPD2    H2 4043   2.107   0.091   0.617 -0.9520  0.0864 -0.0610
  267MPD2    H3 4044   1.892   0.192   0.541 -0.0216  1.2200 -0.7014
  267MPD2     N 4045   2.058   0.273   0.128 -0.5586  0.0631 -0.1106
  267MPD2    H5 4046   2.131   0.246   0.062 -0.7764  1.7959 -1.0432
  267MPD2    N1 4047   2.313   0.024   0.456 -0.1056  0.2730 -0.3421
  267MPD2    H7 4048   2.313   4.706   0.550  1.3647  0.1814 -0.3800
  268TMC3    C1 4049   2.525   4.639   0.426  0.4002 -0.3133  0.8500
  268TMC3    C2 4050   2.644   4.667   0.366  0.0338  0.4205  0.6312
  268TMC3    C3 4051   2.730   4.565   0.348  0.5691  0.2642  1.0245
  268TMC3    C4 4052   2.495   4.518   0.486  0.2543 -0.3130  0.0940
  268TMC3    C5 4053   2.598   4.426   0.476  0.6131  0.3649 -0.0244
  268TMC3    C6 4054   2.716   4.441   0.409  0.5398 -1.2419 -0.0888
  268TMC3     C 4055   2.418   4.715   0.365  0.2380 -0.6372 -0.2223
  268TMC3     O 4056   2.455   0.049   0.266 -0.3475  0.2363 -0.2573
  268TMC3     H 4057   2.662   0.048   0.339  2.7085 -0.2499 -0.1397
  268TMC3    H1 4058   2.394   4.485   0.507  0.1572  0.1867  0.4003
  268TMC3    H2 4059   2.789   4.360   0.411 -0.0576 -1.7712  0.3393
  268TMC3    C7 4060   2.574   4.289   0.526 -0.3066  0.3190 -0.3397
  268TMC3    C8 4061   2.817   4.581   0.234  0.3416 -0.2146  0.3090
  268TMC3    O1 4062   2.509   4.278   0.630  0.0584  0.6970  0.3921
  268TMC3    O2 4063   2.923   4.521   0.240  0.3524 -0.0966 -0.2635
  269MPD2     C 4064   2.595   2.924  15.721  0.9678  0.0735  1.1787
  269MPD2    C1 4065   2.472   2.955  15.663  0.1917 -0.4907 -0.9165
  269MPD2    C2 4066   2.450   3.077  15.606 -0.5265 -0.6152  0.2283
  269MPD2    C3 4067   2.554   3.172  15.607  0.1696 -0.0023  0.1590
  269MPD2    C4 4068   2.676   3.140  15.668 -0.2762 -0.2650  0.0926
  269MPD2    C5 4069   2.692   3.017  15.724  0.3256  0.1739  0.3189
  269MPD2     H 4070   2.352   3.102  15.567 -1.1188  1.2402  2.8903
  269MPD2    H1 4071   2.760   3.209  15.675  0.3426 -0.8840 -1.2515
  269MPD2    H2 4072   2.624   2.824  15.750 -0.2629 -0.0886  1.8322
  269MPD2    H3 4073   2.790   2.988  15.760  0.4533 -0.4975 -0.5867
  269MPD2     N 4074   2.536   3.297  15.551 -0.7964  0.1663 -0.1844
  269MPD2    H5 4075   2.441   3.326  15.531 -0.5276  0.8176 -0.5273
  269MPD2    N1 4076   2.383   2.841  15.664  0.7790 -0.1820  0.1053
  269MPD2    H7 4077   2.415   2.759  15.715  0.2536 -1.3216 -1.3876
  270TMC3    C1 4078   2.211   2.694  15.610  0.1487 -0.2048 -1.4021
  270TMC3    C2 4079   2.107   2.664  15.524 -0.0098  0.1119  0.3602
  270TMC3    C3 4080   2.080   2.536  15.499  0.4088  0.0416 -1.2209
  270TMC3    C4 4081   2.281   2.594  15.675  0.4298  0.2083  0.3345
  270TMC3    C5 4082   2.259   2.469  15.629 -0.4368 -0.3963  0.1652
  270TMC3    C6 4083   2.159   2.433  15.539  0.1906 -0.1071  0.7034
  270TMC3     C 4084   2.266   2.825  15.594 -0.2244 -0.1388  0.8041
  270TMC3     O 4085   2.202   2.897  15.517 -0.3892 -0.1254 -0.6875
  270TMC3     H 4086   2.041   2.742  15.489  0.8464  0.2164 -1.0188
  270TMC3    H1 4087   2.355   2.619  15.750  0.7480  1.5632 -0.4323
  270TMC3    H2 4088   2.149   2.334  15.496 -0.0117 -0.4765  1.6051
  270TMC3    C7 4089   2.353   2.370  15.682  0.7938  0.2640  0.2493
  270TMC3    C8 4090   2.010   2.517  15.374  0.2547  0.1810  0.5244
  270TMC3    O1 4091   2.467   2.407  15.708 -0.3426 -0.8319  0.5176
  270TMC3    O2 4092   1.909   2.576  15.351  0.0461  0.1272 -0.5686
  271MPD2     C 4093   2.098   2.841  13.581  0.1284 -0.4175 -0.2133
  271MPD2    C1 4094   2.003   2.842  13.678  0.0250 -0.0389  0.2036
  271MPD2    C2 4095   1.881   2.908  13.653  0.0058  0.3349 -0.7912
  271MPD2    C3 4096   1.864   2.981  13.533  0.6661 -0.0306  0.1606
  271MPD2    C4 4097   1.967   2.988  13.445 -0.6495  0.8108 -0.8121
  271MPD2    C5 4098   2.074   2.912  13.467 -0.6445  0.1331  0.0457
  271MPD2     H 4099   1.795   2.903  13.718 -0.3851 -1.6527 -1.4733
  271MPD2    H1 4100   1.966   3.026  13.343 -1.0242  0.4843 -0.9342
  271MPD2    H2 4101   2.187   2.781  13.593  1.6621  1.6810 -1.1464
  271MPD2    H3 4102   2.152   2.915  13.392 -2.5611  1.1728 -1.9022
  271MPD2     N 4103   1.748   3.053  13.496  1.0047 -0.0312  0.0629
  271MPD2    H5 4104   1.755   3.105  13.409  0.3772 -0.0366  0.0092
  271MPD2    N1 4105   2.019   2.776  13.805  0.0784  0.3439 -0.6050
  271MPD2    H7 4106   1.936   2.766  13.863  0.3594  1.2344 -0.0511
  272TMC3    C1 4107   2.122   2.644  13.966 -0.1505 -0.0488  0.5614
  272TMC3    C2 4108   2.218   2.554  13.986 -0.7189 -0.2168  0.1126
  272TMC3    C3 4109   2.230   2.498  14.112 -0.1535 -0.1759 -0.4636
  272TMC3    C4 4110   2.021   2.671  14.050 -0.2038 -0.0418  0.0991
  272TMC3    C5 4111   2.042   2.611  14.173 -0.2058 -0.0618 -0.8043
  272TMC3    C6 4112   2.143   2.518  14.213 -0.1077 -0.3100  0.3425
  272TMC3     C 4113   2.143   2.729  13.851  0.5691 -0.0534 -0.1562
  272TMC3     O 4114   2.255   2.754  13.809  0.8138  0.0301 -1.1085
  272TMC3     H 4115   2.297   2.557  13.911 -1.4377  5.5972 -0.4514
  272TMC3    H1 4116   1.962   2.761  14.048 -1.0707 -0.6110  0.0754
  272TMC3    H2 4117   2.142   2.467  14.308 -0.7385  1.2193  1.1601
  272TMC3    C7 4118   1.977   2.666  14.295 -0.1111  0.1562  0.2535
  272TMC3    C8 4119   2.336   2.403  14.114 -0.3187  0.1541  0.0420
  272TMC3    O1 4120   1.859   2.688  14.290 -0.2008 -0.1080  0.0734
  272TMC3    O2 4121   2.353   2.347  14.007  0.3659 -0.0621  0.2649
  273MPD2     C 4122   3.484   0.476  11.654  0.2230 -0.3961  0.2171
  273MPD2    C1 4123   3.568   0.580  11.680 -0.5554  0.3087 -0.9062
  273MPD2    C2 4124   3.638   0.645  11.575 -1.0282  0.2438 -0.1695
  273MPD2    C3 4125   3.628   0.602  11.439 -0.4187 -0.3712 -1.2846
  273MPD2    C4 4126   3.545   0.494  11.421 -0.3676 -0.1673  0.9815
  273MPD2    C5 4127   3.470   0.443  11.520  0.6135 -0.5880 -0.7350
  273MPD2     H 4128   3.706   0.727  11.595 -2.1572  1.6601 -2.1693
  273MPD2    H1 4129   3.528   0.454  11.322  2.7532  2.6385 -0.7004
  273MPD2    H2 4130   3.408   0.424  11.712 -0.5149  2.4166  1.8037
  273MPD2    H3 4131   3.413   0.353  11.501 -0.7140  0.0391  0.2288
  273MPD2     N 4132   3.690   0.667  11.328  0.0760  0.4843 -0.1839
  273MPD2    H5 4133   3.666   0.636  11.235  1.5445 -2.2501  0.3751
  273MPD2    N1 4134   3.573   0.611  11.817 -0.1816 -0.5989  0.4381
  273MPD2    H7 4135   3.510   0.570  11.885 -1.2247  1.7266  0.8957
  274TMC3    C1 4136   3.820   0.855  11.226 -0.3894  0.3784  0.1642
  274TMC3    C2 4137   3.730   0.848  11.123 -0.1046 -0.3595  0.5753
  274TMC3    C3 4138   3.738   0.954  11.038  0.0191  0.4369 -0.4390
  274TMC3    C4 4139   3.911   0.959  11.247  0.2336 -0.3030  0.1237
  274TMC3    C5 4140   3.889   1.069  11.169 -0.1220  0.5919 -0.0463
  274TMC3    C6 4141   3.815   1.065  11.054 -1.2584  0.2926  0.5154
  274TMC3     C 4142   3.792   0.764  11.341  0.6074 -0.8723  0.7076
  274TMC3     O 4143   3.867   0.784  11.436 -0.2990 -0.3851  0.2153
  274TMC3     H 4144   3.658   0.767  11.113 -0.1255 -0.2003 -0.5306
  274TMC3    H1 4145   3.980   0.961  11.330 -0.3510  0.1727  0.5935
  274TMC3    H2 4146   3.783   1.160  11.014  0.8811  0.6867 -0.2738
  274TMC3    C7 4147   3.898   1.196  11.242  0.2648 -1.0052  0.1432
  274TMC3    C8 4148   3.642   0.955  10.933  0.1748 -0.4933  0.9825
  274TMC3    O1 4149   3.859   1.300  11.184  0.1093 -0.1901 -0.1150
  274TMC3    O2 4150   3.554   0.867  10.949 -0.5049 -0.2649  0.2850
  275MPD2     C 4151   3.346   3.697  14.210  0.5568  0.0507  1.3150
  275MPD2    C1 4152   3.308   3.626  14.319 -1.1121  0.1817 -0.1874
  275MPD2    C2 4153   3.174   3.607  14.334  0.1865  0.3967 -0.1613
  275MPD2    C3 4154   3.082   3.675  14.247  0.1613 -0.6789  0.8461
  275MPD2    C4 4155   3.125   3.751  14.144 -0.0294  0.3128  0.8937
  275MPD2    C5 4156   3.255   3.761  14.128  0.3538  0.2643 -0.2136
  275MPD2     H 4157   3.136   3.551  14.419 -1.4981 -0.2798 -1.3614
  275MPD2    H1 4158   3.050   3.793  14.078  0.1512  0.0405  0.5161
  275MPD2    H2 4159   3.452   3.704  14.187  0.6501 -1.7577  1.1780
  275MPD2    H3 4160   3.297   3.819  14.047 -0.7348 -0.6390 -1.4322
  275MPD2     N 4161   2.943   3.675  14.270  0.4145  0.1994 -0.0418
  275MPD2    H5 4162   2.886   3.724  14.202  1.1070  1.2065  0.1002
  275MPD2    N1 4163   3.392   3.563  14.417 -0.3407  0.2404 -0.5265
  275MPD2    H7 4164   3.339   3.502  14.478 -2.3319  1.8863 -0.6025
  276TMC3    C1 4165   3.582   3.540  14.561  0.2901 -0.2018 -0.1621
  276TMC3    C2 4166   3.507   3.439  14.615 -0.0312 -0.2843 -0.2358
  276TMC3    C3 4167   3.555   3.392  14.740 -0.3298 -0.4547  0.5271
  276TMC3    C4 4168   3.689   3.601  14.623  0.1613 -0.0780 -0.1558
  276TMC3    C5 4169   3.727   3.555  14.745 -0.7658  0.1481  0.2034
  276TMC3    C6 4170   3.663   3.456  14.804  0.6223  0.0293 -0.0654
  276TMC3     C 4171   3.519   3.608  14.449 -0.6944  0.2803  0.3223
  276TMC3     O 4172   3.577   3.701  14.402 -0.1255  0.3233  0.1800
  276TMC3     H 4173   3.434   3.382  14.559 -1.2337  1.5907 -0.5984
  276TMC3    H1 4174   3.731   3.688  14.573  0.8741  0.7294  1.8489
  276TMC3    H2 4175   3.705   3.411  14.893 -1.4514 -0.4050  0.6919
  276TMC3    C7 4176   3.825   3.626  14.822 -0.2863 -0.5293 -0.2810
  276TMC3    C8 4177   3.500   3.274  14.795  0.0900  0.8061  0.5668
  276TMC3    O1 4178   3.846   3.591  14.934 -0.0148  0.5692  0.2009
  276TMC3    O2 4179   3.574   3.214  14.871 -0.1744  0.0975 -0.4097
  277MPD2     C 4180   4.709   2.036  13.058 -0.7977  0.1771  0.1952
  277MPD2    C1 4181   0.006   2.124  13.155  0.8784  0.0974  0.3753
  277MPD2    C2 4182   0.004   2.082  13.288 -0.1965 -0.7419  0.2305
  277MPD2    C3 4183   0.004   1.955  13.329  0.6075 -0.4046  0.1910
  277MPD2    C4 4184   4.716   1.858  13.230  0.4477 -0.2044 -0.0371
  277MPD2    C5 4185   4.714   1.902  13.097 -0.0433  0.6310 -0.7831
  277MPD2     H 4186   0.022   2.158  13.363  0.9590  0.8988 -1.6863
  277MPD2    H1 4187   0.006   1.753  13.254  2.9404  0.1535  0.1538
  277MPD2    H2 4188   4.710   2.063  12.953  0.1916  1.0335  0.4222
  277MPD2    H3 4189   4.717   1.828  13.018  1.7021  0.6285 -0.7180
  277MPD2     N 4190   0.017   1.918  13.465 -0.0309  0.7388 -0.3172
  277MPD2    H5 4191   0.016   1.996  13.530  2.0565  0.0217  0.5609
  277MPD2    N1 4192   0.038   2.255  13.113 -0.3073  0.1732  0.0338
  277MPD2    H7 4193   0.041   2.287  13.017 -1.0922  0.3640  0.0797
  278TMC3    C1 4194   0.037   1.786  13.659  0.6228  0.4544  0.6732
  278TMC3    C2 4195   4.712   1.678  13.728 -0.1215  0.7198 -0.6532
  278TMC3    C3 4196   4.694   1.682  13.864 -0.2291  0.6314  0.3370
  278TMC3    C4 4197   0.065   1.904  13.736  0.1018 -0.1097 -0.0801
  278TMC3    C5 4198   0.039   1.894  13.872  1.2121 -0.3997 -0.1067
  278TMC3    C6 4199   0.004   1.789  13.946  0.1880 -0.2530 -0.4413
  278TMC3     C 4200   0.019   1.788  13.514  0.7521  0.3293  0.3662
  278TMC3     O 4201   4.722   1.677  13.462 -0.1118  0.0432 -0.1180
  278TMC3     H 4202   4.684   1.584  13.682  0.1560 -0.0172  0.7001
  278TMC3    H1 4203   0.111   1.996  13.701 -1.2014  0.8761  0.7744
  278TMC3    H2 4204   4.711   1.793  14.053 -1.0660  0.6917 -0.6658
  278TMC3    C7 4205   0.034   2.028  13.932  0.3184 -0.1615  0.1096
  278TMC3    C8 4206   4.604   1.582  13.924  0.2750 -0.3756  0.0157
  278TMC3    O1 4207   0.079   2.124  13.869 -0.3205 -0.0318 -0.6871
  278TMC3    O2 4208   4.655   1.512  14.009  0.1675  0.3122  0.0134
  279MPD2     C 4209   4.647   2.781   0.117  0.5344 -0.0646 -0.1838
  279MPD2    C1 4210   4.610   2.894   0.042 -0.3666 -0.0037 -0.4291
  279MPD2    C2 4211   4.545   2.877  17.614  0.4519 -0.1738 -0.1433
  279MPD2    C3 4212   4.510   2.746  17.583 -0.6321 -0.0819 -0.4600
  279MPD2    C4 4213   4.525   2.646  17.677 -0.9759  0.1552 -0.3063
  279MPD2    C5 4214   4.614   2.657   0.084 -0.2857  0.3739  0.0578
  279MPD2     H 4215   4.508   2.964  17.561 -0.8691 -1.0406 -0.6487
  279MPD2    H1 4216   4.484   2.548  17.657 -1.4678 -0.0319  1.6080
  279MPD2    H2 4217   4.700   2.800   0.210  0.6546 -1.3401  0.0011
  279MPD2    H3 4218   4.654   2.578   0.147  1.8306  1.1730 -0.2721
  279MPD2     N 4219   4.442   2.705  17.468 -0.4055 -0.3821  0.0214
  279MPD2    H5 4220   4.391   2.617  17.471  0.9206 -1.1798 -1.2961
  279MPD2    N1 4221   4.628   3.011   0.100 -0.0425  0.2079 -0.4427
  279MPD2    H7 4222   4.639   3.013   0.200 -0.8826 -1.7469 -0.3111
  280TMC3    C1 4223   4.518   3.214   0.118  1.0715  0.3614 -0.1033
  280TMC3    C2 4224   4.443   3.131   0.194 -0.7489  0.1907  0.2193
  280TMC3    C3 4225   4.305   3.132   0.176  0.0107  0.2674 -0.7999
  280TMC3    C4 4226   4.453   3.304   0.038  0.2901 -0.2351 -0.1587
  280TMC3    C5 4227   4.318   3.315   0.030  0.3582  0.1893 -0.5665
  280TMC3    C6 4228   4.245   3.217   0.092 -0.5746  0.5442 -0.1280
  280TMC3     C 4229   4.617   3.135   0.043  0.4430  0.4961  0.4605
  280TMC3     O 4230   4.637   3.164  17.618  0.3698 -0.2365 -0.3424
  280TMC3     H 4231   4.488   3.077   0.277  0.1304  1.1528  0.3732
  280TMC3    H1 4232   4.513   3.372  17.672  1.5940  1.6970  3.4260
  280TMC3    H2 4233   4.136   3.217   0.096 -0.4980  0.0349  1.9337
  280TMC3    C7 4234   4.256   3.425  17.643  0.1463  0.2495 -0.6673
  280TMC3    C8 4235   4.238   3.003   0.162  0.0372 -0.3080 -0.1831
  280TMC3    O1 4236   4.313   3.512  17.578  0.3863  0.2095  0.6441
  280TMC3    O2 4237   4.144   3.003   0.076 -0.3917  0.7647 -0.0141
  281TMC3    C1 4238   3.261   2.826  13.245 -0.7136  0.2236 -0.3179
  281TMC3    C2 4239   3.324   2.928  13.180  0.4171  0.0022 -0.3138
  281TMC3    C3 4240   3.376   2.901  13.059 -0.1776 -0.1592 -0.0298
  281TMC3    C4 4241   3.239   2.700  13.191 -0.1259 -0.5946 -0.3354
  281TMC3    C5 4242   3.288   2.679  13.065 -0.4019  0.2597 -0.1451
  281TMC3    C6 4243   3.360   2.777  13.001  0.3789 -0.0826 -0.1482
  281TMC3     C 4244   3.164   2.863  13.351  0.1319 -0.8661  0.3817
  281TMC3     O 4245   3.129   2.768  13.428 -0.7151 -0.0242  0.6314
  281TMC3     H 4246   3.341   3.020  13.234 -0.3870  0.6634 -1.1991
  281TMC3    H1 4247   3.173   2.628  13.238 -0.0010  1.4258  2.9500
  281TMC3    H2 4248   3.398   2.743  12.905 -0.2960  2.1024 -1.1793
  281TMC3    C7 4249   3.267   2.553  12.997  0.4228  0.0868  0.4254
  281TMC3    C8 4250   3.468   2.994  12.997  0.1357 -0.1220 -0.4165
  281TMC3    O1 4251   3.251   2.556  12.876 -1.0750 -0.5381  0.8178
  281TMC3    O2 4252   3.564   2.932  12.950  0.0043  0.0176 -0.1594
  282MPD2     C 4253   0.257   4.598  15.204 -0.5996 -0.1759 -0.3245
  282MPD2    C1 4254   0.122   4.569  15.215 -0.8693 -0.4397 -0.3131
  282MPD2    C2 4255   0.044   4.552  15.099 -0.2032  0.2599  0.6903
  282MPD2    C3 4256   0.108   4.549  14.976  0.4031  0.3287 -0.4439
  282MPD2    C4 4257   0.242   4.559  14.973 -0.4383  0.1477  1.0353
  282MPD2    C5 4258   0.318   4.573  15.088 -0.3884  0.1282  0.7567
  282MPD2     H 4259   4.662   4.528  15.105 -0.3642  1.1188  1.3613
  282MPD2    H1 4260   0.294   4.560  14.877  1.4264  1.3088  2.0586
  282MPD2    H2 4261   0.326   4.617  15.285 -0.2918  0.6434 -0.7788
  282MPD2    H3 4262   0.424   4.578  15.070 -0.4508  1.1893  0.7017
  282MPD2     N 4263   0.025   4.554  14.861 -0.3663  0.2481 -0.0683
  282MPD2    H5 4264   4.647   4.567  14.866 -0.3413 -0.3308  2.0009
  282MPD2    N1 4265   0.059   4.567  15.338  0.0051 -0.0642 -0.0298
  282MPD2    H7 4266   4.683   4.543  15.347  0.2186 -0.7617  0.5259
  283TMC3    C1 4267   0.007   4.638  15.554  0.0248 -0.7763  0.7409
  283TMC3    C2 4268   4.695   0.043  15.596  0.1286 -0.7442  0.2741
  283TMC3    C3 4269   4.577   0.071  15.660  0.0388  0.1587 -0.2866
  283TMC3    C4 4270   4.642   4.538  15.582 -0.6052 -0.8744 -0.0405
  283TMC3    C5 4271   4.522   4.562  15.646  0.3608 -0.2696 -0.1550
  283TMC3    C6 4272   4.490   4.692  15.689  0.2149 -0.4283 -1.1159
  283TMC3     C 4273   0.103   4.638  15.449 -0.6710  0.2564  0.0332
  283TMC3     O 4274   0.201   4.712  15.464 -0.3555  0.5603  0.6454
  283TMC3     H 4275   0.034   0.123  15.559  2.7058 -1.8070  2.1876
  283TMC3    H1 4276   4.673   4.442  15.543  1.2315  0.6432 -2.3299
  283TMC3    H2 4277   4.389   4.722  15.712  1.8947  2.8560  2.0390
  283TMC3    C7 4278   4.429   4.456  15.681 -0.4338  0.0711  0.2529
  283TMC3    C8 4279   4.549   0.212  15.705  0.0580 -0.1934 -0.6672
  283TMC3    O1 4280   4.334   4.494  15.748 -0.7593  0.1272  0.4414
  283TMC3    O2 4281   4.495   0.241  15.816 -0.3327  0.1149 -0.3624
  284MPD2     C 4282   3.388   3.411  12.252 -0.3105  0.0457 -0.2370
  284MPD2    C1 4283   3.425   3.408  12.117  0.1121 -0.2595  0.6118
  284MPD2    C2 4284   3.357   3.328  12.029 -0.0575  1.0424 -0.4020
  284MPD2    C3 4285   3.251   3.254  12.077  0.8906  0.1726  0.7687
  284MPD2    C4 4286   3.213   3.254  12.205 -0.5833 -0.7305 -0.9395
  284MPD2    C5 4287   3.274   3.336  12.288  0.1700  0.8023 -0.4528
  284MPD2     H 4288   3.380   3.324  11.923  1.5116 -1.2021  0.0304
  284MPD2    H1 4289   3.136   3.180  12.222 -0.4101 -1.3874 -2.9635
  284MPD2    H2 4290   3.449   3.465  12.323  0.3827 -1.4644  0.3050
  284MPD2    H3 4291   3.242   3.324  12.391 -0.9984 -0.2666 -0.9499
  284MPD2     N 4292   3.183   3.160  11.996 -0.2779  0.1253 -0.3944
  284MPD2    H5 4293   3.099   3.121  12.038 -2.3214  2.9496 -1.8124
  284MPD2    N1 4294   3.536   3.476  12.069  0.5495  0.1742 -0.1025
  284MPD2    H7 4295   3.549   3.465  11.969 -0.2711  0.5740 -0.2458
  285TMC3    C1 4296   3.732   3.603  12.058 -0.7241  0.5861 -0.4106
  285TMC3    C2 4297   3.774   3.510  11.964 -0.3549 -0.3675 -0.5242
  285TMC3    C3 4298   3.893   3.540  11.910 -0.0026  0.0457 -0.5432
  285TMC3    C4 4299   3.792   3.725  12.077  0.1030  0.2219  0.0836
  285TMC3    C5 4300   3.924   3.736  12.033 -0.9816 -0.2551  0.7447
  285TMC3    C6 4301   3.974   3.648  11.947 -0.6927  0.3814  0.2740
  285TMC3     C 4302   3.620   3.557  12.142  0.5583  0.3228  0.6738
  285TMC3     O 4303   3.597   3.609  12.249 -0.3378 -0.0744 -0.0251
  285TMC3     H 4304   3.742   3.407  11.970  2.9371 -1.5731 -4.1586
  285TMC3    H1 4305   3.756   3.800  12.147  1.0514  0.8675 -0.1033
  285TMC3    H2 4306   4.070   3.663  11.899 -0.9477  0.5934 -0.1664
  285TMC3    C7 4307   3.980   3.870  12.058  0.0874  0.2098 -0.0583
  285TMC3    C8 4308   3.920   3.467  11.788  0.6136  0.9066  0.0641
  285TMC3    O1 4309   3.907   3.971  12.072 -0.2328  0.3801  0.1603
  285TMC3    O2 4310   3.838   3.376  11.757  0.2672  0.4196 -0.5060
  286MPD2     C 4311   3.707   2.423   1.594  0.3797  1.2788  0.4962
  286MPD2    C1 4312   3.659   2.444   1.467  0.0038  0.4056 -0.3053
  286MPD2    C2 4313   3.731   2.402   1.361 -0.5430 -0.1171  0.4737
  286MPD2    C3 4314   3.866   2.369   1.378  0.2801 -0.1525  0.2168
  286MPD2    C4 4315   3.920   2.358   1.507 -0.2420 -0.2275 -0.2391
  286MPD2    C5 4316   3.837   2.380   1.615  0.3971 -0.8100  0.3012
  286MPD2     H 4317   3.682   2.417   1.266  0.2028 -2.3490 -0.2516
  286MPD2    H1 4318   4.025   2.339   1.524 -0.3801 -1.4714 -0.7328
  286MPD2    H2 4319   3.662   2.470   1.680 -1.1625  0.8026 -0.0493
  286MPD2    H3 4320   3.882   2.382   1.714  1.9065  0.3887 -0.4113
  286MPD2     N 4321   3.962   2.336   1.276  0.2407  0.1913 -0.2912
  286MPD2    H5 4322   4.056   2.302   1.295 -0.5467 -1.4646  0.6177
  286MPD2    N1 4323   3.537   2.515   1.440 -0.0597  0.0679 -0.0059
  286MPD2    H7 4324   3.526   2.539   1.342 -2.1235 -0.1089  0.1705
  287TMC3    C1 4325   4.056   2.282   1.066 -0.7214 -0.2396  0.6965
  287TMC3    C2 4326   4.033   2.221   0.945  0.3289  0.0461 -0.1034
  287TMC3    C3 4327   4.143   2.184   0.877 -0.2199 -0.2704  0.7197
  287TMC3    C4 4328   4.181   2.313   1.105 -0.0971 -0.1374 -0.0244
  287TMC3    C5 4329   4.291   2.264   1.035 -0.3678  0.2120  0.2384
  287TMC3    C6 4330   4.274   2.195   0.915 -0.2823  0.7084 -0.0997
  287TMC3     C 4331   3.941   2.336   1.139  0.2788  0.1616  0.2585
  287TMC3     O 4332   3.837   2.349   1.072 -0.2840 -0.1001  0.3102
  287TMC3     H 4333   3.934   2.193   0.913 -0.5011  0.8577  1.7427
  287TMC3    H1 4334   4.187   2.379   1.190  1.8610 -0.7700  0.3273
  287TMC3    H2 4335   4.351   2.148   0.856  1.0338  1.5867  0.9271
  287TMC3    C7 4336   4.417   2.326   1.067  0.7820  0.9538 -0.2430
  287TMC3    C8 4337   4.120   2.081   0.777  0.3338  0.5224  0.7304
  287TMC3    O1 4338   4.416   2.416   1.149  0.0149  0.3725 -0.3482
  287TMC3    O2 4339   4.200   1.990   0.768 -0.4782  0.1916  0.0944
  288TMC3    C1 4340   0.222   2.104  14.260  0.9338 -0.2505 -0.0811
  288TMC3    C2 4341   0.222   2.161  14.383 -0.0345  0.4978  0.4964
  288TMC3    C3 4342   0.321   2.262  14.408 -0.4956  0.6643 -0.0161
  288TMC3    C4 4343   0.315   2.139  14.163 -0.6236 -0.1382 -0.2210
  288TMC3    C5 4344   0.417   2.222  14.196  1.0467  0.0621  0.5588
  288TMC3    C6 4345   0.417   2.287  14.317  0.5071  0.1714 -0.3396
  288TMC3     C 4346   0.165   1.969  14.252 -0.3437  0.0607 -0.5257
  288TMC3     O 4347   0.215   1.893  14.173  0.1838 -0.8177 -0.9354
  288TMC3     H 4348   0.171   2.119  14.469  2.8754 -0.5464  1.7285
  288TMC3    H1 4349   0.315   2.092  14.065 -3.3481  0.7551 -0.6501
  288TMC3    H2 4350   0.497   2.355  14.344  0.3780 -0.1736  0.9080
  288TMC3    C7 4351   0.539   2.231  14.113  0.6976  0.2052 -0.3715
  288TMC3    C8 4352   0.332   2.322  14.537 -0.1101  0.2567  0.2253
  288TMC3    O1 4353   0.644   2.241  14.176 -0.0360  0.8587  0.2891
  288TMC3    O2 4354   0.433   2.389  14.557 -0.5185  0.0707 -0.4555
  289MPD2     C 4355   0.442   1.368  14.359 -0.5432  0.1330  0.4526
  289MPD2    C1 4356   0.424   1.501  14.400  0.7468 -1.0338 -0.2595
  289MPD2    C2 4357   0.329   1.533  14.489  0.9967 -0.3525  0.5029
  289MPD2    C3 4358   0.254   1.421  14.539 -0.2958  0.2868  0.4360
  289MPD2    C4 4359   0.276   1.291  14.503  0.5080 -0.5546  0.2219
  289MPD2    C5 4360   0.365   1.263  14.405  0.7164 -0.1271 -0.4037
  289MPD2     H 4361   0.313   1.635  14.524  0.3364 -0.4364  0.4392
  289MPD2    H1 4362   0.207   1.216  14.539 -1.8482  0.4902 -2.1491
  289MPD2    H2 4363   0.525   1.338  14.296 -1.8195 -3.7752  0.6409
  289MPD2    H3 4364   0.372   1.163  14.364  3.0098 -0.2166  0.2237
  289MPD2     N 4365   0.142   1.444  14.625  0.2678 -0.6912 -0.4534
  289MPD2    H5 4366   0.100   1.361  14.666 -0.0274  0.2117  1.0749
  289MPD2    N1 4367   0.519   1.593  14.341 -0.1601  0.3050 -0.2492
  289MPD2    H7 4368   0.587   1.553  14.278  0.5042  0.1941  0.5377
  290TMC3    C1 4369   4.695   1.563  14.731  0.5560 -0.1620  0.5099
  290TMC3    C2 4370   4.643   1.674  14.804  0.7627  0.2299 -0.9343
  290TMC3    C3 4371   4.513   1.663  14.843  0.8049 -0.0569 -0.0297
  290TMC3    C4 4372   4.615   1.458  14.700 -0.1961 -0.1883 -0.3709
  290TMC3    C5 4373   4.485   1.461  14.742 -0.3736  0.8590 -0.0643
  290TMC3    C6 4374   4.433   1.554  14.834 -0.0731  0.5750 -0.4082
  290TMC3     C 4375   0.105   1.572  14.674 -0.4248 -0.6225  1.0844
  290TMC3     O 4376   0.164   1.675  14.684 -0.2648 -0.1237 -0.4314
  290TMC3     H 4377   4.712   1.754  14.830  2.3382 -1.1019 -1.0901
  290TMC3    H1 4378   4.637   1.409  14.605  0.2975  0.9666 -0.8586
  290TMC3    H2 4379   4.326   1.560  14.854 -0.5268 -0.2783 -2.5666
  290TMC3    C7 4380   4.387   1.364  14.692  0.5416  0.0600  0.6927
  290TMC3    C8 4381   4.436   1.787  14.854  0.1595 -0.8459  1.0554
  290TMC3    O1 4382   4.269   1.394  14.681 -0.2472 -0.1926  0.0570
  290TMC3    O2 4383   4.349   1.789  14.939 -0.1089  0.0445 -0.9058
  291MPD2     C 4384   4.422   0.391   0.116  0.3037 -0.1126  0.0008
  291MPD2    C1 4385   4.362   0.479   0.030 -0.3387  0.0768  0.8484
  291MPD2    C2 4386   4.435   0.538  17.619  0.0761 -0.3123 -0.8073
  291MPD2    C3 4387   4.573   0.524  17.607 -0.2048  0.3926 -0.6071
  291MPD2    C4 4388   4.631   0.436  17.693  0.3842  0.0783 -0.1246
  291MPD2    C5 4389   4.560   0.375   0.100 -0.3589 -0.2355  0.0618
  291MPD2     H 4390   4.374   0.596  17.551  0.8616 -0.8952 -2.0244
  291MPD2    H1 4391   0.015   0.418  17.690  0.4732  0.3305  2.1715
  291MPD2    H2 4392   4.378   0.339   0.200 -0.9458  2.2659  0.7989
  291MPD2    H3 4393   4.609   0.308   0.169 -0.0874 -0.5545 -0.4472
  291MPD2     N 4394   4.658   0.589  17.514  0.1399  0.0633 -0.2436
  291MPD2    H5 4395   0.036   0.576  17.524  0.0908  1.2095  1.6472
  291MPD2    N1 4396   4.223   0.503   0.048  0.3530  0.0018 -0.5908
  291MPD2    H7 4397   4.186   0.545  17.657 -0.5447 -2.9554 -1.6786
  292TMC3    C1 4398   4.018   0.528   0.142  0.1232 -0.3321  0.0978
  292TMC3    C2 4399   3.950   0.559   0.259  0.3431  0.1912  0.0488
  292TMC3    C3 4400   3.814   0.554   0.246 -0.2674 -0.3303  0.0239
  292TMC3    C4 4401   3.963   0.491   0.022 -0.4863 -0.5778 -0.2850
  292TMC3    C5 4402   3.825   0.477   0.024 -0.0751 -0.1576  0.6481
  292TMC3    C6 4403   3.749   0.509   0.135 -0.7505  0.6604  0.1195
  292TMC3     C 4404   4.151   0.495   0.166 -0.0360  0.5445  0.1976
  292TMC3     O 4405   4.189   0.472   0.282 -0.6690 -0.4049  0.0151
  292TMC3     H 4406   3.998   0.576   0.355 -1.3123  0.7916  0.7725
  292TMC3    H1 4407   4.026   0.453  17.636  0.1580  1.7362 -0.9031
  292TMC3    H2 4408   3.641   0.498   0.138 -0.5806 -1.0494  0.3011
  292TMC3    C7 4409   3.789   0.354  17.650 -0.9070 -0.5280 -0.3800
  292TMC3    C8 4410   3.734   0.572   0.368 -0.0603  0.3321  0.5629
  292TMC3    O1 4411   3.866   0.257  17.659 -0.0025 -0.2237 -0.8862
  292TMC3    O2 4412   3.736   0.689   0.410  0.3341 -0.2441 -0.1363
  293MPD2     C 4413   1.293   1.893  13.222  0.0955 -0.3595 -0.3770
  293MPD2    C1 4414   1.351   1.994  13.148  0.1470 -0.3306 -0.4041
  293MPD2    C2 4415   1.444   2.071  13.217  0.5581  0.6373 -0.5826
  293MPD2    C3 4416   1.473   2.056  13.353 -0.2120  0.3628  0.2193
  293MPD2    C4 4417   1.412   1.951  13.417 -0.0646 -0.3588 -0.3389
  293MPD2    C5 4418   1.326   1.864  13.351 -0.0180  0.0687 -0.0933
  293MPD2     H 4419   1.496   2.146  13.158  1.3203 -0.0762 -0.8064
  293MPD2    H1 4420   1.434   1.934  13.521  2.0779  0.6458 -0.6183
  293MPD2    H2 4421   1.216   1.830  13.179  1.3819  0.0573 -3.2829
  293MPD2    H3 4422   1.271   1.788  13.404 -1.4382  0.5039 -0.9563
  293MPD2     N 4423   1.567   2.138  13.406  0.2861  0.5016 -0.2594
  293MPD2    H5 4424   1.598   2.211  13.342  2.8290 -2.2968 -2.1730
  293MPD2    N1 4425   1.315   2.011  13.012 -0.5244 -0.2621 -0.3091
  293MPD2    H7 4426   1.268   1.934  12.966 -0.5509 -0.2300 -0.3358
  294TMC3    C1 4427   1.294   2.100  12.800  0.2856 -0.5208 -0.2185
  294TMC3    C2 4428   1.299   1.979  12.743  0.8226  0.1872  0.3811
  294TMC3    C3 4429   1.273   1.964  12.608 -0.1462 -0.0944 -0.1108
  294TMC3    C4 4430   1.284   2.211  12.721  0.7377 -0.2453  0.5566
  294TMC3    C5 4431   1.261   2.195  12.587  0.1398 -1.0161  0.7403
  294TMC3    C6 4432   1.255   2.074  12.528  0.1153  0.0267  0.3544
  294TMC3     C 4433   1.333   2.126  12.939 -0.5894 -0.2436  0.1403
  294TMC3     O 4434   1.380   2.234  12.972  0.4610 -0.3079 -0.1588
  294TMC3     H 4435   1.347   1.894  12.789 -1.7115 -1.0571  0.7700
  294TMC3    H1 4436   1.288   2.309  12.769  0.8776 -0.0417  0.1343
  294TMC3    H2 4437   1.246   2.063  12.420  0.4231  0.5647  0.2722
  294TMC3    C7 4438   1.265   2.315  12.507 -0.3148  0.1907  0.3380
  294TMC3    C8 4439   1.350   1.870  12.537 -0.0389 -0.1704  0.4178
  294TMC3    O1 4440   1.243   2.421  12.561 -0.8563  0.4217  0.1223
  294TMC3    O2 4441   1.470   1.888  12.552  0.0684 -0.2673  0.2905
  295MPD2     C 4442   2.021   1.414   0.244 -0.3325  0.6625  0.1332
  295MPD2    C1 4443   2.002   1.549   0.217  0.5592  0.4286 -0.0821
  295MPD2    C2 4444   1.888   1.608   0.258  0.7128  0.5276  0.3770
  295MPD2    C3 4445   1.800   1.536   0.337 -0.2200 -0.3628 -0.2511
  295MPD2    C4 4446   1.821   1.398   0.363 -0.2306  0.2763  0.0365
  295MPD2    C5 4447   1.932   1.341   0.314  0.0735 -0.5823 -0.0805
  295MPD2     H 4448   1.869   1.708   0.222  1.0349  0.5897  0.3814
  295MPD2    H1 4449   1.770   1.335   0.435 -0.4151  0.0370 -0.3028
  295MPD2    H2 4450   2.105   1.362   0.198 -2.1085 -0.9765 -1.2745
  295MPD2    H3 4451   1.959   1.237   0.326  0.1837 -0.5824 -0.3207
  295MPD2     N 4452   1.688   1.588   0.401 -0.3222 -0.0304  0.2939
  295MPD2    H5 4453   1.636   1.532   0.468  1.0704 -0.8774  0.6868
  295MPD2    N1 4454   2.107   1.622   0.143 -0.0121  0.0991 -0.0559
  295MPD2    H7 4455   2.080   1.719   0.129  0.6603 -0.0211 -2.2010
  296TMC3    C1 4456   1.532   1.739   0.467 -0.5010  0.5310 -0.4360
  296TMC3    C2 4457   1.515   1.863   0.528  0.1151 -0.3791 -0.7206
  296TMC3    C3 4458   1.419   1.874   0.628  0.0029  0.8374 -0.3124
  296TMC3    C4 4459   1.441   1.633   0.479 -0.6561 -0.5218  0.2326
  296TMC3    C5 4460   1.359   1.656   0.588 -0.3695 -0.1228 -0.3642
  296TMC3    C6 4461   1.350   1.764   0.673 -0.2897  0.4749 -0.0875
  296TMC3     C 4462   1.655   1.719   0.395  0.2050  0.3450 -0.6444
  296TMC3     O 4463   1.704   1.822   0.347  0.1723  0.0405 -0.7257
  296TMC3     H 4464   1.578   1.946   0.498 -0.5288  0.5695  0.5553
  296TMC3    H1 4465   1.439   1.540   0.424 -0.0291 -0.2026 -0.3200
  296TMC3    H2 4466   1.267   1.779   0.740  0.3466  0.9683  0.5885
  296TMC3    C7 4467   1.281   1.541   0.636 -0.6920  0.3354  0.0218
  296TMC3    C8 4468   1.424   1.995   0.707 -0.6393  0.1340 -0.5806
  296TMC3    O1 4469   1.278   1.447   0.561 -0.3038 -0.4016 -0.2424
  296TMC3    O2 4470   1.405   2.098   0.640 -0.7642  0.7968 -0.1874
  297MPD2     C 4471   3.965   3.471  16.607 -0.1001 -0.0182  0.0270
  297MPD2    C1 4472   3.941   3.434  16.475 -1.1067  0.1987 -0.6924
  297MPD2    C2 4473   3.989   3.503  16.373 -0.1479  0.7595  0.1280
  297MPD2    C3 4474   4.066   3.619  16.399 -0.3144 -0.2927  0.3918
  297MPD2    C4 4475   4.088   3.655  16.529  1.0823 -0.8040 -0.5223
  297MPD2    C5 4476   4.052   3.574  16.633 -0.4183  0.0038 -0.0115
  297MPD2     H 4477   3.963   3.477  16.271  0.8554 -1.4689  0.4444
  297MPD2    H1 4478   4.150   3.740  16.555 -0.8794  0.2510  0.7134
  297MPD2    H2 4479   3.923   3.411  16.687 -2.1893  1.8507  0.3421
  297MPD2    H3 4480   4.082   3.586  16.737  0.4388  0.3260 -0.2982
  297MPD2     N 4481   4.113   3.698  16.289 -0.9430 -0.0033 -0.0195
  297MPD2    H5 4482   4.106   3.651  16.199 -1.1422 -1.1344  0.5813
  297MPD2    N1 4483   3.844   3.335  16.431 -0.2399  0.0351  0.3248
  297MPD2    H7 4484   3.830   3.326  16.331 -1.4671  2.6403  0.2400
  298TMC3    C1 4485   3.662   3.194  16.440  0.5531 -0.5910  0.2274
  298TMC3    C2 4486   3.695   3.181  16.307 -0.0143 -0.6920  0.3378
  298TMC3    C3 4487   3.584   3.153  16.228 -0.8678  0.7217  0.7361
  298TMC3    C4 4488   3.535   3.206  16.483 -0.4148  0.7208 -0.6618
  298TMC3    C5 4489   3.429   3.173  16.401 -0.7223 -0.2718  0.4241
  298TMC3    C6 4490   3.454   3.142  16.270  0.0514 -0.2480  0.0179
  298TMC3     C 4491   3.767   3.264  16.520 -0.0894  0.6436 -0.2325
  298TMC3     O 4492   3.755   3.267  16.641 -0.4121 -0.0805 -0.1365
  298TMC3     H 4493   3.798   3.158  16.284  0.3368  2.2112 -0.9343
  298TMC3    H1 4494   3.516   3.228  16.588  0.2867  1.1901 -0.6320
  298TMC3    H2 4495   3.372   3.114  16.205 -0.5647  0.7603  0.3664
  298TMC3    C7 4496   3.317   3.259  16.433  0.1049  0.1760  0.5745
  298TMC3    C8 4497   3.592   3.148  16.076  0.2033 -0.5296 -0.2955
  298TMC3    O1 4498   3.298   3.292  16.550  0.5670  0.2761 -0.0366
  298TMC3    O2 4499   3.504   3.096  16.012  0.0036  0.0596 -0.4397
  299MPD2     C 4500   0.340   3.242  10.238  0.9709  0.2684  0.3363
  299MPD2    C1 4501   0.277   3.193  10.343  0.5933  0.0874 -0.2392
  299MPD2    C2 4502   0.159   3.121  10.329  0.2350  0.0007  0.5050
  299MPD2    C3 4503   0.109   3.086  10.207  0.5543  0.1939 -0.3809
  299MPD2    C4 4504   0.177   3.130  10.102 -0.1705  0.0785 -0.1107
  299MPD2    C5 4505   0.292   3.204  10.117  0.5029  0.4389  0.2052
  299MPD2     H 4506   0.116   3.076  10.418 -0.3946  2.0290  1.2252
  299MPD2    H1 4507   0.151   3.088  10.005 -0.5237  0.5003 -0.1980
  299MPD2    H2 4508   0.436   3.292  10.243 -0.1868  2.4215  0.9375
  299MPD2    H3 4509   0.340   3.240  10.027  0.4936 -1.3003 -0.4940
  299MPD2     N 4510   4.721   3.004  10.175 -0.6823 -0.5237  0.3747
  299MPD2    H5 4511   4.693   3.009  10.078  0.4983 -0.6637  0.0222
  299MPD2    N1 4512   0.338   3.230  10.466 -0.3129 -0.0455  0.5388
  299MPD2    H7 4513   0.424   3.283  10.464  0.2446 -1.0277 -1.6927
  300TMC3    C1 4514   4.523   2.880  10.226 -0.1736  0.3523  0.1266
  300TMC3    C2 4515   4.444   2.966  10.149 -0.2058 -0.2955  1.1317
  300TMC3    C3 4516   4.307   2.955  10.154  0.0643  0.5765  0.1370
  300TMC3    C4 4517   4.458   2.795  10.313  0.1632 -0.5945 -0.5293
  300TMC3    C5 4518   4.321   2.786  10.307 -0.6489 -0.4838  0.1312
  300TMC3    C6 4519   4.242   2.872  10.234  0.0413 -0.0585 -0.7843
  300TMC3     C 4520   4.659   2.917  10.264  0.3143 -0.5405 -0.1969
  300TMC3     O 4521   4.706   2.874  10.369 -0.0878 -0.8130 -0.1486
  300TMC3     H 4522   4.491   3.055  10.109 -0.7423 -1.0778 -1.2242
  300TMC3    H1 4523   4.523   2.731  10.370  1.8144 -0.2722 -2.0504
  300TMC3    H2 4524   4.134   2.878  10.225 -0.1476 -2.0113  0.2951
  300TMC3    C7 4525   4.265   2.712  10.416  0.1246 -1.1072 -0.2334
  300TMC3    C8 4526   4.240   3.077  10.140 -0.3513 -0.2237  0.0861
  300TMC3    O1 4527   4.294   2.591  10.428 -0.0388  0.4705 -0.3562
  300TMC3    O2 4528   4.140   3.071  10.067  0.5494  0.0897  0.0118
  301MPD2     C 4529   1.838   4.362   1.859  0.1836  0.1329 -0.2824
  301MPD2    C1 4530   1.784   4.296   1.749  0.8379  0.4055  0.4387
  301MPD2    C2 4531   1.854   4.195   1.686  0.1307  0.4282  0.3791
  301MPD2    C3 4532   1.988   4.167   1.725 -0.0944  0.4859  0.0108
  301MPD2    C4 4533   2.044   4.234   1.832 -0.1002 -0.1731  0.3249
  301MPD2    C5 4534   1.961   4.320   1.903 -0.0926 -0.4633  0.3559
  301MPD2     H 4535   1.806   4.143   1.604  0.6037 -0.0057  0.3746
  301MPD2    H1 4536   2.149   4.214   1.854 -0.7094 -2.8653  0.7522
  301MPD2    H2 4537   1.788   4.445   1.908  1.3620 -0.3872  1.7854
  301MPD2    H3 4538   2.010   4.373   1.985 -1.6121  1.5689 -0.0287
  301MPD2     N 4539   2.072   4.076   1.655 -0.8136 -0.8032 -0.4575
  301MPD2    H5 4540   2.171   4.084   1.673 -0.4421 -0.2379 -2.6619
  301MPD2    N1 4541   1.655   4.333   1.697  0.1538  0.3286  0.3875
  301MPD2    H7 4542   1.624   4.265   1.628 -1.4268  4.4389 -2.9494
  302TMC3    C1 4543   2.146   3.932   1.481  0.3911 -0.7128  0.0808
  302TMC3    C2 4544   2.263   3.906   1.544 -0.6587  0.5252  0.1204
  302TMC3    C3 4545   2.354   3.828   1.478  0.1183  0.3225  0.3275
  302TMC3    C4 4546   2.120   3.887   1.353 -0.4300 -0.4734  0.5905
  302TMC3    C5 4547   2.225   3.818   1.287  0.5603  0.2929 -0.3932
  302TMC3    C6 4548   2.334   3.780   1.349  0.4900 -0.8839 -1.1393
  302TMC3     C 4549   2.034   3.983   1.562  0.3989 -0.4099  0.2093
  302TMC3     O 4550   1.919   3.959   1.523 -0.0992 -0.2198  0.1715
  302TMC3     H 4551   2.276   3.936   1.648  1.8653 -1.3364  0.3392
  302TMC3    H1 4552   2.016   3.891   1.323 -0.1108  0.1656 -0.4505
  302TMC3    H2 4553   2.404   3.719   1.293  1.3060 -0.6041 -0.4153
  302TMC3    C7 4554   2.204   3.785   1.145  0.2903 -0.2853 -0.1672
  302TMC3    C8 4555   2.478   3.781   1.538 -0.2496  0.4578 -0.3580
  302TMC3    O1 4556   2.278   3.706   1.090 -0.2264  0.4065  0.1997
  302TMC3    O2 4557   2.495   3.664   1.511  0.2361  0.1243  0.0536
  303MPD2     C 4558   2.331   2.498  10.273 -0.2663 -0.0841  0.4124
  303MPD2    C1 4559   2.194   2.484  10.293 -0.6272  0.4904  0.7323
  303MPD2    C2 4560   2.104   2.518  10.201  0.0391 -0.5938  0.1232
  303MPD2    C3 4561   2.145   2.561  10.077  0.0912  0.0834  0.0274
  303MPD2    C4 4562   2.283   2.589  10.062 -0.6863 -0.3440  0.3976
  303MPD2    C5 4563   2.371   2.562  10.161  0.7466 -0.2991  0.0286
  303MPD2     H 4564   2.000   2.495  10.219 -0.1543 -0.4649 -0.8277
  303MPD2    H1 4565   2.312   2.640   9.971  2.0220  0.5924  1.8069
  303MPD2    H2 4566   2.407   2.467  10.343 -1.2832 -0.7803  1.2101
  303MPD2    H3 4567   2.477   2.581  10.146  1.2057 -1.2915  1.9953
  303MPD2     N 4568   2.061   2.599   9.966  0.1456 -0.0061  0.0046
  303MPD2    H5 4569   2.108   2.611   9.877 -2.4483  0.6148 -1.2850
  303MPD2    N1 4570   2.148   2.426  10.411  0.9068  0.2147  0.2135
  303MPD2    H7 4571   2.048   2.434  10.423  0.9339  0.7721  0.0709
  304TMC3    C1 4572   2.135   2.303  10.612  0.5291  0.5807  0.0553
  304TMC3    C2 4573   2.053   2.398  10.670  0.2769 -0.3236 -0.5386
  304TMC3    C3 4574   1.992   2.344  10.786 -0.0443  0.8312 -1.5082
  304TMC3    C4 4575   2.168   2.183  10.662 -0.3488 -0.3533 -0.1694
  304TMC3    C5 4576   2.110   2.140  10.773  0.5231 -0.8127 -0.3231
  304TMC3    C6 4577   2.019   2.221  10.835  0.5323 -0.8061 -0.3384
  304TMC3     C 4578   2.218   2.350  10.501  0.5407 -0.1490  0.2647
  304TMC3     O 4579   2.332   2.312  10.503 -0.1878 -0.2522  0.1243
  304TMC3     H 4580   2.026   2.492  10.622  1.6793  1.1973  1.6498
  304TMC3    H1 4581   2.232   2.120  10.602 -2.8436 -2.8147 -0.2407
  304TMC3    H2 4582   1.977   2.193  10.931 -0.7532 -1.3313 -1.0619
  304TMC3    C7 4583   2.061   2.006  10.743  0.3162  0.6728 -0.6852
  304TMC3    C8 4584   1.849   2.349  10.787  0.0640  0.2593 -0.2427
  304TMC3    O1 4585   2.146   1.924  10.706  0.2687  0.4195 -0.3922
  304TMC3    O2 4586   1.793   2.238  10.779  0.1336  0.7489 -0.4370
  305MPD2     C 4587   4.635   0.123  13.647  0.1108  0.5507 -0.2246
  305MPD2    C1 4588   4.647   4.715  13.699 -0.0190 -0.0483  0.1182
  305MPD2    C2 4589   4.639   4.608  13.610  0.1826 -0.0484  0.6270
  305MPD2    C3 4590   4.630   4.635  13.476  0.3526 -0.1156 -0.2155
  305MPD2    C4 4591   4.628   0.041  13.425 -0.0062 -0.3747  0.2015
  305MPD2    C5 4592   4.622   0.148  13.511  0.4012 -0.2439 -0.0914
  305MPD2     H 4593   4.649   4.507  13.648  0.4087  0.7482  2.6683
  305MPD2    H1 4594   4.606   0.057  13.320 -3.8924 -0.4477  0.9970
  305MPD2    H2 4595   4.633   0.215  13.705  2.2129  0.2446  0.3563
  305MPD2    H3 4596   4.600   0.248  13.478 -2.5958 -2.2198 -4.0620
  305MPD2     N 4597   4.635   4.532  13.379 -0.1088  0.4843  0.1464
  305MPD2    H5 4598   4.655   4.563  13.285  1.7052  0.9153  0.6832
  305MPD2    N1 4599   4.675   4.703  13.836 -0.2965  0.2820 -0.2484
  305MPD2    H7 4600   4.665   0.065  13.892  0.4339  1.5807 -2.1010
  306TMC3    C1 4601   0.052   4.599  14.029 -0.2076  0.7275  0.0347
  306TMC3    C2 4602   0.155   4.518  14.061  0.2964 -0.8335 -0.1577
  306TMC3    C3 4603   0.227   4.541  14.176 -0.4551  0.3956  0.4582
  306TMC3    C4 4604   0.020   4.711  14.101 -0.7395  0.2376  0.6726
  306TMC3    C5 4605   0.100   0.008  14.216  0.0589  0.7371 -0.3332
  306TMC3    C6 4606   0.206   4.652  14.251  0.2488  0.1004 -0.2992
  306TMC3     C 4607   0.009   4.583  13.893 -0.5106  0.7886 -0.0502
  306TMC3     O 4608   0.031   4.470  13.843 -0.0674  0.5134  0.5760
  306TMC3     H 4609   0.175   4.432  13.998 -0.4041 -1.5695  0.6239
  306TMC3    H1 4610   4.659   0.052  14.074  0.9059  1.9071 -0.4297
  306TMC3    H2 4611   0.255   4.664  14.347  1.2797  0.1818 -0.8293
  306TMC3    C7 4612   0.030   0.094  14.315 -0.0755 -0.8341 -0.1213
  306TMC3    C8 4613   0.249   4.423  14.251  0.4439  1.0744  0.0387
  306TMC3    O1 4614   4.642   0.141  14.290  0.9478 -0.9085  0.4671
  306TMC3    O2 4615   0.345   4.409  14.327  0.0503  0.4116  0.1410
  307MPD2     C 4616   2.620   1.878   1.281 -0.0233  0.0876 -0.7441
  307MPD2    C1 4617   2.553   1.995   1.277 -0.1618  0.1290  0.4698
  307MPD2    C2 4618   2.419   1.981   1.251 -0.4515 -0.1384 -0.0502
  307MPD2    C3 4619   2.356   1.861   1.237  0.2690  0.9165  0.8698
  307MPD2    C4 4620   2.425   1.744   1.237 -0.1364  0.6005  0.0378
  307MPD2    C5 4621   2.561   1.758   1.265 -0.7458  0.5293 -0.6783
  307MPD2     H 4622   2.354   2.067   1.261 -3.1270 -2.4626  2.3720
  307MPD2    H1 4623   2.372   1.651   1.221  2.7467 -1.3317  1.6148
  307MPD2    H2 4624   2.728   1.881   1.292 -0.0312 -1.4428 -0.1476
  307MPD2    H3 4625   2.624   1.670   1.257  0.9353  1.4273  2.7793
  307MPD2     N 4626   2.217   1.866   1.214  0.3845 -0.0261  0.5166
  307MPD2    H5 4627   2.171   1.954   1.235 -1.0382 -0.4918 -0.6001
  307MPD2    N1 4628   2.611   2.120   1.281 -0.2195 -0.4055 -0.0644
  307MPD2    H7 4629   2.540   2.192   1.289 -2.0524 -2.2190 -0.1080
  308TMC3    C1 4630   1.908   1.954   0.999  0.1338 -0.1293  0.4742
  308TMC3    C2 4631   1.868   2.036   1.101 -0.3781 -0.2304 -0.3413
  308TMC3    C3 4632   1.906   2.005   1.230  0.1321  0.1300 -0.8231
  308TMC3    C4 4633   1.973   1.836   1.020  0.4679 -0.3333  0.6245
  308TMC3    C5 4634   2.006   1.803   1.148  0.1149  0.2667 -0.0747
  308TMC3    C6 4635   1.975   1.888   1.253 -0.2741  0.6829 -0.0754
  308TMC3     C 4636   1.888   1.993   0.864  0.8038 -0.5108 -0.0423
  308TMC3     O 4637   1.904   1.901   0.784 -0.0014  0.3188 -0.0904
  308TMC3     H 4638   1.798   2.117   1.083 -1.0496 -0.4724  1.2178
  308TMC3    H1 4639   2.004   1.777   0.934  1.2858  0.9331  0.0497
  308TMC3    H2 4640   2.002   1.852   1.351 -1.9076  1.5712  0.6868
  308TMC3    C7 4641   2.142   1.767   1.157  0.3398 -0.3329 -0.7399
  308TMC3    C8 4642   1.883   2.089   1.346 -0.1186 -0.6145  0.5646
  308TMC3    O1 4643   2.177   1.662   1.105  0.4847  0.5307 -0.3313
  308TMC3    O2 4644   1.913   2.036   1.452  0.1128  0.4877  0.3456
  309MPD2     C 4645   1.889   3.195  17.329  0.3146  0.2509  0.4659
  309MPD2    C1 4646   1.826   3.285  17.235  0.1576  0.1696  0.2134
  309MPD2    C2 4647   1.705   3.336  17.274  0.4029 -0.0794  0.2100
  309MPD2    C3 4648   1.640   3.295  17.391  0.6804 -0.1470 -0.2503
  309MPD2    C4 4649   1.702   3.207  17.476 -0.6956 -0.5526 -0.1909
  309MPD2    C5 4650   1.827   3.164  17.439 -0.2665 -0.2633 -0.1821
  309MPD2     H 4651   1.664   3.411  17.207  0.7817 -0.5589 -0.5555
  309MPD2    H1 4652   1.656   3.178  17.569 -0.0893  0.6632  0.4847
  309MPD2    H2 4653   1.974   3.133  17.305  1.9893  1.9218  2.0172
  309MPD2    H3 4654   1.877   3.102  17.513  1.2804  0.3907 -0.6782
  309MPD2     N 4655   1.518   3.343  17.427 -1.2607 -0.3872 -0.0561
  309MPD2    H5 4656   1.469   3.302  17.506 -1.8300 -0.9935 -0.7296
  309MPD2    N1 4657   1.890   3.327  17.114  0.1981 -0.3849  0.6964
  309MPD2    H7 4658   1.844   3.400  17.061  0.1718 -0.3326  0.7908
  310TMC3    C1 4659   2.066   3.363  16.951 -0.5092 -0.3848  0.4226
  310TMC3    C2 4660   1.982   3.398  16.850  0.3680  0.7790  0.1735
  310TMC3    C3 4661   2.042   3.417  16.731 -0.1395 -0.1254 -0.4092
  310TMC3    C4 4662   2.206   3.349  16.942 -0.3682  0.0267  0.3952
  310TMC3    C5 4663   2.264   3.371  16.815 -0.2614  0.8318 -0.0195
  310TMC3    C6 4664   2.181   3.407  16.708 -0.1014  0.3570 -0.0495
  310TMC3     C 4665   2.013   3.286  17.067  0.6803 -0.1277  0.5957
  310TMC3     O 4666   2.086   3.201  17.109  0.3229  0.3024  0.0598
  310TMC3     H 4667   1.874   3.403  16.858  0.1882 -0.8615 -1.1193
  310TMC3    H1 4668   2.257   3.317  17.032 -0.0637  0.6780  0.4570
  310TMC3    H2 4669   2.237   3.422  16.616  0.2672  0.9641  0.2736
  310TMC3    C7 4670   2.395   3.322  16.782 -0.0191 -0.2471 -0.1903
  310TMC3    C8 4671   1.964   3.460  16.612 -0.5489 -0.6254 -0.1274
  310TMC3    O1 4672   2.433   3.346  16.666  0.2612  0.3052 -0.2590
  310TMC3    O2 4673   1.848   3.484  16.624  0.2604 -0.0587 -0.6313
  311MPD2     C 4674   4.077   3.850  12.733 -0.5618  0.5369  0.0023
  311MPD2    C1 4675   4.060   3.987  12.739  0.3215  0.0989  0.4364
  311MPD2    C2 4676   3.951   4.037  12.799 -0.6134  0.0717  0.0324
  311MPD2    C3 4677   3.855   3.943  12.840 -0.5920  0.1807  0.4455
  311MPD2    C4 4678   3.863   3.810  12.819 -0.0465  0.0888 -0.5050
  311MPD2    C5 4679   3.983   3.770  12.786  0.9862  0.1855 -0.3600
  311MPD2     H 4680   3.935   4.141  12.824  2.1701  0.4291  0.3389
  311MPD2    H1 4681   3.790   3.732  12.839  0.3690 -0.0523  0.4673
  311MPD2    H2 4682   4.168   3.801  12.702 -0.5379  0.2924  0.4614
  311MPD2    H3 4683   3.993   3.662  12.792 -0.4047  0.1052  0.5287
  311MPD2     N 4684   3.739   3.995  12.899  0.6840 -0.1230  0.0489
  311MPD2    H5 4685   3.722   4.095  12.892 -0.6781 -0.2904  0.7815
  311MPD2    N1 4686   4.160   4.076  12.696 -0.3078  0.1551  0.3208
  311MPD2    H7 4687   4.147   4.175  12.714  0.6091  0.1497  1.0259
  312TMC3    C1 4688   3.523   4.022  12.972 -0.1014 -0.8191 -0.5986
  312TMC3    C2 4689   3.392   3.987  12.973  0.5691  0.5147  0.0922
  312TMC3    C3 4690   3.302   4.084  13.006 -0.4267 -0.3656  0.2614
  312TMC3    C4 4691   3.569   4.144  13.023  0.0802 -0.7971  0.2022
  312TMC3    C5 4692   3.467   4.237  13.057 -0.3753 -0.7551 -0.4334
  312TMC3    C6 4693   3.331   4.212  13.050 -0.4419  0.1399  0.9549
  312TMC3     C 4694   3.620   3.930  12.921  0.3072  0.0038  0.8407
  312TMC3     O 4695   3.573   3.831  12.870  0.6799 -0.0218  0.0998
  312TMC3     H 4696   3.360   3.886  12.950 -1.2918  0.9387  0.7636
  312TMC3    H1 4697   3.668   4.174  13.057 -0.5045 -1.1681  2.2386
  312TMC3    H2 4698   3.265   4.298  13.061  1.1997  1.7190 -1.3500
  312TMC3    C7 4699   3.507   4.357  13.132 -0.7422 -0.3732 -0.2222
  312TMC3    C8 4700   3.165   4.052  12.970 -0.3439 -0.0735  0.7054
  312TMC3    O1 4701   3.578   4.436  13.074 -0.2923 -0.1402 -0.3867
  312TMC3    O2 4702   3.145   3.950  12.906 -0.4243 -0.2488  0.1839
  313MPD2     C 4703   3.993   3.365  10.773 -0.2472  0.8537  0.7596
  313MPD2    C1 4704   3.860   3.384  10.744 -0.2185 -0.0989  0.5885
  313MPD2    C2 4705   3.805   3.329  10.629 -0.6933  0.2680  0.3821
  313MPD2    C3 4706   3.887   3.267  10.540  0.7310 -0.3266  0.1103
  313MPD2    C4 4707   4.024   3.258  10.566 -0.6134 -0.2540 -0.0733
  313MPD2    C5 4708   4.072   3.312  10.680  0.3807 -0.1255 -0.0571
  313MPD2     H 4709   3.697   3.323  10.626 -0.5906 -1.0700 -0.8641
  313MPD2    H1 4710   4.091   3.209  10.496  2.4891  1.2603  1.8734
  313MPD2    H2 4711   4.037   3.399  10.866  2.5132 -0.2231 -0.1640
  313MPD2    H3 4712   4.180   3.307  10.688  0.1996 -2.2321  1.2227
  313MPD2     N 4713   3.825   3.208  10.425 -0.0274 -0.3780  0.0827
  313MPD2    H5 4714   3.725   3.222  10.412  0.3386  2.1393 -0.1441
  313MPD2    N1 4715   3.769   3.452  10.827 -0.7000 -0.6121 -0.4017
  313MPD2    H7 4716   3.675   3.471  10.793 -0.6688  2.0278  1.0092
  314TMC3    C1 4717   3.700   3.609  11.002  0.2588 -0.1729 -0.3378
  314TMC3    C2 4718   3.731   3.700  11.097  0.2002 -0.0282 -0.5777
  314TMC3    C3 4719   3.657   3.817  11.100 -0.2322  0.0268  0.2111
  314TMC3    C4 4720   3.589   3.619  10.926 -0.2339  0.4199  1.1861
  314TMC3    C5 4721   3.506   3.727  10.940  0.7588 -0.0829  0.2103
  314TMC3    C6 4722   3.549   3.832  11.020 -0.4594 -0.1862 -0.1490
  314TMC3     C 4723   3.799   3.511  10.956 -0.2272 -0.0533 -0.1932
  314TMC3     O 4724   3.901   3.510  11.023  0.1015 -0.0117  1.0310
  314TMC3     H 4725   3.815   3.691  11.165  0.1370  0.3671 -0.4510
  314TMC3    H1 4726   3.551   3.540  10.862  1.3624  0.6046  0.0062
  314TMC3    H2 4727   3.493   3.921  11.042  1.3609  1.4512 -2.1359
  314TMC3    C7 4728   3.425   3.778  10.831  0.0973  0.0645  0.2569
  314TMC3    C8 4729   3.697   3.926  11.191  0.4496 -0.8707  0.3606
  314TMC3    O1 4730   3.408   3.896  10.825  0.8049  0.3876 -0.2588
  314TMC3    O2 4731   3.664   4.043  11.170 -0.0866 -0.0715  0.1609
  315MPD2     C 4732   3.419   2.901   0.480 -0.0630  0.0830  0.8300
  315MPD2    C1 4733   3.537   2.959   0.443 -0.0977 -0.2743  0.0113
  315MPD2    C2 4734   3.536   3.068   0.356 -0.1727 -0.2120  0.1097
  315MPD2    C3 4735   3.425   3.122   0.309  0.1607 -0.2269 -0.0141
  315MPD2    C4 4736   3.307   3.063   0.345 -0.7652 -0.2097 -0.3594
  315MPD2    C5 4737   3.309   2.944   0.420 -0.5468 -0.2752 -0.4375
  315MPD2     H 4738   3.637   3.106   0.343  0.2711 -1.4630 -0.1987
  315MPD2    H1 4739   3.209   3.101   0.318 -1.7010 -2.1037  0.3832
  315MPD2    H2 4740   3.413   2.809   0.537 -0.7552 -0.5631 -0.2980
  315MPD2    H3 4741   3.219   2.901   0.462  0.3063 -0.7793  0.8795
  315MPD2     N 4742   3.422   3.234   0.220  0.5276  0.5363 -0.0559
  315MPD2    H5 4743   3.512   3.262   0.181  1.4684 -2.0414  0.2250
  315MPD2    N1 4744   3.665   2.912   0.495 -0.1236  0.4066  0.5940
  315MPD2    H7 4745   3.741   2.977   0.476  0.2200 -0.5613 -1.3519
  316TMC3    C1 4746   3.310   3.384   0.070  0.8272  0.0336  1.6154
  316TMC3    C2 4747   3.426   3.377  17.681 -0.6489 -0.5850 -0.3087
  316TMC3    C3 4748   3.418   3.460  17.575 -0.2011 -0.6222 -0.4779
  316TMC3    C4 4749   3.207   3.468   0.054  0.4157 -0.6015  0.3524
  316TMC3    C5 4750   3.205   3.550  17.635 -0.0486  0.0165  0.4707
  316TMC3    C6 4751   3.314   3.546  17.551 -0.0067 -0.0979  0.1668
  316TMC3     C 4752   3.310   3.315   0.195 -0.8410  0.4275  0.3355
  316TMC3     O 4753   3.216   3.339   0.268 -0.2071  0.0056  0.2425
  316TMC3     H 4754   3.513   3.315   0.006 -2.6351 -3.3253 -0.2531
  316TMC3    H1 4755   3.115   3.447   0.107 -0.7816  2.0197 -0.6777
  316TMC3    H2 4756   3.325   3.614  17.468  1.9313 -0.2922  0.2719
  316TMC3    C7 4757   3.077   3.617  17.606 -0.0267 -0.4425  0.3362
  316TMC3    C8 4758   3.532   3.478  17.497  0.5494 -0.6866  0.4791
  316TMC3    O1 4759   3.001   3.633   0.006 -0.1939 -0.0805  0.3260
  316TMC3    O2 4760   3.511   3.527  17.385  0.4802  0.4520  0.2067
  317MPD2     C 4761   4.600   1.371  12.910 -0.5273 -0.2598  0.5834
  317MPD2    C1 4762   4.654   1.246  12.878  0.2535  0.3632 -0.0570
  317MPD2    C2 4763   0.035   1.196  12.952  0.2077  0.2111  1.1331
  317MPD2    C3 4764   0.096   1.271  13.055  0.9369 -0.0368 -1.1308
  317MPD2    C4 4765   0.051   1.398  13.077 -0.3694 -0.8403  0.0779
  317MPD2    C5 4766   4.666   1.443  13.005 -0.6598 -0.0259 -0.1892
  317MPD2     H 4767   0.081   1.102  12.924  3.2837  1.7224  1.1298
  317MPD2    H1 4768   0.098   1.465  13.148 -0.6649 -1.1795  0.5904
  317MPD2    H2 4769   4.519   1.416  12.853  0.8874 -0.4116 -1.5689
  317MPD2    H3 4770   4.636   1.546  13.021  2.4475  0.9844 -0.7174
  317MPD2     N 4771   0.198   1.213  13.130 -0.1709 -0.2469 -0.2991
  317MPD2    H5 4772   0.230   1.121  13.102 -5.3225 -1.8519 -1.0659
  317MPD2    N1 4773   4.612   1.162  12.773  0.0552  0.1523  0.0749
  317MPD2    H7 4774   4.664   1.076  12.758  2.0293  1.3079  0.2674
  318TMC3    C1 4775   0.351   1.165  13.317 -0.2425  0.5798 -0.3390
  318TMC3    C2 4776   0.294   1.041  13.330 -0.4120 -0.2880 -0.1853
  318TMC3    C3 4777   0.336   0.959  13.435 -0.1606 -0.0979  0.1818
  318TMC3    C4 4778   0.443   1.205  13.403  0.4765 -0.6681  0.2013
  318TMC3    C5 4779   0.492   1.122  13.497  0.1023 -0.2791 -0.3672
  318TMC3    C6 4780   0.434   1.002  13.525  0.3907 -0.0495 -0.1739
  318TMC3     C 4781   0.265   1.259  13.246 -0.0222  0.2898 -0.3290
  318TMC3     O 4782   0.245   1.363  13.312  0.4371 -0.5606  0.1557
  318TMC3     H 4783   0.249   0.991  13.245  1.3339 -2.6918  0.2980
  318TMC3    H1 4784   0.487   1.301  13.381  0.0058 -0.6155 -0.5192
  318TMC3    H2 4785   0.471   0.935  13.602 -0.1427  0.1816  0.2847
  318TMC3    C7 4786   0.619   1.162  13.548 -0.1293 -0.4181 -0.5219
  318TMC3    C8 4787   0.282   0.829  13.449 -0.5326 -0.3977 -0.1072
  318TMC3    O1 4788   0.651   1.274  13.535 -0.1717  0.3217 -0.1447
  318TMC3    O2 4789   0.353   0.749  13.511 -0.1801 -0.2970 -0.6300
  319MPD2     C 4790   1.472   2.655  16.149  0.1037 -0.4426 -0.1313
  319MPD2    C1 4791   1.338   2.624  16.183  0.4392 -0.6352 -0.3882
  319MPD2    C2 4792   1.256   2.554  16.097 -0.6363  0.2100  1.1570
  319MPD2    C3 4793   1.299   2.525  15.964  0.0074  0.5608 -0.1135
  319MPD2    C4 4794   1.424   2.566  15.924 -0.0219 -0.1658  0.4421
  319MPD2    C5 4795   1.511   2.616  16.021  0.2555 -0.6814  0.2428
  319MPD2     H 4796   1.157   2.525  16.131 -0.3459 -0.1390  1.7034
  319MPD2    H1 4797   1.466   2.522  15.835 -1.1343 -1.3798  0.5236
  319MPD2    H2 4798   1.536   2.716  16.212 -2.9063 -0.0115  2.5163
  319MPD2    H3 4799   1.614   2.624  15.990 -0.0217  1.2022 -0.1720
  319MPD2     N 4800   1.223   2.448  15.875 -0.7271  0.1401 -1.2534
  319MPD2    H5 4801   1.260   2.457  15.781  0.3687  0.2005 -0.8243
  319MPD2    N1 4802   1.281   2.649  16.308  0.2101  0.4192  0.2195
  319MPD2    H7 4803   1.198   2.598  16.337 -0.8447  3.0238  1.7739
  320TMC3    C1 4804   1.041   2.319  15.801  0.1488 -0.0826 -0.1656
  320TMC3    C2 4805   0.978   2.411  15.723 -0.3701  0.1372 -0.2505
  320TMC3    C3 4806   0.848   2.394  15.687 -0.3261  0.2278 -0.1810
  320TMC3    C4 4807   0.972   2.202  15.843 -0.6313 -0.3324 -0.3945
  320TMC3    C5 4808   0.835   2.193  15.812  0.3811  0.0006  0.1388
  320TMC3    C6 4809   0.778   2.277  15.720  0.1657  0.1278  0.0167
  320TMC3     C 4810   1.111   2.375  15.912 -0.0597  0.0579 -0.2851
  320TMC3     O 4811   1.057   2.354  16.017 -0.5296 -0.0821  0.7448
  320TMC3     H 4812   1.027   2.501  15.687 -0.6450 -0.4775 -2.2031
  320TMC3    H1 4813   1.011   2.144  15.926 -2.7620  0.5585  1.2313
  320TMC3    H2 4814   0.671   2.263  15.718 -0.0912  2.2423 -0.3544
  320TMC3    C7 4815   0.746   2.173  15.926  0.3435 -0.5512 -0.3291
  320TMC3    C8 4816   0.772   2.516  15.695  0.1830  0.2534 -0.0224
  320TMC3    O1 4817   0.627   2.142  15.903  0.1648 -0.6712 -0.2555
  320TMC3    O2 4818   0.832   2.619  15.725  0.0205  0.2202 -0.5352
  321TMC3    C1 4819   1.258   2.764  16.516 -0.4060  0.1539 -0.8102
  321TMC3    C2 4820   1.224   2.651  16.586  0.0336 -0.0829  0.6859
  321TMC3    C3 4821   1.132   2.660  16.686 -0.4919  0.0954 -0.3601
  321TMC3    C4 4822   1.222   2.892  16.551  0.2390  0.1814  0.3438
  321TMC3    C5 4823   1.148   2.900  16.662 -0.3894 -0.1470 -0.3834
  321TMC3    C6 4824   1.097   2.788  16.720  0.0757 -0.9167 -0.6817
  321TMC3     C 4825   1.331   2.754  16.392  0.5590  0.1621  0.2196
  321TMC3     O 4826   1.411   2.837  16.360  0.4892  0.1917 -0.2385
  321TMC3     H 4827   1.270   2.555  16.563 -1.2264 -0.5522  0.1188
  321TMC3    H1 4828   1.273   2.977  16.508  0.7575 -1.0240 -1.4378
  321TMC3    H2 4829   1.035   2.812  16.805  1.8081  0.1782  0.2860
  321TMC3    C7 4830   1.220   2.991  16.758  0.7302 -0.6481  0.4791
  321TMC3    C8 4831   1.156   2.588  16.805 -0.3056 -0.2133  1.0325
  321TMC3    O1 4832   1.264   3.101  16.726  1.0140 -0.0987 -0.3668
  321TMC3    O2 4833   1.183   2.657  16.902 -0.7282 -0.2509  0.3610
  322MPD2     C 4834   0.083   3.602  13.407  0.1171  0.5053 -0.6444
  322MPD2    C1 4835   0.133   3.527  13.510  0.0483  0.4132  0.0578
  322MPD2    C2 4836   0.174   3.396  13.484  0.9479  1.4262 -0.4977
  322MPD2    C3 4837   0.145   3.338  13.368  0.4055  0.0872  0.2626
  322MPD2    C4 4838   0.082   3.407  13.271 -0.1616 -0.4680  0.1641
  322MPD2    C5 4839   0.064   3.539  13.283  0.1382  0.2544  0.0922
  322MPD2     H 4840   0.219   3.336  13.563  0.6819 -0.0069 -1.4318
  322MPD2    H1 4841   0.058   3.360  13.177  1.2003 -0.0647 -0.3730
  322MPD2    H2 4842   0.069   3.708  13.421  2.0304  0.6800 -0.0459
  322MPD2    H3 4843   0.031   3.596  13.197  0.9730  0.3735 -0.1513
  322MPD2     N 4844   0.179   3.202  13.353 -0.1335  0.0520 -0.1444
  322MPD2    H5 4845   0.221   3.159  13.435  0.8733  0.8631 -0.2351
  322MPD2    N1 4846   0.158   3.589  13.641  0.0474 -0.8055  0.0120
  322MPD2    H7 4847   0.150   3.691  13.647  0.8650 -0.7599  0.2698
  323TMC3    C1 4848   0.202   3.592  13.877  0.3232  0.1111  0.0810
  323TMC3    C2 4849   0.205   3.728  13.872  0.5352 -0.6552  0.6096
  323TMC3    C3 4850   0.241   3.787  13.995  0.1879  0.1508 -0.8432
  323TMC3    C4 4851   0.231   3.516  13.984 -0.3957 -0.2327 -0.2787
  323TMC3    C5 4852   0.267   3.580  14.098  0.2732  0.0872  0.1710
  323TMC3    C6 4853   0.269   3.715  14.107 -0.0678 -0.2838  0.2530
  323TMC3     C 4854   0.183   3.518  13.752  0.7917  0.1624  0.0203
  323TMC3     O 4855   0.179   3.394  13.769 -0.3268 -0.3263 -0.1157
  323TMC3     H 4856   0.194   3.790  13.784 -1.4056 -2.0666 -0.1245
  323TMC3    H1 4857   0.249   3.409  13.985  0.8616 -0.0483 -3.6855
  323TMC3    H2 4858   0.294   3.761  14.202  0.2942  1.5917 -0.7389
  323TMC3    C7 4859   0.380   3.519  14.162 -0.2131  0.1596  0.3596
  323TMC3    C8 4860   0.327   3.899  13.983 -0.4630 -0.1825 -0.9060
  323TMC3    O1 4861   0.377   3.401  14.179 -0.4833 -0.5935  0.3449
  323TMC3    O2 4862   0.430   3.892  14.050  0.6849 -0.0281 -0.0269
  324MPD2     C 4863   1.298   4.613  14.270 -0.3743  0.0821  0.5144
  324MPD2    C1 4864   1.316   0.013  14.217 -0.1402 -0.8797  0.0101
  324MPD2    C2 4865   1.211   0.101  14.229  1.1665 -0.3003  0.7304
  324MPD2    C3 4866   1.098   0.073  14.296 -0.2007 -0.5521  0.3394
  324MPD2    C4 4867   1.089   4.669  14.361 -0.4797  0.8109 -0.9566
  324MPD2    C5 4868   1.191   4.582  14.349 -0.2187  0.5877 -0.1704
  324MPD2     H 4869   1.208   0.189  14.166 -0.8471 -2.2927 -1.9511
  324MPD2    H1 4870   1.001   4.625  14.406  1.4071 -0.2903  1.6257
  324MPD2    H2 4871   1.371   4.535  14.255 -1.7553 -1.5469  2.2288
  324MPD2    H3 4872   1.186   4.484  14.395  0.1769  1.0718  0.9013
  324MPD2     N 4873   0.978   0.159  14.301 -0.3814  0.1825  0.2289
  324MPD2    H5 4874   0.893   0.124  14.345  0.1339 -0.6035  0.6120
  324MPD2    N1 4875   1.434   0.051  14.136  0.7895  0.1597 -0.6376
  324MPD2    H7 4876   1.447   0.151  14.120 -1.8132  0.6381  0.2603
  325TMC3    C1 4877   0.831   0.338  14.254 -0.3028  0.2186  0.4753
  325TMC3    C2 4878   0.734   0.250  14.231 -0.1327  0.1322 -0.6671
  325TMC3    C3 4879   0.608   0.299  14.206 -0.4812 -0.2715  0.1012
  325TMC3    C4 4880   0.819   0.475  14.263 -0.1601 -0.1221 -0.0343
  325TMC3    C5 4881   0.690   0.524  14.243 -0.7335 -0.1955 -0.3930
  325TMC3    C6 4882   0.585   0.439  14.225 -0.8529 -0.6062  0.1637
  325TMC3     C 4883   0.965   0.284  14.239 -0.8898 -0.2540 -0.1969
  325TMC3     O 4884   1.050   0.349  14.174  0.1258  0.1373  0.2784
  325TMC3     H 4885   0.768   0.148  14.218  0.0780  0.2765 -1.2610
  325TMC3    H1 4886   0.901   0.544  14.280 -0.7036  0.2718  0.9832
  325TMC3    H2 4887   0.485   0.479  14.217 -0.1357  1.1356 -0.0130
  325TMC3    C7 4888   0.655   0.663  14.212  0.2245  0.2525 -0.2453
  325TMC3    C8 4889   0.514   0.206  14.145  0.9096  0.4351 -0.0026
  325TMC3    O1 4890   0.549   0.694  14.167 -0.0875  0.5184  0.5179
  325TMC3    O2 4891   0.556   0.091  14.135  0.2077 -0.0338 -0.7108
  326MPD2     C 4892   3.118   0.966  11.031  0.6494 -1.1115 -0.1421
  326MPD2    C1 4893   3.162   1.006  10.902  0.2437  0.5242 -0.9787
  326MPD2    C2 4894   3.268   1.095  10.886 -0.0304 -0.2442  0.7876
  326MPD2    C3 4895   3.310   1.173  11.002 -0.0495 -0.3863  0.8794
  326MPD2    C4 4896   3.268   1.127  11.126 -0.5438  0.7049 -0.1167
  326MPD2    C5 4897   3.175   1.031  11.140 -0.5744 -0.0441 -0.4449
  326MPD2     H 4898   3.313   1.114  10.789  0.1727  1.1376  1.1389
  326MPD2    H1 4899   3.304   1.188  11.208 -1.9074 -1.4456  2.0629
  326MPD2    H2 4900   3.048   0.884  11.041  0.5892 -0.8983  1.1575
  326MPD2    H3 4901   3.129   1.024  11.238  1.4973  1.4827  0.6392
  326MPD2     N 4902   3.400   1.282  11.000 -0.0039 -0.5838  0.0900
  326MPD2    H5 4903   3.438   1.306  11.090  0.5549 -2.0998  0.2653
  326MPD2    N1 4904   3.100   0.950  10.788  0.1278 -0.1711 -0.5495
  326MPD2    H7 4905   3.145   0.955  10.697  0.4254  0.9665 -0.3342
  327TMC3    C1 4906   2.957   0.840  10.653  0.9298  0.0695 -0.2018
  327TMC3    C2 4907   2.857   0.897  10.581  0.3348  0.3420  0.2742
  327TMC3    C3 4908   2.876   0.909  10.448 -0.2913  0.4173  0.6731
  327TMC3    C4 4909   3.075   0.799  10.594 -0.4137  0.4553  0.2933
  327TMC3    C5 4910   3.097   0.816  10.463  0.9226 -0.8914  1.5589
  327TMC3    C6 4911   2.999   0.877  10.383 -0.1575  0.3906 -0.4927
  327TMC3     C 4912   2.976   0.897  10.780 -0.4862 -0.0487 -0.2976
  327TMC3     O 4913   2.889   0.920  10.860 -0.1767  0.0888 -0.2864
  327TMC3     H 4914   2.768   0.937  10.628 -0.2595 -0.0206 -0.5354
  327TMC3    H1 4915   3.147   0.749  10.658 -0.0161 -0.0896 -0.5818
  327TMC3    H2 4916   3.020   0.898  10.279 -1.4107 -1.5171 -1.1323
  327TMC3    C7 4917   3.233   0.862  10.433 -0.4558  0.1723  0.5122
  327TMC3    C8 4918   2.799   1.004  10.368 -0.6614  0.3989  0.3406
  327TMC3    O1 4919   3.246   0.946  10.344 -0.1800 -0.1282  0.4585
  327TMC3    O2 4920   2.831   1.040  10.256 -0.3546  0.4245 -0.2512
  328MPD2     C 4921   1.255   1.790  17.184  0.7057 -0.2491 -0.1789
  328MPD2    C1 4922   1.162   1.699  17.135  0.8679 -0.2384  0.0015
  328MPD2    C2 4923   1.057   1.737  17.055 -0.1885  1.0501 -0.2186
  328MPD2    C3 4924   1.037   1.869  17.037 -0.4800  0.1733  0.6780
  328MPD2    C4 4925   1.124   1.967  17.089  0.4547  1.0649  0.0304
  328MPD2    C5 4926   1.226   1.928  17.169 -0.1848  0.5486 -0.9718
  328MPD2     H 4927   0.999   1.664  16.999  0.2323  0.1084  0.5774
  328MPD2    H1 4928   1.105   2.073  17.084 -0.9737  0.8320  0.7076
  328MPD2    H2 4929   1.337   1.752  17.243  0.0377 -0.9667  0.2939
  328MPD2    H3 4930   1.282   2.011  17.210  0.2710 -0.9041  1.3057
  328MPD2     N 4931   0.923   1.921  16.959 -0.6178  0.1963  0.5271
  328MPD2    H5 4932   0.925   2.022  16.947  0.8270 -0.2066 -2.6315
  328MPD2    N1 4933   1.192   1.560  17.161 -0.5751  0.7828 -0.3559
  328MPD2    H7 4934   1.275   1.547  17.218 -0.9210  1.7109  0.3646
  329TMC3    C1 4935   1.153   1.318  17.171 -0.4225  0.8051 -0.1262
  329TMC3    C2 4936   1.070   1.210  17.143  0.1657 -0.0593  0.5980
  329TMC3    C3 4937   1.108   1.086  17.188 -0.0722  0.2958  0.2126
  329TMC3    C4 4938   1.283   1.290  17.216 -0.6745 -0.2785 -0.2938
  329TMC3    C5 4939   1.312   1.170  17.261 -0.0080 -0.2052 -0.5923
  329TMC3    C6 4940   1.224   1.065  17.249 -0.1931  0.0242  0.0124
  329TMC3     C 4941   1.111   1.452  17.123 -0.0336 -0.2128 -0.2556
  329TMC3     O 4942   1.015   1.452  17.049 -0.1798 -0.2810 -0.2198
  329TMC3     H 4943   0.984   1.231  17.081  1.4610  0.2267 -1.0865
  329TMC3    H1 4944   1.353   1.372  17.226 -0.8860 -0.2620  1.0496
  329TMC3    H2 4945   1.247   0.965  17.284 -1.3527 -1.0297 -2.3074
  329TMC3    C7 4946   1.413   1.148  17.357 -0.3040  0.5072  0.8292
  329TMC3    C8 4947   1.032   0.954  17.169  1.0558  0.3725 -0.5327
  329TMC3    O1 4948   1.451   1.033  17.373 -0.0664  0.0713 -0.4369
  329TMC3    O2 4949   1.097   0.856  17.140  0.2892  0.6066 -0.0671
  330TMC3    C1 4950   3.881   0.339   9.625  0.4186  0.1878 -0.1913
  330TMC3    C2 4951   3.753   0.290   9.618  0.2461 -0.1954 -0.4025
  330TMC3    C3 4952   3.729   0.171   9.684  0.6428 -0.4281 -0.1648
  330TMC3    C4 4953   3.972   0.273   9.702  0.0621 -0.1866  0.5914
  330TMC3    C5 4954   3.943   0.160   9.767 -0.1091 -0.5604  0.3783
  330TMC3    C6 4955   3.821   0.093   9.755 -0.0575 -0.0316  0.6779
  330TMC3     C 4956   3.898   0.487   9.634  0.5466  0.1835 -0.4496
  330TMC3     O 4957   3.983   0.528   9.712  0.3929  0.1378 -0.2446
  330TMC3     H 4958   3.679   0.346   9.562 -0.4049 -0.3823  0.2721
  330TMC3    H1 4959   4.076   0.303   9.697  0.4622 -1.5601  0.6872
  330TMC3    H2 4960   3.812   4.715   9.793 -0.0326 -0.7816 -1.3070
  330TMC3    C7 4961   4.057   0.081   9.831 -0.3011 -0.2505  0.0463
  330TMC3    C8 4962   3.593   0.139   9.699 -0.5449 -0.3776 -0.6100
  330TMC3    O1 4963   4.028   4.688   9.862 -0.2603  0.2246 -0.2682
  330TMC3    O2 4964   3.512   0.190   9.625  0.3926  0.0701 -0.3908
  331MPD2     C 4965   0.870   4.147  12.983  0.3811  0.2947 -0.2053
  331MPD2    C1 4966   0.987   4.200  12.930 -0.1695  0.0329 -0.0794
  331MPD2    C2 4967   1.072   4.118  12.861 -0.3662  0.1554  0.1024
  331MPD2    C3 4968   1.047   3.986  12.851  0.2961  0.2705  0.2899
  331MPD2    C4 4969   0.922   3.938  12.893 -0.3807  0.7021 -0.2840
  331MPD2    C5 4970   0.841   4.017  12.962 -0.4971 -0.7554  0.5044
  331MPD2     H 4971   1.158   4.154  12.806 -0.0838  1.3488  1.3222
  331MPD2    H1 4972   0.902   3.832  12.900 -2.9614  1.2413  0.1969
  331MPD2    H2 4973   0.799   4.200  13.045 -1.8747 -1.9290 -0.8827
  331MPD2    H3 4974   0.746   3.984  13.001 -0.9036  0.9229  0.9236
  331MPD2     N 4975   1.150   3.908  12.791 -0.3047  0.1123  0.1603
  331MPD2    H5 4976   1.236   3.947  12.754 -1.3069 -0.3519 -2.6016
  331MPD2    N1 4977   1.009   4.340  12.956  0.1933  0.1142 -1.0955
  331MPD2    H7 4978   0.939   4.396  13.003  0.2950  0.3771 -1.2579
  332TMC3    C1 4979   1.269   3.724  12.738  0.8145  0.1153 -0.0599
  332TMC3    C2 4980   1.316   3.792  12.631 -0.0398 -0.5981 -0.6446
  332TMC3    C3 4981   1.439   3.749  12.582  0.4403  0.1594 -0.5499
  332TMC3    C4 4982   1.358   3.649  12.808  0.1968 -0.0256  0.0597
  332TMC3    C5 4983   1.481   3.612  12.758  0.1001  0.4282  0.1201
  332TMC3    C6 4984   1.525   3.662  12.642  0.5564  1.1086  0.2114
  332TMC3     C 4985   1.150   3.770  12.793  1.2229 -0.5165  0.0326
  332TMC3     O 4986   1.084   3.692  12.862  0.3933  0.0813 -0.0431
  332TMC3     H 4987   1.252   3.855  12.572 -0.0013 -0.5875 -0.6747
  332TMC3    H1 4988   1.318   3.600  12.896 -1.5602 -2.4430 -2.0914
  332TMC3    H2 4989   1.623   3.640  12.602  0.4488  1.7775 -0.4199
  332TMC3    C7 4990   1.576   3.525  12.832  0.1787  0.0685 -0.6759
  332TMC3    C8 4991   1.497   3.823  12.470 -0.2851  0.1172  0.6270
  332TMC3    O1 4992   1.521   3.440  12.903  0.2376 -0.2487  0.1326
  332TMC3    O2 4993   1.618   3.830  12.469 -0.2624  0.1779 -0.4259
  333MPD2     C 4994   1.813   4.214  11.147  0.0345 -0.0639 -0.3774
  333MPD2    C1 4995   1.804   4.156  11.023  0.2310 -0.5941  0.0804
  333MPD2    C2 4996   1.699   4.062  11.007 -0.6729 -0.1674 -0.5816
  333MPD2    C3 4997   1.610   4.031  11.110  0.0663  0.5681 -0.2103
  333MPD2    C4 4998   1.618   4.102  11.228  0.0114 -0.5619  0.7728
  333MPD2    C5 4999   1.716   4.196  11.243 -1.2349 -0.0205 -0.6484
  333MPD2     H 5000   1.679   4.012  10.913 -3.6663  1.5908 -0.8575
  333MPD2    H1 5001   1.542   4.103  11.305 -0.8380 -1.0078 -0.0530
  333MPD2    H2 5002   1.896   4.282  11.163  0.1082 -0.7648  2.1766
  333MPD2    H3 5003   1.725   4.250  11.337 -0.0257  0.7602 -1.2207
  333MPD2     N 5004   1.516   3.924  11.095  0.2284  0.3168 -0.6783
  333MPD2    H5 5005   1.525   3.875  11.007  0.8911 -0.7851  0.0004
  333MPD2    N1 5006   1.882   4.182  10.908 -0.1091  0.3976 -0.3546
  333MPD2    H7 5007   1.863   4.124  10.827 -2.0924 -0.4217  0.6888
  334TMC3    C1 5008   2.014   4.307  10.760 -0.5657  0.1170 -0.4881
  334TMC3    C2 5009   2.111   4.212  10.725  0.2823 -0.4912  0.1073
  334TMC3    C3 5010   2.225   4.254  10.667  0.2909 -0.3372 -0.3444
  334TMC3    C4 5011   2.031   4.437  10.729 -0.4581 -0.4444  0.3836
  334TMC3    C5 5012   2.146   4.472  10.666 -0.2749 -0.2548  0.5572
  334TMC3    C6 5013   2.250   4.387  10.647 -0.3889  0.4625 -0.4105
  334TMC3     C 5014   1.958   4.293  10.892 -0.2369 -0.6191  0.1089
  334TMC3     O 5015   1.962   4.396  10.959 -0.3095 -0.1075  0.5473
  334TMC3     H 5016   2.099   4.106  10.740 -0.7089 -0.3632  0.2110
  334TMC3    H1 5017   1.966   4.514  10.768 -0.6949 -0.8791  0.8283
  334TMC3    H2 5018   2.339   4.411  10.589 -1.3581  2.1437 -1.1883
  334TMC3    C7 5019   2.156   4.615  10.627 -0.2258  0.3267 -0.3520
  334TMC3    C8 5020   2.331   4.155  10.660 -1.0328 -0.7663  0.1730
  334TMC3    O1 5021   2.266   4.672  10.622 -0.1485  0.6353  0.7647
  334TMC3    O2 5022   2.301   4.042  10.614  0.1466  0.4259  0.0713
  335TMC3    C1 5023   2.129   1.282  17.392 -0.4249  0.6882 -1.1105
  335TMC3    C2 5024   2.025   1.213  17.339  0.1527  0.6594 -0.4125
  335TMC3    C3 5025   1.959   1.279  17.240 -0.4727  0.5715 -0.4566
  335TMC3    C4 5026   2.158   1.411  17.348 -0.5833  0.2639  0.5735
  335TMC3    C5 5027   2.088   1.463  17.244 -0.6574 -0.1745 -0.6790
  335TMC3    C6 5028   1.996   1.399  17.179 -0.0820  0.3545 -0.2068
  335TMC3     C 5029   2.211   1.217  17.495  0.2759  0.1678  0.6140
  335TMC3     O 5030   2.155   1.126  17.557  0.2866 -0.5095 -0.3357
  335TMC3     H 5031   1.991   1.116  17.374 -1.8496  0.8038 -1.9611
  335TMC3    H1 5032   2.244   1.467  17.384  0.5704  0.1651 -2.0868
  335TMC3    H2 5033   1.955   1.444  17.089 -1.0427  0.6632  0.3848
  335TMC3    C7 5034   2.169   1.549  17.161  0.0025 -1.0431 -0.1962
  335TMC3    C8 5035   1.858   1.195  17.174 -0.2102 -0.1719 -0.3466
  335TMC3    O1 5036   2.190   1.523  17.044  0.7690  0.5184  0.1302
  335TMC3    O2 5037   1.896   1.078  17.164 -0.2935  0.4845  0.0022
  336MPD2     C 5038   1.105   3.798  16.261  0.3273  0.2916  0.2583
  336MPD2    C1 5039   1.044   3.742  16.150 -0.3280  1.1930 -0.7764
  336MPD2    C2 5040   1.058   3.605  16.134  0.0018  0.7800 -0.0607
  336MPD2    C3 5041   1.132   3.522  16.210  0.3479 -0.3499  0.2550
  336MPD2    C4 5042   1.187   3.578  16.321 -0.2339  0.5140 -0.1496
  336MPD2    C5 5043   1.166   3.708  16.348 -0.1056 -0.0913 -0.1938
  336MPD2     H 5044   1.017   3.561  16.043 -0.5491  0.0672  0.5336
  336MPD2    H1 5045   1.239   3.516  16.394  3.6893  1.6491 -1.9651
  336MPD2    H2 5046   1.096   3.902  16.289  1.9495  0.2342  0.9951
  336MPD2    H3 5047   1.208   3.757  16.435 -0.2157  3.5272 -2.1486
  336MPD2     N 5048   1.135   3.385  16.172 -1.1221  0.0404 -0.1733
  336MPD2    H5 5049   1.087   3.362  16.086 -0.0435 -3.1210  0.0638
  336MPD2    N1 5050   0.979   3.840  16.066  0.4354  0.1088  0.0379
  336MPD2    H7 5051   0.997   3.937  16.088 -0.3416  0.5225 -1.1583
  337TMC3    C1 5052   0.873   3.916  15.869 -0.0715  0.5085  0.4794
  337TMC3    C2 5053   0.745   3.921  15.809  0.2690 -0.5005 -0.3280
  337TMC3    C3 5054   0.726   4.026  15.719  0.6284 -0.0368  0.9155
  337TMC3    C4 5055   0.965   4.010  15.849 -0.1779  0.0675 -0.6984
  337TMC3    C5 5056   0.950   4.110  15.757 -0.4688  0.4154 -0.2415
  337TMC3    C6 5057   0.827   4.114  15.695 -0.5865  0.7460 -0.2152
  337TMC3     C 5058   0.900   3.805  15.955 -0.0816 -0.8691 -0.8208
  337TMC3     O 5059   0.861   3.699  15.923 -0.3155  0.4574 -0.1863
  337TMC3     H 5060   0.673   3.842  15.823  1.7028 -1.8259 -0.4291
  337TMC3    H1 5061   1.056   4.007  15.909 -0.8639 -0.7757  0.2927
  337TMC3    H2 5062   0.817   4.196  15.624 -1.3192 -0.1121 -1.0981
  337TMC3    C7 5063   1.036   4.226  15.763 -0.5140  0.0291  0.9370
  337TMC3    C8 5064   0.615   4.006  15.625 -0.9423 -0.3385 -0.0638
  337TMC3    O1 5065   0.981   4.337  15.754  0.7045  0.1298 -0.0465
  337TMC3    O2 5066   0.544   3.906  15.635  1.0712  0.1032  0.8009
  338MPD2     C 5067   1.534   2.964   1.215 -0.1714  0.1492 -0.5338
  338MPD2    C1 5068   1.549   3.036   1.100 -0.1159 -0.1095  0.3822
  338MPD2    C2 5069   1.614   3.162   1.109  0.0285 -0.3085 -0.7056
  338MPD2    C3 5070   1.668   3.209   1.230 -0.0310  0.0566  0.0899
  338MPD2    C4 5071   1.653   3.124   1.337 -0.7726  0.2840  0.0534
  338MPD2    C5 5072   1.590   3.005   1.334  0.0420 -0.4996  0.2452
  338MPD2     H 5073   1.635   3.217   1.018 -0.3315 -1.2855 -1.3766
  338MPD2    H1 5074   1.670   3.164   1.436  1.0680  2.7716 -1.2412
  338MPD2    H2 5075   1.492   2.864   1.216 -0.9571  0.4893  0.4243
  338MPD2    H3 5076   1.581   2.957   1.431  0.1563  1.2511  1.1206
  338MPD2     N 5077   1.748   3.331   1.225  0.0758  0.3909  0.3205
  338MPD2    H5 5078   1.738   3.376   1.135 -1.4722  0.6647  0.6215
  338MPD2    N1 5079   1.507   2.985   0.973 -0.4773 -0.2989 -0.3264
  338MPD2    H7 5080   1.514   3.055   0.899  0.0097 -0.8022 -0.7598
  339TMC3    C1 5081   1.887   3.507   1.308 -0.3213 -0.3895  0.4236
  339TMC3    C2 5082   1.838   3.607   1.394 -0.2384  0.0046  0.2636
  339TMC3    C3 5083   1.783   3.715   1.337 -0.7956 -0.8360 -0.4059
  339TMC3    C4 5084   1.890   3.517   1.168 -0.5489 -0.6480  0.7305
  339TMC3    C5 5085   1.857   3.639   1.117 -0.7731 -0.0629 -0.1006
  339TMC3    C6 5086   1.800   3.735   1.201  0.6535  0.3054  0.6403
  339TMC3     C 5087   1.817   3.381   1.332 -0.9897 -0.7639  0.0006
  339TMC3     O 5088   1.816   3.333   1.443 -0.3220 -0.0428  0.3702
  339TMC3     H 5089   1.803   3.583   1.493  1.6766  0.3265  1.0145
  339TMC3    H1 5090   1.938   3.449   1.099  2.5559  1.2381  0.9912
  339TMC3    H2 5091   1.766   3.833   1.168  0.8185  0.7718  1.8503
  339TMC3    C7 5092   1.806   3.652   0.986 -0.2207  0.1727 -0.2421
  339TMC3    C8 5093   1.651   3.759   1.375  0.9473 -0.2612 -0.2619
  339TMC3    O1 5094   1.849   3.586   0.892 -0.3905 -0.2865 -0.3061
  339TMC3    O2 5095   1.565   3.737   1.288  0.1321 -0.1967  0.2612
  340MPD2     C 5096   0.818   1.736   9.834 -0.4137 -0.4171  0.4341
  340MPD2    C1 5097   0.926   1.665   9.793 -0.6961  0.5164 -0.1866
  340MPD2    C2 5098   1.045   1.681   9.869 -0.5522 -0.1693 -0.9468
  340MPD2    C3 5099   1.058   1.760   9.980  0.2836  1.0151 -0.0772
  340MPD2    C4 5100   0.948   1.834  10.014 -0.5638 -0.3776 -0.3973
  340MPD2    C5 5101   0.834   1.821   9.939  0.0776  0.5137  0.3187
  340MPD2     H 5102   1.130   1.627   9.827 -0.1344  0.2957 -0.6983
  340MPD2    H1 5103   0.950   1.908  10.093 -0.0440 -1.6418  0.7799
  340MPD2    H2 5104   0.720   1.731   9.786  0.0560  0.2635 -0.6040
  340MPD2    H3 5105   0.745   1.873   9.970 -1.7261 -2.3462 -0.0476
  340MPD2     N 5106   1.169   1.761  10.065 -0.2612 -0.4639 -0.0592
  340MPD2    H5 5107   1.161   1.830  10.138 -0.3222 -0.8884  0.3324
  340MPD2    N1 5108   0.925   1.572   9.691 -0.0252  0.0949 -0.2852
  340MPD2    H7 5109   1.010   1.522   9.668 -1.1744 -0.7479 -2.7361
  341TMC3    C1 5110   0.848   1.440   9.518  0.7743 -0.9405  0.3230
  341TMC3    C2 5111   0.784   1.316   9.508  0.3524 -0.0672 -0.2795
  341TMC3    C3 5112   0.860   1.219   9.455  0.3025  0.3047 -0.2355
  341TMC3    C4 5113   0.969   1.455   9.458  0.3243  0.2785  0.3204
  341TMC3    C5 5114   1.032   1.350   9.398 -0.7777  0.4318  0.5637
  341TMC3    C6 5115   0.977   1.229   9.391  0.1539 -0.6352 -1.3055
  341TMC3     C 5116   0.813   1.541   9.613  0.3683  0.2106  0.5837
  341TMC3     O 5117   0.693   1.555   9.636 -0.3117 -0.4869 -0.5946
  341TMC3     H 5118   0.698   1.300   9.571  0.6073  1.9404  0.5844
  341TMC3    H1 5119   1.015   1.552   9.477  0.1055  0.3781  0.3451
  341TMC3    H2 5120   1.024   1.140   9.351 -0.0961 -0.5857 -1.6989
  341TMC3    C7 5121   1.151   1.375   9.338  0.2154  0.5748 -0.6541
  341TMC3    C8 5122   0.823   1.084   9.484  0.5225 -0.2234 -0.0882
  341TMC3    O1 5123   1.238   1.286   9.336  0.2218 -0.2799  0.1040
  341TMC3    O2 5124   0.896   1.001   9.539 -1.0801  0.2067  0.2430
  342MPD2     C 5125   3.900   4.106  16.849  0.2009  0.2302 -0.1703
  342MPD2    C1 5126   3.909   4.006  16.946 -0.8127  0.1183  0.0223
  342MPD2    C2 5127   3.836   4.018  17.062 -0.0105 -0.2288 -0.4389
  342MPD2    C3 5128   3.773   4.135  17.092  0.2270  0.5034  0.1637
  342MPD2    C4 5129   3.768   4.238  17.003 -0.0824  0.6183 -0.3588
  342MPD2    C5 5130   3.823   4.219  16.875  0.4232  0.7356 -0.3119
  342MPD2     H 5131   3.843   3.935  17.130  1.3309  0.2986  0.0597
  342MPD2    H1 5132   3.709   4.327  17.023 -0.4964  0.1354  0.5617
  342MPD2    H2 5133   3.962   4.093  16.760 -0.4153 -0.7965 -0.4507
  342MPD2    H3 5134   3.813   4.306  16.811 -0.3438  0.1477 -0.9934
  342MPD2     N 5135   3.730   4.173  17.224 -0.3766 -0.3057  0.0152
  342MPD2    H5 5136   3.690   4.265  17.241  0.2986 -0.0991  0.4564
  342MPD2    N1 5137   3.980   3.890  16.929  0.4730 -0.2020 -0.0534
  342MPD2    H7 5138   3.963   3.818  16.998 -1.3102  0.9689  0.7282
  343TMC3    C1 5139   4.177   3.778  16.880  0.1617 -0.4642 -0.4794
  343TMC3    C2 5140   4.305   3.812  16.861 -0.1806 -0.1190  0.5117
  343TMC3    C3 5141   4.401   3.751  16.937 -0.1480 -0.4424  0.0530
  343TMC3    C4 5142   4.143   3.685  16.979  0.4939  0.1167 -0.2264
  343TMC3    C5 5143   4.246   3.635  17.057 -0.2529 -0.2215 -0.2279
  343TMC3    C6 5144   4.377   3.658  17.036  0.0448 -0.2029  0.8242
  343TMC3     C 5145   4.080   3.875  16.834  0.3492  0.3101 -0.0459
  343TMC3     O 5146   4.135   3.953  16.762 -0.3897  0.0799 -0.1640
  343TMC3     H 5147   4.336   3.887  16.789 -1.3736 -0.8428 -0.7421
  343TMC3    H1 5148   4.037   3.665  16.993 -0.2373  3.5717 -0.7162
  343TMC3    H2 5149   4.457   3.620  17.098 -0.3480 -2.0900  0.1857
  343TMC3    C7 5150   4.203   3.519  17.127 -0.5092 -0.4096 -0.2905
  343TMC3    C8 5151   4.539   3.781  16.920 -0.3811 -0.2892 -0.2807
  343TMC3    O1 5152   4.092   3.478  17.098 -0.1475  0.1577 -0.3422
  343TMC3    O2 5153   4.603   3.769  17.026  0.6398  0.0624  0.0575
  344MPD2     C 5154   0.739   3.795  10.657 -0.3541  0.0726 -0.0896
  344MPD2    C1 5155   0.676   3.710  10.572 -0.6087 -0.0372 -0.0985
  344MPD2    C2 5156   0.704   3.718  10.434  0.0414 -0.7981  0.2677
  344MPD2    C3 5157   0.769   3.826  10.382 -0.6775  0.2094  0.1167
  344MPD2    C4 5158   0.827   3.913  10.471 -0.6140 -0.2004  0.3555
  344MPD2    C5 5159   0.819   3.895  10.609 -0.0683 -0.4307  0.0608
  344MPD2     H 5160   0.657   3.651  10.363  0.6029 -1.6787  0.7203
  344MPD2    H1 5161   0.881   3.996  10.427  2.2330 -1.5358  1.3354
  344MPD2    H2 5162   0.727   3.805  10.764  1.7266 -1.2544  0.2656
  344MPD2    H3 5163   0.869   3.967  10.672 -0.0812  0.7847 -1.3341
  344MPD2     N 5164   0.780   3.855  10.249  1.2968 -0.2130  0.5774
  344MPD2    H5 5165   0.802   3.952  10.230 -4.5518  0.5953 -1.7828
  344MPD2    N1 5166   0.598   3.596  10.615  0.3017  0.5357 -0.8843
  344MPD2    H7 5167   0.594   3.531  10.538  2.8718  0.5579 -1.0119
  345TMC3    C1 5168   0.745   3.853  10.030 -0.7754 -0.3097 -0.2895
  345TMC3    C2 5169   0.802   3.799   9.918  0.2437  0.6133  0.6050
  345TMC3    C3 5170   0.817   3.870   9.797  0.1840  0.6977  0.3929
  345TMC3    C4 5171   0.698   3.985  10.030  0.2198 -0.7326  0.1592
  345TMC3    C5 5172   0.710   4.053   9.915 -0.5824 -0.0576 -0.3094
  345TMC3    C6 5173   0.768   3.998   9.798 -0.2556  0.0177  0.0431
  345TMC3     C 5174   0.751   3.772  10.144 -0.4033  0.6992  0.0464
  345TMC3     O 5175   0.742   3.654  10.156  0.2932 -0.0231  0.3070
  345TMC3     H 5176   0.859   3.707   9.917 -0.5416  0.1519 -2.1212
  345TMC3    H1 5177   0.650   4.026  10.118  0.7150  0.4821 -0.1287
  345TMC3    H2 5178   0.781   4.061   9.711 -0.1991  0.8383  0.6443
  345TMC3    C7 5179   0.665   4.184   9.905  1.5418  0.2370  0.3785
  345TMC3    C8 5180   0.949   3.873   9.735 -0.0060 -0.1866  0.1011
  345TMC3    O1 5181   0.687   4.273   9.986 -0.2442  0.3439 -1.0999
  345TMC3    O2 5182   0.991   3.989   9.733  0.0416  0.1812 -0.4399
  346MPD2     C 5183   0.194   0.944  14.435  0.2214 -0.1359  1.1496
  346MPD2    C1 5184   0.301   0.886  14.369  0.1517 -0.0465  0.3393
  346MPD2    C2 5185   0.420   0.874  14.440  0.1645  0.2252 -0.6748
  346MPD2    C3 5186   0.435   0.919  14.571 -0.4215  0.0581 -0.7232
  346MPD2    C4 5187   0.326   0.961  14.641 -0.1372 -0.1478  0.1113
  346MPD2    C5 5188   0.202   0.969  14.573  0.1089  0.2068  0.5638
  346MPD2     H 5189   0.507   0.833  14.390  0.3076 -0.5334  0.1847
  346MPD2    H1 5190   0.332   0.974  14.748 -1.1895  0.9106  0.0390
  346MPD2    H2 5191   0.094   0.945  14.394  0.2062 -0.9539  1.1605
  346MPD2    H3 5192   0.115   0.999  14.629 -0.6965 -1.5332  0.2552
  346MPD2     N 5193   0.568   0.911  14.623  0.3528  0.1777  0.1452
  346MPD2    H5 5194   0.642   0.885  14.559  0.5965 -0.2174  0.5823
  346MPD2    N1 5195   0.296   0.828  14.235  0.3643  0.1044  0.4234
  346MPD2    H7 5196   0.372   0.782  14.187 -1.4638  0.6371 -2.9856
  347TMC3    C1 5197   0.744   0.992  14.741 -0.0445  0.0775  0.2105
  347TMC3    C2 5198   0.785   1.038  14.622  0.1931 -0.6590  0.5960
  347TMC3    C3 5199   0.916   1.062  14.600  0.1744  0.5816  0.2546
  347TMC3    C4 5200   0.831   0.966  14.845  0.2227 -0.2843 -0.3793
  347TMC3    C5 5201   0.962   1.000  14.823  0.4763  0.0435 -0.0365
  347TMC3    C6 5202   1.007   1.051  14.703  0.7174  0.1620  0.2321
  347TMC3     C 5203   0.606   0.955  14.750 -0.7693  0.2948 -0.3348
  347TMC3     O 5204   0.553   0.978  14.857  0.2886 -0.2326  0.2150
  347TMC3     H 5205   0.709   1.074  14.554  0.9597 -1.7805 -0.8475
  347TMC3    H1 5206   0.794   0.968  14.947  1.2920 -0.6295  0.0201
  347TMC3    H2 5207   1.112   1.058  14.676  0.4931 -1.6275 -1.0819
  347TMC3    C7 5208   1.014   1.060  14.944 -0.8098  0.5462 -0.7558
  347TMC3    C8 5209   0.959   1.166  14.507 -0.6755  0.1330  0.4436
  347TMC3    O1 5210   0.983   1.000  15.048 -0.6602  0.1277  0.0872
  347TMC3    O2 5211   1.043   1.241  14.549 -0.3602  0.8764  0.8174
  348MPD2     C 5212   3.858   0.113  12.132  0.2442  0.5133 -0.9488
  348MPD2    C1 5213   3.986   0.140  12.101 -0.1619 -0.2352  0.6797
  348MPD2    C2 5214   4.024   0.227  12.006  0.3190 -0.0013  0.7999
  348MPD2    C3 5215   3.926   0.290  11.940  0.7269  0.7004 -0.1433
  348MPD2    C4 5216   3.794   0.280  11.982 -0.2459 -0.2187  0.4837
  348MPD2    C5 5217   3.762   0.186  12.075 -0.5514  0.1964  0.2674
  348MPD2     H 5218   4.127   0.224  11.972 -0.2939 -2.5110 -0.8722
  348MPD2    H1 5219   3.711   0.327  11.931  0.4483 -0.7699 -1.1390
  348MPD2    H2 5220   3.839   0.049  12.218 -2.1113 -1.6620 -3.0825
  348MPD2    H3 5221   3.660   0.159  12.099 -0.1474 -0.2895  1.4102
  348MPD2     N 5222   3.964   0.355  11.822  0.3623  0.0268  0.1156
  348MPD2    H5 5223   4.064   0.356  11.803  0.3044 -2.0171 -0.2669
  348MPD2    N1 5224   4.086   0.064  12.153 -0.1258  0.1869 -0.3300
  348MPD2    H7 5225   4.177   0.103  12.132 -0.4562  1.8884  1.4614
  349TMC3    C1 5226   4.212   4.624  12.255  0.6676 -0.9715  0.2055
  349TMC3    C2 5227   4.231   4.489  12.265 -0.3599  0.2459  0.3034
  349TMC3    C3 5228   4.358   4.441  12.278  0.2986 -0.3412  0.0752
  349TMC3    C4 5229   4.317   4.712  12.269  0.2517  0.3811  0.0137
  349TMC3    C5 5230   4.447   4.661  12.265  0.2897  0.3597  0.0770
  349TMC3    C6 5231   4.468   4.527  12.278  1.0278  0.3644  0.4036
  349TMC3     C 5232   4.081   4.671  12.229 -0.0414  0.3947  0.6243
  349TMC3     O 5233   3.990   4.595  12.258  0.2162  0.4025  0.2061
  349TMC3     H 5234   4.154   4.413  12.267  0.5525 -0.6911 -0.1096
  349TMC3    H1 5235   4.302   0.097  12.264  0.5014  0.3808 -0.6754
  349TMC3    H2 5236   4.562   4.492  12.318  0.5834 -0.6017  0.6191
  349TMC3    C7 5237   4.562   0.022  12.282 -0.1417 -0.2047 -0.1218
  349TMC3    C8 5238   4.374   4.298  12.269 -0.7752  0.1087  1.0652
  349TMC3    O1 5239   4.647   4.698  12.361  0.0918 -0.0057 -0.3279
  349TMC3    O2 5240   4.276   4.231  12.302  0.0131 -0.2180 -0.3925
  350MPD2     C 5241   3.049   2.897  10.031  0.3486  0.2396  0.0033
  350MPD2    C1 5242   3.130   2.789  10.034 -0.3599 -0.4104 -0.1600
  350MPD2    C2 5243   3.264   2.809  10.016  0.4900 -0.2598 -0.7549
  350MPD2    C3 5244   3.319   2.936  10.018  0.1427  0.0047 -0.7158
  350MPD2    C4 5245   3.238   3.049  10.006  0.5779 -0.0589 -0.1206
  350MPD2    C5 5246   3.104   3.020  10.009 -0.0289 -0.3301  0.0831
  350MPD2     H 5247   3.323   2.718  10.014  0.0768 -0.5709  1.6170
  350MPD2    H1 5248   3.273   3.150   9.992  0.1809  0.0532 -0.3136
  350MPD2    H2 5249   2.941   2.899  10.021  0.4179 -0.9517 -0.9083
  350MPD2    H3 5250   3.027   3.096  10.008 -1.1441 -1.4486 -1.5147
  350MPD2     N 5251   3.462   2.946  10.021 -0.1188 -0.0568  0.4036
  350MPD2    H5 5252   3.524   2.865  10.022 -0.0359  0.0078  0.5589
  350MPD2    N1 5253   3.083   2.657  10.067 -0.8406 -0.0087 -0.0283
  350MPD2    H7 5254   3.141   2.578  10.037  0.7239  0.8984  0.5995
  351TMC3    C1 5255   2.945   2.473  10.101  0.3467  0.4599  0.4835
  351TMC3    C2 5256   3.056   2.401  10.133 -0.5062  0.0791 -0.3771
  351TMC3    C3 5257   3.059   2.265  10.112 -0.2662 -0.0993 -0.9370
  351TMC3    C4 5258   2.838   2.408  10.049 -0.6366 -0.2100  0.1452
  351TMC3    C5 5259   2.844   2.278  10.023  0.4521  0.5981  0.4862
  351TMC3    C6 5260   2.955   2.201  10.047  0.3982 -0.6851  0.0872
  351TMC3     C 5261   2.950   2.616  10.086 -0.2586  0.1453  0.3757
  351TMC3     O 5262   2.844   2.680  10.065  0.4451 -0.6362  0.0355
  351TMC3     H 5263   3.131   2.451  10.192  0.7047 -3.8014  1.3558
  351TMC3    H1 5264   2.740   2.452  10.036  0.3611  2.8449  2.7629
  351TMC3    H2 5265   2.960   2.093  10.037  3.7091 -0.3863 -1.4524
  351TMC3    C7 5266   2.722   2.196  10.006 -0.1122  0.4480 -0.2810
  351TMC3    C8 5267   3.176   2.195  10.128  0.2023  0.3695  0.6013
  351TMC3    O1 5268   2.610   2.240  10.041 -0.1714 -0.5798  0.5835
  351TMC3    O2 5269   3.268   2.248  10.075 -0.4204  0.2688 -0.4306
  352MPD2     C 5270   1.112   0.439   1.474  0.4611  0.5326 -0.6247
  352MPD2    C1 5271   1.076   0.335   1.389 -0.1264 -0.0280  0.1776
  352MPD2    C2 5272   1.089   0.205   1.439  0.5180 -0.1170  0.5146
  352MPD2    C3 5273   1.163   0.178   1.552  0.4881 -0.3975  0.5492
  352MPD2    C4 5274   1.199   0.281   1.632 -0.3032  0.2586 -0.2462
  352MPD2    C5 5275   1.169   0.410   1.596  0.6999  0.4066 -0.5112
  352MPD2     H 5276   1.051   0.117   1.390 -0.1675 -1.3411  3.2090
  352MPD2    H1 5277   1.253   0.271   1.725  0.1603 -1.2250 -0.6669
  352MPD2    H2 5278   1.094   0.543   1.448 -0.5379  1.2701  2.9771
  352MPD2    H3 5279   1.179   0.498   1.659  2.5235 -0.5052  0.4822
  352MPD2     N 5280   1.207   0.054   1.596  0.3502 -0.1100 -0.5649
  352MPD2    H5 5281   1.239   0.046   1.692  1.3748  1.6655 -0.7646
  352MPD2    N1 5282   1.035   0.355   1.254  0.1167  0.2414  0.2994
  352MPD2    H7 5283   1.032   0.453   1.229 -1.5391  0.0232 -0.3810
  353TMC3    C1 5284   1.249   4.539   1.589  0.2192  0.2555  0.5192
  353TMC3    C2 5285   1.366   4.553   1.661 -0.0842  0.2565  0.9372
  353TMC3    C3 5286   1.450   4.439   1.664  0.3398  0.0859  0.0414
  353TMC3    C4 5287   1.205   4.421   1.541  0.3494 -0.5263 -0.8153
  353TMC3    C5 5288   1.291   4.321   1.538  0.2349  0.1058 -0.3891
  353TMC3    C6 5289   1.413   4.326   1.594  0.3150  0.0244 -0.3756
  353TMC3     C 5290   1.197   4.663   1.524 -0.3309 -0.4611  0.1078
  353TMC3     O 5291   1.158   4.644   1.409  0.4075  0.0060  0.1843
  353TMC3     H 5292   1.402   4.651   1.691  2.6950 -0.7935  1.0684
  353TMC3    H1 5293   1.106   4.419   1.498  0.0846  0.9697 -0.2785
  353TMC3    H2 5294   1.464   4.230   1.585  2.3021  0.8040  2.7029
  353TMC3    C7 5295   1.291   4.252   1.409  0.3976 -0.3811  0.2157
  353TMC3    C8 5296   1.574   4.441   1.730  0.0690 -0.1915  0.4600
  353TMC3    O1 5297   1.403   4.243   1.358  0.0786  0.0981  0.0094
  353TMC3    O2 5298   1.597   4.539   1.802  0.1725 -0.4759  0.0760
  354TMC3    C1 5299   2.717   1.281  13.269 -0.5732 -0.8462 -0.1845
  354TMC3    C2 5300   2.682   1.409  13.258  0.1619  0.4319 -0.1075
  354TMC3    C3 5301   2.604   1.439  13.149  0.1201 -0.3110  0.2959
  354TMC3    C4 5302   2.676   1.179  13.177  0.4399  0.0154  0.3097
  354TMC3    C5 5303   2.630   1.222  13.059 -0.2549  0.4222  0.7349
  354TMC3    C6 5304   2.572   1.346  13.050 -0.6670 -0.0834 -0.0981
  354TMC3     C 5305   2.722   1.240  13.412 -0.2991 -0.3359 -0.1779
  354TMC3     O 5306   2.813   1.284  13.476 -0.1567  0.5457  0.0408
  354TMC3     H 5307   2.734   1.484  13.316 -0.3184  1.3019 -0.8110
  354TMC3    H1 5308   2.738   1.090  13.173 -1.1409 -1.0530 -0.2196
  354TMC3    H2 5309   2.497   1.362  12.974  0.1333 -0.1782 -0.9054
  354TMC3    C7 5310   2.724   1.197  12.946  0.2776 -0.0288 -0.0565
  354TMC3    C8 5311   2.611   1.565  13.078  0.8962  0.1688 -0.8269
  354TMC3    O1 5312   2.809   1.119  12.966  0.0592  0.4425  0.2879
  354TMC3    O2 5313   2.586   1.570  12.959 -0.4049 -0.4636 -0.1568
  355MPD2     C 5314   3.347   2.071  11.994  0.1398 -0.7030 -0.0300
  355MPD2    C1 5315   3.363   2.111  11.860  0.4605  0.4148  0.1410
  355MPD2    C2 5316   3.492   2.130  11.819 -0.2836 -0.5158  0.1153
  355MPD2    C3 5317   3.603   2.129  11.907 -0.2410 -0.9494  0.1116
  355MPD2    C4 5318   3.587   2.080  12.030  0.2219  0.1316 -0.6143
  355MPD2    C5 5319   3.460   2.057  12.071  0.2526  0.2695  0.7017
  355MPD2     H 5320   3.505   2.138  11.711 -2.4847  2.1229  0.0458
  355MPD2    H1 5321   3.670   2.067  12.099  0.2675 -0.6461 -0.8168
  355MPD2    H2 5322   3.250   2.060  12.041  0.2008  0.0732  0.2852
  355MPD2    H3 5323   3.450   2.027  12.175  1.3974 -3.1700 -0.1830
  355MPD2     N 5324   3.730   2.182  11.870 -0.4902  0.0871  0.2061
  355MPD2    H5 5325   3.800   2.185  11.943  0.3060  0.1198 -0.5482
  355MPD2    N1 5326   3.247   2.119  11.779  0.1776  0.1237  0.1478
  355MPD2    H7 5327   3.161   2.086  11.821  0.8610  1.1358  2.3563
  356TMC3    C1 5328   3.882   2.331  11.772  0.6246  0.3165  0.9607
  356TMC3    C2 5329   3.938   2.382  11.655  0.4973 -0.0534 -0.4022
  356TMC3    C3 5330   4.052   2.459  11.666 -0.1017 -0.1136 -0.0613
  356TMC3    C4 5331   3.933   2.358  11.897 -0.3036 -0.4991  0.4882
  356TMC3    C5 5332   4.046   2.427  11.904 -0.1917 -0.5539  0.4737
  356TMC3    C6 5333   4.112   2.474  11.791 -0.4347  0.1191  0.1567
  356TMC3     C 5334   3.759   2.258  11.758  0.0694 -0.0066 -0.2706
  356TMC3     O 5335   3.695   2.270  11.656 -0.0642  0.0499 -0.4867
  356TMC3     H 5336   3.893   2.358  11.559 -1.4458 -0.6331  0.6621
  356TMC3    H1 5337   3.873   2.335  11.984 -2.5814  0.0004 -0.9406
  356TMC3    H2 5338   4.210   2.519  11.800 -0.8422  0.8189  1.1779
  356TMC3    C7 5339   4.060   2.484  12.040 -0.0805  0.4136  0.0001
  356TMC3    C8 5340   4.102   2.524  11.547 -0.8610  0.2858 -0.3475
  356TMC3    O1 5341   4.028   2.421  12.140 -0.2882 -0.6477  0.4116
  356TMC3    O2 5342   4.038   2.496  11.446  0.4602  0.0801  0.3723
  357MPD2     C 5343   3.314   1.844   1.008 -0.7945  0.7851 -0.0626
  357MPD2    C1 5344   3.452   1.884   1.025  0.5470 -0.0102 -0.0512
  357MPD2    C2 5345   3.497   1.956   1.135  0.0214  1.0822 -0.6578
  357MPD2    C3 5346   3.408   1.980   1.238  0.6410  0.0567 -0.3468
  357MPD2    C4 5347   3.275   1.937   1.223  0.6786 -0.1589 -0.0487
  357MPD2    C5 5348   3.224   1.882   1.109  0.5890 -0.3192 -0.9406
  357MPD2     H 5349   3.603   1.961   1.154 -0.0398  1.3211 -0.3789
  357MPD2    H1 5350   3.207   1.969   1.301  1.8065  2.6773 -0.2173
  357MPD2    H2 5351   3.284   1.773   0.932 -0.5348 -0.4616  1.0076
  357MPD2    H3 5352   3.118   1.860   1.099  0.4692 -0.1976  0.0496
  357MPD2     N 5353   3.449   2.039   1.360  0.0260  0.4894 -0.3766
  357MPD2    H5 5354   3.384   2.020   1.436 -0.3340  0.0816 -0.7858
  357MPD2    N1 5355   3.544   1.846   0.922  0.0855  0.3314 -0.0242
  357MPD2    H7 5356   3.507   1.773   0.862  0.1465  0.8231 -0.6680
  358TMC3    C1 5357   3.775   1.807   0.829 -0.0984 -0.4975 -0.3570
  358TMC3    C2 5358   3.735   1.693   0.765 -0.1273  0.1490 -0.4767
  358TMC3    C3 5359   3.819   1.582   0.762 -0.2924 -0.2574 -0.0424
  358TMC3    C4 5360   3.896   1.809   0.889  0.2844  0.0563  0.7388
  358TMC3    C5 5361   3.980   1.703   0.878  0.0240 -0.5414 -0.2255
  358TMC3    C6 5362   3.941   1.587   0.814 -0.0791 -0.2092 -0.0798
  358TMC3     C 5363   3.677   1.890   0.911  0.3202 -0.0786 -0.6552
  358TMC3     O 5364   3.732   1.987   0.964  0.4607 -0.0354 -0.1021
  358TMC3     H 5365   3.635   1.694   0.723 -1.3562  0.6728  2.4338
  358TMC3    H1 5366   3.927   1.900   0.940  2.2657 -0.1541 -0.1045
  358TMC3    H2 5367   4.019   1.521   0.778 -2.3949 -2.6399 -0.6045
  358TMC3    C7 5368   4.111   1.708   0.938 -0.8912 -0.2216  0.6454
  358TMC3    C8 5369   3.761   1.460   0.703  0.5614  0.4505 -0.1650
  358TMC3    O1 5370   4.186   1.617   0.912 -0.5802  0.3411 -0.0201
  358TMC3    O2 5371   3.656   1.469   0.642 -0.1058 -0.2380 -0.1230
  359MPD2     C 5372   3.750   0.339  12.477 -0.4610  0.0366 -0.9517
  359MPD2    C1 5373   3.662   0.374  12.371 -0.1580  0.1291  0.3459
  359MPD2    C2 5374   3.531   0.324  12.365 -0.2207  1.0574  0.6531
  359MPD2    C3 5375   3.495   0.234  12.465 -0.1598  0.1828  0.0239
  359MPD2    C4 5376   3.577   0.199  12.566  0.0623 -0.2633 -0.2500
  359MPD2    C5 5377   3.701   0.260  12.577 -0.7290 -0.2891 -0.3203
  359MPD2     H 5378   3.464   0.353  12.285 -1.3046 -1.5816  0.6040
  359MPD2    H1 5379   3.532   0.139  12.645  1.1969  2.0626  2.1692
  359MPD2    H2 5380   3.854   0.372  12.475 -0.1276 -0.9900 -0.7256
  359MPD2    H3 5381   3.770   0.239  12.657 -0.8602 -1.9437 -0.6381
  359MPD2     N 5382   3.363   0.186  12.477 -0.2136 -0.1553  0.0795
  359MPD2    H5 5383   3.335   0.120  12.549  0.6664  0.1189  0.6772
  359MPD2    N1 5384   3.696   0.466  12.270  0.9739 -0.7572  0.2685
  359MPD2    H7 5385   3.626   0.470  12.196  2.0250  2.0698 -0.5779
  360TMC3    C1 5386   3.827   0.606  12.130  0.4080  0.4263 -0.1640
  360TMC3    C2 5387   3.911   0.715  12.134  0.1483 -0.3064  0.0120
  360TMC3    C3 5388   3.864   0.827  12.075 -0.0479  0.0248  0.4142
  360TMC3    C4 5389   3.706   0.603  12.062 -0.1874 -0.1701 -0.1063
  360TMC3    C5 5390   3.668   0.724  12.009 -0.7943  0.0613  0.5337
  360TMC3    C6 5391   3.738   0.836  12.038  0.1682  0.1567  0.3371
  360TMC3     C 5392   3.825   0.522  12.253 -1.0297 -0.1026 -0.8319
  360TMC3     O 5393   3.912   0.531  12.333 -0.5348 -0.4269  0.4504
  360TMC3     H 5394   4.017   0.712  12.159  0.1378 -0.8373 -0.0076
  360TMC3    H1 5395   3.650   0.510  12.055 -1.7610  0.7417  0.4169
  360TMC3    H2 5396   3.691   0.919  11.987 -2.3752 -2.0283 -0.8680
  360TMC3    C7 5397   3.658   0.710  11.862 -0.1022  0.1557  0.5145
  360TMC3    C8 5398   3.948   0.935  12.027  0.7121  0.4547  0.2825
  360TMC3    O1 5399   3.730   0.792  11.805  0.3950 -0.3298  0.6544
  360TMC3    O2 5400   3.902   1.047  12.010 -0.4677  0.1846 -0.4840
  361MPD2     C 5401   0.037   4.520  16.780 -0.6697  0.2009  0.1574
  361MPD2    C1 5402   0.095   4.578  16.892  0.2004 -0.6294 -0.1847
  361MPD2    C2 5403   0.225   4.544  16.913  0.7719 -0.3240  0.2963
  361MPD2    C3 5404   0.301   4.462  16.830 -0.6946 -0.3449  0.4061
  361MPD2    C4 5405   0.246   4.412  16.715 -0.0754  0.6016  0.0929
  361MPD2    C5 5406   0.107   4.434  16.695 -0.3493  0.2314  0.1224
  361MPD2     H 5407   0.269   4.579  17.006  0.5715  1.0987 -0.1566
  361MPD2    H1 5408   0.294   4.354  16.637  4.4366  2.0040  1.8815
  361MPD2    H2 5409   4.663   4.547  16.739 -1.4459 -3.3636 -0.3812
  361MPD2    H3 5410   0.072   4.401  16.598 -0.1895  2.1974 -0.5991
  361MPD2     N 5411   0.434   4.423  16.860  0.0474  0.0875  0.0079
  361MPD2    H5 5412   0.477   4.363  16.790  0.6439  0.4824  0.0341
  361MPD2    N1 5413   0.027   4.665  16.978 -0.2401  0.4166 -0.2382
  361MPD2    H7 5414   0.081   0.011  17.029 -0.1484 -0.4518  0.8397
  362TMC3    C1 5415   4.577   0.055  17.087  0.6017 -0.1784 -0.2653
  362TMC3    C2 5416   4.475   0.036  17.180 -0.1177 -0.1552  0.3117
  362TMC3    C3 5417   4.432   0.148  17.249  0.3933  0.1218  0.1463
  362TMC3    C4 5418   4.645   0.172  17.079  0.2774 -0.3653 -0.0456
  362TMC3    C5 5419   4.616   0.269  17.163  0.1976 -0.6894  0.6599
  362TMC3    C6 5420   4.501   0.267  17.250  0.3295 -0.5855  0.2922
  362TMC3     C 5421   4.614   4.664  16.998 -0.2244  0.4742 -0.6969
  362TMC3     O 5422   4.531   4.586  16.962  0.2541 -0.4619 -0.4223
  362TMC3     H 5423   4.421   4.665  17.185 -0.6571  0.0949 -0.9250
  362TMC3    H1 5424   4.701   0.194  16.989  0.1851  0.3421  0.0680
  362TMC3    H2 5425   4.480   0.349  17.318  0.2593 -0.6403  0.3361
  362TMC3    C7 5426   4.650   0.402  17.126 -0.2949  0.8797 -0.4817
  362TMC3    C8 5427   4.291   0.154  17.268  0.5015 -0.6286 -0.2391
  362TMC3    O1 5428   4.567   0.483  17.163  0.0499  0.3424  0.2792
  362TMC3    O2 5429   4.224   0.058  17.236  0.2305 -0.8072  0.4171
  363TMC3    C1 5430   3.983   2.327   9.136 -0.1660 -0.3784 -0.5130
  363TMC3    C2 5431   4.064   2.289   9.244 -0.0086 -0.0826 -0.1878
  363TMC3    C3 5432   4.109   2.397   9.325 -0.4149 -0.1697 -0.0962
  363TMC3    C4 5433   3.951   2.458   9.116 -0.0201  0.3696  0.1854
  363TMC3    C5 5434   4.011   2.558   9.195  0.1150  0.2914 -0.4511
  363TMC3    C6 5435   4.096   2.529   9.296  0.4935 -0.0457 -1.0593
  363TMC3     C 5436   3.914   2.231   9.052  0.5587  0.1776 -0.4179
  363TMC3     O 5437   3.866   2.265   8.943  0.3006 -0.6645 -0.3045
  363TMC3     H 5438   4.103   2.188   9.254 -0.6738 -0.3517 -0.3560
  363TMC3    H1 5439   3.868   2.488   9.053 -0.2478 -1.4264 -0.3674
  363TMC3    H2 5440   4.139   2.604   9.361 -1.2963  0.9500 -1.0075
  363TMC3    C7 5441   3.940   2.690   9.192 -0.6682 -0.3894 -0.6210
  363TMC3    C8 5442   4.192   2.363   9.442 -0.2937 -1.3777 -0.3696
  363TMC3    O1 5443   3.853   2.700   9.101  0.1828 -0.0909  0.2435
  363TMC3    O2 5444   4.269   2.451   9.479  0.1168 -1.1608 -0.7660
  364MPD2     C 5445   2.412   1.339  10.312 -0.3972  0.7153 -0.3209
  364MPD2    C1 5446   2.538   1.338  10.257 -0.1356  0.5091  0.3320
  364MPD2    C2 5447   2.626   1.239  10.293 -0.3638  0.6482  0.2626
  364MPD2    C3 5448   2.592   1.135  10.380  0.0754 -0.1677 -0.2426
  364MPD2    C4 5449   2.464   1.131  10.433  0.2013 -0.4121 -0.0440
  364MPD2    C5 5450   2.373   1.229  10.393 -0.0455  0.0289  0.5115
  364MPD2     H 5451   2.732   1.261  10.278 -0.9392  1.9248 -1.9221
  364MPD2    H1 5452   2.431   1.055  10.502  0.1270 -0.3636 -0.0263
  364MPD2    H2 5453   2.331   1.405  10.283 -0.6540 -0.1677 -1.6079
  364MPD2    H3 5454   2.274   1.239  10.437 -1.1776 -1.8240 -1.6310
  364MPD2     N 5455   2.678   1.036  10.422  0.0374 -0.0420 -1.1431
  364MPD2    H5 5456   2.650   0.987  10.507  0.9651  2.0847  0.3993
  364MPD2    N1 5457   2.584   1.452  10.185 -0.0665  0.0462  0.2437
  364MPD2    H7 5458   2.513   1.524  10.178  0.8044  0.8580 -0.1150
  365TMC3    C1 5459   2.745   1.573  10.070  0.5199 -0.4482  0.6061
  365TMC3    C2 5460   2.855   1.565   9.990  0.5101 -0.1094  0.0996
  365TMC3    C3 5461   2.947   1.667  10.006  0.0892 -0.5131 -0.5950
  365TMC3    C4 5462   2.719   1.672  10.165  0.4359 -0.4621  0.9004
  365TMC3    C5 5463   2.816   1.761  10.171 -0.3502 -0.0710  0.1630
  365TMC3    C6 5464   2.928   1.763  10.098 -0.0329  0.6054 -0.5671
  365TMC3     C 5465   2.690   1.446  10.102 -0.6934 -0.5692 -0.1984
  365TMC3     O 5466   2.760   1.352  10.057 -0.2886 -0.0341  0.4065
  365TMC3     H 5467   2.861   1.487   9.915  0.5151 -1.1228  1.1532
  365TMC3    H1 5468   2.637   1.677  10.235 -1.1360 -1.2626 -0.8798
  365TMC3    H2 5469   2.992   1.851  10.098  1.9915 -0.8844  2.2625
  365TMC3    C7 5470   2.798   1.882  10.253 -0.3485  0.6315 -0.2141
  365TMC3    C8 5471   3.074   1.653   9.931 -0.6465 -0.1735  0.6539
  365TMC3    O1 5472   2.864   1.976  10.213  0.3686 -0.1147 -0.8461
  365TMC3    O2 5473   3.143   1.753   9.928  0.3240 -0.0337 -0.0413
  366MPD2     C 5474   0.633   2.592  15.301  0.5414  0.1967  0.9313
  366MPD2    C1 5475   0.734   2.679  15.323  0.3297 -0.2776 -0.1010
  366MPD2    C2 5476   0.864   2.628  15.327  0.2064 -0.2056  0.1266
  366MPD2    C3 5477   0.880   2.492  15.322 -0.7154  0.2025  0.3208
  366MPD2    C4 5478   0.776   2.410  15.304  0.1057  0.3027 -0.2661
  366MPD2    C5 5479   0.650   2.463  15.281  0.5016  0.1810  0.1427
  366MPD2     H 5480   0.951   2.690  15.341 -0.5019  1.2141 -1.8408
  366MPD2    H1 5481   0.781   2.302  15.294  2.9391  0.3721  0.5581
  366MPD2    H2 5482   0.531   2.626  15.282  1.2833  1.2791 -1.0573
  366MPD2    H3 5483   0.570   2.393  15.260  0.8547  0.1462 -1.1238
  366MPD2     N 5484   1.005   2.434  15.353  0.3360 -0.7799  0.2389
  366MPD2    H5 5485   1.072   2.503  15.387 -0.4009 -0.0396  0.1963
  366MPD2    N1 5486   0.712   2.819  15.345 -0.2061  0.2002 -0.1702
  366MPD2    H7 5487   0.799   2.870  15.345  1.7654 -3.2196 -0.1661
  367TMC3    C1 5488   0.587   3.019  15.386  0.5006 -0.4362 -0.3875
  367TMC3    C2 5489   0.705   3.086  15.423 -0.3646  0.5462  0.6110
  367TMC3    C3 5490   0.689   3.216  15.451 -0.4856  0.4087 -0.0483
  367TMC3    C4 5491   0.465   3.075  15.372 -0.1658  0.5941  0.1085
  367TMC3    C5 5492   0.463   3.209  15.410 -1.2079  0.0914  0.1054
  367TMC3    C6 5493   0.567   3.283  15.447 -0.1728 -0.0703  0.2479
  367TMC3     C 5494   0.592   2.880  15.344  0.0362  0.0978 -0.6361
  367TMC3     O 5495   0.482   2.848  15.306 -0.6102  0.1950 -0.2286
  367TMC3     H 5496   0.797   3.031  15.436 -0.7587 -0.6734 -1.7351
  367TMC3    H1 5497   0.368   3.039  15.340  1.3979  0.0401 -4.0686
  367TMC3    H2 5498   0.549   3.383  15.483  1.1619  1.1186 -2.4487
  367TMC3    C7 5499   0.351   3.292  15.391  0.0955 -0.4889 -0.3680
  367TMC3    C8 5500   0.805   3.281  15.497 -0.0544  0.4093 -0.2598
  367TMC3    O1 5501   0.364   3.405  15.349  0.4250  0.3914  0.0139
  367TMC3    O2 5502   0.894   3.211  15.540 -0.3694  0.0631  0.1049
  368MPD2     C 5503   1.763   0.404  13.345  0.3425 -0.2013 -0.2647
  368MPD2    C1 5504   1.759   0.480  13.234  0.3612 -0.0440  0.8087
  368MPD2    C2 5505   1.877   0.497  13.163  0.0870 -0.2695  0.8387
  368MPD2    C3 5506   2.003   0.441  13.202  0.2469 -0.2583 -0.0553
  368MPD2    C4 5507   1.999   0.357  13.313  0.2548  0.6681  1.0462
  368MPD2    C5 5508   1.879   0.343  13.380 -0.1447 -0.1175 -0.2381
  368MPD2     H 5509   1.877   0.566  13.080  1.2073 -0.7434  0.4536
  368MPD2    H1 5510   2.085   0.303  13.350  0.0118  0.5528  1.4421
  368MPD2    H2 5511   1.676   0.386  13.408  1.4163 -1.3369  0.9052
  368MPD2    H3 5512   1.872   0.284  13.471  2.1754  0.3040  0.2002
  368MPD2     N 5513   2.126   0.463  13.130 -0.5140  0.3308 -0.1181
  368MPD2    H5 5514   2.202   0.408  13.169 -1.2613  1.2584  2.6394
  368MPD2    N1 5515   1.636   0.541  13.201  0.5251  0.1709 -0.1304
  368MPD2    H7 5516   1.554   0.534  13.260  0.0694  0.8235 -0.6902
  369TMC3    C1 5517   1.486   0.650  13.052  0.2343  0.2086 -0.1524
  369TMC3    C2 5518   1.485   0.730  12.937 -0.0704  0.0127  0.1708
  369TMC3    C3 5519   1.404   0.688  12.832 -0.0759  1.0917  0.2657
  369TMC3    C4 5520   1.404   0.540  13.054 -0.8771 -0.3566  0.7933
  369TMC3    C5 5521   1.310   0.515  12.956  0.3836 -0.0526  0.0984
  369TMC3    C6 5522   1.307   0.593  12.848  0.3107  0.9009  0.7804
  369TMC3     C 5523   1.621   0.620  13.086 -0.1189  0.4795  0.2374
  369TMC3     O 5524   1.690   0.641  12.990 -0.0931  0.3840 -0.1361
  369TMC3     H 5525   1.559   0.809  12.930  0.8205 -1.0264 -2.2400
  369TMC3    H1 5526   1.411   0.468  13.135 -0.6948 -0.6547  0.5193
  369TMC3    H2 5527   1.239   0.589  12.764  0.1233  3.1193  0.8341
  369TMC3    C7 5528   1.203   0.430  13.006 -0.1063  0.8484 -0.5072
  369TMC3    C8 5529   1.465   0.674  12.705  0.9587  0.3293 -0.7565
  369TMC3    O1 5530   1.200   0.390  13.119 -0.1998 -0.0446 -0.0017
  369TMC3    O2 5531   1.402   0.694  12.601 -0.8135  0.1726 -0.0572
  370TMC3    C1 5532   1.545   0.889  16.002  0.2476  0.9159 -0.0827
  370TMC3    C2 5533   1.598   0.849  16.123  0.4095 -0.0197  0.4097
  370TMC3    C3 5534   1.574   0.726  16.163 -0.5341 -0.1627 -0.4755
  370TMC3    C4 5535   1.469   0.807  15.928 -0.9249  0.0736  0.1860
  370TMC3    C5 5536   1.444   0.680  15.975  0.1213  0.6061 -0.4048
  370TMC3    C6 5537   1.498   0.636  16.088 -0.5682 -0.0891  0.1502
  370TMC3     C 5538   1.613   1.002  15.937 -0.1100  0.7266 -0.3422
  370TMC3     O 5539   1.546   1.063  15.857 -0.2758  0.0514  0.3066
  370TMC3     H 5540   1.665   0.911  16.181 -0.2039  0.1799  0.9056
  370TMC3    H1 5541   1.453   0.831  15.823  1.2245 -1.8234 -0.5793
  370TMC3    H2 5542   1.465   0.540  16.126 -0.1976  0.0897  0.9233
  370TMC3    C7 5543   1.449   0.573  15.874  0.5176  0.7666 -0.7216
  370TMC3    C8 5544   1.604   0.690  16.302 -0.6419  0.1006  0.5336
  370TMC3    O1 5545   1.400   0.596  15.762 -0.2854 -0.1417 -0.5859
  370TMC3    O2 5546   1.592   0.569  16.316 -0.3941  0.2076  0.4673
  371TMC3    C1 5547   2.592   3.518  15.502  0.1323  0.3408 -0.4164
  371TMC3    C2 5548   2.490   3.566  15.585  0.0124 -0.1785  0.7939
  371TMC3    C3 5549   2.464   3.696  15.585  0.0810  0.4518 -0.0160
  371TMC3    C4 5550   2.667   3.601  15.422  0.9055  0.3567  0.3691
  371TMC3    C5 5551   2.636   3.737  15.424  0.1696  0.1185  0.0112
  371TMC3    C6 5552   2.533   3.788  15.509  0.1657 -1.1131  0.0287
  371TMC3     C 5553   2.637   3.385  15.527  0.4425  0.6886  0.1369
  371TMC3     O 5554   2.753   3.357  15.490  0.2954  0.8978 -0.2666
  371TMC3     H 5555   2.442   3.503  15.658 -1.9367 -2.9164 -2.8395
  371TMC3    H1 5556   2.741   3.560  15.355  0.5384 -1.0630  0.8184
  371TMC3    H2 5557   2.521   3.895  15.512 -3.2667 -1.4716 -0.9384
  371TMC3    C7 5558   2.694   3.839  15.339 -0.5711 -1.1095  0.1664
  371TMC3    C8 5559   2.363   3.745  15.678 -0.0028  0.4903 -0.0855
  371TMC3    O1 5560   2.675   3.959  15.366 -0.0360  0.5371  0.7297
  371TMC3    O2 5561   2.311   3.663  15.754 -0.1345 -0.9182 -0.5718
  372MPD2     C 5562   2.113   0.037  13.768  0.5301  0.3556 -0.2415
  372MPD2    C1 5563   2.199   4.649  13.764 -0.4659 -0.5590  0.3138
  372MPD2    C2 5564   2.138   4.517  13.772 -0.6169 -0.4650  0.6712
  372MPD2    C3 5565   2.000   4.503  13.740  0.8126 -0.2104 -1.3897
  372MPD2    C4 5566   1.921   4.614  13.722  1.1992  0.0804  0.1235
  372MPD2    C5 5567   1.977   0.017  13.740  0.8218  0.0958 -0.4410
  372MPD2     H 5568   2.205   4.434  13.789  1.4875  1.2508  0.8424
  372MPD2    H1 5569   1.816   4.591  13.707  1.0874  1.4618 -1.1993
  372MPD2    H2 5570   2.134   0.139  13.800 -0.8190  0.9863 -1.3509
  372MPD2    H3 5571   1.909   0.102  13.737  2.2943  1.3064  0.7772
  372MPD2     N 5572   1.951   4.364  13.727  0.1825  0.7399 -0.7565
  372MPD2    H5 5573   2.020   4.292  13.748  0.0352  0.8846  0.2078
  372MPD2    N1 5574   2.337   4.671  13.802 -0.2594 -0.0671 -0.5686
  372MPD2    H7 5575   2.389   4.591  13.838  2.8446  1.5550 -1.4967
  373TMC3    C1 5576   1.804   4.182  13.733  0.2139  0.2521 -0.2336
  373TMC3    C2 5577   1.687   4.135  13.792  0.5091  0.2299  0.2499
  373TMC3    C3 5578   1.681   4.001  13.823 -0.4715 -0.2864 -0.1718
  373TMC3    C4 5579   1.900   4.101  13.682  0.3095 -0.2837 -0.0296
  373TMC3    C5 5580   1.887   3.969  13.698  0.3031  0.0680  0.8725
  373TMC3    C6 5581   1.774   3.918  13.767  0.0658 -0.3685  0.3314
  373TMC3     C 5582   1.817   4.326  13.720  0.1665  0.0652  0.0877
  373TMC3     O 5583   1.714   4.387  13.712 -0.0307 -0.0799  1.0286
  373TMC3     H 5584   1.618   4.212  13.824 -0.4349 -0.1799 -0.7879
  373TMC3    H1 5585   1.973   4.143  13.614 -0.9770  0.3947 -0.9913
  373TMC3    H2 5586   1.759   3.812  13.785  0.3820 -0.1852  1.6949
  373TMC3    C7 5587   1.976   3.888  13.614  0.3748  0.7486 -0.4638
  373TMC3    C8 5588   1.696   3.981  13.966 -0.3610  0.4207  0.4536
  373TMC3    O1 5589   2.020   3.947  13.514  0.6190  0.0031 -0.0786
  373TMC3    O2 5590   1.755   3.879  14.008  0.3113  0.0972  0.4730
  374TMC3    C1 5591   2.735   0.542   9.825 -0.3433  1.0920  0.1479
  374TMC3    C2 5592   2.870   0.554   9.789 -0.7087  0.0748  0.0409
  374TMC3    C3 5593   2.959   0.465   9.852 -0.1800  0.0734 -0.1562
  374TMC3    C4 5594   2.692   0.450   9.918 -0.3762 -0.8474 -0.1538
  374TMC3    C5 5595   2.790   0.369   9.980 -0.4047 -0.2841 -0.0802
  374TMC3    C6 5596   2.925   0.377   9.953  0.1638 -0.1678  0.2889
  374TMC3     C 5597   2.649   0.658   9.793  0.2500  0.0251  0.1503
  374TMC3     O 5598   2.699   0.742   9.719  0.1671 -0.2566 -0.7996
  374TMC3     H 5599   2.905   0.643   9.737 -0.2457  0.5997  1.2278
  374TMC3    H1 5600   2.588   0.437   9.947 -0.4066 -1.0284 -0.3464
  374TMC3    H2 5601   2.992   0.308  10.004  2.3488 -0.6073 -3.2051
  374TMC3    C7 5602   2.745   0.252  10.055  0.1400  0.1674 -0.0713
  374TMC3    C8 5603   3.095   0.481   9.810  0.6404  0.1084  0.3912
  374TMC3    O1 5604   2.835   0.200  10.122  0.0894 -0.3959  0.3462
  374TMC3    O2 5605   3.112   0.542   9.704  0.2993 -0.1582  0.1117
  375MPD2     C 5606   2.925   1.708  16.691  0.2747  0.2964 -0.1902
  375MPD2    C1 5607   2.879   1.705  16.558 -0.4484  0.2643  0.3092
  375MPD2    C2 5608   2.862   1.584  16.495  0.1931  0.2953 -1.0344
  375MPD2    C3 5609   2.899   1.465  16.551  0.4743  0.6650  0.4150
  375MPD2    C4 5610   2.943   1.472  16.684 -0.1162  0.6802  0.0450
  375MPD2    C5 5611   2.967   1.591  16.746  0.2722  0.0034  0.3472
  375MPD2     H 5612   2.840   1.596  16.389 -1.2873  1.2908 -0.6190
  375MPD2    H1 5613   2.968   1.387  16.747 -2.3041 -0.0984 -0.1491
  375MPD2    H2 5614   2.919   1.790  16.761 -0.3243 -0.1170  0.2482
  375MPD2    H3 5615   2.992   1.589  16.852 -0.1246  0.0602  0.4415
  375MPD2     N 5616   2.903   1.339  16.485  0.2660 -0.6859 -0.1201
  375MPD2    H5 5617   2.931   1.258  16.540  3.3302  0.4847  0.0394
  375MPD2    N1 5618   2.812   1.822  16.505  0.3249 -0.2959 -0.8125
  375MPD2    H7 5619   2.742   1.799  16.435 -1.2980 -1.8467  1.3248
  376TMC3    C1 5620   2.873   1.189  16.310 -0.6561  0.7792 -0.2568
  376TMC3    C2 5621   2.953   1.093  16.377  0.0518  0.2464  0.1375
  376TMC3    C3 5622   2.990   0.978  16.307 -0.3639 -0.0765 -0.4611
  376TMC3    C4 5623   2.836   1.159  16.176 -0.2590  0.2814 -0.0103
  376TMC3    C5 5624   2.890   1.048  16.114 -0.0822  0.0135 -0.0668
  376TMC3    C6 5625   2.959   0.948  16.178 -0.6700  0.2127  0.2184
  376TMC3     C 5626   2.858   1.323  16.356  0.0426 -0.1330 -0.5325
  376TMC3     O 5627   2.781   1.389  16.288  0.1174 -0.3593  0.0139
  376TMC3     H 5628   3.006   1.099  16.471 -1.4504  0.4044  0.9887
  376TMC3    H1 5629   2.780   1.228  16.113 -1.2955 -1.3481 -0.8787
  376TMC3    H2 5630   2.999   0.855  16.138 -0.4597 -1.4410  4.3396
  376TMC3    C7 5631   2.870   1.050  15.970 -0.3339 -0.1664  0.1502
  376TMC3    C8 5632   3.085   0.901  16.378  0.2160  0.4493  0.0281
  376TMC3    O1 5633   2.804   1.132  15.909 -0.1487  0.1335  0.2410
  376TMC3    O2 5634   3.069   0.888  16.499 -0.2421  0.1771 -0.3369
  377MPD2     C 5635   0.776   0.463  12.024 -0.8200 -0.3584  0.3106
  377MPD2    C1 5636   0.825   0.436  12.148 -0.5341  0.1830 -0.0163
  377MPD2    C2 5637   0.731   0.401  12.246  0.4081  0.3570  0.8001
  377MPD2    C3 5638   0.599   0.390  12.207  0.0170 -0.1930 -0.5838
  377MPD2    C4 5639   0.555   0.419  12.079  0.4768  0.5505  0.1156
  377MPD2    C5 5640   0.653   0.449  11.989  0.7252 -0.0665 -0.5060
  377MPD2     H 5641   0.761   0.384  12.349 -1.4994  0.2986  1.3645
  377MPD2    H1 5642   0.451   0.430  12.051  0.4411  0.2310  0.1242
  377MPD2    H2 5643   0.841   0.522  11.960  0.0303  0.1062  1.6071
  377MPD2    H3 5644   0.631   0.494  11.893 -1.2473  1.1015  0.5062
  377MPD2     N 5645   0.492   0.370  12.302  0.6532  0.5071 -0.1964
  377MPD2    H5 5646   0.396   0.358  12.271  0.8029 -1.2105 -0.0142
  377MPD2    N1 5647   0.963   0.467  12.179  0.0586 -0.1626 -0.3077
  377MPD2    H7 5648   1.024   0.488  12.100  1.2097 -0.1265  0.5775
  378TMC3    C1 5649   1.373   0.407  12.211 -0.2507 -0.7364 -0.3942
  378TMC3    C2 5650   1.245   0.451  12.185  0.3372  0.1936 -0.2430
  378TMC3    C3 5651   1.167   0.466  12.300  0.0380 -0.2355 -0.3697
  378TMC3    C4 5652   1.423   0.372  12.332 -0.9938 -0.6930 -0.0626
  378TMC3    C5 5653   1.339   0.375  12.439  0.1242 -0.6300 -0.5240
  378TMC3    C6 5654   1.211   0.429  12.425 -0.1943  0.5547 -0.1511
  378TMC3     C 5655   1.456   0.401  12.092 -0.0658  0.0357  0.2976
  378TMC3     O 5656   1.392   0.400  11.989  0.0982  0.7358 -0.8437
  378TMC3     H 5657   1.216   0.492  12.089 -0.9928  1.5974  0.7609
  378TMC3    H1 5658   1.518   0.321  12.341 -0.0500  1.1437  0.4581
  378TMC3    H2 5659   1.143   0.421  12.509 -0.1222 -1.1080 -0.2511
  378TMC3    C7 5660   1.383   0.355  12.576 -0.2680 -0.2207  0.1348
  378TMC3    C8 5661   1.019   0.488  12.305 -0.1959  0.0944  0.4019
  378TMC3    O1 5662   1.308   0.374  12.669 -0.1867 -0.4031  0.0134
  378TMC3    O2 5663   0.963   0.524  12.408  0.2385 -0.1233 -0.0570
  379MPD2     C 5664   1.973   3.575  16.114 -0.0183 -0.4502  0.0881
  379MPD2    C1 5665   1.865   3.540  16.190 -0.4542 -0.1271 -0.2380
  379MPD2    C2 5666   1.876   3.523  16.329 -0.1901  0.0637 -0.3695
  379MPD2    C3 5667   2.009   3.534  16.383  0.0816 -0.1197 -0.4969
  379MPD2    C4 5668   2.112   3.572  16.303 -0.5782  0.8564 -0.4354
  379MPD2    C5 5669   2.096   3.593  16.171 -0.4754 -0.5670 -0.1867
  379MPD2     H 5670   1.800   3.484  16.396 -0.8201 -1.0511 -1.7285
  379MPD2    H1 5671   2.208   3.584  16.351  0.1817  1.4393 -2.0687
  379MPD2    H2 5672   1.957   3.590  16.008 -1.6846 -0.8182  0.2913
  379MPD2    H3 5673   2.183   3.634  16.121 -2.4476  0.0122 -3.1308
  379MPD2     N 5674   2.047   3.509  16.516  0.7588 -0.6184 -0.6468
  379MPD2    H5 5675   2.146   3.525  16.535  1.1860 -2.5675 -1.2427
  379MPD2    N1 5676   1.750   3.515  16.122  0.2097 -0.2757 -0.2061
  379MPD2    H7 5677   1.764   3.513  16.022  2.8917  1.3317  0.1368
  380TMC3    C1 5678   1.542   3.450  16.057  0.6003 -0.1798 -0.4510
  380TMC3    C2 5679   1.596   3.369  15.960 -0.4243  0.0923 -0.4182
  380TMC3    C3 5680   1.538   3.360  15.838  0.2483 -0.8520 -0.5502
  380TMC3    C4 5681   1.429   3.525  16.034  0.5276  0.2261 -0.2948
  380TMC3    C5 5682   1.371   3.504  15.912 -0.4521  0.5672  1.1246
  380TMC3    C6 5683   1.419   3.420  15.812 -0.1979 -0.7475  0.2692
  380TMC3     C 5684   1.623   3.496  16.166  0.5444  0.3204  0.5114
  380TMC3     O 5685   1.560   3.532  16.266  0.0336  0.3591 -0.1528
  380TMC3     H 5686   1.695   3.325  15.971  0.5675  2.5823  0.5805
  380TMC3    H1 5687   1.395   3.604  16.099 -0.6624 -0.9728  0.5433
  380TMC3    H2 5688   1.379   3.420  15.712 -0.2626  4.0024  0.2902
  380TMC3    C7 5689   1.267   3.593  15.859  0.8480 -0.1854 -0.6229
  380TMC3    C8 5690   1.614   3.308  15.723  0.4061  0.3327  0.0753
  380TMC3    O1 5691   1.277   3.714  15.882 -0.5093 -0.2318  0.0261
  380TMC3    O2 5692   1.593   3.347  15.610  0.3057  0.0635 -0.1219
  381TMC3    C1 5693   1.780   4.480  16.174 -0.0268  0.5688 -0.4533
  381TMC3    C2 5694   1.840   4.597  16.131 -0.5121 -0.4824 -0.2656
  381TMC3    C3 5695   1.833   4.702  16.218 -0.5988 -0.7027  0.1752
  381TMC3    C4 5696   1.719   4.469  16.292 -0.4748 -0.2661  0.4902
  381TMC3    C5 5697   1.717   4.583  16.367  0.1121 -0.4560  0.5235
  381TMC3    C6 5698   1.777   4.700  16.338  1.0573  0.6561  0.4659
  381TMC3     C 5699   1.789   4.371  16.083 -0.3684 -0.1907  0.0137
  381TMC3     O 5700   1.818   4.398  15.963  0.0931  0.0689 -0.1428
  381TMC3     H 5701   1.883   4.601  16.032 -4.0959  2.1028 -1.6915
  381TMC3    H1 5702   1.669   4.381  16.331  0.9410 -1.3719 -0.1732
  381TMC3    H2 5703   1.774   0.060  16.408  0.2693  1.3888 -0.4433
  381TMC3    C7 5704   1.660   4.574  16.499 -0.3692  0.3099  0.3870
  381TMC3    C8 5705   1.899   0.100  16.171  0.4703  0.5909  0.4940
  381TMC3    O1 5706   1.668   4.462  16.543 -0.1139  0.2884 -0.1563
  381TMC3    O2 5707   1.968   0.084  16.074  0.3936  0.3479 -0.4553
  382MPD2     C 5708   0.826   2.217  17.249 -0.2765 -0.1670 -0.4328
  382MPD2    C1 5709   0.727   2.307  17.284 -0.0753  0.1355 -0.0255
  382MPD2    C2 5710   0.601   2.257  17.308  0.2950 -0.7787 -0.0519
  382MPD2    C3 5711   0.569   2.124  17.296 -0.4889  0.6590 -0.3313
  382MPD2    C4 5712   0.671   2.042  17.276 -0.2703 -0.5893  0.9608
  382MPD2    C5 5713   0.800   2.084  17.247  0.1790 -0.4176  0.4453
  382MPD2     H 5714   0.521   2.322  17.342  0.1862 -0.5029 -0.8110
  382MPD2    H1 5715   0.638   1.940  17.262  0.5106 -0.6259 -0.5899
  382MPD2    H2 5716   0.927   2.244  17.221 -0.1223 -1.0629 -0.7477
  382MPD2    H3 5717   0.879   2.016  17.217 -0.0097  0.0716 -1.1738
  382MPD2     N 5718   0.441   2.065  17.324  0.6435 -0.2237 -0.2811
  382MPD2    H5 5719   0.435   1.965  17.345 -1.1124  0.2372  1.4058
  382MPD2    N1 5720   0.736   2.443  17.300  0.1119 -0.4236 -0.1308
  382MPD2    H7 5721   0.657   2.505  17.311  0.5129  0.0956 -0.1771
  383TMC3    C1 5722   0.234   2.063  17.442 -0.2684 -0.1860  0.5021
  383TMC3    C2 5723   0.097   2.062  17.420 -0.9527 -0.1474 -0.1262
  383TMC3    C3 5724   0.022   1.976  17.496  0.4733  0.7507  0.3778
  383TMC3    C4 5725   0.290   1.997  17.550  0.1271 -0.0294 -0.7757
  383TMC3    C5 5726   0.209   1.923  17.631  0.8554 -0.6081 -0.2154
  383TMC3    C6 5727   0.076   1.910  17.607 -0.0210 -0.1428  0.6571
  383TMC3     C 5728   0.323   2.134  17.352  0.6156 -0.7599  0.3966
  383TMC3     O 5729   0.294   2.252  17.329 -0.3514  0.6399  0.0102
  383TMC3     H 5730   0.049   2.131  17.351  0.0794 -0.3421 -1.0338
  383TMC3    H1 5731   0.397   1.985  17.562  0.1524  0.8259 -0.1039
  383TMC3    H2 5732   0.017   1.843  17.668 -0.1313 -2.2562 -1.7741
  383TMC3    C7 5733   0.255   1.871   0.067  0.5538  0.2423 -0.2207
  383TMC3    C8 5734   4.606   1.948  17.467 -0.0460  0.4882  1.4034
  383TMC3    O1 5735   0.188   1.789   0.127  0.4016  0.2915  0.7459
  383TMC3    O2 5736   4.535   2.049  17.437 -0.0835 -0.0731  0.0474
  384MPD2     C 5737   2.031   3.284  11.843  0.7881  0.1086  0.6350
  384MPD2    C1 5738   2.127   3.269  11.941 -0.2681  0.4477  0.1539
  384MPD2    C2 5739   2.239   3.190  11.913 -0.4804  0.0252 -0.1047
  384MPD2    C3 5740   2.256   3.128  11.793 -0.2018 -0.6444 -0.5847
  384MPD2    C4 5741   2.162   3.143  11.697 -0.2657  0.7435 -0.2623
  384MPD2    C5 5742   2.049   3.216  11.726  0.8440  0.1838  0.4240
  384MPD2     H 5743   2.306   3.166  11.995  0.5841 -0.4280 -1.1086
  384MPD2    H1 5744   2.165   3.103  11.596 -3.0710  0.2362 -0.1272
  384MPD2    H2 5745   1.948   3.353  11.852  0.2433 -0.4799  0.1512
  384MPD2    H3 5746   1.979   3.243  11.648  0.2763  2.9517  1.8737
  384MPD2     N 5747   2.368   3.043  11.760 -0.0916 -0.0256  0.1858
  384MPD2    H5 5748   2.360   3.005  11.666  0.2312 -0.5468  0.3674
  384MPD2    N1 5749   2.113   3.333  12.065  0.1917  0.0611  0.3450
  384MPD2    H7 5750   2.019   3.352  12.096 -1.3762 -1.9354 -3.1572
  385TMC3    C1 5751   2.578   2.932  11.790 -0.1677 -0.6375 -0.5275
  385TMC3    C2 5752   2.537   2.840  11.699 -0.3538  0.0820 -0.4278
  385TMC3    C3 5753   2.588   2.708  11.705 -0.5099 -0.1142  0.0946
  385TMC3    C4 5754   2.667   2.896  11.885  0.0247 -0.3751 -0.5219
  385TMC3    C5 5755   2.696   2.761  11.900  0.1385  0.2835  0.2201
  385TMC3    C6 5756   2.666   2.667  11.811 -0.1509  0.3498 -0.7268
  385TMC3     C 5757   2.482   3.034  11.830  0.1087 -1.0215 -0.7136
  385TMC3     O 5758   2.513   3.086  11.935 -0.5006 -0.5525 -0.0321
  385TMC3     H 5759   2.468   2.872  11.621 -0.9167  0.2698  0.1493
  385TMC3    H1 5760   2.710   2.974  11.948  2.3720  0.3455 -3.0071
  385TMC3    H2 5761   2.701   2.565  11.824  0.7608  0.4702 -2.2836
  385TMC3    C7 5762   2.693   2.718  12.039  0.3588  0.2303  0.2349
  385TMC3    C8 5763   2.576   2.622  11.593  0.1514 -0.6051  0.1030
  385TMC3    O1 5764   2.708   2.597  12.064 -0.7278  0.3093 -0.0942
  385TMC3    O2 5765   2.619   2.504  11.604  0.9091  0.0401 -0.3707
  386TMC3    C1 5766   2.834   0.538  11.513  0.3161  0.1803  0.8738
  386TMC3    C2 5767   2.848   0.635  11.415 -0.4198  0.2967  0.0710
  386TMC3    C3 5768   2.743   0.710  11.375 -0.2211  0.3045  0.8337
  386TMC3    C4 5769   2.719   0.513  11.581  0.8983 -0.3911  0.8130
  386TMC3    C5 5770   2.621   0.597  11.545  0.7111 -0.1802 -0.5378
  386TMC3    C6 5771   2.627   0.695  11.447 -0.3516  0.5974  0.1777
  386TMC3     C 5772   2.955   0.451  11.529 -0.4062  0.2416  0.0236
  386TMC3     O 5773   3.055   0.481  11.465  0.5826  0.0290  0.1085
  386TMC3     H 5774   2.946   0.643  11.368 -0.0987  1.5451  0.9485
  386TMC3    H1 5775   2.707   0.428  11.647 -3.0874 -1.7951 -1.7537
  386TMC3    H2 5776   2.550   0.771  11.435 -0.1361  0.5234 -1.6582
  386TMC3    C7 5777   2.498   0.595  11.626  0.4232  0.0923  0.8811
  386TMC3    C8 5778   2.717   0.729  11.235  0.2806 -0.3807  0.7768
  386TMC3    O1 5779   2.400   0.663  11.595  0.3818  0.1633 -0.1310
  386TMC3    O2 5780   2.609   0.776  11.209  0.0898 -0.0114  0.0692
  387MPD2     C 5781   0.100   1.016   9.936 -0.2131 -0.0445 -0.5143
  387MPD2    C1 5782   0.205   0.978  10.011  0.8188 -0.3014  0.0439
  387MPD2    C2 5783   0.241   0.849  10.015  0.5876 -0.6293  0.1342
  387MPD2    C3 5784   0.183   0.753   9.944  0.1769  0.1551 -0.3129
  387MPD2    C4 5785   0.079   0.786   9.860  0.2370  0.2664  0.3027
  387MPD2    C5 5786   0.035   0.921   9.867  0.2984 -0.1631 -0.5311
  387MPD2     H 5787   0.330   0.835  10.076  0.6652  2.5089  0.7258
  387MPD2    H1 5788   0.021   0.715   9.803 -1.2747  1.3763  0.4597
  387MPD2    H2 5789   0.064   1.118   9.927  0.0329  0.2828  2.3615
  387MPD2    H3 5790   4.684   0.956   9.796  1.1861 -0.6123 -1.6808
  387MPD2     N 5791   0.227   0.621   9.955 -0.0863  0.3738  0.7322
  387MPD2    H5 5792   0.299   0.592  10.020 -0.5989 -1.1937  0.5989
  387MPD2    N1 5793   0.293   1.070  10.075  0.8199  0.1938 -0.1124
  387MPD2    H7 5794   0.360   1.022  10.134  1.5853  1.1435 -0.2258
  388TMC3    C1 5795   0.418   1.245  10.138 -0.2481 -0.3863  0.4878
  388TMC3    C2 5796   0.421   1.360  10.203  0.3986 -0.1959  0.2334
  388TMC3    C3 5797   0.527   1.387  10.286 -0.0868 -0.2994  0.0788
  388TMC3    C4 5798   0.521   1.152  10.155 -0.6264  0.4199 -0.3315
  388TMC3    C5 5799   0.615   1.177  10.249  0.4768  0.5463  0.0897
  388TMC3    C6 5800   0.623   1.299  10.310 -0.6189  0.4594  0.2288
  388TMC3     C 5801   0.298   1.204  10.060 -0.3411  0.1569  0.1926
  388TMC3     O 5802   0.238   1.275   9.980  0.6825  0.5203 -0.2696
  388TMC3     H 5803   0.338   1.426  10.182  2.4300  2.7199  1.4497
  388TMC3    H1 5804   0.529   1.073  10.082  0.1022  0.2016 -0.0200
  388TMC3    H2 5805   0.716   1.324  10.361 -1.5436  1.6810  1.3005
  388TMC3    C7 5806   0.731   1.091  10.234 -0.7256  0.0367 -0.0232
  388TMC3    C8 5807   0.503   1.485  10.398 -0.4731 -0.3443 -0.5300
  388TMC3    O1 5808   0.847   1.137  10.242 -0.4130  0.3125 -0.2383
  388TMC3    O2 5809   0.394   1.539  10.385 -0.6418  0.0186  0.1511
  389MPD2     C 5810   4.529   3.554  11.345 -0.3957  0.1149  0.1924
  389MPD2    C1 5811   4.458   3.509  11.238 -0.6205  0.2804 -0.2530
  389MPD2    C2 5812   4.379   3.399  11.260 -0.1701  0.1088  0.1798
  389MPD2    C3 5813   4.362   3.344  11.390  0.4655 -0.4539 -0.3516
  389MPD2    C4 5814   4.425   3.404  11.495  0.5461  0.3070  0.4158
  389MPD2    C5 5815   4.506   3.511  11.468 -0.1971 -0.6531  0.4295
  389MPD2     H 5816   4.339   3.359  11.168  0.9845  1.0627 -0.7211
  389MPD2    H1 5817   4.424   3.362  11.595  0.0406 -0.1922  0.2031
  389MPD2    H2 5818   4.592   3.642  11.338  0.0371 -0.2192 -0.0865
  389MPD2    H3 5819   4.566   3.554  11.548  0.3871  0.0225 -0.3814
  389MPD2     N 5820   4.279   3.232  11.422  0.5441 -0.3523 -0.0142
  389MPD2    H5 5821   4.277   3.202  11.518  0.1736 -0.9904 -0.2198
  389MPD2    N1 5822   4.458   3.579  11.114  1.1045 -0.7001 -0.1110
  389MPD2    H7 5823   4.518   3.660  11.120  0.0197  0.1271 -0.5813
  390TMC3    C1 5824   4.115   3.068  11.375 -0.2302 -0.2847 -0.0662
  390TMC3    C2 5825   4.095   3.054  11.513 -0.5249  0.1008  0.2107
  390TMC3    C3 5826   4.029   2.938  11.550 -0.8637  0.0491  0.2074
  390TMC3    C4 5827   4.055   2.983  11.290 -0.2947  0.1077 -0.1206
  390TMC3    C5 5828   3.981   2.875  11.331 -0.0948 -0.9136  0.1135
  390TMC3    C6 5829   3.964   2.854  11.466 -0.9912  0.9296  0.0883
  390TMC3     C 5830   4.206   3.167  11.322  0.0633 -0.3150  0.2110
  390TMC3     O 5831   4.214   3.178  11.200  0.0203  0.3826  0.2716
  390TMC3     H 5832   4.128   3.127  11.586  2.2573  0.9611 -1.9257
  390TMC3    H1 5833   4.066   2.999  11.183  2.1387 -0.8553 -0.0079
  390TMC3    H2 5834   3.922   2.766  11.512 -0.7260  0.6269 -0.2470
  390TMC3    C7 5835   3.871   2.843  11.254  0.0535 -0.9222 -0.0190
  390TMC3    C8 5836   3.985   2.938  11.693 -0.7681  1.1905  0.2556
  390TMC3    O1 5837   3.883   2.836  11.132  0.3317 -0.2264 -0.0062
  390TMC3    O2 5838   3.998   2.826  11.740  0.4273  0.0695  0.0629
  391MPD2     C 5839   3.661   0.102  11.187  0.5086  0.7037 -0.4652
  391MPD2    C1 5840   3.775   0.170  11.153  1.2254  0.1057 -0.1782
  391MPD2    C2 5841   3.805   0.191  11.022 -0.0856  0.5194  0.2701
  391MPD2    C3 5842   3.727   0.136  10.916  0.4357  0.5079 -0.2327
  391MPD2    C4 5843   3.614   0.063  10.954  0.3770 -0.5021  0.1031
  391MPD2    C5 5844   3.584   0.046  11.087 -0.1783  0.5970  1.0918
  391MPD2     H 5845   3.892   0.249  10.995 -0.5909  1.5405  0.8022
  391MPD2    H1 5846   3.551   0.008  10.886  0.8839  0.2923 -1.0071
  391MPD2    H2 5847   3.621   0.102  11.288 -0.3173  0.9630 -0.7997
  391MPD2    H3 5848   3.495   4.708  11.102  0.5029 -0.7554 -0.3570
  391MPD2     N 5849   3.765   0.156  10.784  0.0088 -0.2162  0.7421
  391MPD2    H5 5850   3.856   0.198  10.769  0.6069 -1.1923  1.6057
  391MPD2    N1 5851   3.844   0.218  11.263 -0.5578 -0.4760 -0.4589
  391MPD2    H7 5852   3.825   0.174  11.353 -1.2133 -0.6641 -0.6933
  392TMC3    C1 5853   3.743   0.185  10.546  0.5311 -0.2060 -0.7010
  392TMC3    C2 5854   3.650   0.197  10.444 -0.0235  0.3876 -0.6662
  392TMC3    C3 5855   3.678   0.289  10.342  0.3343 -0.3031  0.3140
  392TMC3    C4 5856   3.862   0.253  10.544  0.0606  0.6421 -0.6703
  392TMC3    C5 5857   3.877   0.342  10.447  0.3683  0.2041 -0.4557
  392TMC3    C6 5858   3.788   0.364  10.348 -0.0124 -0.1711 -0.1789
  392TMC3     C 5859   3.682   0.152  10.679 -0.1518  0.1345  0.3428
  392TMC3     O 5860   3.561   0.147  10.677 -0.2027  0.8440  0.1346
  392TMC3     H 5861   3.563   0.133  10.436  1.2122 -1.1918 -1.2922
  392TMC3    H1 5862   3.935   0.235  10.622 -0.6506  0.9215  0.0644
  392TMC3    H2 5863   3.793   0.457  10.292  0.6306  0.1384  0.3940
  392TMC3    C7 5864   4.006   0.426  10.450  0.3145 -0.3782  0.8392
  392TMC3    C8 5865   3.579   0.302  10.238  0.1826 -0.4754  0.8420
  392TMC3    O1 5866   4.052   0.430  10.561  0.0162 -0.1356  0.4002
  392TMC3    O2 5867   3.468   0.273  10.270  0.4822 -0.5386  0.1365
  393TMC3    C1 5868   3.149   3.004  10.361  0.0940  0.1807  0.0184
  393TMC3    C2 5869   3.014   2.980  10.391  0.3587  0.3353  0.2924
  393TMC3    C3 5870   2.979   2.856  10.431 -0.1654 -0.4280 -0.7258
  393TMC3    C4 5871   3.241   2.903  10.351 -0.2263  0.2401 -0.4690
  393TMC3    C5 5872   3.207   2.778  10.390  0.1848  0.0474  0.6361
  393TMC3    C6 5873   3.078   2.753  10.431  0.2983 -0.3362  0.1658
  393TMC3     C 5874   3.196   3.138  10.343 -0.3931 -0.2886 -0.4750
  393TMC3     O 5875   3.316   3.152  10.353  0.0684 -0.4965 -0.0232
  393TMC3     H 5876   2.943   3.061  10.400  0.9203  1.0123 -1.3588
  393TMC3    H1 5877   3.331   2.930  10.297 -0.0891  0.7358  0.0010
  393TMC3    H2 5878   3.051   2.650  10.453  1.7822 -0.7217  0.1873
  393TMC3    C7 5879   3.288   2.661  10.349  0.1249  0.4362  0.8638
  393TMC3    C8 5880   2.840   2.839  10.475 -0.6952  0.3417 -0.1290
  393TMC3    O1 5881   3.246   2.549  10.375 -0.0878 -0.0023  0.1757
  393TMC3    O2 5882   2.764   2.930  10.451 -0.0817 -0.6960 -0.2329
  394TMC3    C1 5883   4.417   3.665  10.907  0.1272 -0.4977  0.2337
  394TMC3    C2 5884   4.313   3.663  10.819  0.1953 -0.0510  0.1223
  394TMC3    C3 5885   4.346   3.658  10.686 -0.2485 -0.4074  0.0876
  394TMC3    C4 5886   4.553   3.678  10.870 -1.0034 -0.4127  0.3718
  394TMC3    C5 5887   4.579   3.678  10.733  0.0647 -0.6667  0.9349
  394TMC3    C6 5888   4.474   3.678  10.643 -0.5213 -0.1088 -0.4906
  394TMC3     C 5889   4.385   3.563  11.001  0.2405 -0.0409  0.0913
  394TMC3     O 5890   4.302   3.474  10.980  0.1522  0.0380 -0.0478
  394TMC3     H 5891   4.213   3.634  10.847 -1.0177  4.5657  0.5296
  394TMC3    H1 5892   4.638   3.648  10.930 -0.3328  2.9258  1.0721
  394TMC3    H2 5893   4.492   3.690  10.536 -2.2689  1.3286 -0.6315
  394TMC3    C7 5894   4.711   3.714  10.693  0.2476  0.5175 -0.2985
  394TMC3    C8 5895   4.242   3.629  10.590 -0.7233  0.3159  0.7755
  394TMC3    O1 5896   0.043   3.797  10.762 -0.4401  0.0535 -0.2966
  394TMC3    O2 5897   4.126   3.651  10.628  0.2353 -0.5780 -0.1222
  395TMC3    C1 5898   4.091   1.008  15.172 -0.5235  0.7718  0.0634
  395TMC3    C2 5899   4.123   0.932  15.068  0.2044 -0.4226  0.2809
  395TMC3    C3 5900   4.222   0.981  14.987 -0.2782 -0.2956  0.5038
  395TMC3    C4 5901   4.162   1.118  15.214  0.1396 -0.1063 -0.4223
  395TMC3    C5 5902   4.272   1.156  15.145  0.1404  0.2219 -0.4988
  395TMC3    C6 5903   4.294   1.090  15.022  0.1137 -0.8362  0.5226
  395TMC3     C 5904   3.959   0.985  15.239 -0.0487 -0.5623  0.3593
  395TMC3     O 5905   3.909   1.079  15.300 -0.8041  0.1531 -0.0281
  395TMC3     H 5906   4.061   0.848  15.042 -1.6787  1.2877 -0.7995
  395TMC3    H1 5907   4.121   1.186  15.288 -0.8785 -1.7251  0.5016
  395TMC3    H2 5908   4.369   1.117  14.949 -0.3697 -0.2345  0.2486
  395TMC3    C7 5909   4.342   1.274  15.192 -0.1367  0.3802 -0.1513
  395TMC3    C8 5910   4.222   0.944  14.848  1.1664 -0.0237 -0.0464
  395TMC3    O1 5911   4.305   1.331  15.291 -0.1110 -0.5188 -0.1028
  395TMC3    O2 5912   4.324   0.977  14.789 -0.7048  0.1457 -0.5006
  396MPD2     C 5913   3.353   1.631  17.687  0.0549 -0.0322 -0.6340
  396MPD2    C1 5914   3.302   1.635  17.558 -0.7988 -0.2804 -0.2043
  396MPD2    C2 5915   3.287   1.755  17.487 -0.6477 -0.0766 -0.0375
  396MPD2    C3 5916   3.335   1.870  17.552  0.0996 -0.0745 -0.4565
  396MPD2    C4 5917   3.389   1.858  17.675  0.2113  0.0874 -0.7050
  396MPD2    C5 5918   3.412   1.738   0.046  0.8512  0.1646  0.4339
  396MPD2     H 5919   3.248   1.762  17.386 -1.4985 -0.7618  0.2391
  396MPD2    H1 5920   3.428   1.946   0.032 -0.4315 -0.0361  0.0217
  396MPD2    H2 5921   3.369   1.539   0.050 -0.0381 -0.0964 -0.7131
  396MPD2    H3 5922   3.464   1.746   0.142 -1.6696 -2.3652  1.9871
  396MPD2     N 5923   3.320   1.997  17.482 -0.5028  0.3927  0.4321
  396MPD2    H5 5924   3.289   1.994  17.386 -0.7441  2.6922  0.4319
  396MPD2    N1 5925   3.262   1.505  17.500 -0.2286  0.6490 -0.1787
  396MPD2    H7 5926   3.281   1.420  17.551  0.3589  1.5203  1.0688
  397TMC3    C1 5927   3.240   1.340  17.332  0.4316 -0.7581 -0.0551
  397TMC3    C2 5928   3.239   1.319  17.204 -0.1524 -0.3648 -0.5014
  397TMC3    C3 5929   3.293   1.197  17.163  0.5308  0.1571  0.0865
  397TMC3    C4 5930   3.313   1.254  17.422  0.3345 -0.1148 -0.1255
  397TMC3    C5 5931   3.355   1.140  17.370  0.1015  0.2308 -0.1375
  397TMC3    C6 5932   3.336   1.099  17.241 -0.3303 -0.0306  0.8144
  397TMC3     C 5933   3.241   1.480  17.364 -0.3449 -0.1892 -0.5284
  397TMC3     O 5934   3.224   1.562  17.272  0.4849  0.5180 -0.1038
  397TMC3     H 5935   3.182   1.381  17.136 -0.1571  0.1922  0.0157
  397TMC3    H1 5936   3.316   1.270  17.529 -1.0327 -0.2047 -0.0682
  397TMC3    H2 5937   3.383   1.009  17.202  2.0816  1.1177  1.0141
  397TMC3    C7 5938   3.437   1.050  17.444  0.0419  0.5786  0.3125
  397TMC3    C8 5939   3.280   1.163  17.024 -1.0016 -0.5107  0.0867
  397TMC3    O1 5940   3.434   0.935  17.403 -0.8846 -0.3159  0.0828
  397TMC3    O2 5941   3.291   1.044  16.997 -0.3327  0.8626  0.2529
  398MPD2     C 5942   1.798   3.000   0.397  0.1184  0.7562  0.2354
  398MPD2    C1 5943   1.838   2.878   0.450  0.1527  0.2505 -0.2840
  398MPD2    C2 5944   1.856   2.873   0.588  0.2848 -0.1692 -0.5580
  398MPD2    C3 5945   1.847   2.983   0.660  1.0637 -0.3606  0.3847
  398MPD2    C4 5946   1.807   3.103   0.608 -0.0414 -0.3306  0.4774
  398MPD2    C5 5947   1.787   3.112   0.475  0.3399  0.1318 -0.4671
  398MPD2     H 5948   1.877   2.777   0.635 -0.3520  0.1917  0.4651
  398MPD2    H1 5949   1.802   3.199   0.659  0.9388  0.1821 -0.3815
  398MPD2    H2 5950   1.788   3.017   0.290  1.3979  0.3424  0.0525
  398MPD2    H3 5951   1.747   3.205   0.437 -0.2244  0.7089  1.5552
  398MPD2     N 5952   1.877   2.963   0.798  0.6533  0.7075 -0.6256
  398MPD2    H5 5953   1.900   2.870   0.830 -0.4673  1.3295  2.0490
  398MPD2    N1 5954   1.842   2.761   0.376  0.1492 -0.2589  0.2389
  398MPD2    H7 5955   1.876   2.678   0.424  0.6725  1.1689  2.3564
  399TMC3    C1 5956   1.796   2.607   0.209 -0.5332 -0.4387 -0.9493
  399TMC3    C2 5957   1.906   2.538   0.254  0.2444 -0.2066 -0.5510
  399TMC3    C3 5958   1.918   2.414   0.209  0.0219  0.2304 -0.0467
  399TMC3    C4 5959   1.704   2.556   0.131 -0.0757 -0.5186 -0.7072
  399TMC3    C5 5960   1.713   2.427   0.098  0.5048  0.0485  0.2896
  399TMC3    C6 5961   1.826   2.352   0.130  0.2778 -0.1467 -0.2638
  399TMC3     C 5962   1.791   2.746   0.251 -0.6044 -0.3452 -0.3448
  399TMC3     O 5963   1.737   2.826   0.176 -0.1830  0.0118  0.3105
  399TMC3     H 5964   1.996   2.587   0.290 -0.4994  1.1037 -0.5023
  399TMC3    H1 5965   1.620   2.620   0.104  0.1655  0.3133  0.5104
  399TMC3    H2 5966   1.860   2.263   0.078 -1.8020 -0.0064 -1.9008
  399TMC3    C7 5967   1.608   2.356   0.019 -0.4413 -0.3825  0.2330
  399TMC3    C8 5968   2.025   2.340   0.258 -0.6553  0.1315  0.3166
  399TMC3    O1 5969   1.618   2.232   0.020  0.4793 -0.1200  0.1221
  399TMC3    O2 5970   2.134   2.391   0.282  0.4567  0.6396  0.0861
  400TMC3    C1 5971   0.711   1.939  16.875 -0.1847 -0.4143 -0.3752
  400TMC3    C2 5972   0.583   1.916  16.916  0.3745  0.1105 -0.4017
  400TMC3    C3 5973   0.494   2.020  16.913 -0.0388 -0.2917  0.2014
  400TMC3    C4 5974   0.749   2.065  16.826  0.8317  0.0020 -0.2273
  400TMC3    C5 5975   0.646   2.155  16.812 -0.1245  0.2731  0.1965
  400TMC3    C6 5976   0.520   2.147  16.852 -0.5427 -0.0543  0.4001
  400TMC3     C 5977   0.809   1.849  16.929  0.6211 -0.1559  0.2835
  400TMC3     O 5978   0.770   1.743  16.978 -0.2024  0.2416  0.4234
  400TMC3     H 5979   0.560   1.835  16.985  2.0843  1.6139  1.9199
  400TMC3    H1 5980   0.847   2.089  16.786 -0.0835  1.8009 -1.3889
  400TMC3    H2 5981   0.440   2.218  16.838 -0.8429 -0.7915 -1.7583
  400TMC3    C7 5982   0.695   2.288  16.799  0.6410  0.4478  0.3813
  400TMC3    C8 5983   0.357   2.017  16.972  0.8830  0.3043 -0.4540
  400TMC3    O1 5984   0.756   2.318  16.698  0.0193 -0.1977  0.4052
  400TMC3    O2 5985   0.293   2.122  16.972  0.2532  0.3979 -0.3997
  401MPD2     C 5986   3.002   4.171   0.461  0.3312  0.5296  0.2482
  401MPD2    C1 5987   3.065   4.193   0.587  0.5857 -0.9948  0.4806
  401MPD2    C2 5988   3.045   4.095   0.681 -0.3522 -0.5353 -0.2541
  401MPD2    C3 5989   2.979   3.976   0.653 -0.9256  0.2716 -0.2615
  401MPD2    C4 5990   2.916   3.962   0.532 -0.6785 -0.0726 -0.1126
  401MPD2    C5 5991   2.928   4.063   0.432  0.5099 -0.0836  0.2406
  401MPD2     H 5992   3.096   4.116   0.775 -0.5080 -0.9080 -0.0876
  401MPD2    H1 5993   2.859   3.874   0.507  0.4170 -0.2004 -2.2124
  401MPD2    H2 5994   3.011   4.234   0.373  0.5242 -2.1052 -1.6297
  401MPD2    H3 5995   2.900   4.039   0.331  1.7696  0.1264 -0.1644
  401MPD2     N 5996   2.985   3.867   0.743  0.0442  0.1591 -0.1755
  401MPD2    H5 5997   3.047   3.872   0.823 -1.0895  0.4065  0.6945
  401MPD2    N1 5998   3.145   4.303   0.621  0.1352  0.0156  0.4862
  401MPD2    H7 5999   3.182   4.304   0.715  2.8531 -2.5333 -0.5568
  402TMC3    C1 6000   2.945   3.658   0.848  0.1476  0.1183  0.0409
  402TMC3    C2 6001   2.978   3.733   0.956 -0.1420  0.4687  0.0836
  402TMC3    C3 6002   3.088   3.684   1.026  0.1980 -0.1806  0.0001
  402TMC3    C4 6003   3.009   3.548   0.812 -0.2157  0.1556 -0.5538
  402TMC3    C5 6004   3.121   3.509   0.877 -0.7465  0.7710 -0.5677
  402TMC3    C6 6005   3.159   3.572   0.992  0.0781 -0.1532  0.2439
  402TMC3     C 6006   2.936   3.741   0.730  0.5668  0.1932 -0.0477
  402TMC3     O 6007   2.890   3.681   0.634 -0.6245 -0.4956  0.2811
  402TMC3     H 6008   2.922   3.823   0.979 -0.3990  0.2190  0.4336
  402TMC3    H1 6009   2.990   3.508   0.713 -3.1568  2.1094 -0.7457
  402TMC3    H2 6010   3.234   3.534   1.060  0.3789  1.1582  0.6292
  402TMC3    C7 6011   3.235   3.486   0.793  0.0104  0.4351  0.0332
  402TMC3    C8 6012   3.167   3.782   1.094  0.3304  0.0534 -0.0336
  402TMC3    O1 6013   3.218   3.433   0.686  0.2676 -0.1090  0.7343
  402TMC3    O2 6014   3.285   3.767   1.078  0.0584 -0.0096  0.3884
  403MPD2     C 6015   1.803   2.655  13.111  0.3574  0.1469  0.4390
  403MPD2    C1 6016   1.893   2.617  13.215 -0.2116  0.1733  0.0618
  403MPD2    C2 6017   2.013   2.678  13.213  0.5628 -0.3712 -0.3426
  403MPD2    C3 6018   2.051   2.776  13.117  0.0450 -0.3048 -0.2881
  403MPD2    C4 6019   1.960   2.815  13.025 -0.0155  0.0244  0.1818
  403MPD2    C5 6020   1.836   2.752  13.026  0.9224 -0.0075  0.1658
  403MPD2     H 6021   2.081   2.670  13.297  0.2575 -1.0357 -0.1589
  403MPD2    H1 6022   1.979   2.888  12.948  0.6563 -0.4278 -0.0812
  403MPD2    H2 6023   1.702   2.616  13.114  0.1424  0.4897 -2.4807
  403MPD2    H3 6024   1.765   2.794  12.956  0.6993 -0.0612  0.3625
  403MPD2     N 6025   2.169   2.843  13.144  0.4277 -0.3478 -0.1774
  403MPD2    H5 6026   2.232   2.803  13.213 -1.6445 -0.8054  1.4575
  403MPD2    N1 6027   1.850   2.527  13.314 -0.5621 -0.0378 -0.0161
  403MPD2    H7 6028   1.756   2.489  13.308 -1.3129  1.4803  2.0140
  404TMC3    C1 6029   1.847   2.415  13.520  0.2718 -0.4272  0.2542
  404TMC3    C2 6030   1.884   2.440  13.645 -0.5497 -0.4920  0.4073
  404TMC3    C3 6031   1.834   2.358  13.744 -0.0150  0.0790 -0.0920
  404TMC3    C4 6032   1.768   2.315  13.473 -0.0888  0.6705 -0.1324
  404TMC3    C5 6033   1.720   2.232  13.577 -0.2151  0.1380  0.0714
  404TMC3    C6 6034   1.741   2.265  13.709 -0.0482 -0.4508 -0.0060
  404TMC3     C 6035   1.922   2.487  13.423  0.6906  0.2297  0.0631
  404TMC3     O 6036   2.038   2.510  13.457  0.1837 -0.6091 -0.3317
  404TMC3     H 6037   1.948   2.525  13.668 -1.5055  1.1591 -3.0073
  404TMC3    H1 6038   1.786   2.277  13.373 -0.2701 -0.2205  0.1677
  404TMC3    H2 6039   1.704   2.204  13.791  1.6671 -1.3147  0.1107
  404TMC3    C7 6040   1.613   2.137  13.537 -0.2145  0.0779 -0.4727
  404TMC3    C8 6041   1.904   2.357  13.871  0.1417  0.9851  0.1162
  404TMC3    O1 6042   1.578   2.059  13.625 -0.3143  0.2219  0.3545
  404TMC3    O2 6043   2.027   2.363  13.867  0.2288  0.1215  0.2722
  405MPD2     C 6044   2.164   3.667  14.710  0.1465  0.4228 -0.4264
  405MPD2    C1 6045   2.118   3.606  14.592  0.5478 -0.1505  0.0468
  405MPD2    C2 6046   2.021   3.661  14.516 -0.0922  0.1548  0.9374
  405MPD2    C3 6047   1.967   3.779  14.557 -0.1461  0.1144 -0.2688
  405MPD2    C4 6048   2.005   3.836  14.674  1.0618  0.5859  0.1113
  405MPD2    C5 6049   2.110   3.784  14.749  0.0903 -0.5528 -0.2359
  405MPD2     H 6050   1.985   3.616  14.424 -0.6680  2.0829  0.2267
  405MPD2    H1 6051   1.962   3.929  14.710  1.7843  0.9599 -0.0006
  405MPD2    H2 6052   2.238   3.627  14.779  0.8387  0.9587 -0.8546
  405MPD2    H3 6053   2.107   3.808  14.854  1.1882 -3.2206  0.3777
  405MPD2     N 6054   1.869   3.833  14.482  0.1140 -0.3761  0.0192
  405MPD2    H5 6055   1.844   3.783  14.397  1.8326 -0.1796 -0.6127
  405MPD2    N1 6056   2.182   3.482  14.566  0.2553  1.0033  0.3666
  405MPD2    H7 6057   2.250   3.446  14.632  0.7641  0.6511 -0.3539
  406TMC3    C1 6058   1.493   4.021  14.305 -0.0941 -0.2040 -0.0811
  406TMC3    C2 6059   1.448   3.902  14.264  0.1772 -0.7426 -0.2035
  406TMC3    C3 6060   1.512   3.795  14.319  0.2663 -0.0287  0.0215
  406TMC3    C4 6061   1.604   4.048  14.389 -0.2398 -0.3773 -0.5575
  406TMC3    C5 6062   1.668   3.934  14.436  0.0382  0.2666 -0.1555
  406TMC3    C6 6063   1.612   3.809  14.413  0.1665  0.7088  0.1570
  406TMC3     C 6064   1.392   4.123  14.301 -0.7584 -0.5557  0.5623
  406TMC3     O 6065   1.421   4.227  14.254 -0.0799  0.1642 -0.2197
  406TMC3     H 6066   1.370   3.899  14.189  1.0067  0.2415 -1.0998
  406TMC3    H1 6067   1.635   4.150  14.410  1.9785 -1.3603  0.9537
  406TMC3    H2 6068   1.651   3.730  14.475 -0.5818  0.9446  0.9371
  406TMC3    C7 6069   1.799   3.945  14.496 -0.3874  0.5525 -1.4001
  406TMC3    C8 6070   1.474   3.664  14.294 -0.8591  0.2916 -0.0574
  406TMC3    O1 6071   1.828   4.046  14.564  0.1894 -0.3089  0.0151
  406TMC3    O2 6072   1.354   3.641  14.288 -0.1298 -0.6957 -0.7121
  407MPD2     C 6073   4.296   0.657   9.674  0.1492  0.4374  0.1142
  407MPD2    C1 6074   4.390   0.555   9.698  0.3719  0.2904  0.0041
  407MPD2    C2 6075   4.480   0.561   9.806 -0.1700  0.1404 -0.4015
  407MPD2    C3 6076   4.460   0.664   9.894  0.0008  0.0230 -0.5312
  407MPD2    C4 6077   4.376   0.767   9.867  0.1964  0.1015  0.4390
  407MPD2    C5 6078   4.292   0.770   9.752  0.1114  0.1893  0.4775
  407MPD2     H 6079   4.551   0.480   9.816  0.8767  1.2295  0.9679
  407MPD2    H1 6080   4.368   0.851   9.935 -0.7555  0.8519 -0.5882
  407MPD2    H2 6081   4.221   0.649   9.597 -0.5655 -0.9723  0.9616
  407MPD2    H3 6082   4.219   0.845   9.726  0.5253 -0.0727 -1.4268
  407MPD2     N 6083   4.529   0.670  10.020  0.1662  0.2797 -0.1401
  407MPD2    H5 6084   4.503   0.754  10.071  2.2141  1.3291 -0.8096
  407MPD2    N1 6085   4.397   0.446   9.609 -0.5126 -0.0445  0.0251
  407MPD2    H7 6086   4.477   0.385   9.624  0.7188  1.7300  0.6567
  408TMC3    C1 6087   4.331   0.271   9.481 -0.1368 -0.3015  1.1726
  408TMC3    C2 6088   4.464   0.231   9.467  0.4159  0.1209 -0.4614
  408TMC3    C3 6089   4.489   0.098   9.448  0.0529  0.2060 -0.1504
  408TMC3    C4 6090   4.223   0.190   9.480  0.0515  0.0097  0.1744
  408TMC3    C5 6091   4.259   0.057   9.467  0.3752  0.6519  0.8530
  408TMC3    C6 6092   4.386   0.005   9.448  0.1141  0.2247 -0.5196
  408TMC3     C 6093   4.306   0.413   9.516 -0.0049  0.3669  0.8773
  408TMC3     O 6094   4.193   0.458   9.496 -0.1933 -0.8290 -0.2476
  408TMC3     H 6095   4.544   0.304   9.462  2.0140 -1.7877 -2.6024
  408TMC3    H1 6096   4.120   0.224   9.479  0.1276  0.2114 -1.3821
  408TMC3    H2 6097   4.400   4.627   9.412  1.3507  0.2894 -0.2062
  408TMC3    C7 6098   4.155   4.682   9.488  0.2791 -0.3181 -1.3495
  408TMC3    C8 6099   4.613   0.049   9.384  0.3061 -0.4897 -0.0703
  408TMC3    O1 6100   4.193   4.573   9.538  0.1331 -0.1451 -0.1422
  408TMC3    O2 6101   4.609   4.663   9.325  0.2905  0.1629  0.8047
  409MPD2     C 6102   3.620   1.288  17.099 -0.4771  0.3568 -0.0170
  409MPD2    C1 6103   3.666   1.304  17.229 -0.3156  0.2752  1.0579
  409MPD2    C2 6104   3.648   1.430  17.287 -0.4455  0.1159  1.0350
  409MPD2    C3 6105   3.597   1.545  17.227 -0.0310  0.4566 -0.0165
  409MPD2    C4 6106   3.546   1.523  17.099  1.2213 -0.3615  0.2787
  409MPD2    C5 6107   3.555   1.397  17.042 -0.2487 -0.1957 -0.2897
  409MPD2     H 6108   3.682   1.440  17.389 -1.6447  0.4234  1.4076
  409MPD2    H1 6109   3.516   1.598  17.028  1.3161 -1.0045 -0.4485
  409MPD2    H2 6110   3.636   1.196  17.044  1.1415  0.2705  0.5940
  409MPD2    H3 6111   3.539   1.391  16.935 -3.5613  0.5942  0.1841
  409MPD2     N 6112   3.601   1.672  17.276 -0.5500 -0.1997 -0.1733
  409MPD2    H5 6113   3.594   1.751  17.213  0.2766  0.5081  0.6236
  409MPD2    N1 6114   3.725   1.199  17.296 -0.4148  0.1199 -0.2795
  409MPD2    H7 6115   3.762   1.230  17.386 -1.6377 -0.0613  0.2763
  410TMC3    C1 6116   3.689   1.829  17.413  0.0233 -0.0207  0.1088
  410TMC3    C2 6117   3.821   1.808  17.442 -0.8003 -0.0629  0.3013
  410TMC3    C3 6118   3.911   1.911  17.406  0.1949 -0.2146 -0.1659
  410TMC3    C4 6119   3.643   1.932  17.335  0.2631 -0.3078  0.1457
  410TMC3    C5 6120   3.735   2.030  17.303  0.6191  0.2492  0.4244
  410TMC3    C6 6121   3.864   2.026  17.351  0.5589 -0.1629 -0.1242
  410TMC3     C 6122   3.620   1.703  17.409  0.3357  0.3095 -0.2086
  410TMC3     O 6123   3.636   1.623  17.501  0.1782 -0.8653  0.0443
  410TMC3     H 6124   3.844   1.711  17.484 -0.5268 -0.1193  0.0295
  410TMC3    H1 6125   3.537   1.945  17.312  1.0554  2.4592 -1.9688
  410TMC3    H2 6126   3.938   2.102  17.328 -0.3200 -0.1292 -2.8230
  410TMC3    C7 6127   3.679   2.151  17.240  0.8085 -0.7953  0.2216
  410TMC3    C8 6128   4.051   1.889  17.427 -0.3189  0.1414  0.5545
  410TMC3    O1 6129   3.559   2.165  17.241 -0.1703  0.2688  0.7332
  410TMC3    O2 6130   4.118   1.990  17.418 -0.3603 -0.3550 -0.5318
  411MPD2     C 6131   4.102   1.556  15.056  0.6185  0.2863 -0.0223
  411MPD2    C1 6132   4.042   1.584  14.937  0.0505  0.7695 -0.3588
  411MPD2    C2 6133   3.933   1.505  14.907  0.2435  0.3198  0.5720
  411MPD2    C3 6134   3.882   1.413  14.996 -0.9146 -0.4233  0.0402
  411MPD2    C4 6135   3.952   1.384  15.113 -0.4080  0.7387 -0.4445
  411MPD2    C5 6136   4.064   1.455  15.139 -0.7018  0.1072 -0.2374
  411MPD2     H 6137   3.876   1.520  14.816 -0.1322  1.5652  1.0185
  411MPD2    H1 6138   3.921   1.306  15.181 -2.5182 -0.9231 -3.3437
  411MPD2    H2 6139   4.188   1.617  15.082  1.4558 -1.0818  0.4362
  411MPD2    H3 6140   4.115   1.439  15.233 -1.2242  0.6243  0.1282
  411MPD2     N 6141   3.774   1.333  14.965 -0.9526  0.4394  0.8908
  411MPD2    H5 6142   3.765   1.246  15.017 -0.8101  0.3050  0.6922
  411MPD2    N1 6143   4.088   1.684  14.854  0.5033 -0.7150  0.5275
  411MPD2    H7 6144   4.159   1.745  14.895 -0.8780  2.1440 -1.3344
  412TMC3    C1 6145   3.589   1.252  14.872  0.2704 -0.2810 -0.0484
  412TMC3    C2 6146   3.468   1.288  14.817  0.1119 -0.0068 -0.1849
  412TMC3    C3 6147   3.384   1.195  14.770 -0.2503 -0.5610 -0.0641
  412TMC3    C4 6148   3.636   1.122  14.872 -0.1372  0.5159  0.6997
  412TMC3    C5 6149   3.559   1.034  14.812 -0.5685  1.1383 -0.5282
  412TMC3    C6 6150   3.425   1.062  14.772 -0.1425  0.1071  0.1009
  412TMC3     C 6151   3.683   1.359  14.867 -0.1504 -0.3190  0.6457
  412TMC3     O 6152   3.657   1.460  14.796 -0.7904 -0.6296  0.7137
  412TMC3     H 6153   3.450   1.394  14.800 -0.6849 -0.2006 -0.5502
  412TMC3    H1 6154   3.738   1.096  14.898 -0.9447 -3.2455  0.0240
  412TMC3    H2 6155   3.361   0.988  14.725  0.6805 -1.1203  0.9021
  412TMC3    C7 6156   3.632   0.969  14.702 -0.2800 -0.0392  0.0309
  412TMC3    C8 6157   3.297   1.231  14.662  0.0610  0.3621  0.1872
  412TMC3    O1 6158   3.751   0.946  14.723 -0.3302 -0.1199 -0.2996
  412TMC3    O2 6159   3.320   1.156  14.570 -0.2562  0.1155 -0.0847
  413MPD2     C 6160   0.942   0.146  15.091 -0.7424  0.2558 -0.5140
  413MPD2    C1 6161   0.852   0.064  15.163  0.0726  0.3624  0.2095
  413MPD2    C2 6162   0.903   4.698  15.253  0.1939  1.1573 -0.1846
  413MPD2    C3 6163   1.041   4.689  15.266 -0.0183 -0.7467 -0.2812
  413MPD2    C4 6164   1.129   0.040  15.194  0.6748  0.0532 -0.1708
  413MPD2    C5 6165   1.075   0.123  15.104  0.5603  0.1472 -0.1042
  413MPD2     H 6166   0.836   4.634  15.309  0.1296  1.3716 -0.0201
  413MPD2    H1 6167   1.235   0.047  15.214  0.7531 -0.2591 -0.4813
  413MPD2    H2 6168   0.901   0.216  15.018 -1.1566 -0.4066 -0.9165
  413MPD2    H3 6169   1.140   0.184  15.042  1.6182  0.5609  1.4287
  413MPD2     N 6170   1.089   4.584  15.358 -0.4166 -0.4528  0.0383
  413MPD2    H5 6171   1.017   4.540  15.415  0.1312 -1.9814 -0.4507
  413MPD2    N1 6172   0.715   0.104  15.151  0.0388 -0.2175 -0.3664
  413MPD2    H7 6173   0.711   0.197  15.111 -0.1405  0.6739  1.7038
  414TMC3    C1 6174   1.220   4.395  15.434  0.3517 -0.0002 -0.4230
  414TMC3    C2 6175   1.344   4.344  15.439  0.0796 -0.0485  0.2731
  414TMC3    C3 6176   1.360   4.206  15.463 -0.6106 -0.2491  0.5776
  414TMC3    C4 6177   1.109   4.312  15.440  0.1926 -0.1242  0.2033
  414TMC3    C5 6178   1.133   4.180  15.427  0.5492 -0.3660 -0.1571
  414TMC3    C6 6179   1.252   4.124  15.463 -0.4695  0.0876  0.4274
  414TMC3     C 6180   1.220   4.523  15.354 -0.0200  0.1471 -0.7979
  414TMC3     O 6181   1.319   4.555  15.295  0.0525  0.1006 -0.0217
  414TMC3     H 6182   1.430   4.410  15.442  1.5690 -1.9483 -0.5576
  414TMC3    H1 6183   1.012   4.355  15.415  0.5202  1.3065  1.3731
  414TMC3    H2 6184   1.252   4.016  15.461  0.9597  0.1075 -0.2972
  414TMC3    C7 6185   1.044   4.092  15.346  0.1642 -0.0014  0.1723
  414TMC3    C8 6186   1.493   4.144  15.449  0.0251 -0.0883 -0.8857
  414TMC3    O1 6187   1.011   3.995  15.408 -0.4027 -0.0904 -0.3437
  414TMC3    O2 6188   1.491   4.043  15.384 -1.1548  0.1247  0.0160
  415TMC3    C1 6189   1.846   2.594   9.854 -0.4540  0.0311  0.2366
  415TMC3    C2 6190   1.903   2.598   9.732  0.1834  0.5680 -0.4422
  415TMC3    C3 6191   1.822   2.575   9.622 -0.1082  0.3621 -0.5141
  415TMC3    C4 6192   1.719   2.557   9.876 -0.3342 -0.6428  0.2610
  415TMC3    C5 6193   1.637   2.528   9.769  0.1376 -0.4055  0.8124
  415TMC3    C6 6194   1.686   2.542   9.644 -0.2991  0.4918 -0.4194
  415TMC3     C 6195   1.926   2.606   9.978 -0.1977 -0.6332  0.2143
  415TMC3     O 6196   1.866   2.609  10.082 -0.4372  0.4355 -0.2458
  415TMC3     H 6197   1.997   2.653   9.728  0.3620  0.2085 -1.1739
  415TMC3    H1 6198   1.679   2.581   9.974 -0.3263 -2.2266  0.6619
  415TMC3    H2 6199   1.623   2.540   9.556 -0.2415 -0.2971 -0.4398
  415TMC3    C7 6200   1.525   2.435   9.785  0.1314 -0.3349  0.8230
  415TMC3    C8 6201   1.877   2.559   9.488  0.1929  0.2837  1.0157
  415TMC3    O1 6202   1.472   2.398   9.678 -0.5032 -0.0812 -0.2281
  415TMC3    O2 6203   1.796   2.534   9.397 -0.2846  0.2244  0.8991
  416MPD2     C 6204   3.880   1.423  11.697 -0.6766 -0.1699 -0.8052
  416MPD2    C1 6205   3.817   1.454  11.578  0.0727 -0.4048 -0.6233
  416MPD2    C2 6206   3.843   1.385  11.466  0.2089 -0.4011  0.5021
  416MPD2    C3 6207   3.928   1.276  11.475  0.5013  0.3165  0.1941
  416MPD2    C4 6208   3.976   1.236  11.599  0.0156  0.5692 -0.2817
  416MPD2    C5 6209   3.955   1.312  11.712  0.7058  0.3261  0.2685
  416MPD2     H 6210   3.794   1.409  11.373  1.5223 -0.4421 -0.1919
  416MPD2    H1 6211   4.038   1.148  11.607 -0.8135  0.0017 -0.1194
  416MPD2    H2 6212   3.859   1.482  11.785  1.3654  0.9064 -1.0185
  416MPD2    H3 6213   3.987   1.290  11.813 -0.1924 -1.2531  0.2119
  416MPD2     N 6214   3.954   1.187  11.369 -0.3053  0.0316  0.3617
  416MPD2    H5 6215   4.013   1.107  11.390  1.0331  0.7304 -0.7362
  416MPD2    N1 6216   3.727   1.557  11.589 -1.0059  0.3127  0.9984
  416MPD2    H7 6217   3.724   1.602  11.680  0.2070  0.1673  1.1094
  417TMC3    C1 6218   3.534   1.681  11.543  0.4274  0.3178  0.6535
  417TMC3    C2 6219   3.492   1.664  11.677  0.1051  0.5150  0.8617
  417TMC3    C3 6220   3.376   1.734  11.710 -0.1754 -0.2517 -0.5724
  417TMC3    C4 6221   3.472   1.760  11.451  0.4335  0.0976  0.2950
  417TMC3    C5 6222   3.351   1.807  11.485  0.0860  0.3505 -0.5194
  417TMC3    C6 6223   3.293   1.792  11.615 -0.0733 -0.7437  0.3188
  417TMC3     C 6224   3.645   1.603  11.490 -0.0588 -0.2795  0.1993
  417TMC3     O 6225   3.632   1.552  11.383 -0.1507  0.2022  0.5119
  417TMC3     H 6226   3.524   1.580  11.738 -0.0157 -0.6679 -0.6910
  417TMC3    H1 6227   3.515   1.763  11.351 -0.5389  2.6740 -0.0434
  417TMC3    H2 6228   3.203   1.850  11.633 -0.1293 -0.9386  0.6675
  417TMC3    C7 6229   3.286   1.901  11.399  0.4737 -0.3498 -0.0198
  417TMC3    C8 6230   3.316   1.727  11.845  0.3052 -0.1265  1.2744
  417TMC3    O1 6231   3.344   1.961  11.311 -0.0168 -0.1514 -0.5067
  417TMC3    O2 6232   3.200   1.754  11.859  0.1197 -0.1370  0.0152
  418TMC3    C1 6233   2.032   3.025   1.232 -0.1550 -0.2186 -0.4586
  418TMC3    C2 6234   2.005   3.075   1.113 -0.7243 -1.1343 -0.4441
  418TMC3    C3 6235   1.922   3.009   1.029 -0.3640 -0.1701 -0.0816
  418TMC3    C4 6236   1.971   2.906   1.276 -0.5807 -0.1267  0.0947
  418TMC3    C5 6237   1.872   2.855   1.199 -0.5002  0.6124 -1.1659
  418TMC3    C6 6238   1.848   2.901   1.071  0.4875  0.2192 -0.8662
  418TMC3     C 6239   2.146   3.067   1.306 -0.4442 -0.2778  0.2558
  418TMC3     O 6240   2.190   3.180   1.287  0.1195  0.0040  0.3191
  418TMC3     H 6241   2.061   3.161   1.078 -0.8680 -0.4723  0.9847
  418TMC3    H1 6242   2.000   2.862   1.371  0.0070  0.2847  0.1057
  418TMC3    H2 6243   1.779   2.851   1.003 -2.4627  0.8845  1.6620
  418TMC3    C7 6244   1.820   2.721   1.230 -0.1424 -0.2925 -0.1084
  418TMC3    C8 6245   1.907   3.067   0.888  0.6576 -0.1437  0.4979
  418TMC3    O1 6246   1.769   2.660   1.138  0.2300  0.2432  0.5831
  418TMC3    O2 6247   1.932   3.184   0.866  0.1078 -0.9828 -0.3961
  419MPD2     C 6248   0.484   1.109  12.158 -0.2284 -0.1653 -0.7622
  419MPD2    C1 6249   0.538   1.226  12.189  0.1684 -0.1319 -0.8735
  419MPD2    C2 6250   0.473   1.307  12.280 -0.5357  0.3285  0.1164
  419MPD2    C3 6251   0.347   1.268  12.344  0.3703 -0.1928 -0.1085
  419MPD2    C4 6252   0.294   1.146  12.304 -0.0594  0.2107  0.4121
  419MPD2    C5 6253   0.363   1.069  12.213  0.6099 -0.2070 -0.0133
  419MPD2     H 6254   0.512   1.406  12.302 -0.7007  0.4572 -0.1765
  419MPD2    H1 6255   0.201   1.112  12.348  0.4748  0.1640  1.5063
  419MPD2    H2 6256   0.528   1.042  12.085  2.5163 -1.2673  1.8675
  419MPD2    H3 6257   0.330   0.967  12.197 -1.9975  0.4466  1.2750
  419MPD2     N 6258   0.288   1.348  12.439 -0.5014  0.5711  0.8288
  419MPD2    H5 6259   0.343   1.426  12.475  0.8377 -1.3723  2.9910
  419MPD2    N1 6260   0.658   1.273  12.124  0.0855 -0.2230 -0.2102
  419MPD2    H7 6261   0.689   1.366  12.151 -0.6381 -0.3001  0.9160
  420TMC3    C1 6262   0.136   1.433  12.597  0.3393 -0.5625  0.8217
  420TMC3    C2 6263   0.009   1.475  12.598  0.3159 -0.5109  0.2959
  420TMC3    C3 6264   4.697   1.578  12.675  0.0640  0.5308 -0.4754
  420TMC3    C4 6265   0.230   1.483  12.682 -0.4889 -0.3214 -0.4846
  420TMC3    C5 6266   0.194   1.576  12.779 -0.1029  0.3071 -0.0228
  420TMC3    C6 6267   0.066   1.630  12.765  0.0515 -0.3829  0.0257
  420TMC3     C 6268   0.174   1.322  12.506  0.4587  0.3135  0.2782
  420TMC3     O 6269   0.095   1.222  12.514 -0.5391 -0.2249  0.3279
  420TMC3     H 6270   4.658   1.435  12.530  0.5901 -0.5170 -0.0015
  420TMC3    H1 6271   0.328   1.437  12.688  0.2168  1.1389 -0.9559
  420TMC3    H2 6272   0.032   1.695  12.843 -0.8291  1.4635 -1.8999
  420TMC3    C7 6273   0.276   1.605  12.899 -0.1044 -0.1275 -0.3793
  420TMC3    C8 6274   4.581   1.659  12.652 -0.5325 -0.3673  0.3648
  420TMC3    O1 6275   0.231   1.684  12.982  1.2197 -0.2722 -0.2258
  420TMC3    O2 6276   4.592   1.774  12.694  0.1586  0.1066 -0.4819
  421TMC3    C1 6277   2.328   3.011  13.137 -0.4007 -1.3547 -0.3351
  421TMC3    C2 6278   2.337   3.109  13.234 -0.2765  0.1177  0.0052
  421TMC3    C3 6279   2.453   3.134  13.291 -0.3458  0.5223  0.5998
  421TMC3    C4 6280   2.439   2.936  13.109  0.0159  0.0069 -0.5432
  421TMC3    C5 6281   2.551   2.963  13.170 -0.4222 -0.2370 -0.4907
  421TMC3    C6 6282   2.566   3.061  13.267  0.0156 -0.1461 -0.3735
  421TMC3     C 6283   2.200   2.964  13.089  0.5355 -0.2119 -0.8720
  421TMC3     O 6284   2.144   3.042  13.017  0.7100 -0.3366 -0.4722
  421TMC3     H 6285   2.244   3.158  13.264 -0.6253 -0.2240 -0.5195
  421TMC3    H1 6286   2.426   2.856  13.036 -0.0443  0.4821 -1.0570
  421TMC3    H2 6287   2.657   3.071  13.326 -0.9040 -0.5016  1.1196
  421TMC3    C7 6288   2.665   2.878  13.158  0.4075 -0.1569 -0.6098
  421TMC3    C8 6289   2.466   3.212  13.407  0.7744 -0.0327  0.7149
  421TMC3    O1 6290   2.774   2.924  13.182  0.1643 -0.5939 -0.1284
  421TMC3    O2 6291   2.506   3.329  13.383 -0.2348 -0.3791 -0.9777
  422TMC3    C1 6292   4.593   4.240  12.554  0.5036  0.2813  0.3412
  422TMC3    C2 6293   4.560   4.371  12.582 -0.3811 -0.3612  0.0775
  422TMC3    C3 6294   4.439   4.394  12.643 -0.5802 -0.4783  1.0170
  422TMC3    C4 6295   4.506   4.132  12.589 -0.3852 -0.5193  0.6717
  422TMC3    C5 6296   4.382   4.156  12.640 -0.0439  0.3141  0.3788
  422TMC3    C6 6297   4.346   4.289  12.677 -0.1130  0.0703  0.2563
  422TMC3     C 6298   4.715   4.208  12.485 -0.0440  0.5071 -0.8525
  422TMC3     O 6299   0.057   4.303  12.450  0.6903 -0.8726 -0.4921
  422TMC3     H 6300   4.620   4.448  12.533 -1.2171 -0.1391 -0.6046
  422TMC3    H1 6301   4.522   4.028  12.563  2.0790 -0.2813  1.2291
  422TMC3    H2 6302   4.252   4.319  12.722 -0.6092 -0.5091 -0.3927
  422TMC3    C7 6303   4.283   4.042  12.642  0.3937  0.2721 -1.0308
  422TMC3    C8 6304   4.405   4.536  12.650 -0.0826 -0.3420 -1.3811
  422TMC3    O1 6305   4.317   3.937  12.591  0.3515  0.0086  0.0345
  422TMC3    O2 6306   4.495   4.618  12.635 -0.5882  0.0538  0.3524
  423MPD2     C 6307   1.071   0.026   0.444  0.0836 -0.3604 -0.4009
  423MPD2    C1 6308   1.103   0.162   0.465 -0.4581  0.0694  0.5242
  423MPD2    C2 6309   1.164   0.223   0.352 -0.2480 -0.3409 -1.3466
  423MPD2    C3 6310   1.201   0.158   0.232  0.2025 -0.4728  0.0354
  423MPD2    C4 6311   1.159   0.030   0.221 -0.0595 -0.6599  1.0285
  423MPD2    C5 6312   1.102   4.691   0.329  0.2729 -0.5049  0.3565
  423MPD2     H 6313   1.185   0.329   0.361 -2.3934  0.1190 -1.8655
  423MPD2    H1 6314   1.175   4.692   0.132  1.6960 -1.5765  1.9684
  423MPD2    H2 6315   1.019   4.689   0.519 -1.5880  0.6030 -0.7943
  423MPD2    H3 6316   1.073   4.587   0.318  1.8023 -0.6393 -2.3228
  423MPD2     N 6317   1.270   0.212   0.119 -0.1303 -0.6594 -0.4118
  423MPD2    H5 6318   1.283   0.150   0.040  0.8144 -1.4859  0.3909
  423MPD2    N1 6319   1.074   0.237   0.576 -0.5128  0.0359  0.1326
  423MPD2    H7 6320   1.094   0.336   0.580 -2.6479  0.5757 -2.1524
  424TMC3    C1 6321   1.026   0.268   0.801 -0.3735  0.1209 -1.3662
  424TMC3    C2 6322   1.059   0.227   0.927  0.0811 -0.3287 -0.4229
  424TMC3    C3 6323   1.011   0.304   1.024  0.3496 -0.7451 -0.2574
  424TMC3    C4 6324   0.936   0.369   0.771  0.2018 -0.3089 -0.6778
  424TMC3    C5 6325   0.883   0.432   0.878  0.4125 -0.1431  0.2697
  424TMC3    C6 6326   0.926   0.406   1.005  0.4158 -0.2227 -0.4731
  424TMC3     C 6327   1.045   0.174   0.693 -0.1040  0.3555  0.1923
  424TMC3     O 6328   1.053   0.057   0.730  0.7946 -0.7484  0.3539
  424TMC3     H 6329   1.137   0.152   0.940  0.5607  0.1082 -0.7440
  424TMC3    H1 6330   0.885   0.376   0.675  0.2787  2.2174 -0.5346
  424TMC3    H2 6331   0.879   0.447   1.093  0.4811 -0.1418 -0.4754
  424TMC3    C7 6332   0.786   0.534   0.849  0.4347  0.3131  0.0002
  424TMC3    C8 6333   1.040   0.254   1.161  0.1306 -0.3952 -0.1744
  424TMC3    O1 6334   0.796   0.566   0.734 -0.1267 -0.0579  0.5057
  424TMC3    O2 6335   1.087   0.143   1.169  0.2840  0.5139 -0.3770
  425MPD2     C 6336   4.452   4.472  17.574  0.4685  0.1426  0.3955
  425MPD2    C1 6337   4.412   4.399  17.464 -0.9730 -0.0632  0.7191
  425MPD2    C2 6338   4.291   4.337  17.461 -0.1060  0.6347 -0.0688
  425MPD2    C3 6339   4.203   4.356  17.570 -0.3897  0.0758 -0.1139
  425MPD2    C4 6340   4.250   4.424  17.680  0.1433  0.1823  0.3493
  425MPD2    C5 6341   4.374   4.483  17.680 -0.2996  0.3757 -0.0220
  425MPD2     H 6342   4.268   4.289  17.367 -1.0981 -0.4777  0.7302
  425MPD2    H1 6343   4.194   4.431   0.080  0.1809 -3.0331  0.6032
  425MPD2    H2 6344   4.548   4.521  17.583  0.5456  0.1804 -0.6231
  425MPD2    H3 6345   4.414   4.533   0.075 -0.5830  1.0377 -0.2651
  425MPD2     N 6346   4.073   4.325  17.560  0.1319  0.9376  0.4115
  425MPD2    H5 6347   4.044   4.276  17.476  0.4510  2.8931 -0.8231
  425MPD2    N1 6348   4.514   4.390  17.364  0.3701 -0.6746  0.9685
  425MPD2    H7 6349   4.590   4.456  17.373  0.9463 -1.0682 -1.0485
  426TMC3    C1 6350   4.640   4.294  17.190 -0.7797 -0.5158  0.0618
  426TMC3    C2 6351   4.631   4.241  17.064 -0.4290 -0.5376 -0.2410
  426TMC3    C3 6352   0.024   4.197  17.008 -0.3631 -0.1833  0.2596
  426TMC3    C4 6353   0.029   4.329  17.254 -0.1803  0.9493 -0.2079
  426TMC3    C5 6354   0.147   4.292  17.195  0.0093 -0.3845  0.2338
  426TMC3    C6 6355   0.143   4.226  17.077 -0.5838  0.5504 -0.6005
  426TMC3     C 6356   4.509   4.315  17.250  0.9460  0.0511 -0.0487
  426TMC3     O 6357   4.417   4.238  17.227  0.4175  0.2698 -0.0106
  426TMC3     H 6358   4.531   4.225  17.025 -0.3963 -1.5379  0.1006
  426TMC3    H1 6359   0.022   4.375  17.351  2.2235 -0.0151  0.4196
  426TMC3    H2 6360   0.239   4.201  17.033 -0.8689 -1.6626  0.0544
  426TMC3    C7 6361   0.271   4.353  17.236 -0.3218 -0.5701 -0.1901
  426TMC3    C8 6362   0.026   4.121  16.882 -0.1356 -0.0730  0.2354
  426TMC3    O1 6363   0.374   4.332  17.174  0.2846  0.0821 -0.0296
  426TMC3    O2 6364   0.135   4.090  16.839  0.0448  0.9218  0.1155
  427MPD2     C 6365   3.517   1.973  14.713 -0.0233 -0.0290  0.1527
  427MPD2    C1 6366   3.465   1.995  14.835  0.5752 -0.2173  0.1109
  427MPD2    C2 6367   3.340   2.057  14.856 -0.9434  1.1527  0.4620
  427MPD2    C3 6368   3.253   2.082  14.750  0.2853 -0.8527  0.1151
  427MPD2    C4 6369   3.306   2.058  14.622 -0.4707  1.0086 -0.5300
  427MPD2    C5 6370   3.431   2.007  14.608  0.2998 -0.0055  0.1592
  427MPD2     H 6371   3.312   2.077  14.959 -1.2110  0.7994  0.4563
  427MPD2    H1 6372   3.253   2.085  14.532 -0.2980 -1.5705 -1.4185
  427MPD2    H2 6373   3.609   1.918  14.698  1.4339  2.4361 -0.0998
  427MPD2    H3 6374   3.458   1.992  14.504 -0.5834  2.7537 -0.4641
  427MPD2     N 6375   3.122   2.141  14.768 -0.3245 -0.2728  0.0159
  427MPD2    H5 6376   3.059   2.139  14.689 -2.9773  0.0110  2.1295
  427MPD2    N1 6377   3.528   1.946  14.954  0.1017  0.0738 -0.4938
  427MPD2    H7 6378   3.482   1.959  15.044  0.2210  0.3865 -0.4786
  428TMC3    C1 6379   3.687   1.871  15.103 -0.4882  0.4155  0.3630
  428TMC3    C2 6380   3.591   1.824  15.185  0.3839  0.0932  0.1170
  428TMC3    C3 6381   3.646   1.762  15.301  0.0546 -0.0740 -0.2581
  428TMC3    C4 6382   3.818   1.864  15.136  0.1634 -0.0109 -0.5066
  428TMC3    C5 6383   3.861   1.814  15.255  0.2468 -0.7150  0.1615
  428TMC3    C6 6384   3.771   1.758  15.343 -0.1819 -0.0506 -0.0261
  428TMC3     C 6385   3.661   1.901  14.963 -0.1757 -0.2477  0.3912
  428TMC3     O 6386   3.750   1.873  14.875 -0.6100  0.5637 -0.5061
  428TMC3     H 6387   3.488   1.810  15.156  0.1200  3.1361 -0.4535
  428TMC3    H1 6388   3.893   1.902  15.068  0.7016 -0.3426 -0.0932
  428TMC3    H2 6389   3.804   1.712  15.435 -1.3635  1.5632  1.2159
  428TMC3    C7 6390   3.959   1.889  15.334 -0.3046 -0.5165  0.1110
  428TMC3    C8 6391   3.555   1.690  15.385 -0.4144 -0.6741  0.2356
  428TMC3    O1 6392   3.980   1.849  15.451  0.3568 -0.0643 -0.4217
  428TMC3    O2 6393   3.604   1.586  15.429  0.4076 -0.0104 -0.1585
  429MPD2     C 6394   4.719   2.172   0.181  0.7553 -0.1549 -0.3752
  429MPD2    C1 6395   4.624   2.180   0.080 -1.2894  1.0085  0.4225
  429MPD2    C2 6396   4.648   2.274  17.673 -1.4008  0.3965  0.0610
  429MPD2    C3 6397   0.036   2.352  17.670  0.7419  0.5090  0.0333
  429MPD2    C4 6398   0.123   2.344   0.080  0.1495  0.3496  0.1185
  429MPD2    C5 6399   0.106   2.248   0.171 -0.0897  0.2144 -0.1603
  429MPD2     H 6400   4.572   2.300  17.601 -1.3988  0.1806 -0.0173
  429MPD2    H1 6401   0.214   2.400   0.095  1.0348 -1.0213 -0.1359
  429MPD2    H2 6402   4.707   2.105   0.265  2.5386 -1.6084 -1.2952
  429MPD2    H3 6403   0.175   2.246   0.255  0.9696  0.9889 -1.0223
  429MPD2     N 6404   0.037   2.453  17.568 -0.4370  0.5495  0.1925
  429MPD2    H5 6405   4.693   2.451  17.491  1.7117 -0.7632 -1.6430
  429MPD2    N1 6406   4.503   2.101   0.083  0.1640  0.4977 -0.1442
  429MPD2    H7 6407   4.425   2.142   0.034  0.6221  1.6661  0.1030
  430TMC3    C1 6408   0.158   2.622  17.437  0.1732 -0.0904 -0.3840
  430TMC3    C2 6409   0.061   2.629  17.341  0.4510 -0.3879  0.7021
  430TMC3    C3 6410   0.098   2.706  17.237  0.8081  0.2706 -0.4932
  430TMC3    C4 6411   0.285   2.670  17.416  0.0342  0.1170 -0.1331
  430TMC3    C5 6412   0.324   2.739  17.304  0.2768 -0.5527  0.2204
  430TMC3    C6 6413   0.225   2.755  17.208 -0.1435 -0.0211  0.0190
  430TMC3     C 6414   0.147   2.535  17.551 -0.5321 -0.8984 -0.0123
  430TMC3     O 6415   0.239   2.559  17.628 -0.0843 -0.0911 -0.1208
  430TMC3     H 6416   4.685   2.585  17.348  0.8343 -1.5929 -1.4933
  430TMC3    H1 6417   0.365   2.651  17.488  0.4127 -3.6361 -1.5705
  430TMC3    H2 6418   0.244   2.814  17.120  0.4012 -1.6931 -0.9914
  430TMC3    C7 6419   0.450   2.689  17.259 -0.1738  0.3260  0.6511
  430TMC3    C8 6420   4.717   2.721  17.131 -0.1651 -0.6027 -0.4852
  430TMC3    O1 6421   0.481   2.575  17.301 -0.1562 -0.5093 -0.0785
  430TMC3    O2 6422   4.631   2.630  17.120  0.0553 -0.1156  0.1504
  431MPD2     C 6423   1.485   1.752  12.302  0.9585 -0.1072 -0.0159
  431MPD2    C1 6424   1.348   1.744  12.329  0.2550  0.3966 -0.4053
  431MPD2    C2 6425   1.258   1.693  12.243 -1.0889  0.6070 -0.0971
  431MPD2    C3 6426   1.302   1.628  12.127 -0.2752  0.6315 -0.1644
  431MPD2    C4 6427   1.435   1.638  12.100  0.2915  0.3651 -0.0196
  431MPD2    C5 6428   1.524   1.703  12.180  0.2418  0.2533  0.3507
  431MPD2     H 6429   1.154   1.716  12.265 -0.6444  1.9303  0.6283
  431MPD2    H1 6430   1.472   1.579  12.017 -0.0611 -0.3732  0.3535
  431MPD2    H2 6431   1.559   1.790  12.371  1.3911  1.6991 -1.4679
  431MPD2    H3 6432   1.627   1.697  12.146 -0.5690  3.4113 -2.8186
  431MPD2     N 6433   1.212   1.556  12.041 -0.0598 -0.2402  0.3264
  431MPD2    H5 6434   1.246   1.535  11.948 -0.4734 -1.1379  0.3798
  431MPD2    N1 6435   1.285   1.811  12.436 -0.0000 -0.0215 -0.2312
  431MPD2    H7 6436   1.185   1.799  12.449  0.0449  0.1963  0.2989
  432TMC3    C1 6437   1.002   1.450  11.986  0.2948 -0.0401  0.1637
  432TMC3    C2 6438   1.044   1.419  11.861  0.2998 -0.2990 -0.0772
  432TMC3    C3 6439   0.986   1.329  11.782  0.9603 -0.0850 -0.5380
  432TMC3    C4 6440   0.894   1.391  12.040  0.4443 -0.0685  0.6050
  432TMC3    C5 6441   0.826   1.305  11.958 -0.2083  0.0824  0.1194
  432TMC3    C6 6442   0.873   1.274  11.830 -0.3463 -0.5022  0.0413
  432TMC3     C 6443   1.083   1.519  12.082  0.4897  0.0069  0.1177
  432TMC3     O 6444   1.032   1.543  12.192 -0.2363  0.4363 -0.1774
  432TMC3     H 6445   1.133   1.470  11.827  0.3909 -1.5356 -1.6849
  432TMC3    H1 6446   0.875   1.396  12.147  2.4979  0.1866  0.9586
  432TMC3    H2 6447   0.814   1.213  11.763 -0.5159 -0.2194 -0.0690
  432TMC3    C7 6448   0.704   1.230  11.997  0.0741  0.6498  0.7888
  432TMC3    C8 6449   1.020   1.310  11.644 -0.0248 -0.4090 -0.0575
  432TMC3    O1 6450   0.662   1.154  11.908  0.3119  0.5090  0.1737
  432TMC3    O2 6451   0.946   1.222  11.592 -0.3925  0.4649  0.1816
  433MPD2     C 6452   0.270   0.862  11.033 -0.5048  0.5294 -0.2972
  433MPD2    C1 6453   0.144   0.801  11.063  0.0513 -0.3666 -0.1146
  433MPD2    C2 6454   0.101   0.803  11.190 -0.0825  0.0823 -0.3487
  433MPD2    C3 6455   0.178   0.855  11.291 -0.7212  0.3979 -0.4636
  433MPD2    C4 6456   0.301   0.925  11.265  0.6030  0.4238 -0.0693
  433MPD2    C5 6457   0.345   0.931  11.129  0.4111  0.4207 -0.0333
  433MPD2     H 6458   0.005   0.764  11.220 -1.1739  2.9846 -0.0606
  433MPD2    H1 6459   0.374   0.961  11.337  0.5231  0.4554 -0.0039
  433MPD2    H2 6460   0.311   0.859  10.932 -0.6469  1.4446 -0.3792
  433MPD2    H3 6461   0.442   0.974  11.107  0.5968  0.6969  1.3095
  433MPD2     N 6462   0.132   0.842  11.425 -0.1971 -0.2640 -0.7068
  433MPD2    H5 6463   0.042   0.797  11.437 -0.2366  0.4301  1.6099
  433MPD2    N1 6464   0.074   0.742  10.953 -0.5281  0.4475  0.0154
  433MPD2    H7 6465   0.133   0.725  10.873 -0.1104  0.1936  0.3790
  434TMC3    C1 6466   4.652   0.583  10.876 -0.0892 -0.2113 -0.6942
  434TMC3    C2 6467   4.700   0.479  10.944  0.6756 -0.1164 -0.6150
  434TMC3    C3 6468   0.005   0.373  10.863  0.6020 -0.7225  0.0529
  434TMC3    C4 6469   4.635   0.596  10.741  0.9226  0.0206  0.6271
  434TMC3    C5 6470   4.660   0.488  10.665  0.8326 -0.5468 -0.6831
  434TMC3    C6 6471   4.695   0.368  10.729  0.4889  0.0159 -0.1828
  434TMC3     C 6472   4.664   0.697  10.958 -0.0201  0.2649 -0.2101
  434TMC3     O 6473   4.578   0.710  11.042  0.9921  0.6188  0.0758
  434TMC3     H 6474   4.714   0.490  11.051  1.6894  1.5023 -0.9155
  434TMC3    H1 6475   4.619   0.699  10.708  2.3568  0.1205  0.2210
  434TMC3    H2 6476   4.715   0.278  10.672  0.9696  0.0110 -0.0107
  434TMC3    C7 6477   4.594   0.489  10.537  0.6444  0.0397 -0.1661
  434TMC3    C8 6478   0.092   0.277  10.929  0.3639 -0.8328 -0.8889
  434TMC3    O1 6479   4.542   0.595  10.510  0.0487  0.3221 -0.2147
  434TMC3    O2 6480   0.090   0.286  11.049 -0.3508 -0.0789  0.0036
  435MPD2     C 6481   1.096   0.886  15.375  0.6484  0.0678 -0.4648
  435MPD2    C1 6482   1.104   0.820  15.497  0.9203  0.2777 -0.0766
  435MPD2    C2 6483   1.229   0.775  15.545 -1.1863  0.0429  1.0125
  435MPD2    C3 6484   1.340   0.773  15.463 -0.0518 -0.1424  0.1486
  435MPD2    C4 6485   1.333   0.821  15.332 -0.2370 -0.4061 -0.4673
  435MPD2    C5 6486   1.213   0.873  15.292  0.1708  0.5365  0.5486
  435MPD2     H 6487   1.235   0.737  15.646 -0.4169 -1.4437  0.4166
  435MPD2    H1 6488   1.419   0.819  15.265 -0.6063  0.4341 -0.9675
  435MPD2    H2 6489   1.006   0.927  15.328 -1.0049 -0.0943  2.5904
  435MPD2    H3 6490   1.196   0.913  15.193  2.7424  0.5800  0.1288
  435MPD2     N 6491   1.454   0.723  15.523 -0.2205 -0.0600  0.0316
  435MPD2    H5 6492   1.441   0.690  15.618 -1.6626 -0.2349 -0.2386
  435MPD2    N1 6493   0.988   0.810  15.585  0.1718  0.1061 -0.6582
  435MPD2    H7 6494   1.017   0.766  15.672 -0.1407 -1.5622 -1.3906
  436TMC3    C1 6495   0.738   0.854  15.881  0.3873 -0.8193 -0.2592
  436TMC3    C2 6496   0.815   0.810  15.780  0.3110  0.8435 -0.5846
  436TMC3    C3 6497   0.757   0.807  15.652 -0.2908  0.0356 -0.5652
  436TMC3    C4 6498   0.614   0.912  15.857 -0.0358 -0.1148 -0.2111
  436TMC3    C5 6499   0.559   0.912  15.733  0.0288 -0.5678 -0.6356
  436TMC3    C6 6500   0.629   0.866  15.627  0.4516  0.8221  0.4597
  436TMC3     C 6501   0.773   0.813  16.018 -0.4552 -0.7561  0.7518
  436TMC3     O 6502   0.824   0.701  16.020 -0.5290 -0.3458  0.3837
  436TMC3     H 6503   0.906   0.756  15.802  1.1679  2.2692 -0.6567
  436TMC3    H1 6504   0.552   0.947  15.939  0.3315  2.5408 -1.0569
  436TMC3    H2 6505   0.584   0.848  15.530  0.8433  2.2363  0.0201
  436TMC3    C7 6506   0.418   0.920  15.716  0.8935  0.3362  0.5092
  436TMC3    C8 6507   0.851   0.827  15.548  0.1014 -0.7367 -0.2198
  436TMC3    O1 6508   0.365   0.850  15.628  0.2758 -0.2468  0.5243
  436TMC3    O2 6509   0.802   0.865  15.439  0.4533  0.2062 -0.4971
  437TMC3    C1 6510   1.015   2.102  11.988 -0.1529 -0.0386  0.3606
  437TMC3    C2 6511   1.007   2.042  12.106  0.2427  0.0436  0.3025
  437TMC3    C3 6512   1.006   2.119  12.217  0.1970  0.0412  0.1068
  437TMC3    C4 6513   1.042   2.240  11.979  0.2522  0.1145 -0.3834
  437TMC3    C5 6514   1.038   2.312  12.099 -0.6743 -0.1259  0.0766
  437TMC3    C6 6515   1.013   2.259  12.221  0.0036 -0.1271 -0.2672
  437TMC3     C 6516   0.959   2.033  11.878 -0.1333  0.0579  0.2669
  437TMC3     O 6517   0.887   1.941  11.910  0.4531  0.1446  0.2663
  437TMC3     H 6518   0.969   1.942  12.116 -2.7117  1.2017  0.6824
  437TMC3    H1 6519   1.054   2.292  11.885  2.9261 -0.1921 -0.2367
  437TMC3    H2 6520   0.995   2.311  12.315  0.8366  0.9693 -0.7231
  437TMC3    C7 6521   1.024   2.461  12.084 -0.9708 -0.1008  0.0097
  437TMC3    C8 6522   0.963   2.043  12.333  0.1190 -0.3964 -0.3973
  437TMC3    O1 6523   1.044   2.511  11.973  0.4195 -0.1968 -0.5482
  437TMC3    O2 6524   1.020   1.935  12.346  0.0131 -0.1397 -0.2299
  438MPD2     C 6525   2.243   3.324  17.411  0.2112 -0.0462  0.6850
  438MPD2    C1 6526   2.367   3.270  17.459 -0.0554  0.0356 -0.4980
  438MPD2    C2 6527   2.366   3.168  17.549  0.0202 -0.4310  0.5082
  438MPD2    C3 6528   2.253   3.136  17.622  0.2307  0.3180  0.2438
  438MPD2    C4 6529   2.135   3.208  17.589 -0.0933  0.7356 -0.4193
  438MPD2    C5 6530   2.131   3.298  17.485  0.2667  0.1420 -0.1333
  438MPD2     H 6531   2.461   3.121  17.572 -1.2230 -2.4137  1.5236
  438MPD2    H1 6532   2.047   3.211  17.652  0.2265 -0.2644  0.0641
  438MPD2    H2 6533   2.227   3.401  17.337  1.7879 -0.1223  0.2626
  438MPD2    H3 6534   2.038   3.348  17.458  1.3737  2.1309 -0.2082
  438MPD2     N 6535   2.252   3.066   0.045  0.2641  0.2411 -0.1142
  438MPD2    H5 6536   2.177   3.083   0.111 -1.2658 -1.2459 -1.4629
  438MPD2    N1 6537   2.493   3.299  17.393  0.2192 -0.2199  0.4362
  438MPD2    H7 6538   2.574   3.252  17.432 -0.7213 -1.5006  0.8432
  439TMC3    C1 6539   2.661   3.375  17.250 -0.0374 -0.6018 -0.2387
  439TMC3    C2 6540   2.693   3.390  17.116 -0.0401 -0.7024 -0.2098
  439TMC3    C3 6541   2.828   3.390  17.091  0.7102 -0.0815  0.4139
  439TMC3    C4 6542   2.748   3.364  17.354 -0.7351  0.0227 -0.7145
  439TMC3    C5 6543   2.884   3.352  17.315  0.5008  0.0680 -0.2428
  439TMC3    C6 6544   2.924   3.374  17.187 -0.1463 -0.4384  0.1598
  439TMC3     C 6545   2.516   3.365  17.277  0.1200 -0.3921  0.3301
  439TMC3     O 6546   2.433   3.413  17.200  0.1897 -0.0737 -0.1530
  439TMC3     H 6547   2.609   3.399  17.048 -1.6368  0.2441  1.8683
  439TMC3    H1 6548   2.711   3.377  17.455 -0.9452  0.7080 -0.8823
  439TMC3    H2 6549   3.026   3.357  17.154 -0.4659 -0.3207 -0.8769
  439TMC3    C7 6550   2.988   3.328  17.413 -0.2547 -0.1811  0.5637
  439TMC3    C8 6551   2.874   3.364  16.952  0.5662 -0.1841 -0.0749
  439TMC3    O1 6552   3.097   3.356  17.370 -0.1884 -0.0297  0.0943
  439TMC3    O2 6553   2.988   3.317  16.944 -0.3502  0.0575  0.6510
  440MPD2     C 6554   1.416   3.710  14.687 -0.7666  0.1740  0.4249
  440MPD2    C1 6555   1.477   3.818  14.749  0.5373  0.0446 -0.4800
  440MPD2    C2 6556   1.586   3.793  14.824  0.3222 -0.0563  0.1548
  440MPD2    C3 6557   1.639   3.668  14.834  0.6328  0.3412  0.3120
  440MPD2    C4 6558   1.596   3.562  14.761  0.6335  0.1004 -0.8122
  440MPD2    C5 6559   1.480   3.587  14.690 -0.4617 -0.3749  0.2389
  440MPD2     H 6560   1.634   3.876  14.873 -1.7374  0.4226  1.3495
  440MPD2    H1 6561   1.633   3.460  14.764  1.4794  0.4006 -0.8961
  440MPD2    H2 6562   1.332   3.720  14.619 -2.2727 -1.4753  2.0486
  440MPD2    H3 6563   1.437   3.511  14.627  0.4181  0.3457 -1.2420
  440MPD2     N 6564   1.745   3.637  14.923  0.1361 -0.0251 -0.5485
  440MPD2    H5 6565   1.779   3.542  14.921  1.1910  0.3750 -1.3599
  440MPD2    N1 6566   1.432   3.953  14.741 -0.5142 -0.5021  0.0269
  440MPD2    H7 6567   1.498   4.019  14.779 -1.9738  0.8483  0.2078
  441TMC3    C1 6568   1.912   3.678  15.076 -0.4180  0.2008  0.0747
  441TMC3    C2 6569   1.991   3.778  15.132 -0.1914  0.5867 -0.6102
  441TMC3    C3 6570   2.074   3.752  15.240  0.3942 -0.4757 -0.3364
  441TMC3    C4 6571   1.901   3.551  15.127 -0.2117 -0.3784  0.2869
  441TMC3    C5 6572   1.975   3.528  15.239 -0.0636 -0.3185 -0.1472
  441TMC3    C6 6573   2.061   3.624  15.290  0.7226 -0.2325  0.4765
  441TMC3     C 6574   1.793   3.722  15.018  0.2970  0.3600  1.1193
  441TMC3     O 6575   1.760   3.836  15.046 -0.5726  0.4448  0.2597
  441TMC3     H 6576   1.991   3.868  15.071  0.5217  2.2244  1.7800
  441TMC3    H1 6577   1.823   3.484  15.093 -0.7417  1.4700 -2.1300
  441TMC3    H2 6578   2.126   3.599  15.372  0.7587  1.1465  0.8733
  441TMC3    C7 6579   1.919   3.432  15.332  0.5170 -0.3329 -0.5728
  441TMC3    C8 6580   2.062   3.849  15.349  0.8735 -0.4563  0.4474
  441TMC3    O1 6581   1.801   3.399  15.319  0.3805  0.0218  0.1308
  441TMC3    O2 6582   2.161   3.866  15.417  0.8734  0.2512  0.2534
  442MPD2     C 6583   4.355   4.555  16.516  0.2313 -0.2180  0.3192
  442MPD2    C1 6584   4.246   4.564  16.435  0.5100 -0.0417 -0.0377
  442MPD2    C2 6585   4.215   4.458  16.351 -0.2773 -0.2498 -0.4210
  442MPD2    C3 6586   4.303   4.356  16.320 -0.0367  0.5796 -0.3827
  442MPD2    C4 6587   4.419   4.354  16.395 -0.2016 -0.2071 -0.2960
  442MPD2    C5 6588   4.439   4.450  16.494  0.3743 -0.2408  0.2644
  442MPD2     H 6589   4.121   4.466  16.298 -1.0249  0.4792  1.0383
  442MPD2    H1 6590   4.491   4.273  16.399 -1.7627 -1.5893 -0.0259
  442MPD2    H2 6591   4.389   4.636  16.579  0.8664  1.6006 -2.3537
  442MPD2    H3 6592   4.526   4.432  16.556 -0.9818 -1.5766  1.8192
  442MPD2     N 6593   4.278   4.263  16.222  0.1757  0.0623 -0.6289
  442MPD2    H5 6594   4.184   4.262  16.184 -0.2151  1.2291  0.3028
  442MPD2    N1 6595   4.156   4.670  16.449  0.0427 -0.2950 -0.1207
  442MPD2    H7 6596   4.079   4.680  16.384  0.5194  0.2608 -0.5886
  443TMC3    C1 6597   4.069   0.139  16.527  0.3917  0.1218  0.0660
  443TMC3    C2 6598   4.048   0.171  16.398 -0.0222  0.1076 -0.2254
  443TMC3    C3 6599   3.918   0.182  16.349  0.0152 -0.0711 -0.1987
  443TMC3    C4 6600   3.968   0.139  16.615 -0.1317  0.1505 -0.2965
  443TMC3    C5 6601   3.844   0.147  16.567 -0.0469  0.1339  0.3031
  443TMC3    C6 6602   3.816   0.161  16.432  0.4298 -0.2339 -0.3324
  443TMC3     C 6603   4.168   0.046  16.544 -0.5806  0.1266  0.2439
  443TMC3     O 6604   4.229   0.045  16.652 -0.1071 -0.3353 -0.3035
  443TMC3     H 6605   4.138   0.170  16.339 -0.6477  1.5065 -1.1871
  443TMC3    H1 6606   3.982   0.117  16.720  1.0272  2.0516 -0.0701
  443TMC3    H2 6607   3.720   0.147  16.382  0.1423 -1.0065  0.4399
  443TMC3    C7 6608   3.746   0.064  16.638 -0.2713  0.0225  0.7273
  443TMC3    C8 6609   3.905   0.106  16.237 -0.0469  1.2433  0.4467
  443TMC3    O1 6610   3.790   4.703  16.712  0.0678  0.2221  0.1037
  443TMC3    O2 6611   3.970   0.001  16.241  0.5976 -0.0084  0.0020
  444MPD2     C 6612   0.095   3.764  16.821 -0.2098 -0.7291  1.0775
  444MPD2    C1 6613   4.713   3.702  16.760 -0.6599  0.5032 -0.0304
  444MPD2    C2 6614   0.020   3.604  16.666 -0.1526 -0.4159  0.0331
  444MPD2    C3 6615   0.147   3.557  16.655  0.5520 -0.4334 -0.1398
  444MPD2    C4 6616   0.251   3.628  16.717 -0.6869  0.1945  0.2097
  444MPD2    C5 6617   0.226   3.734  16.794  0.2532  0.3762 -0.3404
  444MPD2     H 6618   4.660   3.563  16.609  0.5075 -1.1539 -0.3962
  444MPD2    H1 6619   0.355   3.602  16.702 -0.5959  0.2762  0.7089
  444MPD2    H2 6620   0.078   3.854  16.880 -1.6155 -1.5003  1.8221
  444MPD2    H3 6621   0.298   3.802  16.836 -0.5015  1.7958 -1.3414
  444MPD2     N 6622   0.167   3.432  16.588 -0.6669  0.4093  0.3160
  444MPD2    H5 6623   0.083   3.391  16.548 -0.3514  0.3676 -0.3088
  444MPD2    N1 6624   4.576   3.730  16.794 -0.0441  0.9534 -0.1387
  444MPD2    H7 6625   4.501   3.694  16.736  0.4888 -0.9391  0.3308
  445TMC3    C1 6626   0.269   3.213  16.550 -0.3305 -0.8340 -0.2546
  445TMC3    C2 6627   0.148   3.164  16.504 -0.1063  0.8548  0.1921
  445TMC3    C3 6628   0.150   3.036  16.454  0.1097  0.0529 -0.4120
  445TMC3    C4 6629   0.384   3.136  16.548 -0.4287 -0.4656  0.1757
  445TMC3    C5 6630   0.380   3.011  16.489 -0.0292 -0.5285 -0.7727
  445TMC3    C6 6631   0.265   2.955  16.449 -0.0225  0.6247  0.3618
  445TMC3     C 6632   0.279   3.351  16.602  0.2298  0.1157 -0.9577
  445TMC3     O 6633   0.391   3.381  16.645 -0.0566 -0.4789  0.0055
  445TMC3     H 6634   0.074   3.238  16.474 -0.2693  0.3286 -0.7180
  445TMC3    H1 6635   0.479   3.183  16.571 -0.9891 -0.3872  2.3367
  445TMC3    H2 6636   0.270   2.850  16.421 -2.4132  0.4504  0.6065
  445TMC3    C7 6637   0.504   2.939  16.467 -0.1530 -0.1379  0.3258
  445TMC3    C8 6638   0.035   3.011  16.369 -0.5046 -0.2088 -0.3783
  445TMC3    O1 6639   0.601   2.995  16.519 -0.3435 -0.3297 -0.3205
  445TMC3    O2 6640   4.681   3.108  16.361 -0.0099  0.4268  0.3097
  446MPD2     C 6641   4.458   0.271  11.500  0.2356 -0.1024  0.3286
  446MPD2    C1 6642   4.486   0.229  11.370  0.1931 -0.1571 -0.0833
  446MPD2    C2 6643   4.605   0.272  11.314  0.1083  0.0408 -0.4598
  446MPD2    C3 6644   4.697   0.350  11.381 -0.5742 -0.3370  0.6731
  446MPD2    C4 6645   4.661   0.393  11.509 -0.1894 -0.7624 -0.6913
  446MPD2    C5 6646   4.549   0.351  11.567  0.0821 -0.0307 -0.3099
  446MPD2     H 6647   4.636   0.230  11.219 -0.0724  3.3519 -2.0191
  446MPD2    H1 6648   0.001   0.456  11.571 -1.1553 -0.8957  0.4140
  446MPD2    H2 6649   4.365   0.244  11.549 -0.5023 -2.5492 -2.4028
  446MPD2    H3 6650   4.513   0.402  11.656  2.9275  0.8598  0.3122
  446MPD2     N 6651   0.103   0.366  11.318 -0.4464 -0.5753  0.1307
  446MPD2    H5 6652   0.115   0.338  11.221 -0.6614 -1.0226  0.2354
  446MPD2    N1 6653   4.407   0.130  11.303  1.0190  0.3294 -0.2286
  446MPD2    H7 6654   4.430   0.098  11.210  1.7243  1.1594 -0.3389
  447TMC3    C1 6655   0.330   0.429  11.288 -0.1871 -0.7467 -0.5356
  447TMC3    C2 6656   0.312   0.462  11.165 -0.2571  0.3026  0.6729
  447TMC3    C3 6657   0.420   0.448  11.077 -0.2743  0.4278 -0.1460
  447TMC3    C4 6658   0.454   0.414  11.340 -0.3211 -0.2267 -0.0553
  447TMC3    C5 6659   0.564   0.405  11.251 -0.3215  0.4976 -0.0522
  447TMC3    C6 6660   0.551   0.415  11.119 -0.3754  0.7718 -0.1185
  447TMC3     C 6661   0.212   0.424  11.379  0.6877  0.7527 -0.3210
  447TMC3     O 6662   0.230   0.460  11.496 -0.1519  0.1717 -0.2061
  447TMC3     H 6663   0.212   0.460  11.123 -0.0376  1.1688  0.1030
  447TMC3    H1 6664   0.453   0.404  11.448 -1.6288 -1.4032 -0.1726
  447TMC3    H2 6665   0.631   0.393  11.049 -1.2897 -1.6311 -0.3998
  447TMC3    C7 6666   0.684   0.337  11.296  0.2581 -0.3204  0.0454
  447TMC3    C8 6667   0.389   0.478  10.935  0.2114 -0.4188 -0.1647
  447TMC3    O1 6668   0.756   0.286  11.216  0.3005  0.1873  0.0186
  447TMC3    O2 6669   0.285   0.538  10.904 -0.1413 -0.0546 -0.0627
  448TMC3    C1 6670   2.604   0.224  16.941  0.7619  0.2312  0.9883
  448TMC3    C2 6671   2.554   0.110  16.899  0.1054 -0.0352 -0.4831
  448TMC3    C3 6672   2.545   0.014  17.002 -0.1148  0.6466  0.0856
  448TMC3    C4 6673   2.662   0.244  17.062  0.5471 -0.1299 -0.5342
  448TMC3    C5 6674   2.646   0.153  17.163  0.2591  0.2694  0.1619
  448TMC3    C6 6675   2.576   0.034  17.138  0.0758 -0.5671 -0.7047
  448TMC3     C 6676   2.544   0.339  16.882 -0.4345 -0.0237 -0.4759
  448TMC3     O 6677   2.533   0.341  16.759 -0.2587 -0.1254  0.1360
  448TMC3     H 6678   2.545   0.098  16.791  0.2985  1.4848 -0.6723
  448TMC3    H1 6679   2.709   0.341  17.073  2.0099 -0.9246  0.1888
  448TMC3    H2 6680   2.591   4.665  17.193  2.0867  0.2913  0.1795
  448TMC3    C7 6681   2.758   0.135  17.247  0.0645  0.8574 -0.1245
  448TMC3    C8 6682   2.534   4.604  16.954  0.1892  0.1567  0.3441
  448TMC3    O1 6683   2.862   0.194  17.220 -0.4327  0.0234 -0.2324
  448TMC3    O2 6684   2.597   4.518  17.015 -0.4984 -0.9069  0.8087
  449MPD2     C 6685   4.167   3.179  14.035  0.2235 -0.1825  0.2153
  449MPD2    C1 6686   4.071   3.165  13.934  0.1682  0.1081 -0.1048
  449MPD2    C2 6687   3.945   3.115  13.965 -0.1439 -0.3125  0.0156
  449MPD2    C3 6688   3.912   3.074  14.090  0.1667 -0.2019 -0.2229
  449MPD2    C4 6689   4.010   3.101  14.192  0.0721 -0.3210  0.7461
  449MPD2    C5 6690   4.139   3.140  14.160  0.0792  0.3554 -0.6959
  449MPD2     H 6691   3.875   3.091  13.887 -0.2137 -0.8730  0.2445
  449MPD2    H1 6692   4.006   3.078  14.298 -0.7608  0.9143  0.9928
  449MPD2    H2 6693   4.263   3.227  14.017 -0.3106  1.6919  2.2894
  449MPD2    H3 6694   4.218   3.163  14.230  0.3055 -0.8417 -0.5621
  449MPD2     N 6695   3.781   3.043  14.117  0.3216 -0.0291  0.3350
  449MPD2    H5 6696   3.713   3.069  14.046 -0.4291 -1.0970  0.6606
  449MPD2    N1 6697   4.081   3.228  13.805 -0.0831  0.4785 -0.6326
  449MPD2    H7 6698   4.000   3.223  13.744 -1.9044 -0.4594  1.8670
  450TMC3    C1 6699   4.160   3.348  13.625 -0.4954  0.1613  0.2217
  450TMC3    C2 6700   4.220   3.283  13.519  0.6295 -0.6813  0.0033
  450TMC3    C3 6701   4.146   3.265  13.404 -0.4448 -0.6236 -0.0659
  450TMC3    C4 6702   4.033   3.388  13.613 -0.6008  0.0149  0.6205
  450TMC3    C5 6703   3.962   3.370  13.500  0.0765 -0.5372  0.0784
  450TMC3    C6 6704   4.021   3.317  13.391  0.1501 -0.4544 -0.6992
  450TMC3     C 6705   4.190   3.287  13.753 -0.2013 -0.1694  0.0006
  450TMC3     O 6706   4.306   3.296  13.792  0.0099  0.1042 -0.3295
  450TMC3     H 6707   4.321   3.255  13.545  0.4374 -2.5964 -1.2538
  450TMC3    H1 6708   3.984   3.422  13.703  1.3451  1.6326  1.0580
  450TMC3    H2 6709   3.951   3.293  13.311  1.0614  1.2281 -1.9950
  450TMC3    C7 6710   3.845   3.297  13.544  0.6123  0.1195 -0.1675
  450TMC3    C8 6711   4.206   3.231  13.271  0.0487  0.5935  0.8200
  450TMC3    O1 6712   3.858   3.219  13.637 -0.5060  0.0533 -0.0348
  450TMC3    O2 6713   4.145   3.265  13.171  0.6979  0.0564  0.4039
  451MPD2     C 6714   1.058   2.861   0.634  0.1245  0.0745 -0.2272
  451MPD2    C1 6715   0.988   2.830   0.745 -0.5382  0.5424  0.4667
  451MPD2    C2 6716   1.012   2.699   0.796  0.2568 -0.0447 -0.4827
  451MPD2    C3 6717   1.098   2.609   0.737  1.1544 -0.2842 -0.0320
  451MPD2    C4 6718   1.160   2.644   0.621 -0.4204  0.6743  0.3106
  451MPD2    C5 6719   1.142   2.772   0.576 -0.1309 -0.0446  0.4057
  451MPD2     H 6720   0.956   2.667   0.883  0.2847  0.6601 -0.2042
  451MPD2    H1 6721   1.234   2.577   0.578  0.0309  1.2469  0.2037
  451MPD2    H2 6722   1.050   2.956   0.582  5.2461  0.6294 -0.0405
  451MPD2    H3 6723   1.194   2.810   0.488 -0.4247  1.2050  0.7770
  451MPD2     N 6724   1.115   2.481   0.787 -0.1689 -0.0823 -0.4464
  451MPD2    H5 6725   1.189   2.426   0.743  1.9127  0.9982  1.7167
  451MPD2    N1 6726   0.895   2.922   0.804  0.4204  0.4861 -0.4851
  451MPD2    H7 6727   0.901   3.019   0.773 -1.2960 -0.0357 -2.4688
  452TMC3    C1 6728   1.117   2.293   0.937  0.5137  0.1320 -0.1658
  452TMC3    C2 6729   1.120   2.239   1.064 -0.2407  0.0488 -0.4647
  452TMC3    C3 6730   1.130   2.103   1.080  0.1479  0.5795 -0.3705
  452TMC3    C4 6731   1.100   2.213   0.826  0.0706 -0.1660 -0.0936
  452TMC3    C5 6732   1.083   2.081   0.845  0.0873  0.6943 -0.7250
  452TMC3    C6 6733   1.109   2.020   0.970 -0.2284  0.1376  0.5815
  452TMC3     C 6734   1.094   2.441   0.920 -0.5194 -0.4880  0.1801
  452TMC3     O 6735   1.057   2.511   1.014  0.8763  0.1490 -0.1779
  452TMC3     H 6736   1.109   2.301   1.152 -0.3965 -1.1272  0.3464
  452TMC3    H1 6737   1.106   2.255   0.726 -0.8406  0.8759  0.2831
  452TMC3    H2 6738   1.081   1.917   0.988  1.2003 -0.0660  1.6897
  452TMC3    C7 6739   1.073   2.004   0.724  0.5606  0.0061 -0.2121
  452TMC3    C8 6740   1.125   2.040   1.214  0.7495  1.0599  0.6171
  452TMC3    O1 6741   1.086   2.059   0.619 -0.1298 -0.2454 -0.3130
  452TMC3    O2 6742   1.083   1.925   1.222 -0.1995 -0.0480  0.0631
  453TMC3    C1 6743   1.949   4.033  11.908  0.0861  0.1099 -0.2240
  453TMC3    C2 6744   1.851   3.950  11.944 -0.3533  0.3569  0.1140
  453TMC3    C3 6745   1.736   3.945  11.864 -0.2622 -0.4178  0.1877
  453TMC3    C4 6746   1.952   4.099  11.791  0.4961 -0.0998 -0.0502
  453TMC3    C5 6747   1.846   4.070  11.700  0.3366  0.8645  0.3551
  453TMC3    C6 6748   1.733   4.007  11.741  0.6044 -0.0712  0.1048
  453TMC3     C 6749   2.073   4.045  11.989 -1.1420 -0.6057  0.0418
  453TMC3     O 6750   2.162   4.124  11.952 -0.4494 -0.5328 -0.6321
  453TMC3     H 6751   1.856   3.918  12.048 -1.2191 -1.5918 -0.4480
  453TMC3    H1 6752   2.038   4.158  11.761  1.2234 -1.4793 -0.6722
  453TMC3    H2 6753   1.650   3.994  11.673  0.8284 -1.7309  0.1671
  453TMC3    C7 6754   1.880   4.063  11.559  0.1688 -0.0739 -0.1616
  453TMC3    C8 6755   1.624   3.866  11.900  0.4081 -0.1877  0.3924
  453TMC3    O1 6756   1.818   3.972  11.499  0.0166 -0.2248 -0.0814
  453TMC3    O2 6757   1.519   3.888  11.843 -0.1881 -0.2218  0.1340
  454MPD2     C 6758   0.782   3.385  16.166 -0.3512  0.1236 -0.5314
  454MPD2    C1 6759   0.706   3.488  16.122 -0.5508 -0.4164 -0.0263
  454MPD2    C2 6760   0.668   3.589  16.208 -0.7384  0.7953 -0.3113
  454MPD2    C3 6761   0.694   3.582  16.339 -0.6771  0.1660  0.3630
  454MPD2    C4 6762   0.773   3.479  16.384  0.3113 -0.0506 -0.0298
  454MPD2    C5 6763   0.808   3.377  16.300  0.0352  0.1633  0.0296
  454MPD2     H 6764   0.619   3.677  16.169  1.6753  2.5116  0.5223
  454MPD2    H1 6765   0.806   3.473  16.487  1.2529  0.2442 -0.3136
  454MPD2    H2 6766   0.822   3.305  16.105 -1.3065 -0.0255 -0.9578
  454MPD2    H3 6767   0.864   3.296  16.345 -0.1711 -1.2306 -2.2396
  454MPD2     N 6768   0.667   3.684  16.434  0.0321  0.3560  0.2314
  454MPD2    H5 6769   0.736   3.675  16.507  2.3703  1.5531 -1.8299
  454MPD2    N1 6770   0.638   3.477  15.997 -0.7282  0.0142 -0.4114
  454MPD2    H7 6771   0.567   3.546  15.973 -0.6184  0.1732 -0.2813
  455TMC3    C1 6772   0.442   3.737  16.360 -0.6458  0.2950 -0.2183
  455TMC3    C2 6773   0.362   3.841  16.323 -0.3414  0.1319  0.3433
  455TMC3    C3 6774   0.227   3.815  16.296 -0.4441  0.6542 -0.3047
  455TMC3    C4 6775   0.397   3.609  16.371 -0.4353  0.2658  0.1593
  455TMC3    C5 6776   0.269   3.587  16.323  0.1863  0.6958  0.0407
  455TMC3    C6 6777   0.182   3.685  16.288  0.7490 -0.2167  0.4663
  455TMC3     C 6778   0.561   3.779  16.432  0.3783 -0.3603 -0.2278
  455TMC3     O 6779   0.561   3.869  16.514  0.0415 -0.6048 -0.4252
  455TMC3     H 6780   0.399   3.942  16.334 -1.0828  0.2349  1.9631
  455TMC3    H1 6781   0.458   3.537  16.425  0.9984  1.2609 -0.1356
  455TMC3    H2 6782   0.086   3.659  16.247  0.6107  1.7081 -0.4624
  455TMC3    C7 6783   0.232   3.457  16.280  0.1194 -0.6217  0.3167
  455TMC3    C8 6784   0.150   3.916  16.380 -0.0687  0.5524  0.6780
  455TMC3    O1 6785   0.116   3.436  16.254 -0.1579  1.0056  0.3221
  455TMC3    O2 6786   0.213   4.000  16.442 -0.0617  0.2270  0.0902
  456MPD2     C 6787   3.232   3.518  16.192 -0.4046 -0.1275  0.6826
  456MPD2    C1 6788   3.219   3.452  16.309 -0.1072 -0.3890 -0.1780
  456MPD2    C2 6789   3.138   3.505  16.406 -0.5373  0.4140 -0.0181
  456MPD2    C3 6790   3.077   3.631  16.385  0.0472 -0.3650 -0.4202
  456MPD2    C4 6791   3.089   3.692  16.260  0.3939 -0.5035 -0.0163
  456MPD2    C5 6792   3.162   3.631  16.161  0.5682 -0.1492  0.2717
  456MPD2     H 6793   3.118   3.444  16.493  0.6638 -1.7642 -1.2655
  456MPD2    H1 6794   3.065   3.796  16.244  1.2564 -0.3355 -0.2550
  456MPD2    H2 6795   3.298   3.471  16.119 -2.5149 -0.2918 -1.1257
  456MPD2    H3 6796   3.183   3.692  16.074  0.3242 -0.2796  0.1215
  456MPD2     N 6797   3.013   3.698  16.486 -0.5245 -0.7695 -0.4187
  456MPD2    H5 6798   3.002   3.645  16.572 -0.4486 -0.6935 -0.3627
  456MPD2    N1 6799   3.284   3.329  16.321 -0.0445  0.2992  0.5914
  456MPD2    H7 6800   3.342   3.307  16.240 -2.0465 -3.0950  0.1009
  457TMC3    C1 6801   2.912   3.863  16.622 -0.1094  0.1018  0.0622
  457TMC3    C2 6802   2.850   3.982  16.628  0.5304  0.2223  0.5281
  457TMC3    C3 6803   2.822   4.037  16.753  0.0983 -0.3181  0.0347
  457TMC3    C4 6804   2.927   3.775  16.728 -0.4451 -0.4312  0.1354
  457TMC3    C5 6805   2.885   3.825  16.846  0.1235  0.7163  0.2681
  457TMC3    C6 6806   2.829   3.946  16.859  0.2298  0.8773 -0.0751
  457TMC3     C 6807   2.971   3.829  16.495 -0.2571  0.4050  0.2725
  457TMC3     O 6808   2.950   3.911  16.409  0.4581 -0.1187  0.2727
  457TMC3     H 6809   2.857   4.048  16.542 -0.9436  0.1875  0.3873
  457TMC3    H1 6810   2.964   3.674  16.719 -0.6686 -0.5256  0.3059
  457TMC3    H2 6811   2.815   3.977  16.962 -0.1262  3.0716 -0.7603
  457TMC3    C7 6812   2.911   3.758  16.973 -0.2225 -0.2528 -0.0950
  457TMC3    C8 6813   2.753   4.156  16.784 -0.4142 -0.7076  0.0830
  457TMC3    O1 6814   3.015   3.693  16.974 -0.0091  0.0309  0.0973
  457TMC3    O2 6815   2.743   4.181  16.905 -0.0292  0.1361 -0.2006
  458MPD2     C 6816   1.073   2.927  12.279 -0.4232  0.5886  0.0204
  458MPD2    C1 6817   1.060   2.839  12.390  0.2192 -0.3098  0.0037
  458MPD2    C2 6818   1.025   2.707  12.359  0.3185 -0.3592 -0.1552
  458MPD2    C3 6819   1.013   2.663  12.228  0.5608  0.2774  0.4822
  458MPD2    C4 6820   1.053   2.755  12.124 -0.0514 -0.5683  0.1151
  458MPD2    C5 6821   1.070   2.880  12.157  0.3670 -0.0385  0.8452
  458MPD2     H 6822   1.004   2.639  12.440 -1.7022 -2.2761 -2.3016
  458MPD2    H1 6823   1.038   2.730  12.020 -1.1261 -1.4565  0.4854
  458MPD2    H2 6824   1.101   3.029  12.302 -0.9825  0.4511  1.3438
  458MPD2    H3 6825   1.084   2.953  12.078 -1.4149 -0.9587 -0.3588
  458MPD2     N 6826   1.000   2.525  12.203  0.6534  1.0577  0.4407
  458MPD2    H5 6827   0.979   2.471  12.287  0.4972 -2.7025 -1.9952
  458MPD2    N1 6828   1.087   2.892  12.514 -0.1502  0.0643 -0.0868
  458MPD2    H7 6829   1.136   2.981  12.513  1.4773 -0.8153  1.3374
  459TMC3    C1 6830   1.192   2.852  12.717  0.5334  0.3867  0.7008
  459TMC3    C2 6831   1.273   2.952  12.679 -0.4018 -0.3566  0.2003
  459TMC3    C3 6832   1.360   3.006  12.772 -0.5651 -0.3151  0.5000
  459TMC3    C4 6833   1.206   2.789  12.838 -0.1382  0.8649 -0.5591
  459TMC3    C5 6834   1.307   2.834  12.918 -0.4433 -0.2707  0.0943
  459TMC3    C6 6835   1.383   2.942  12.886 -0.0938 -0.1877  0.2358
  459TMC3     C 6836   1.087   2.809  12.628  0.4393  0.1365  0.2234
  459TMC3     O 6837   1.025   2.713  12.670 -0.3552  0.1538  0.0598
  459TMC3     H 6838   1.293   2.978  12.576  0.1832 -3.0125 -0.3434
  459TMC3    H1 6839   1.139   2.711  12.872  0.1559  0.0762 -1.7725
  459TMC3    H2 6840   1.458   2.987  12.949  2.4221  0.6704 -3.3243
  459TMC3    C7 6841   1.320   2.761  13.037 -0.1434 -0.3945 -0.0490
  459TMC3    C8 6842   1.452   3.115  12.744 -0.9692 -0.2916 -0.3827
  459TMC3    O1 6843   1.257   2.656  13.055  1.0058  0.2331 -0.5469
  459TMC3    O2 6844   1.561   3.103  12.794 -0.4042 -0.5106 -0.1913
  460MPD2     C 6845   0.599   0.405  10.642  0.2287 -0.0426 -0.7167
  460MPD2    C1 6846   0.491   0.450  10.713 -0.2740 -0.1819 -0.3170
  460MPD2    C2 6847   0.388   0.516  10.640  0.6048  0.8341  0.5506
  460MPD2    C3 6848   0.396   0.542  10.505 -0.3974  0.0641 -0.3146
  460MPD2    C4 6849   0.509   0.497  10.439 -0.2024  0.0435 -0.3687
  460MPD2    C5 6850   0.607   0.432  10.512  0.5277 -0.1320 -0.5466
  460MPD2     H 6851   0.296   0.552  10.683 -0.2065 -1.6494  0.8790
  460MPD2    H1 6852   0.529   0.518  10.334 -0.6650  0.1829 -0.4296
  460MPD2    H2 6853   0.685   0.361  10.691  1.2425  1.6507 -0.9590
  460MPD2    H3 6854   0.696   0.388  10.469  0.2383 -2.6588  1.4359
  460MPD2     N 6855   0.284   0.590  10.440  0.5570 -0.1863  0.1150
  460MPD2    H5 6856   0.201   0.615  10.491  0.5770  2.0270 -0.9458
  460MPD2    N1 6857   0.490   0.435  10.854  0.1790 -0.2050 -0.3654
  460MPD2    H7 6858   0.566   0.390  10.903  0.1869 -2.3138 -2.2671
  461TMC3    C1 6859   0.139   0.666  10.279  0.2325 -0.6757  1.0079
  461TMC3    C2 6860   0.053   0.567  10.234 -0.8221 -0.1103  0.2590
  461TMC3    C3 6861   4.646   0.614  10.207  0.6732 -0.4027 -0.3578
  461TMC3    C4 6862   0.101   0.793  10.315  0.0842  0.1650 -0.3855
  461TMC3    C5 6863   4.691   0.825  10.288  0.5805  0.0455 -0.8040
  461TMC3    C6 6864   4.601   0.734  10.248 -0.4562 -0.3797 -0.5165
  461TMC3     C 6865   0.270   0.622  10.309  0.2993  0.7043 -0.0880
  461TMC3     O 6866   0.352   0.607  10.218  0.0430 -0.3030 -0.0236
  461TMC3     H 6867   0.099   0.485  10.181 -1.9474 -0.7803  0.3300
  461TMC3    H1 6868   0.168   0.877  10.328 -1.5735  1.4619 -0.2119
  461TMC3    H2 6869   4.494   0.744  10.254 -0.4838  0.0150 -1.7253
  461TMC3    C7 6870   4.645   0.958  10.262  0.6485 -1.0072  0.2345
  461TMC3    C8 6871   4.610   0.578  10.075 -0.0352 -0.6950  0.2195
  461TMC3    O1 6872   4.533   0.967  10.211 -0.1318  0.7134 -0.1564
  461TMC3    O2 6873   4.663   0.484  10.015  0.1298 -0.3077 -0.7255
  462TMC3    C1 6874   0.110   0.972  17.369 -0.1373 -0.6620  0.1832
  462TMC3    C2 6875   0.233   0.914  17.370  0.2267 -0.8628  0.1617
  462TMC3    C3 6876   0.239   0.774  17.367  0.4200 -0.4698 -1.2278
  462TMC3    C4 6877   4.720   0.895  17.368 -0.0264  0.4798 -0.3819
  462TMC3    C5 6878   0.011   0.754  17.367  0.3047  0.2620 -0.4136
  462TMC3    C6 6879   0.130   0.690  17.381  0.3946 -0.3653  1.2180
  462TMC3     C 6880   0.108   1.116  17.383  0.0449 -0.1889 -0.1855
  462TMC3     O 6881   0.210   1.175  17.357 -0.8361 -0.3206  0.2448
  462TMC3     H 6882   0.318   0.981  17.376  0.1704 -0.4106 -4.1157
  462TMC3    H1 6883   4.619   0.930  17.351  0.2097  0.8002 -1.1011
  462TMC3    H2 6884   0.137   0.583  17.363  1.2972 -0.3723  1.5904
  462TMC3    C7 6885   4.620   0.688  17.423  0.2781 -0.4462 -0.5786
  462TMC3    C8 6886   0.367   0.705  17.340  0.2374  0.0795  0.0797
  462TMC3    O1 6887   4.511   0.737  17.405 -0.4724  0.0253 -0.3861
  462TMC3    O2 6888   0.372   0.586  17.340  0.2544  0.3412 -0.3157
  463MPD2     C 6889   1.131   0.645   2.003 -0.1137 -1.0300  0.5029
  463MPD2    C1 6890   1.073   0.657   1.879 -0.2299 -0.5138  0.3050
  463MPD2    C2 6891   1.110   0.765   1.802  0.1196  0.5210  0.4737
  463MPD2    C3 6892   1.200   0.860   1.846  0.3643 -0.5423  0.3619
  463MPD2    C4 6893   1.282   0.831   1.959  0.5443  0.2276  0.1675
  463MPD2    C5 6894   1.242   0.724   2.047  0.6718  0.3354 -0.5590
  463MPD2     H 6895   1.061   0.785   1.707 -0.7202  1.6139  1.1378
  463MPD2    H1 6896   1.364   0.892   1.996  1.3103 -1.5111  1.3301
  463MPD2    H2 6897   1.100   0.568   2.072  0.4013 -0.5501  1.2614
  463MPD2    H3 6898   1.294   0.702   2.139 -0.7755 -0.1030  0.1394
  463MPD2     N 6899   1.225   0.977   1.774  0.4098  0.5374 -0.2791
  463MPD2    H5 6900   1.298   1.036   1.813  0.9752  0.0786 -0.6486
  463MPD2    N1 6901   0.973   0.571   1.829 -0.6666 -0.2898  0.2195
  463MPD2    H7 6902   0.922   0.598   1.746  0.5907  1.5340  0.0502
  464TMC3    C1 6903   0.844   0.392   1.808 -0.1235  0.0513 -0.0377
  464TMC3    C2 6904   0.717   0.451   1.804 -0.1172 -0.3037 -0.0302
  464TMC3    C3 6905   0.641   0.398   1.702 -0.8220 -0.6964 -0.3249
  464TMC3    C4 6906   0.868   0.266   1.755 -0.1140 -0.5355 -0.2468
  464TMC3    C5 6907   0.779   0.220   1.659  0.6429  0.3266  0.6988
  464TMC3    C6 6908   0.662   0.288   1.626  0.0340 -0.6016  0.8312
  464TMC3     C 6909   0.947   0.450   1.885 -0.1987  0.4438  0.1893
  464TMC3     O 6910   0.995   0.382   1.972 -0.3041  0.6782  0.4920
  464TMC3     H 6911   0.691   0.543   1.855 -0.0670 -0.4626  0.2788
  464TMC3    H1 6912   0.971   0.232   1.752 -0.0846 -0.3047 -1.7627
  464TMC3    H2 6913   0.588   0.251   1.556 -0.2214  1.7369 -0.1653
  464TMC3    C7 6914   0.798   0.081   1.612 -0.0380  0.3970  0.1499
  464TMC3    C8 6915   0.528   0.485   1.678  0.0079 -0.6851  0.4622
  464TMC3    O1 6916   0.882   0.011   1.666 -0.4223  0.4005 -1.0541
  464TMC3    O2 6917   0.478   0.557   1.767 -0.3847  0.1142  0.4514
  465MPD2     C 6918   2.218   3.646  17.066  0.5902 -0.7510 -0.9790
  465MPD2    C1 6919   2.088   3.693  17.055 -0.4136  0.2065  0.2670
  465MPD2    C2 6920   2.043   3.754  16.937 -0.4709  0.1004  0.2450
  465MPD2    C3 6921   2.133   3.763  16.832 -0.2642 -0.3632  0.1542
  465MPD2    C4 6922   2.262   3.722  16.845 -0.2844 -0.1766  0.5189
  465MPD2    C5 6923   2.311   3.677  16.966  0.1588 -0.7133 -0.3597
  465MPD2     H 6924   1.939   3.779  16.916  0.2605  2.4868 -0.5311
  465MPD2    H1 6925   2.340   3.739  16.771  2.1295  0.9198  3.3220
  465MPD2    H2 6926   2.255   3.588  17.150 -0.1613  0.6335  0.3106
  465MPD2    H3 6927   2.416   3.658  16.986  0.5728  0.2982 -1.5061
  465MPD2     N 6928   2.075   3.810  16.714 -0.5777  0.5607 -0.0680
  465MPD2    H5 6929   1.980   3.845  16.717 -0.0916  1.8484 -0.0300
  465MPD2    N1 6930   1.995   3.683  17.155  0.7288 -0.5882  1.0768
  465MPD2    H7 6931   1.898   3.702  17.131  1.2441  2.1127  1.1585
  466TMC3    C1 6932   1.826   3.960  16.537 -0.1260 -0.1606 -0.5648
  466TMC3    C2 6933   1.876   4.071  16.480  0.2409  0.0716 -0.1179
  466TMC3    C3 6934   1.998   4.063  16.419 -0.4147  0.4026 -0.1495
  466TMC3    C4 6935   1.899   3.843  16.546  0.0752 -0.0633  0.1849
  466TMC3    C5 6936   2.022   3.847  16.496 -0.8291 -0.8659 -0.2795
  466TMC3    C6 6937   2.060   3.945  16.407 -0.3556  0.7546 -0.0089
  466TMC3     C 6938   1.764   3.977  16.664 -0.5444  0.3271 -0.2350
  466TMC3     O 6939   1.826   3.919  16.753 -0.1289 -0.7411 -0.4449
  466TMC3     H 6940   1.815   4.158  16.457 -0.6007 -0.9135 -1.5903
  466TMC3    H1 6941   1.858   3.751  16.583 -1.8463  0.4562 -0.6613
  466TMC3    H2 6942   2.156   3.943  16.355 -0.9598  1.7623 -1.1575
  466TMC3    C7 6943   2.123   3.809  16.588  0.3755 -0.3548  0.2193
  466TMC3    C8 6944   2.074   4.179  16.406 -0.4033  0.1711  0.0407
  466TMC3    O1 6945   2.232   3.772  16.543 -0.1614  0.2365 -0.7714
  466TMC3    O2 6946   2.170   4.176  16.327  0.3397  0.2351 -0.3182
  467TMC3    C1 6947   3.100   1.860  13.691 -0.1001  0.3296 -0.4858
  467TMC3    C2 6948   3.162   1.925  13.589  0.4337 -0.0709  0.1717
  467TMC3    C3 6949   3.092   1.930  13.471  0.2951 -0.6928  0.4258
  467TMC3    C4 6950   2.981   1.793  13.671  0.0766 -0.0900  0.5454
  467TMC3    C5 6951   2.923   1.807  13.550 -0.5602 -0.5211  0.2569
  467TMC3    C6 6952   2.973   1.874  13.447 -0.5013  0.4360  0.0538
  467TMC3     C 6953   3.192   1.792  13.779 -0.3664 -0.6317 -0.0795
  467TMC3     O 6954   3.147   1.690  13.829 -0.0381  0.2341 -0.5484
  467TMC3     H 6955   3.261   1.969  13.593  0.1791  0.5342 -0.1749
  467TMC3    H1 6956   2.924   1.737  13.745  0.4956 -2.9804 -1.3303
  467TMC3    H2 6957   2.928   1.878  13.349 -1.3979 -1.8934  0.3816
  467TMC3    C7 6958   2.790   1.735  13.536  0.6317  0.5185  0.5514
  467TMC3    C8 6959   3.160   2.011  13.369 -0.0862 -0.5007  0.8164
  467TMC3    O1 6960   2.777   1.666  13.437  0.3597 -0.1223 -0.3668
  467TMC3    O2 6961   3.260   2.069  13.409  0.3374  0.1574 -0.1204
  468MPD2     C 6962   1.900   0.307  10.446  0.2514 -0.1904 -0.6481
  468MPD2    C1 6963   2.027   0.296  10.488 -0.2715  0.4068  0.2199
  468MPD2    C2 6964   2.075   0.175  10.540  0.1692  0.9306  0.5539
  468MPD2    C3 6965   1.992   0.067  10.542  0.8170  0.1577 -0.4568
  468MPD2    C4 6966   1.869   0.078  10.497 -0.3436 -0.2835  0.6920
  468MPD2    C5 6967   1.815   0.200  10.447 -0.1413 -0.2189  0.3021
  468MPD2     H 6968   2.178   0.157  10.568 -0.0392  0.9225  1.3003
  468MPD2    H1 6969   1.794   4.722  10.500  1.1231 -1.5924  2.3094
  468MPD2    H2 6970   1.858   0.403  10.420 -0.2536 -0.0187  0.7931
  468MPD2    H3 6971   1.716   0.216  10.406  2.0701  2.4310 -4.0101
  468MPD2     N 6972   2.033   4.657  10.583  0.2352  0.1678  0.0223
  468MPD2    H5 6973   1.967   4.580  10.578  1.0885 -0.5155 -0.5730
  468MPD2    N1 6974   2.109   0.408  10.491 -0.3459  1.1158 -0.3362
  468MPD2    H7 6975   2.195   0.393  10.544  0.2535  0.0024 -1.6329
  469TMC3    C1 6976   2.193   0.619  10.471 -0.4295  0.1249  0.5536
  469TMC3    C2 6977   2.320   0.589  10.512  0.2214  0.1305 -0.5376
  469TMC3    C3 6978   2.399   0.675  10.579 -0.7749  0.2755  0.0976
  469TMC3    C4 6979   2.137   0.740  10.502 -0.5252 -0.4927 -0.2899
  469TMC3    C5 6980   2.220   0.830  10.567 -0.3682  0.5739  0.2661
  469TMC3    C6 6981   2.347   0.804  10.605  0.3641  0.9210  0.0880
  469TMC3     C 6982   2.104   0.523  10.419 -0.8518  0.0047  0.1318
  469TMC3     O 6983   2.021   0.570  10.347 -0.5224  0.0012 -0.3091
  469TMC3     H 6984   2.340   0.486  10.484 -1.7182  0.0297 -1.5483
  469TMC3    H1 6985   2.047   0.777  10.455  0.2384  1.6428 -0.0836
  469TMC3    H2 6986   2.406   0.887  10.643 -0.0593  0.8803  0.8465
  469TMC3    C7 6987   2.162   0.952  10.617  0.9580 -0.1630  0.6632
  469TMC3    C8 6988   2.533   0.635  10.619 -0.3050 -0.4764 -0.1885
  469TMC3    O1 6989   2.244   1.035  10.645 -0.6851 -0.0599 -0.6685
  469TMC3    O2 6990   2.568   0.532  10.563 -0.3684  0.5625 -0.3490
  470TMC3    C1 6991   0.330   1.823   0.598 -0.2596 -0.0670 -0.0533
  470TMC3    C2 6992   0.220   1.901   0.558  0.2735  0.0605  0.3320
  470TMC3    C3 6993   0.226   2.036   0.554  0.4328 -0.4931 -0.8707
  470TMC3    C4 6994   0.437   1.883   0.655 -0.6213  0.9140  0.0118
  470TMC3    C5 6995   0.444   2.018   0.638 -0.0356 -0.2160  0.2550
  470TMC3    C6 6996   0.342   2.099   0.590 -0.0098 -0.2590 -0.4564
  470TMC3     C 6997   0.329   1.681   0.596  0.0440  0.0106 -0.6796
  470TMC3     O 6998   0.403   1.628   0.680 -0.3466 -0.2472  0.1725
  470TMC3     H 6999   0.126   1.849   0.548  0.2252  0.0108  1.0095
  470TMC3    H1 7000   0.528   1.829   0.678 -0.5660  0.5610 -1.0344
  470TMC3    H2 7001   0.354   2.206   0.574  1.7522 -0.4997 -0.7741
  470TMC3    C7 7002   0.534   2.097   0.723  0.6301 -0.0322 -0.4086
  470TMC3    C8 7003   0.105   2.118   0.560 -0.0793 -0.1847  0.7177
  470TMC3    O1 7004   0.559   2.206   0.673 -0.0349  0.3830  0.2127
  470TMC3    O2 7005   0.126   2.222   0.625 -0.2330  0.6966  0.1705
  471MPD2     C 7006   4.579   2.956  16.688  0.5088 -0.4689 -0.0480
  471MPD2    C1 7007   4.539   2.840  16.745 -0.2139  0.4456  0.8092
  471MPD2    C2 7008   4.587   2.803  16.868 -0.9556 -1.0128  0.0882
  471MPD2    C3 7009   4.673   2.879  16.937  0.3623  0.3407 -0.4316
  471MPD2    C4 7010   4.716   2.994  16.878 -0.8447 -0.0864  0.6831
  471MPD2    C5 7011   4.673   3.031  16.754 -0.2480  1.0917  0.0609
  471MPD2     H 7012   4.546   2.717  16.920 -0.9865 -0.1534  1.5044
  471MPD2    H1 7013   0.068   3.055  16.927  2.1522 -3.0752 -0.1040
  471MPD2    H2 7014   4.547   2.979  16.587  1.0945 -0.7659 -0.2997
  471MPD2    H3 7015   4.697   3.126  16.708 -1.8032  0.1892 -2.5920
  471MPD2     N 7016   0.010   2.842  17.065  0.7763 -0.1488 -0.8528
  471MPD2    H5 7017   0.070   2.911  17.110  2.2438 -3.4070  2.1610
  471MPD2    N1 7018   4.454   2.748  16.688  0.5324 -0.3259  0.2428
  471MPD2    H7 7019   4.437   2.660  16.737 -1.4721 -1.5921 -2.7397
  472TMC3    C1 7020   4.250   2.681  16.588  0.0763 -0.4879 -0.7759
  472TMC3    C2 7021   4.179   2.657  16.478  0.4468 -0.2343  0.3398
  472TMC3    C3 7022   4.057   2.591  16.491 -1.1279  0.0265 -0.6683
  472TMC3    C4 7023   4.204   2.638  16.711 -0.2935  0.8182 -0.5640
  472TMC3    C5 7024   4.080   2.579  16.720  0.6591  0.1329  0.2997
  472TMC3    C6 7025   4.002   2.549  16.611  0.1862  0.2868  0.2885
  472TMC3     C 7026   4.366   2.771  16.585  0.6536 -0.3519 -0.0705
  472TMC3     O 7027   4.372   2.854  16.499  0.0201 -0.0185 -0.1308
  472TMC3     H 7028   4.224   2.691  16.385  1.0795 -0.4848  0.5510
  472TMC3    H1 7029   4.249   2.670  16.805 -0.8708  0.0674 -0.0352
  472TMC3    H2 7030   3.909   2.496  16.625 -0.9361  2.1126 -0.3306
  472TMC3    C7 7031   4.040   2.520  16.848 -0.1684 -0.2252 -0.7609
  472TMC3    C8 7032   3.999   2.532  16.367 -0.3586 -0.4808 -0.4631
  472TMC3    O1 7033   4.121   2.462  16.922  0.3468  0.5311  0.4432
  472TMC3    O2 7034   4.056   2.555  16.258  0.2967 -0.0973  0.0715
  473MPD2     C 7035   4.285   4.695  13.890  0.3115  0.8997  0.0905
  473MPD2    C1 7036   4.324   0.075  13.812  0.8532  0.0412 -0.0786
  473MPD2    C2 7037   4.394   0.181  13.869 -0.3261  0.1297  0.3805
  473MPD2    C3 7038   4.427   0.172  14.004 -0.3816 -0.0271 -0.0172
  473MPD2    C4 7039   4.391   0.068  14.081  0.2962 -0.0307  0.1131
  473MPD2    C5 7040   4.314   4.692  14.024 -0.4017  0.3448 -0.2446
  473MPD2     H 7041   4.425   0.266  13.808  0.9995  0.7342  1.9026
  473MPD2    H1 7042   4.420   0.065  14.185 -0.8616  2.3981  0.5015
  473MPD2    H2 7043   4.225   4.615  13.850 -0.7145  0.8547  1.6736
  473MPD2    H3 7044   4.273   4.614  14.087 -0.1939 -0.6771 -1.3826
  473MPD2     N 7045   4.504   0.270  14.078 -0.7554  0.3666 -0.1786
  473MPD2    H5 7046   4.518   0.258  14.177 -1.2887 -0.0077 -0.1486
  473MPD2    N1 7047   4.312   0.077  13.667 -0.8029 -0.2888 -0.3630
  473MPD2    H7 7048   4.345   0.159  13.618 -0.1131  1.5880  3.2568
  474TMC3    C1 7049   4.589   0.472  14.131 -0.1835 -0.0450 -0.3857
  474TMC3    C2 7050   4.523   0.589  14.147  0.0907  0.3767  0.0249
  474TMC3    C3 7051   4.570   0.684  14.230  0.4713 -0.1631  0.0121
  474TMC3    C4 7052   4.701   0.441  14.204 -0.4531  0.1155 -0.2023
  474TMC3    C5 7053   0.013   0.528  14.299  0.4446 -0.0477  0.9386
  474TMC3    C6 7054   4.682   0.656  14.313  0.0621 -0.3754 -0.4855
  474TMC3     C 7055   4.547   0.390  14.027 -0.8249 -0.1049  0.4832
  474TMC3     O 7056   4.529   0.442  13.918 -0.6268  0.0578 -0.2779
  474TMC3     H 7057   4.435   0.612  14.086  0.5517  0.0418 -0.7612
  474TMC3    H1 7058   0.036   0.352  14.182  1.4544  0.9273  1.5040
  474TMC3    H2 7059   0.003   0.729  14.379  0.0135  2.1032 -3.2239
  474TMC3    C7 7060   0.147   0.508  14.360  0.3971 -0.4262 -0.6343
  474TMC3    C8 7061   4.495   0.806  14.235  0.1636 -0.0355 -1.1749
  474TMC3    O1 7062   0.236   0.467  14.282  0.2193  0.0712 -0.0353
  474TMC3    O2 7063   4.428   0.823  14.133 -0.1661 -0.5000  0.1825
  475MPD2     C 7064   3.651   2.469  10.036  0.5775  0.1886  0.1806
  475MPD2    C1 7065   3.696   2.593  10.081 -0.3066  0.3377 -0.0732
  475MPD2    C2 7066   3.623   2.664  10.180 -0.1516  0.0095 -0.1371
  475MPD2    C3 7067   3.503   2.613  10.223 -0.7497 -0.4078 -0.2942
  475MPD2    C4 7068   3.468   2.480  10.192 -0.3964  0.0617 -0.6896
  475MPD2    C5 7069   3.540   2.413  10.099 -0.5371 -0.3498 -0.4855
  475MPD2     H 7070   3.652   2.762  10.216 -1.5151 -0.2042  1.5539
  475MPD2    H1 7071   3.389   2.423  10.238 -0.6520  2.2974  1.6558
  475MPD2    H2 7072   3.703   2.421   9.953 -0.7343 -0.5415 -0.2151
  475MPD2    H3 7073   3.498   2.318  10.072  0.9948 -0.9383 -0.8318
  475MPD2     N 7074   3.404   2.697  10.280  0.3538  0.3078 -0.1059
  475MPD2    H5 7075   3.428   2.796  10.283  1.3001  0.1457 -2.3127
  475MPD2    N1 7076   3.814   2.633  10.021 -0.0914  0.3439  0.1343
  475MPD2    H7 7077   3.863   2.561   9.969 -0.6919  0.9685 -1.3017
  476TMC3    C1 7078   3.804   2.865  10.085  0.3126  0.6630  0.4965
  476TMC3    C2 7079   3.712   2.933  10.009  1.2796 -0.4087  0.3855
  476TMC3    C3 7080   3.663   3.051  10.060 -0.2015  0.0126 -0.4968
  476TMC3    C4 7081   3.845   2.918  10.206  0.2203 -0.5235  0.2239
  476TMC3    C5 7082   3.807   3.040  10.250 -0.1525  0.0335 -0.1716
  476TMC3    C6 7083   3.709   3.111  10.179  0.1148 -0.4672 -0.4030
  476TMC3     C 7084   3.881   2.750  10.035  0.4767 -0.2802  0.2911
  476TMC3     O 7085   3.988   2.780   9.987  0.1225  0.1734  0.6248
  476TMC3     H 7086   3.691   2.901   9.908  0.1961  0.4308  0.3396
  476TMC3    H1 7087   3.932   2.868  10.247  0.0107 -0.9233  0.1700
  476TMC3    H2 7088   3.666   3.201  10.219  1.1502 -0.7238  1.2878
  476TMC3    C7 7089   3.885   3.104  10.357 -0.6198 -0.7154  0.4446
  476TMC3    C8 7090   3.528   3.069  10.043 -0.6438 -0.0757 -0.5190
  476TMC3    O1 7091   3.991   3.049  10.377 -0.8107  0.1867  0.1048
  476TMC3    O2 7092   3.480   3.178  10.071 -0.4133 -0.3748  0.2985
  477MPD2     C 7093   1.065   4.527  11.847  0.4256 -0.3350  0.6558
  477MPD2    C1 7094   0.953   4.458  11.809 -0.1905 -0.7685 -0.1971
  477MPD2    C2 7095   0.930   4.329  11.853 -0.9215  0.9886 -0.3939
  477MPD2    C3 7096   1.012   4.276  11.949  0.0197  0.7313 -0.0983
  477MPD2    C4 7097   1.119   4.345  11.994  0.8222 -0.9087 -0.2180
  477MPD2    C5 7098   1.149   4.465  11.941 -0.4206  0.1927  0.1033
  477MPD2     H 7099   0.839   4.279  11.822  0.9550 -1.7047 -1.5092
  477MPD2    H1 7100   1.187   4.305  12.067 -0.4460  4.1049  3.6835
  477MPD2    H2 7101   1.092   4.624  11.807 -1.2297  0.3815  1.2606
  477MPD2    H3 7102   1.241   4.514  11.971  0.3322 -1.7264  0.9668
  477MPD2     N 7103   0.972   4.157  12.017 -0.2890 -0.3800 -0.2252
  477MPD2    H5 7104   0.906   4.090  11.978  0.4891 -1.2839  0.0115
  477MPD2    N1 7105   0.863   4.532  11.728 -0.4762  0.7479  0.0579
  477MPD2    H7 7106   0.881   4.632  11.731  0.7504  0.5410 -0.2241
  478TMC3    C1 7107   0.690   4.583  11.573 -0.6207  0.0472  0.0802
  478TMC3    C2 7108   0.650   4.691  11.651 -0.1748 -0.8804  0.2643
  478TMC3    C3 7109   0.586   0.070  11.586 -0.1822 -0.9641  0.7358
  478TMC3    C4 7110   0.658   4.569  11.442  0.1498 -0.0846 -0.4689
  478TMC3    C5 7111   0.584   4.667  11.388 -0.9550 -0.8103  0.6872
  478TMC3    C6 7112   0.548   0.057  11.455  0.4891  0.7866  0.1382
  478TMC3     C 7113   0.785   4.481  11.628  0.0020  0.6099  0.4461
  478TMC3     O 7114   0.783   4.368  11.583  0.1325 -0.0059  0.0005
  478TMC3     H 7115   0.681   4.714  11.752 -1.3927  1.1155  0.1875
  478TMC3    H1 7116   0.688   4.480  11.389 -0.1686  1.2837 -2.9895
  478TMC3    H2 7117   0.468   0.122  11.420  0.0293  1.1670  1.9106
  478TMC3    C7 7118   0.574   4.661  11.240 -0.6408  0.8861  0.2493
  478TMC3    C8 7119   0.504   0.158  11.667 -0.2036 -0.1800  0.5967
  478TMC3    O1 7120   0.662   4.600  11.174 -0.1575 -0.5362 -0.2567
  478TMC3    O2 7121   0.467   0.259  11.613  0.0639 -0.4143 -0.3485
  479MPD2     C 7122   4.146   2.189  15.248  0.7086  0.4964 -0.0201
  479MPD2    C1 7123   4.077   2.099  15.322 -0.6226 -0.2679 -0.2947
  479MPD2    C2 7124   4.061   2.124  15.456 -0.7029  0.4627  0.0792
  479MPD2    C3 7125   4.112   2.239  15.515 -0.1476  0.1695 -0.5005
  479MPD2    C4 7126   4.171   2.330  15.437 -0.2294 -0.2871  0.2147
  479MPD2    C5 7127   4.196   2.306  15.307  0.1813  0.6297 -0.2280
  479MPD2     H 7128   4.023   2.046  15.520  2.2465  1.2533  2.8060
  479MPD2    H1 7129   4.213   2.420  15.481  2.1947 -1.4258  0.2274
  479MPD2    H2 7130   4.152   2.184  15.140 -2.6625  0.9468 -0.2385
  479MPD2    H3 7131   4.247   2.379  15.245  2.3799 -0.7674 -0.0821
  479MPD2     N 7132   4.088   2.281  15.648  0.1440 -0.0333 -0.1918
  479MPD2    H5 7133   4.149   2.354  15.683 -0.6837  0.1622  0.8233
  479MPD2    N1 7134   4.017   1.992  15.257 -0.0711 -0.3912  0.1725
  479MPD2    H7 7135   4.001   2.001  15.157 -0.6627  0.0924  0.3078
  480TMC3    C1 7136   3.728   1.990  15.748 -0.0714 -0.5750 -0.0881
  480TMC3    C2 7137   3.663   2.011  15.632 -0.2813  0.0203  0.3001
  480TMC3    C3 7138   3.705   2.110  15.548 -0.3716 -0.0941  0.1387
  480TMC3    C4 7139   3.834   2.069  15.788  0.4313  0.5930  0.2002
  480TMC3    C5 7140   3.873   2.168  15.700 -0.9221  0.0553  0.1772
  480TMC3    C6 7141   3.802   2.201  15.590 -0.2251  0.2589 -0.0439
  480TMC3     C 7142   3.728   1.855  15.808 -0.5128 -0.3394 -0.8416
  480TMC3     O 7143   3.826   1.815  15.867  0.6328  0.1355 -0.2715
  480TMC3     H 7144   3.574   1.953  15.608 -1.4981  0.3119  4.1784
  480TMC3    H1 7145   3.880   2.060  15.885  0.2387  0.4712  0.2801
  480TMC3    H2 7146   3.847   2.280  15.531  1.4190 -1.0521 -0.5579
  480TMC3    C7 7147   3.994   2.236  15.739  0.0880  0.0100  0.4187
  480TMC3    C8 7148   3.629   2.136  15.420  0.0296 -0.5079  0.3849
  480TMC3    O1 7149   3.993   2.259  15.862  0.0494  0.2399 -0.2968
  480TMC3    O2 7150   3.528   2.070  15.402 -0.1294 -0.5292 -0.9713
  481MPD2     C 7151   0.987   1.590  13.819  0.2944 -0.3160  0.0938
  481MPD2    C1 7152   0.868   1.558  13.879  0.3872 -0.9450  0.0739
  481MPD2    C2 7153   0.857   1.571  14.023  0.5521  0.2107 -0.5460
  481MPD2    C3 7154   0.970   1.599  14.096 -0.2178 -0.6705  0.5169
  481MPD2    C4 7155   1.091   1.630  14.037  0.1645 -0.6503  0.1704
  481MPD2    C5 7156   1.092   1.637  13.895 -0.6995  0.3241  0.3335
  481MPD2     H 7157   0.761   1.574  14.073 -0.7720 -1.4636 -2.9523
  481MPD2    H1 7158   1.183   1.658  14.086 -0.2673 -1.3965  1.4254
  481MPD2    H2 7159   0.994   1.583  13.712  1.1743 -3.4034  0.3388
  481MPD2    H3 7160   1.188   1.664  13.853 -0.2599  0.4697  1.4456
  481MPD2     N 7161   0.972   1.607  14.237 -0.2781 -0.1130 -0.2635
  481MPD2    H5 7162   1.061   1.633  14.277 -1.0330  0.2359  1.2073
  481MPD2    N1 7163   0.755   1.526  13.801  0.4709 -0.6978  0.2720
  481MPD2    H7 7164   0.769   1.532  13.701  0.5529  1.0539  0.3965
  482TMC3    C1 7165   0.522   1.498  13.744  0.2226  0.3182 -0.2019
  482TMC3    C2 7166   0.397   1.462  13.781  0.4703 -0.7118 -0.2150
  482TMC3    C3 7167   0.294   1.491  13.696  0.2853  0.1937 -0.2436
  482TMC3    C4 7168   0.537   1.566  13.626 -0.4894 -0.3669  0.0705
  482TMC3    C5 7169   0.431   1.601  13.551  0.5968 -0.2466  0.1394
  482TMC3    C6 7170   0.303   1.557  13.580  0.3244 -0.5744 -0.6302
  482TMC3     C 7171   0.626   1.502  13.845 -0.0346 -0.3742  0.4714
  482TMC3     O 7172   0.585   1.477  13.957  0.1118  0.0998  0.5627
  482TMC3     H 7173   0.379   1.403  13.870 -0.4398 -1.2545 -0.7593
  482TMC3    H1 7174   0.636   1.597  13.594 -1.4670  2.0670 -0.6170
  482TMC3    H2 7175   0.220   1.595  13.521  0.6495  0.3253 -0.5092
  482TMC3    C7 7176   0.445   1.642  13.410 -0.2222  0.4551 -0.3482
  482TMC3    C8 7177   0.174   1.408  13.711 -0.3981 -0.3169  1.0529
  482TMC3    O1 7178   0.353   1.702  13.358  0.0987 -0.4129 -0.1256
  482TMC3    O2 7179   0.147   1.378  13.825 -0.6739 -0.4002 -0.5213
  483TMC3    C1 7180   3.244   4.515   0.606  0.4638 -0.1804  0.7136
  483TMC3    C2 7181   3.207   4.642   0.567 -0.0473  0.5882  0.7485
  483TMC3    C3 7182   3.224   0.015   0.658  0.5980  0.0806  0.1236
  483TMC3    C4 7183   3.300   4.492   0.727 -0.4540  0.7065 -0.3393
  483TMC3    C5 7184   3.307   4.591   0.816 -0.0473  0.2646  0.6891
  483TMC3    C6 7185   3.264   4.717   0.788 -1.2348 -0.0221  0.0444
  483TMC3     C 7186   3.175   4.402   0.536 -0.4824  0.1471 -0.3235
  483TMC3     O 7187   3.138   4.418   0.421  0.2112  0.2686 -0.1462
  483TMC3     H 7188   3.165   4.662   0.469  0.4664  0.4451  0.5001
  483TMC3    H1 7189   3.336   4.395   0.760 -0.4851 -0.3483 -3.3862
  483TMC3    H2 7190   3.269   0.067   0.868 -0.9083  0.4065 -0.3678
  483TMC3    C7 7191   3.427   4.595   0.898 -0.2187  0.0486 -0.3559
  483TMC3    C8 7192   3.285   0.130   0.583 -0.9104  0.1792  0.0500
  483TMC3    O1 7193   3.526   4.530   0.872  0.1493  0.2783 -0.3331
  483TMC3    O2 7194   3.356   0.091   0.492 -0.2005  0.1525 -0.3089
  484MPD2     C 7195   1.415   3.372  12.482  0.2042 -0.0677  0.1970
  484MPD2    C1 7196   1.485   3.279  12.560  0.1006  0.5043  0.0263
  484MPD2    C2 7197   1.623   3.273  12.549 -0.0320  0.6657 -0.2710
  484MPD2    C3 7198   1.691   3.371  12.482 -0.0574 -0.4799  0.1434
  484MPD2    C4 7199   1.620   3.462  12.404 -0.0367 -0.2925  0.2633
  484MPD2    C5 7200   1.486   3.455  12.395  0.0888 -0.1509  0.1642
  484MPD2     H 7201   1.680   3.209  12.614 -0.0685 -0.1719 -1.0692
  484MPD2    H1 7202   1.671   3.531  12.337  0.8509  0.7563  2.0128
  484MPD2    H2 7203   1.310   3.394  12.496 -0.3341 -2.7970  0.3451
  484MPD2    H3 7204   1.442   3.522  12.321  1.5547 -0.7263 -1.2278
  484MPD2     N 7205   1.836   3.373  12.462 -0.4574 -0.5794 -0.5906
  484MPD2    H5 7206   1.879   3.459  12.428 -1.5997  0.1314 -0.2570
  484MPD2    N1 7207   1.407   3.189  12.636 -0.5075 -0.0231  0.5238
  484MPD2    H7 7208   1.306   3.193  12.630 -0.4269 -2.1152 -2.0484
  485TMC3    C1 7209   2.052   3.286  12.409 -0.0162  0.3826 -0.0830
  485TMC3    C2 7210   2.159   3.213  12.455  0.0986  0.5526  0.2328
  485TMC3    C3 7211   2.289   3.259  12.425  0.0123 -0.7056  0.7848
  485TMC3    C4 7212   2.066   3.387  12.320 -0.0274  0.2954  0.0598
  485TMC3    C5 7213   2.198   3.412  12.279  0.2478 -0.6395 -0.1138
  485TMC3    C6 7214   2.308   3.365  12.345 -0.3596 -0.1399  0.0020
  485TMC3     C 7215   1.928   3.269  12.480  0.6319  0.4236  0.2497
  485TMC3     O 7216   1.907   3.152  12.514 -0.3208  0.3394  0.0841
  485TMC3     H 7217   2.146   3.141  12.535  1.1725  0.4316  0.2951
  485TMC3    H1 7218   1.976   3.426  12.274 -0.8564 -1.5616  0.0802
  485TMC3    H2 7219   2.407   3.403  12.323 -0.6421  0.5027 -0.1679
  485TMC3    C7 7220   2.221   3.386  12.132  0.9309  0.1753  0.3556
  485TMC3    C8 7221   2.398   3.164  12.414  0.5557 -1.0067 -0.3429
  485TMC3    O1 7222   2.331   3.413  12.088  0.1255 -0.0812 -0.4529
  485TMC3    O2 7223   2.510   3.202  12.385 -0.4778 -0.1842 -0.3464
  486MPD2     C 7224   3.833   1.738  12.820 -0.4056  0.2659 -0.0304
  486MPD2    C1 7225   3.698   1.745  12.786 -0.0274  0.2812 -0.7981
  486MPD2    C2 7226   3.643   1.861  12.732 -0.5256  0.1620  0.7631
  486MPD2    C3 7227   3.721   1.974  12.703 -0.6053 -0.2349  0.6607
  486MPD2    C4 7228   3.851   1.974  12.754 -0.1660 -0.2067  1.0859
  486MPD2    C5 7229   3.898   1.856  12.812  0.0669 -0.4058 -0.1027
  486MPD2     H 7230   3.544   1.857  12.689 -0.8171 -0.8044  1.5386
  486MPD2    H1 7231   3.924   2.054  12.750  1.9715 -2.2095  0.7924
  486MPD2    H2 7232   3.879   1.652  12.869 -1.4548 -0.5718 -0.5112
  486MPD2    H3 7233   4.000   1.864  12.848  0.1692  0.0053 -0.4880
  486MPD2     N 7234   3.646   2.090  12.663  0.1514 -0.9002 -0.0156
  486MPD2    H5 7235   3.553   2.070  12.627 -0.2761  4.0785 -1.7294
  486MPD2    N1 7236   3.627   1.626  12.808 -1.0936 -0.4354 -0.2409
  486MPD2    H7 7237   3.676   1.552  12.858  0.8374 -0.5863 -2.3357
  487TMC3    C1 7238   3.480   1.445  12.795 -0.0396  0.3057 -0.2166
  487TMC3    C2 7239   3.405   1.366  12.710  1.0419 -0.1049 -0.0809
  487TMC3    C3 7240   3.370   1.235  12.752 -0.1924  0.1407 -0.0262
  487TMC3    C4 7241   3.507   1.402  12.924 -0.1846 -0.8902 -1.0195
  487TMC3    C5 7242   3.466   1.284  12.960 -0.2320  0.2209 -0.7095
  487TMC3    C6 7243   3.419   1.190  12.875 -0.1130  0.0503  0.2894
  487TMC3     C 7244   3.510   1.583  12.755  0.2258 -0.1930  0.6815
  487TMC3     O 7245   3.439   1.640  12.676 -0.5282 -0.1917 -0.4511
  487TMC3     H 7246   3.372   1.408  12.615  1.0744  0.8312  0.3280
  487TMC3    H1 7247   3.518   1.474  13.005 -0.0736 -0.4255 -1.4502
  487TMC3    H2 7248   3.383   1.094  12.909 -0.7747 -1.0019 -3.2917
  487TMC3    C7 7249   3.430   1.274  13.096  0.3238 -0.1648 -0.1874
  487TMC3    C8 7250   3.226   1.209  12.756  0.3329  0.0105 -0.0396
  487TMC3    O1 7251   3.509   1.325  13.176 -0.4989  0.1329 -0.5865
  487TMC3    O2 7252   3.182   1.173  12.866  0.3946  0.0913  0.1369
  488MPD2     C 7253   3.784   3.823  16.429 -0.3913 -0.3326 -0.4595
  488MPD2    C1 7254   3.746   3.956  16.418  0.2918  0.4158 -0.0252
  488MPD2    C2 7255   3.679   4.021  16.519 -0.3894 -0.1429  0.5649
  488MPD2    C3 7256   3.647   3.960  16.638 -0.2084  0.8010  0.0829
  488MPD2    C4 7257   3.683   3.827  16.652  0.0397  0.4238  0.7792
  488MPD2    C5 7258   3.748   3.763  16.548  0.5159 -0.2214 -0.5037
  488MPD2     H 7259   3.657   4.125  16.499 -1.9935 -0.4879  0.5385
  488MPD2    H1 7260   3.669   3.770  16.743 -0.8869 -0.6684 -0.0552
  488MPD2    H2 7261   3.849   3.775  16.357  1.2824 -0.6614  1.2798
  488MPD2    H3 7262   3.772   3.658  16.557 -0.0651 -0.3637 -0.6399
  488MPD2     N 7263   3.586   4.033  16.741 -0.0970 -0.2976  0.0152
  488MPD2    H5 7264   3.578   4.133  16.721  2.2707  0.3797  2.4551
  488MPD2    N1 7265   3.757   4.019  16.294 -0.4433 -0.3805  0.4089
  488MPD2    H7 7266   3.752   4.120  16.294 -0.9052 -0.4037  0.3175
  489TMC3    C1 7267   3.469   4.064  16.937  0.4874 -0.3604  0.2846
  489TMC3    C2 7268   3.430   4.187  16.884 -0.3870 -1.0202 -0.7557
  489TMC3    C3 7269   3.348   4.261  16.962 -1.0559 -0.3909 -0.1864
  489TMC3    C4 7270   3.422   4.005  17.055 -0.2670  0.2325  0.3598
  489TMC3    C5 7271   3.342   4.098  17.123  0.4184  0.2679 -0.1077
  489TMC3    C6 7272   3.289   4.204  17.068 -0.2538 -0.1778 -0.2835
  489TMC3     C 7273   3.534   3.975  16.852 -0.2142 -0.5458 -0.0676
  489TMC3     O 7274   3.535   3.855  16.883  0.2000 -0.0325 -0.8030
  489TMC3     H 7275   3.448   4.227  16.785 -0.2426 -0.8022 -0.6413
  489TMC3    H1 7276   3.474   3.921  17.097  0.9732  0.3677 -0.9057
  489TMC3    H2 7277   3.224   4.274  17.120  0.9746  2.0557 -1.7725
  489TMC3    C7 7278   3.306   4.056  17.259 -0.0750 -0.0418  0.8571
  489TMC3    C8 7279   3.304   4.395  16.927 -0.9327 -0.3191  0.5726
  489TMC3    O1 7280   3.206   4.110  17.311  0.0945  0.3760  0.4388
  489TMC3    O2 7281   3.216   4.453  16.990 -0.3050 -0.0020 -0.3540
  490MPD2     C 7282   4.258   3.204  16.857 -0.4246  0.0097  0.9501
  490MPD2    C1 7283   4.349   3.137  16.938  0.1119  0.3530  0.2029
  490MPD2    C2 7284   4.464   3.212  16.964  0.4399 -0.1578  0.1934
  490MPD2    C3 7285   4.499   3.335  16.904  0.1932  0.6596 -0.2172
  490MPD2    C4 7286   4.407   3.387  16.820 -0.5181 -0.6062  0.4945
  490MPD2    C5 7287   4.288   3.325  16.802 -0.2812  0.0935  0.5078
  490MPD2     H 7288   4.539   3.172  17.031 -0.4038  0.3019  1.4179
  490MPD2    H1 7289   4.412   3.487  16.778 -0.9644  0.0340  1.9568
  490MPD2    H2 7290   4.160   3.169  16.827  0.2930  0.5036 -2.0061
  490MPD2    H3 7291   4.217   3.366  16.731 -0.4845 -0.7555  0.2196
  490MPD2     N 7292   4.619   3.409  16.927  0.2595 -0.2258  0.5546
  490MPD2    H5 7293   4.622   3.500  16.882  1.1828 -0.2611  0.5560
  490MPD2    N1 7294   4.341   3.011  16.993  0.0898  0.5648  0.2172
  490MPD2    H7 7295   4.423   2.989  17.050  1.5295 -0.2665 -2.1780
  491TMC3    C1 7296   4.226   2.823  17.073  0.1463 -0.3698  0.6456
  491TMC3    C2 7297   4.343   2.809  17.142 -0.1824  0.2016  0.6659
  491TMC3    C3 7298   4.334   2.739  17.261 -0.5365  0.4758 -0.6422
  491TMC3    C4 7299   4.094   2.791  17.114  0.3697 -0.5072 -0.6178
  491TMC3    C5 7300   4.092   2.730  17.242  0.3961 -0.9053 -0.1227
  491TMC3    C6 7301   4.209   2.710  17.315  0.1370 -0.5010 -0.6526
  491TMC3     C 7302   4.233   2.931  16.978 -0.0389 -1.1686 -0.3164
  491TMC3     O 7303   4.135   2.943  16.907  0.0576  0.2677  0.1240
  491TMC3     H 7304   4.441   2.829  17.101  1.0087 -0.1033  3.4414
  491TMC3    H1 7305   4.005   2.824  17.064  0.4003 -0.2500 -0.5045
  491TMC3    H2 7306   4.198   2.658  17.409 -0.4864  1.5651  0.4254
  491TMC3    C7 7307   3.962   2.736  17.311 -0.1013 -0.0759  0.1881
  491TMC3    C8 7308   4.433   2.784  17.358  0.9395  0.1157 -0.1615
  491TMC3    O1 7309   3.942   2.679  17.419 -0.5195  0.2998  0.2132
  491TMC3    O2 7310   4.502   2.876  17.316  0.6193  0.6342  0.3297
  492MPD2     C 7311   0.612   3.324  11.349  0.6927 -0.2001 -0.5568
  492MPD2    C1 7312   0.528   3.247  11.278  0.3560  0.3258  0.0611
  492MPD2    C2 7313   0.464   3.143  11.347  0.1532 -0.2652  0.2122
  492MPD2    C3 7314   0.495   3.126  11.487 -0.6917  0.2899  0.4417
  492MPD2    C4 7315   0.582   3.206  11.554 -0.8094 -0.6117  0.3340
  492MPD2    C5 7316   0.633   3.313  11.486 -0.0902  0.1075  0.3807
  492MPD2     H 7317   0.382   3.088  11.304 -1.0618 -0.1969  2.4505
  492MPD2    H1 7318   0.597   3.192  11.660  2.7312 -2.0779 -0.3819
  492MPD2    H2 7319   0.666   3.403  11.298  0.0358  0.0547 -0.8597
  492MPD2    H3 7320   0.692   3.388  11.539  0.3330 -0.0885  0.1880
  492MPD2     N 7321   0.439   3.028  11.572  0.1289 -0.2044  0.0122
  492MPD2    H5 7322   0.464   3.038  11.669 -0.1475 -0.6801  0.1341
  492MPD2    N1 7323   0.504   3.282  11.144  1.2505  0.4298  0.7337
  492MPD2    H7 7324   0.561   3.359  11.111  0.1239  1.2172  0.6132
  493TMC3    C1 7325   0.436   3.274  10.913 -0.5129  0.6973 -0.0695
  493TMC3    C2 7326   0.501   3.392  10.898 -0.0902  0.8522  0.0588
  493TMC3    C3 7327   0.501   3.439  10.765 -0.1288 -0.4670  0.0898
  493TMC3    C4 7328   0.357   3.208  10.815 -0.2319 -0.3414  0.0779
  493TMC3    C5 7329   0.368   3.266  10.686 -0.0899 -0.4675 -0.0372
  493TMC3    C6 7330   0.435   3.383  10.655  0.0049  0.2532 -0.7556
  493TMC3     C 7331   0.440   3.208  11.048  0.1734  0.2192  0.3158
  493TMC3     O 7332   0.372   3.111  11.052 -0.3883  0.2309  0.1876
  493TMC3     H 7333   0.542   3.452  10.979 -1.1463 -0.7282  1.7668
  493TMC3    H1 7334   0.294   3.122  10.836 -0.2239 -0.9811 -2.4360
  493TMC3    H2 7335   0.431   3.438  10.561  1.6655  2.5847  0.5386
  493TMC3    C7 7336   0.286   3.204  10.590 -0.2334 -0.1655 -0.0022
  493TMC3    C8 7337   0.557   3.570  10.745  0.8727  0.1036  0.1112
  493TMC3    O1 7338   0.182   3.156  10.629  0.1193 -0.3965 -0.7503
  493TMC3    O2 7339   0.562   3.641  10.847 -0.0502 -0.1066  0.1416
  494TMC3    C1 7340   0.731   0.098   0.202 -0.7973 -0.0402 -0.8409
  494TMC3    C2 7341   0.758   4.686   0.188 -0.3113  0.1146 -0.2946
  494TMC3    C3 7342   0.841   4.658   0.085 -0.1843 -0.4424  0.7292
  494TMC3    C4 7343   0.790   0.196   0.129 -0.5741 -0.2434 -0.3929
  494TMC3    C5 7344   0.877   0.159   0.027 -0.6984 -0.2913  0.2243
  494TMC3    C6 7345   0.900   0.031   0.001  0.1088  0.7455 -0.1991
  494TMC3     C 7346   0.659   0.144   0.322  0.2057 -0.8860 -0.8630
  494TMC3     O 7347   0.594   0.250   0.316 -0.6414 -0.2437  0.0463
  494TMC3     H 7348   0.706   4.609   0.242 -0.3577  0.4994  0.2090
  494TMC3    H1 7349   0.774   0.302   0.144  0.1554 -0.1148 -0.5453
  494TMC3    H2 7350   0.947   0.011  17.598  0.4988  2.2083 -0.3039
  494TMC3    C7 7351   0.948   0.258  17.644  0.9074  0.7370  0.5636
  494TMC3    C8 7352   0.904   4.529   0.092  0.8882  0.0901 -0.3714
  494TMC3    O1 7353   1.009   0.224  17.544  0.5556 -0.3218 -0.1373
  494TMC3    O2 7354   0.881   4.463   0.191  0.0622  0.3599  0.2319
  495TMC3    C1 7355   4.064   1.853  14.695  0.5919  0.0560 -0.1787
  495TMC3    C2 7356   4.005   1.871  14.577 -0.2819  0.0227  0.0474
  495TMC3    C3 7357   3.920   1.970  14.552  0.4977  0.8429  0.2609
  495TMC3    C4 7358   4.058   1.952  14.790  0.0433  0.7764  0.0732
  495TMC3    C5 7359   3.973   2.056  14.762  0.1909 -0.3412  0.0246
  495TMC3    C6 7360   3.898   2.063  14.643 -0.2485  0.2633  0.9278
  495TMC3     C 7361   4.030   1.723  14.737  0.3544 -0.0987 -0.1751
  495TMC3     O 7362   3.960   1.654  14.660  0.0209  0.1557 -0.2239
  495TMC3     H 7363   4.024   1.801  14.497 -0.1192 -0.2875  0.3540
  495TMC3    H1 7364   4.086   1.936  14.894 -0.2865 -1.2861 -0.1725
  495TMC3    H2 7365   3.837   2.150  14.623  0.3449  0.2160 -1.1418
  495TMC3    C7 7366   3.918   2.123  14.891  0.3842 -0.5007 -0.0480
  495TMC3    C8 7367   3.802   1.928  14.486  0.5649  1.0595  0.1477
  495TMC3    O1 7368   3.981   2.104  14.993  0.0257 -0.1724 -0.1716
  495TMC3    O2 7369   3.738   2.007  14.421  1.1630 -0.7793  0.1361
  496MPD2     C 7370   1.753   2.270  15.508 -0.4306 -0.2594 -0.7536
  496MPD2    C1 7371   1.667   2.167  15.523  0.2800 -0.2397  0.0256
  496MPD2    C2 7372   1.586   2.147  15.630 -0.0445  0.3248 -0.7053
  496MPD2    C3 7373   1.588   2.240  15.727  0.1453  0.8848 -0.3831
  496MPD2    C4 7374   1.677   2.347  15.714 -1.0528  0.3803 -0.1145
  496MPD2    C5 7375   1.753   2.365  15.606 -0.0311 -0.2536  0.2245
  496MPD2     H 7376   1.543   2.049  15.648 -0.8495  0.9903  0.9862
  496MPD2    H1 7377   1.666   2.425  15.789  0.1463 -0.3368  0.7991
  496MPD2    H2 7378   1.816   2.288  15.421 -0.5827  1.1283 -0.5730
  496MPD2    H3 7379   1.806   2.460  15.602  0.1333 -0.3587 -0.1009
  496MPD2     N 7380   1.511   2.232  15.840  0.1280  0.2410 -0.0858
  496MPD2    H5 7381   1.532   2.289  15.921  0.7768 -0.2326  0.0813
  496MPD2    N1 7382   1.675   2.071  15.414 -0.3738  0.6162 -0.0027
  496MPD2    H7 7383   1.751   2.082  15.348 -0.7495 -2.0225 -0.8687
  497TMC3    C1 7384   1.344   2.121  15.976  0.2605  0.2225  0.1581
  497TMC3    C2 7385   1.265   2.011  15.983 -0.1299  0.0441  0.4287
  497TMC3    C3 7386   1.209   1.982  16.096 -0.1734  0.2237  0.0793
  497TMC3    C4 7387   1.381   2.193  16.092  0.2504 -1.0713  0.4019
  497TMC3    C5 7388   1.329   2.148  16.207 -0.0901 -0.1943 -0.8216
  497TMC3    C6 7389   1.234   2.052  16.212 -0.0190 -0.6973 -0.4052
  497TMC3     C 7390   1.407   2.142  15.840  0.7289 -0.2661 -0.0158
  497TMC3     O 7391   1.346   2.082  15.750 -0.6095 -0.4079 -0.2212
  497TMC3     H 7392   1.249   1.939  15.904  0.5637  0.7570 -0.3583
  497TMC3    H1 7393   1.451   2.276  16.091  1.0582 -1.7476  0.3864
  497TMC3    H2 7394   1.170   2.037  16.298  0.5059  0.9427  0.2818
  497TMC3    C7 7395   1.351   2.208  16.339 -0.5738  0.0646 -0.2656
  497TMC3    C8 7396   1.073   1.932  16.093  0.1294  0.2643  0.7043
  497TMC3    O1 7397   1.256   2.197  16.415  0.3700 -0.3666  0.6363
  497TMC3    O2 7398   1.025   1.906  16.199  1.0696  0.0931  0.0532
  498MPD2     C 7399   2.287   2.476   9.177 -0.2032  0.0007 -0.2424
  498MPD2    C1 7400   2.336   2.500   9.301 -1.2015 -0.0529  0.1706
  498MPD2    C2 7401   2.243   2.532   9.400 -0.8524  0.0851 -0.3527
  498MPD2    C3 7402   2.104   2.534   9.375  0.0423 -0.5046  0.2572
  498MPD2    C4 7403   2.059   2.507   9.251 -0.4397  0.8262  0.5849
  498MPD2    C5 7404   2.148   2.484   9.153  0.5477  0.3503 -0.6711
  498MPD2     H 7405   2.277   2.561   9.499  2.0809  0.1495 -1.3775
  498MPD2    H1 7406   1.953   2.498   9.230  0.0544 -1.2110 -1.0155
  498MPD2    H2 7407   2.350   2.445   9.094  0.2950 -0.1072  0.1762
  498MPD2    H3 7408   2.115   2.464   9.052  2.2221  0.5484 -1.2681
  498MPD2     N 7409   2.017   2.559   9.488 -0.4093  0.0155 -0.1932
  498MPD2    H5 7410   2.070   2.579   9.573 -2.7277  1.3026  0.9575
  498MPD2    N1 7411   2.480   2.491   9.331  0.0838 -0.0582 -0.0600
  498MPD2    H7 7412   2.504   2.528   9.422 -3.8948  1.1179  0.5361
  499TMC3    C1 7413   2.714   2.488   9.271  0.4665 -0.5625 -0.1230
  499TMC3    C2 7414   2.818   2.422   9.208 -0.2593 -0.0517  0.6373
  499TMC3    C3 7415   2.942   2.466   9.245  0.5106 -0.1218 -0.0566
  499TMC3    C4 7416   2.724   2.613   9.335 -0.5948  0.3338  0.3796
  499TMC3    C5 7417   2.854   2.654   9.367 -0.5799  0.6335  0.3631
  499TMC3    C6 7418   2.966   2.579   9.326  0.0945 -0.0702 -0.5950
  499TMC3     C 7419   2.577   2.452   9.239  0.1274 -0.2864 -0.1867
  499TMC3     O 7420   2.570   2.375   9.142  0.5907 -0.5627 -0.1795
  499TMC3     H 7421   2.802   2.327   9.158  1.2354 -0.2357  0.5130
  499TMC3    H1 7422   2.639   2.672   9.364  0.4100  2.1425 -0.3781
  499TMC3    H2 7423   3.065   2.620   9.345  0.6393 -2.9351  2.8274
  499TMC3    C7 7424   2.859   2.791   9.407 -0.5969 -0.1767 -0.8895
  499TMC3    C8 7425   3.060   2.413   9.181 -0.1704  0.3279  0.0025
  499TMC3    O1 7426   2.775   2.867   9.355 -0.1320 -0.4367  0.2584
  499TMC3    O2 7427   3.166   2.456   9.221  0.1940 -0.3837  0.5157
  500MPD2     C 7428   4.069   4.284  10.536  0.5112  0.0603  0.1614
  500MPD2    C1 7429   4.075   4.280  10.400 -0.3461 -0.7876  0.8022
  500MPD2    C2 7430   3.960   4.265  10.327  0.3577  0.6564 -0.2304
  500MPD2    C3 7431   3.840   4.249  10.391  0.7567  0.0492  1.0018
  500MPD2    C4 7432   3.836   4.245  10.528 -0.1384 -0.6892  0.4023
  500MPD2    C5 7433   3.950   4.270  10.600 -0.4216  0.2077 -0.1271
  500MPD2     H 7434   3.964   4.262  10.219  1.0523  0.3220 -0.2000
  500MPD2    H1 7435   3.745   4.230  10.585  1.1758 -1.4560  2.2854
  500MPD2    H2 7436   4.154   4.306  10.600  3.0453  0.5887 -3.3687
  500MPD2    H3 7437   3.933   4.279  10.706  1.8102  1.2413  0.1315
  500MPD2     N 7438   3.723   4.219  10.310  0.0943 -0.4023  0.1682
  500MPD2    H5 7439   3.643   4.185  10.361 -1.3509  1.5751 -0.7921
  500MPD2    N1 7440   4.197   4.287  10.329  0.1302  0.1108 -0.0919
  500MPD2    H7 7441   4.194   4.294  10.228  0.3421  1.5088 -0.0072
  501TMC3    C1 7442   4.426   4.327  10.278 -0.1400  1.0445 -0.2872
  501TMC3    C2 7443   4.426   4.453  10.224 -0.2763 -0.1464  0.3958
  501TMC3    C3 7444   4.548   4.509  10.208  0.1685 -0.0183 -0.4572
  501TMC3    C4 7445   4.538   4.255  10.310  1.1257  0.1977 -0.2882
  501TMC3    C5 7446   4.655   4.313  10.288 -0.1232 -0.2388  0.9555
  501TMC3    C6 7447   4.661   4.437  10.228 -1.0384 -0.0251 -0.3780
  501TMC3     C 7448   4.325   4.288  10.373  0.5158  0.5677  0.0618
  501TMC3     O 7449   4.363   4.254  10.483  0.5175 -0.1098 -0.3769
  501TMC3     H 7450   4.332   4.506  10.215 -0.3179 -0.1850  0.5987
  501TMC3    H1 7451   4.547   4.154  10.350  1.3629  0.0526 -0.7085
  501TMC3    H2 7452   0.032   4.487  10.207  0.1694 -0.6251  3.6237
  501TMC3    C7 7453   0.040   4.283  10.377  0.0091  0.8234 -0.7011
  501TMC3    C8 7454   4.565   4.647  10.241 -0.3167 -0.6169 -0.5547
  501TMC3    O1 7455   0.056   4.168  10.413  0.5200  0.2980  0.1563
  501TMC3    O2 7456   4.676   4.687  10.270 -0.0020 -0.1663  0.6281
  502TMC3    C1 7457   3.443   2.803  15.533  1.0773  0.6930  0.0031
  502TMC3    C2 7458   3.456   2.868  15.414  0.1399 -0.0621  0.2097
  502TMC3    C3 7459   3.343   2.874  15.327  0.2240  0.1214  0.9187
  502TMC3    C4 7460   3.333   2.729  15.563 -0.3941 -0.5716  0.8923
  502TMC3    C5 7461   3.219   2.745  15.485  0.1518 -0.0030  0.3441
  502TMC3    C6 7462   3.224   2.810  15.366  0.5313  0.6780  0.4607
  502TMC3     C 7463   3.536   2.822  15.641 -0.3106 -0.1566 -0.1499
  502TMC3     O 7464   3.648   2.859  15.609  0.6237 -0.2850  0.5377
  502TMC3     H 7465   3.540   2.934  15.394  0.8810 -0.9645  0.3167
  502TMC3    H1 7466   3.339   2.664  15.650 -0.3170  0.3171  1.5490
  502TMC3    H2 7467   3.135   2.817  15.303 -0.8632  1.2874  2.4975
  502TMC3    C7 7468   3.101   2.667  15.528 -0.1656  0.1498  0.2297
  502TMC3    C8 7469   3.353   2.942  15.198 -0.1651  0.2496  0.6596
  502TMC3    O1 7470   3.121   2.576  15.600  0.4915  0.9335  0.1285
  502TMC3    O2 7471   3.458   3.004  15.178  0.3234  0.3406  0.0299
  503MPD2     C 7472   0.741   3.724  16.905  0.2703  0.2005  0.1997
  503MPD2    C1 7473   0.786   3.799  17.006  0.1656 -0.1666  0.0796
  503MPD2    C2 7474   0.858   3.744  17.111  0.3249  0.9809 -0.6549
  503MPD2    C3 7475   0.892   3.609  17.116 -0.3028  0.0080 -0.4037
  503MPD2    C4 7476   0.857   3.539  16.997 -0.5591 -0.0865 -0.3544
  503MPD2    C5 7477   0.779   3.593  16.902  1.0229 -0.1815 -0.1272
  503MPD2     H 7478   0.908   3.812  17.179 -1.4290  1.6727 -0.0462
  503MPD2    H1 7479   0.882   3.434  16.986  0.7668 -0.0015  1.8628
  503MPD2    H2 7480   0.689   3.767  16.820 -1.5042 -1.7860  0.2626
  503MPD2    H3 7481   0.743   3.536  16.817  3.3863  0.3866 -1.4846
  503MPD2     N 7482   0.983   3.544  17.209 -0.1365  0.3618  0.1828
  503MPD2    H5 7483   1.032   3.461  17.177 -0.5149 -0.0294  0.6150
  503MPD2    N1 7484   0.763   3.939  17.010 -0.2036  0.1197  0.0403
  503MPD2    H7 7485   0.809   3.979  17.091  1.5724 -0.1741 -0.8205
  504TMC3    C1 7486   1.106   3.538  17.410 -0.4128 -0.2475  0.2012
  504TMC3    C2 7487   1.108   3.568  17.543  0.2070 -0.8162  0.6636
  504TMC3    C3 7488   1.211   3.514  17.613  0.7594 -0.1813  0.1875
  504TMC3    C4 7489   1.210   3.481  17.344  0.2419 -0.0912  1.1601
  504TMC3    C5 7490   1.318   3.454  17.426 -0.5938 -0.4845  0.6332
  504TMC3    C6 7491   1.329   3.465  17.560  0.2947 -0.1678 -0.0626
  504TMC3     C 7492   1.002   3.602  17.334  0.3055  0.1531  0.3725
  504TMC3     O 7493   0.945   3.699  17.377  0.1142  0.4126  0.0879
  504TMC3     H 7494   1.022   3.611  17.593  0.6826  0.4094  0.4232
  504TMC3    H1 7495   1.213   3.454  17.239 -0.8982  3.4031  0.2260
  504TMC3    H2 7496   1.426   3.460  17.608  0.5095  0.0962 -0.4620
  504TMC3    C7 7497   1.440   3.421  17.351 -0.2961  0.1429  0.3763
  504TMC3    C8 7498   1.199   3.522   0.061 -0.4421  0.1618 -0.4060
  504TMC3    O1 7499   1.433   3.436  17.232  0.5380 -0.1465 -0.0089
  504TMC3    O2 7500   1.131   3.610   0.113  0.0147 -0.4791 -0.0461
  505MPD2     C 7501   1.398   2.577  10.776 -0.2070  0.1866 -0.8834
  505MPD2    C1 7502   1.429   2.448  10.748 -0.1602 -0.8592 -0.1955
  505MPD2    C2 7503   1.561   2.419  10.749  0.7464 -0.0441  0.5867
  505MPD2    C3 7504   1.657   2.510  10.782  0.0160  0.0666 -0.2378
  505MPD2    C4 7505   1.625   2.639  10.810  0.3219  0.5020  0.4370
  505MPD2    C5 7506   1.490   2.667  10.817 -0.0415 -0.1245  0.0593
  505MPD2     H 7507   1.588   2.314  10.744  1.6724  0.3006 -1.7997
  505MPD2    H1 7508   1.701   2.705  10.850 -0.6169  2.0409 -0.3207
  505MPD2    H2 7509   1.292   2.601  10.785  0.2941  1.8470  0.6656
  505MPD2    H3 7510   1.468   2.770  10.844 -1.2287 -1.2831  3.4837
  505MPD2     N 7511   1.795   2.473  10.790  0.2918  0.1341  0.0711
  505MPD2    H5 7512   1.863   2.546  10.810 -0.3616  0.1152  2.3142
  505MPD2    N1 7513   1.325   2.362  10.708  0.3546  0.5011  0.0000
  505MPD2    H7 7514   1.238   2.412  10.689  0.4447  0.7818  0.3309
  506TMC3    C1 7515   1.232   2.147  10.647 -0.0349 -0.1257  0.2355
  506TMC3    C2 7516   1.217   2.156  10.515 -0.3770 -0.6273 -0.1140
  506TMC3    C3 7517   1.208   2.043  10.445 -1.3192  0.2867 -0.0188
  506TMC3    C4 7518   1.241   2.026  10.708  0.1843  1.2386 -0.2120
  506TMC3    C5 7519   1.242   1.909  10.636 -0.6726  0.2184  0.4113
  506TMC3    C6 7520   1.231   1.917  10.493  0.2356  1.2689 -0.7844
  506TMC3     C 7521   1.343   2.223  10.706 -0.3343 -0.6378 -0.0294
  506TMC3     O 7522   1.435   2.157  10.755  0.2173 -0.0350 -0.2512
  506TMC3     H 7523   1.215   2.252  10.464 -0.0319 -0.3903  0.3172
  506TMC3    H1 7524   1.253   2.023  10.815  0.1118  0.3923 -0.2293
  506TMC3    H2 7525   1.231   1.834  10.422  0.8125  0.8931 -0.3411
  506TMC3    C7 7526   1.351   1.818  10.668 -0.3002  0.8916  0.2933
  506TMC3    C8 7527   1.202   2.051  10.301  0.0454  0.4845 -0.0836
  506TMC3    O1 7528   1.346   1.719  10.597  0.2823  0.2571  0.2753
  506TMC3    O2 7529   1.145   1.964  10.245 -0.0095 -0.4468 -0.1864
  507TMC3    C1 7530   2.118   3.130  14.675 -0.0262  0.4676  0.2488
  507TMC3    C2 7531   2.037   3.048  14.602 -0.1508  0.1791 -0.7078
  507TMC3    C3 7532   2.028   3.071  14.474 -0.2311 -0.2774 -0.1134
  507TMC3    C4 7533   2.194   3.228  14.621 -0.0862 -0.2144 -0.5073
  507TMC3    C5 7534   2.175   3.248  14.487  0.0097  0.1272  0.1852
  507TMC3    C6 7535   2.110   3.163  14.412  0.1940  0.2236  0.2576
  507TMC3     C 7536   2.122   3.119  14.823 -0.2097 -0.7034 -0.2864
  507TMC3     O 7537   2.213   3.180  14.871  0.1137 -0.0755  0.2485
  507TMC3     H 7538   1.976   2.967  14.642  1.0139  1.5497  3.8527
  507TMC3    H1 7539   2.267   3.278  14.683 -1.1491 -1.1828  1.5454
  507TMC3    H2 7540   2.100   3.185  14.307  1.8285 -0.5927 -0.0638
  507TMC3    C7 7541   2.148   3.387  14.458  0.1766  0.6070  0.5492
  507TMC3    C8 7542   1.890   3.080  14.438  0.8793  0.0544  0.0030
  507TMC3    O1 7543   2.087   3.407  14.352  0.7232 -0.2088  0.1357
  507TMC3    O2 7544   1.815   2.991  14.478 -0.2762 -0.2267  0.0260
  508MPD2     C 7545   3.013   0.785  15.750  0.2874 -0.1811  0.1106
  508MPD2    C1 7546   2.940   0.895  15.780  1.2201  0.3162  0.1388
  508MPD2    C2 7547   2.880   0.961  15.676 -0.4396 -0.0902  0.2927
  508MPD2    C3 7548   2.881   0.906  15.549 -0.0566 -0.6186 -0.2358
  508MPD2    C4 7549   2.941   0.784  15.522  0.9021 -0.2973 -0.1021
  508MPD2    C5 7550   3.005   0.726  15.627  0.2654 -0.3266 -0.0858
  508MPD2     H 7551   2.827   1.054  15.691 -0.9893 -0.1177 -1.4749
  508MPD2    H1 7552   2.935   0.724  15.433 -0.9198  1.5854 -1.2424
  508MPD2    H2 7553   3.075   0.730  15.820 -0.3184  1.0765  1.6149
  508MPD2    H3 7554   3.051   0.628  15.623  0.0192 -0.4672  0.5242
  508MPD2     N 7555   2.824   0.978  15.442  0.8407  0.2704 -0.1370
  508MPD2    H5 7556   2.777   1.064  15.470 -1.9210 -1.2353 -0.1454
  508MPD2    N1 7557   2.940   0.942  15.919  0.2286 -0.3333  0.3954
  508MPD2    H7 7558   3.006   0.891  15.976  0.1971  0.7046  1.3775
  509TMC3    C1 7559   2.659   1.230  15.161 -0.0614 -0.8614 -0.2855
  509TMC3    C2 7560   2.731   1.247  15.046  0.9579  0.0893  0.1691
  509TMC3    C3 7561   2.843   1.169  15.015  0.5345  0.0571 -0.2866
  509TMC3    C4 7562   2.693   1.129  15.252 -0.2857 -0.5680 -0.0147
  509TMC3    C5 7563   2.801   1.056  15.217  0.1223  0.0439  0.0345
  509TMC3    C6 7564   2.869   1.067  15.097  0.9567  0.3658 -0.5683
  509TMC3     C 7565   2.570   1.336  15.216  0.1857 -1.1255 -0.0636
  509TMC3     O 7566   2.506   1.316  15.317 -0.1751  0.3143 -0.2823
  509TMC3     H 7567   2.686   1.311  14.971  0.3376  1.2233  1.5188
  509TMC3    H1 7568   2.634   1.107  15.340 -1.0144  0.2073 -0.3077
  509TMC3    H2 7569   2.947   0.996  15.072  1.8239  0.6273  1.3320
  509TMC3    C7 7570   2.851   0.954  15.307  0.0025  1.0285 -0.5154
  509TMC3    C8 7571   2.958   1.239  14.959  0.1233  0.2676 -0.1993
  509TMC3    O1 7572   2.921   0.873  15.246 -0.3455 -0.9343 -0.0385
  509TMC3    O2 7573   3.061   1.172  14.956 -0.0672  0.0548 -0.1392
  510MPD2     C 7574   0.796   2.470  14.502  0.1524 -0.2745 -0.3185
  510MPD2    C1 7575   0.814   2.443  14.639 -0.1854  0.5372 -0.0056
  510MPD2    C2 7576   0.941   2.453  14.687 -0.2552  1.0315  0.1132
  510MPD2    C3 7577   1.043   2.482  14.598 -0.4368  0.5041 -0.1675
  510MPD2    C4 7578   1.023   2.497  14.462 -0.7631 -0.7014 -0.9968
  510MPD2    C5 7579   0.901   2.498  14.414  0.0428 -0.4065  0.5327
  510MPD2     H 7580   0.960   2.427  14.791 -1.5634  0.3427  0.1896
  510MPD2    H1 7581   1.104   2.511  14.390  0.3541 -0.7591  0.2482
  510MPD2    H2 7582   0.700   2.456  14.456 -2.2642  3.6892  3.4563
  510MPD2    H3 7583   0.889   2.505  14.307 -0.9046 -1.2281  0.5772
  510MPD2     N 7584   1.173   2.478  14.651 -0.0602  0.0759  0.6005
  510MPD2    H5 7585   1.174   2.436  14.744 -1.0191 -1.6317 -0.1529
  510MPD2    N1 7586   0.698   2.407  14.709 -0.1148 -0.4652  0.3380
  510MPD2    H7 7587   0.610   2.398  14.658 -1.7549  2.1900  2.7036
  511TMC3    C1 7588   0.558   2.329  14.878  0.1701 -0.3301 -0.2120
  511TMC3    C2 7589   0.503   2.362  14.999  0.1258  0.6463  0.1807
  511TMC3    C3 7590   0.410   2.274  15.048 -0.6353  0.0116 -0.9568
  511TMC3    C4 7591   0.527   2.213  14.813 -0.6927 -0.0796  0.7637
  511TMC3    C5 7592   0.430   2.132  14.863 -0.5753  0.7821  0.4635
  511TMC3    C6 7593   0.367   2.158  14.982  0.6478 -0.1547  0.7759
  511TMC3     C 7594   0.685   2.386  14.844 -0.0169  0.5654 -0.2371
  511TMC3     O 7595   0.767   2.416  14.925 -0.0161  0.3943  0.2361
  511TMC3     H 7596   0.516   2.460  15.043 -3.2889  1.0456  0.2954
  511TMC3    H1 7597   0.581   2.173  14.727 -1.2885  2.6085 -0.8639
  511TMC3    H2 7598   0.281   2.101  15.012  1.7905 -1.6715  1.1537
  511TMC3    C7 7599   0.426   1.993  14.827  0.7881  0.3892 -1.0652
  511TMC3    C8 7600   0.342   2.313  15.173 -0.0491  1.1698  0.7447
  511TMC3    O1 7601   0.460   1.970  14.712 -0.0969 -0.5622  0.4472
  511TMC3    O2 7602   0.335   2.437  15.194  0.1236 -0.1267 -0.6509
  512TMC3    C1 7603   3.662   1.469  13.527  0.0182  0.7272  0.1682
  512TMC3    C2 7604   3.729   1.429  13.638 -1.0106 -0.4468  0.6075
  512TMC3    C3 7605   3.853   1.372  13.628  0.2420 -0.5232  0.1290
  512TMC3    C4 7606   3.721   1.452  13.404  0.5642  0.1908 -0.6939
  512TMC3    C5 7607   3.845   1.393  13.399 -0.5174 -0.2203 -1.3338
  512TMC3    C6 7608   3.915   1.363  13.511  0.0309  0.0079 -0.3783
  512TMC3     C 7609   3.514   1.479  13.533  0.4313 -0.0679  0.8653
  512TMC3     O 7610   3.454   1.419  13.621 -0.1380  0.1151 -0.1100
  512TMC3     H 7611   3.675   1.433  13.732 -1.4277  1.3611  0.2930
  512TMC3    H1 7612   3.672   1.473  13.309  1.0896  0.1884 -0.9677
  512TMC3    H2 7613   4.013   1.318  13.498  1.0038  1.7772  0.7317
  512TMC3    C7 7614   3.917   1.388  13.268 -1.1840 -0.2507  0.1889
  512TMC3    C8 7615   3.939   1.366  13.747  0.2742 -0.1842  0.0198
  512TMC3    O1 7616   3.895   1.483  13.194  0.1971 -0.5328  0.4486
  512TMC3    O2 7617   3.887   1.331  13.852  0.0978  0.3288 -0.2529
  513MPD2     C 7618   1.095   1.513  12.515 -0.0980  0.2062 -0.0059
  513MPD2    C1 7619   1.207   1.437  12.510  0.1767 -0.3877 -0.1997
  513MPD2    C2 7620   1.307   1.471  12.599 -0.3831 -0.3641  0.2245
  513MPD2    C3 7621   1.280   1.563  12.706 -0.8433  0.2777  0.3605
  513MPD2    C4 7622   1.158   1.625  12.716  0.2806 -0.1319  0.0622
  513MPD2    C5 7623   1.064   1.591  12.623  0.6725  0.2234  1.0790
  513MPD2     H 7624   1.408   1.434  12.612 -0.8331 -2.9493 -3.5713
  513MPD2    H1 7625   1.121   1.687  12.798 -1.4575 -1.0997  0.0156
  513MPD2    H2 7626   1.014   1.494  12.444  1.2575  2.1819 -2.0928
  513MPD2    H3 7627   0.965   1.636  12.622  1.1632  1.2613 -0.7875
  513MPD2     N 7628   1.385   1.604  12.786  0.1911  0.0477  0.2629
  513MPD2    H5 7629   1.478   1.582  12.751  0.2804 -1.8359  1.6824
  513MPD2    N1 7630   1.230   1.342  12.405 -0.6061  0.2336 -0.1391
  513MPD2    H7 7631   1.153   1.328  12.341 -0.3168  2.1956 -0.9084
  514TMC3    C1 7632   1.341   1.162  12.286  0.4700 -0.3313 -0.5050
  514TMC3    C2 7633   1.317   1.214  12.163 -0.1938  0.3114  0.4297
  514TMC3    C3 7634   1.419   1.201  12.072 -0.8794 -0.4859 -0.2958
  514TMC3    C4 7635   1.445   1.076  12.316  1.0074 -0.3706  0.3811
  514TMC3    C5 7636   1.540   1.063  12.214  0.5328  0.2493 -0.0932
  514TMC3    C6 7637   1.528   1.121  12.093  0.3570 -0.1403  0.1143
  514TMC3     C 7638   1.340   1.260  12.400 -0.2462 -0.1845  0.6411
  514TMC3     O 7639   1.436   1.254  12.474  0.6251 -0.0135  0.0057
  514TMC3     H 7640   1.229   1.268  12.131 -1.6672 -2.2718  0.1595
  514TMC3    H1 7641   1.445   1.021  12.409 -0.1046 -2.1885 -0.7047
  514TMC3    H2 7642   1.615   1.111  12.029  1.7105  0.5306  1.8384
  514TMC3    C7 7643   1.675   1.075  12.268 -0.8198 -0.7687 -0.8306
  514TMC3    C8 7644   1.372   1.209  11.932 -0.1121  0.2175 -0.1102
  514TMC3    O1 7645   1.769   1.046  12.199 -0.2145 -0.1231  0.3231
  514TMC3    O2 7646   1.250   1.205  11.916  0.5754 -0.2419 -0.0241
  515MPD2     C 7647   4.392   3.695  14.459 -0.0433 -0.5191  0.4316
  515MPD2    C1 7648   4.332   3.630  14.567  1.5691 -0.6345 -0.9765
  515MPD2    C2 7649   4.379   3.656  14.695 -0.0940  0.9049  0.1656
  515MPD2    C3 7650   4.473   3.756  14.720 -0.1957  0.2328 -0.3183
  515MPD2    C4 7651   4.536   3.810  14.615 -0.1649 -0.0834  0.4154
  515MPD2    C5 7652   4.494   3.781  14.485  0.5793  0.1620 -0.9445
  515MPD2     H 7653   4.320   3.608  14.772  1.8169  1.5175  1.9844
  515MPD2    H1 7654   4.614   3.882  14.638  0.7295 -0.5318 -1.2498
  515MPD2    H2 7655   4.362   3.682  14.356 -2.6950 -0.8780  1.2512
  515MPD2    H3 7656   4.543   3.839  14.408 -0.0632  0.0606 -1.4328
  515MPD2     N 7657   4.514   3.804  14.849  0.2157 -0.0171 -0.2034
  515MPD2    H5 7658   4.572   3.887  14.845  2.4941 -1.4777  2.3410
  515MPD2    N1 7659   4.231   3.526  14.549 -0.0746  0.0494  0.1189
  515MPD2    H7 7660   4.189   3.486  14.632  1.4327  0.1509  0.9368
  516TMC3    C1 7661   4.075   3.396  14.425 -0.2484 -0.0208  0.6766
  516TMC3    C2 7662   3.979   3.419  14.329  0.3523  0.1378  0.1462
  516TMC3    C3 7663   3.859   3.355  14.343 -0.3160  0.2212  0.3762
  516TMC3    C4 7664   4.056   3.324  14.538 -0.0987 -0.5275  0.3464
  516TMC3    C5 7665   3.932   3.254  14.549 -0.3124  0.1151  0.6210
  516TMC3    C6 7666   3.837   3.271  14.452 -0.7171 -0.4078 -0.3347
  516TMC3     C 7667   4.171   3.502  14.428  0.3684 -0.6844 -0.1321
  516TMC3     O 7668   4.177   3.563  14.323 -0.5457 -0.9468 -0.0370
  516TMC3     H 7669   3.988   3.478  14.238 -0.7259 -0.1724 -0.1609
  516TMC3    H1 7670   4.141   3.293  14.597  1.8456 -0.5800 -2.4661
  516TMC3    H2 7671   3.746   3.213  14.456 -0.5341 -0.6858 -0.1674
  516TMC3    C7 7672   3.911   3.163  14.659 -0.0278 -0.4260 -0.0142
  516TMC3    C8 7673   3.743   3.366  14.252  0.6008 -0.2981  0.3263
  516TMC3    O1 7674   4.002   3.149  14.739  0.1996  0.2971  0.7393
  516TMC3    O2 7675   3.636   3.327  14.288  0.4024  0.1393  0.1896
  517MPD2     C 7676   3.430   0.037  17.481  0.3436 -0.0331 -0.9171
  517MPD2    C1 7677   3.557   0.009  17.531 -0.1153 -0.1337 -0.6363
  517MPD2    C2 7678   3.630   0.119  17.570  0.8741  0.1614 -0.4609
  517MPD2    C3 7679   3.583   0.248  17.556 -0.2547  0.1468  0.1253
  517MPD2    C4 7680   3.456   0.272  17.501  0.6417  0.1917  0.3037
  517MPD2    C5 7681   3.383   0.161  17.467 -1.6723  0.4064 -0.5244
  517MPD2     H 7682   3.728   0.098  17.611  1.1167  1.0223 -0.6051
  517MPD2    H1 7683   3.413   0.371  17.497 -2.8870 -1.3641 -0.1986
  517MPD2    H2 7684   3.367   4.684  17.437  0.3230 -0.9766  0.7333
  517MPD2    H3 7685   3.286   0.181  17.422 -1.2914  0.5738 -1.2764
  517MPD2     N 7686   3.660   0.363  17.596  0.0771 -0.0119 -0.2341
  517MPD2    H5 7687   3.625   0.459  17.597  2.4623  0.8644 -1.3979
  517MPD2    N1 7688   3.610   4.606  17.552 -0.1065  0.2962 -0.4121
  517MPD2    H7 7689   3.697   4.598  17.604 -0.3909  0.8857  0.1619
  518TMC3    C1 7690   3.635   4.373  17.537 -0.5617 -0.1239  0.6723
  518TMC3    C2 7691   3.622   4.261  17.457 -0.1257  0.6550  0.2788
  518TMC3    C3 7692   3.731   4.174  17.458  0.3984 -0.2374  0.1820
  518TMC3    C4 7693   3.743   4.393  17.615 -0.1736 -0.6297 -0.5099
  518TMC3    C5 7694   3.848   4.300  17.611  0.0511 -0.4078 -0.7357
  518TMC3    C6 7695   3.840   4.181  17.538 -0.3472 -0.9647  0.4804
  518TMC3     C 7696   3.558   4.489  17.508  0.0495 -0.7479 -0.2679
  518TMC3     O 7697   3.466   4.478  17.432 -0.7836  0.0595 -0.4581
  518TMC3     H 7698   3.540   4.239  17.390  0.8680 -3.4204  0.4471
  518TMC3    H1 7699   3.751   4.478  17.683 -0.1764 -1.2248  0.2325
  518TMC3    H2 7700   3.926   4.115  17.534  1.3648  1.2121  1.3481
  518TMC3    C7 7701   3.969   4.363  17.652  0.2158  0.1828  0.4968
  518TMC3    C8 7702   3.750   4.097  17.339 -0.3385  0.3597  0.0753
  518TMC3    O1 7703   3.977   4.391   0.078  0.5371 -0.4303  0.2176
  518TMC3    O2 7704   3.815   3.996  17.348  0.3419  0.9607  0.6580
  519MPD2     C 7705   1.102   3.415  14.124 -0.0294 -0.0893 -0.7231
  519MPD2    C1 7706   1.095   3.505  14.016  0.5262  0.7563  0.3344
  519MPD2    C2 7707   1.159   3.471  13.898  0.2867  0.4229  0.2483
  519MPD2    C3 7708   1.227   3.355  13.888  0.4444  0.7991 -0.4260
  519MPD2    C4 7709   1.233   3.267  13.997  0.1492  0.4310 -0.0870
  519MPD2    C5 7710   1.166   3.294  14.113 -0.6408 -0.1112  0.1246
  519MPD2     H 7711   1.152   3.530  13.807  0.8458  0.5939  0.3156
  519MPD2    H1 7712   1.278   3.168  13.992 -0.7774  0.0756 -1.3417
  519MPD2    H2 7713   1.049   3.441  14.214  2.3373 -0.4160  0.7695
  519MPD2    H3 7714   1.169   3.238  14.206 -0.9200  1.7364  1.2494
  519MPD2     N 7715   1.288   3.310  13.774 -0.3064 -0.0170 -1.1554
  519MPD2    H5 7716   1.344   3.225  13.777 -0.8824 -0.2670  2.1443
  519MPD2    N1 7717   1.005   3.611  14.030 -0.3057  0.0697 -0.5502
  519MPD2    H7 7718   0.946   3.609  14.113  0.9053 -1.7117  0.2702
  520TMC3    C1 7719   1.358   3.288  13.558 -0.0909 -0.4053  0.3436
  520TMC3    C2 7720   1.293   3.249  13.438 -0.6149 -0.0191 -0.2988
  520TMC3    C3 7721   1.350   3.158  13.364 -0.2968  0.1966 -0.5882
  520TMC3    C4 7722   1.472   3.227  13.590 -0.1651 -0.8046 -1.0228
  520TMC3    C5 7723   1.531   3.145  13.506  0.2466 -0.1520  0.4675
  520TMC3    C6 7724   1.476   3.108  13.386 -0.3918  0.5250 -0.2940
  520TMC3     C 7725   1.279   3.361  13.647  0.1990 -0.0593  0.0935
  520TMC3     O 7726   1.201   3.436  13.591  0.1076  0.1961 -0.3471
  520TMC3     H 7727   1.199   3.293  13.405 -0.0959  2.6029  1.7703
  520TMC3    H1 7728   1.529   3.254  13.678 -0.5908  0.4041 -1.1189
  520TMC3    H2 7729   1.525   3.037  13.320  0.6792  1.5310 -0.5834
  520TMC3    C7 7730   1.634   3.061  13.564 -0.3995 -0.0131  0.2227
  520TMC3    C8 7731   1.281   3.125  13.241  0.5404  0.0830 -0.3621
  520TMC3    O1 7732   1.603   3.003  13.667  0.1806  0.1004  0.1732
  520TMC3    O2 7733   1.341   3.133  13.134  0.3579 -0.5274 -0.3657
  521MPD2     C 7734   2.235   1.910  17.237 -0.5434 -0.6761  0.6419
  521MPD2    C1 7735   2.238   1.796  17.158  0.1107 -0.3129 -0.0408
  521MPD2    C2 7736   2.284   1.806  17.027  0.3098  0.3311 -0.9881
  521MPD2    C3 7737   2.326   1.928  16.968 -0.0485  0.5821 -0.1569
  521MPD2    C4 7738   2.304   2.043  17.044 -0.4796 -0.3273 -0.0559
  521MPD2    C5 7739   2.262   2.031  17.175 -0.0875 -0.2283  0.7104
  521MPD2     H 7740   2.294   1.717  16.967 -1.0362 -0.2237 -0.4006
  521MPD2    H1 7741   2.332   2.140  17.006 -3.3489 -0.1765 -1.8138
  521MPD2    H2 7742   2.185   1.912  17.333  2.5621 -1.3269  2.2860
  521MPD2    H3 7743   2.264   2.117  17.240 -0.4993 -0.6798  1.3235
  521MPD2     N 7744   2.366   1.932  16.833  0.1394  0.9661  0.0294
  521MPD2    H5 7745   2.364   1.843  16.785  0.3833 -0.0355  1.8707
  521MPD2    N1 7746   2.193   1.672  17.218 -0.1692  1.1913 -0.2761
  521MPD2    H7 7747   2.176   1.683  17.318  1.1563 -0.4332  0.1093
  522TMC3    C1 7748   2.496   2.016  16.656  0.3646  0.1618  0.5640
  522TMC3    C2 7749   2.619   2.069  16.629 -0.4752  0.3400  0.4342
  522TMC3    C3 7750   2.685   2.011  16.519  0.5712 -0.9678 -0.8926
  522TMC3    C4 7751   2.420   1.941  16.561 -0.3695 -0.5474  0.1153
  522TMC3    C5 7752   2.486   1.908  16.447 -0.7973 -0.0332 -0.2524
  522TMC3    C6 7753   2.619   1.931  16.423  0.6646  0.2783 -0.0169
  522TMC3     C 7754   2.440   2.036  16.785 -0.0596 -0.6086 -0.8369
  522TMC3     O 7755   2.476   2.140  16.840  0.1352  0.1550 -0.2596
  522TMC3     H 7756   2.677   2.114  16.710 -0.9089  0.9099  0.4266
  522TMC3    H1 7757   2.315   1.919  16.574 -0.3438  0.0025  1.2844
  522TMC3    H2 7758   2.668   1.909  16.329  1.8377  1.0647  0.4138
  522TMC3    C7 7759   2.436   1.794  16.371  0.0623  0.0669 -0.4364
  522TMC3    C8 7760   2.808   1.947  16.560 -0.3580  0.9452 -1.3172
  522TMC3    O1 7761   2.517   1.733  16.305  0.1158  0.0766  0.7123
  522TMC3    O2 7762   2.854   1.995  16.660  0.2404  0.4085  0.4196
  523MPD2     C 7763   0.078   1.270  10.375 -0.6500  0.0002  0.0724
  523MPD2    C1 7764   4.718   1.193  10.295  0.1608  0.4266  0.5094
  523MPD2    C2 7765   4.655   1.255  10.190 -0.8425 -1.0796  0.2307
  523MPD2    C3 7766   4.665   1.392  10.171  0.4756  0.6308 -0.0734
  523MPD2    C4 7767   0.021   1.465  10.255 -0.1244 -0.4893 -0.5489
  523MPD2    C5 7768   0.091   1.409  10.360  0.2018  0.3641 -0.2894
  523MPD2     H 7769   4.606   1.186  10.121  3.0691 -0.6105 -2.9996
  523MPD2    H1 7770   0.030   1.571  10.234 -1.3207 -0.3565 -0.3925
  523MPD2    H2 7771   0.137   1.215  10.447 -1.2035  0.6151  1.0041
  523MPD2    H3 7772   0.165   1.466  10.415 -1.7173  5.5110 -3.1222
  523MPD2     N 7773   4.598   1.470  10.074 -0.0648  0.3365 -0.0243
  523MPD2    H5 7774   4.600   1.570  10.085  1.8508  0.3453 -0.4302
  523MPD2    N1 7775   4.717   1.055  10.325 -0.4457 -0.2708 -0.1688
  523MPD2    H7 7776   0.063   1.031  10.395 -0.9533  0.0096  0.4248
  524TMC3    C1 7777   4.449   1.502   9.892  0.4531 -0.0244 -0.5531
  524TMC3    C2 7778   4.420   1.465   9.763  0.3428  0.3541 -0.5897
  524TMC3    C3 7779   4.315   1.527   9.704 -0.7429 -0.5332 -0.7154
  524TMC3    C4 7780   4.378   1.600   9.958  0.7414 -0.2359  0.7509
  524TMC3    C5 7781   4.289   1.677   9.889  0.1921  0.0206 -0.1914
  524TMC3    C6 7782   4.254   1.634   9.760  0.4605 -0.4816 -0.4842
  524TMC3     C 7783   4.536   1.412   9.967 -0.2765 -0.2968 -0.8700
  524TMC3     O 7784   4.540   1.295   9.931  0.0058  0.2102  0.1162
  524TMC3     H 7785   4.490   1.397   9.715 -1.7470 -0.8210 -1.9381
  524TMC3    H1 7786   4.394   1.626  10.062 -0.8883  0.5965  0.7897
  524TMC3    H2 7787   4.176   1.689   9.709  1.3300  2.4312  1.3151
  524TMC3    C7 7788   4.316   1.816   9.913 -0.3829 -0.0750  0.0027
  524TMC3    C8 7789   4.268   1.502   9.563  0.0667  0.3007 -0.6945
  524TMC3    O1 7790   4.382   1.852  10.005  0.1572 -0.0261  0.5783
  524TMC3    O2 7791   4.198   1.591   9.509 -0.0999 -0.4222  0.4206
  525MPD2     C 7792   2.383   2.889  14.241 -0.4267 -0.0369  0.4666
  525MPD2    C1 7793   2.411   2.923  14.370 -0.0870 -0.6045 -0.2074
  525MPD2    C2 7794   2.447   3.059  14.393 -0.0644 -0.0062 -0.6599
  525MPD2    C3 7795   2.465   3.151  14.288 -0.1084  0.0145 -1.0258
  525MPD2    C4 7796   2.435   3.105  14.161  0.4725 -0.7466 -0.1704
  525MPD2    C5 7797   2.391   2.975  14.144 -0.4485  0.2381  0.5796
  525MPD2     H 7798   2.471   3.091  14.494  0.6362  2.2237 -1.5416
  525MPD2    H1 7799   2.426   3.167  14.072  0.6696 -0.3809  0.0620
  525MPD2    H2 7800   2.343   2.793  14.211  0.0825 -0.4160  1.0052
  525MPD2    H3 7801   2.355   2.946  14.047  0.1055  0.7635  0.2115
  525MPD2     N 7802   2.505   3.278  14.315  0.3570  0.5626 -0.1438
  525MPD2    H5 7803   2.502   3.308  14.412 -0.7966 -0.7651  0.2372
  525MPD2    N1 7804   2.430   2.835  14.477 -0.3218  0.0934 -0.0330
  525MPD2    H7 7805   2.469   2.869  14.565  0.5460  0.9854 -0.7605
  526TMC3    C1 7806   2.492   2.624  14.572  0.2966  0.6865 -0.1238
  526TMC3    C2 7807   2.419   2.549  14.658  0.2675 -0.4897  0.7269
  526TMC3    C3 7808   2.486   2.487  14.761  0.1683 -0.2346 -0.5350
  526TMC3    C4 7809   2.628   2.642  14.575  0.2547  0.5508 -0.3094
  526TMC3    C5 7810   2.690   2.574  14.674 -0.1159  0.2448 -0.8793
  526TMC3    C6 7811   2.621   2.504  14.770  0.3291  0.7413 -0.3855
  526TMC3     C 7812   2.420   2.695  14.468 -0.2227  0.1395  0.2683
  526TMC3     O 7813   2.367   2.622  14.385  0.1545 -0.1742 -0.0872
  526TMC3     H 7814   2.318   2.523  14.628  0.3415 -2.4984  2.2098
  526TMC3    H1 7815   2.670   2.714  14.506  1.6944 -1.2496 -1.2939
  526TMC3    H2 7816   2.668   2.465  14.859 -0.9669 -1.5210 -0.6863
  526TMC3    C7 7817   2.822   2.510  14.646 -0.0928  0.7675  0.8419
  526TMC3    C8 7818   2.409   2.446  14.877  0.3382  0.4125  0.1049
  526TMC3    O1 7819   2.885   2.478  14.743 -0.8831 -0.1489  0.2169
  526TMC3    O2 7820   2.469   2.417  14.980  0.3256  0.2102  0.6180
  527MPD2     C 7821   0.421   0.888   0.936 -0.2054 -0.2202  0.4519
  527MPD2    C1 7822   0.458   0.836   1.061 -0.9779 -1.2805  0.2422
  527MPD2    C2 7823   0.560   0.735   1.062  0.0696  0.1255  0.4445
  527MPD2    C3 7824   0.617   0.688   0.948  0.1968  0.4451  0.5857
  527MPD2    C4 7825   0.578   0.750   0.829  0.5952 -0.0536  0.2226
  527MPD2    C5 7826   0.486   0.850   0.826 -0.3443  0.1569  0.2630
  527MPD2     H 7827   0.591   0.701   1.161  1.1839  1.9543  0.7233
  527MPD2    H1 7828   0.628   0.724   0.736 -2.6829 -1.5273 -1.1429
  527MPD2    H2 7829   0.345   0.965   0.926 -0.6575 -0.5026  1.6265
  527MPD2    H3 7830   0.473   0.898   0.730  3.1259  1.8908  0.6370
  527MPD2     N 7831   0.723   0.596   0.958  0.9730  0.3952  0.1847
  527MPD2    H5 7832   0.759   0.567   1.048  0.3244 -2.8835 -0.6348
  527MPD2    N1 7833   0.398   0.879   1.181  0.4885  0.2806 -0.4303
  527MPD2    H7 7834   0.450   0.853   1.264 -1.6143  1.4727  1.2501
  528TMC3    C1 7835   0.255   0.976   1.330  0.0875 -0.1231  0.0713
  528TMC3    C2 7836   0.357   1.037   1.396 -0.1772  0.5014  0.0815
  528TMC3    C3 7837   0.323   1.094   1.517 -0.7154  0.3511  0.6008
  528TMC3    C4 7838   0.127   0.992   1.358  0.7562  0.2322  0.1747
  528TMC3    C5 7839   0.103   1.043   1.482 -0.1861 -0.4464  0.2684
  528TMC3    C6 7840   0.195   1.088   1.570  0.3462  0.0309 -0.2637
  528TMC3     C 7841   0.277   0.939   1.193  0.9315 -0.4344  0.0130
  528TMC3     O 7842   0.193   0.980   1.110 -0.3020 -0.1809  0.5239
  528TMC3     H 7843   0.458   1.037   1.359  0.1274  1.2522  0.9061
  528TMC3    H1 7844   0.055   0.946   1.292 -0.3254  1.3443  0.5538
  528TMC3    H2 7845   0.184   1.145   1.661  1.1175 -0.3928  0.0882
  528TMC3    C7 7846   4.691   1.093   1.518  0.3482 -0.4491 -0.8011
  528TMC3    C8 7847   0.424   1.169   1.589 -0.1930  0.0232  0.3063
  528TMC3    O1 7848   4.684   1.152   1.625 -0.1061  0.0462  0.3901
  528TMC3    O2 7849   0.506   1.211   1.511  0.8931  0.5721  0.4613
  529MPD2     C 7850   2.538   3.800   0.425  0.0786 -0.1465 -0.2799
  529MPD2    C1 7851   2.546   3.862   0.547 -0.1917 -0.3138 -0.0242
  529MPD2    C2 7852   2.550   3.997   0.551  0.1293 -0.1605 -0.3499
  529MPD2    C3 7853   2.566   4.069   0.427  0.4266  0.3415 -0.1447
  529MPD2    C4 7854   2.557   3.998   0.308 -0.3786  0.6001  1.1267
  529MPD2    C5 7855   2.543   3.865   0.305  0.3698 -0.0792 -0.3799
  529MPD2     H 7856   2.555   4.047   0.647  1.8693 -1.5982  0.2953
  529MPD2    H1 7857   2.561   4.045   0.210 -0.2206 -1.3479  0.1995
  529MPD2    H2 7858   2.533   3.691   0.426  0.2858 -0.1747 -1.9090
  529MPD2    H3 7859   2.545   3.805   0.215  1.0110  0.6046 -0.8286
  529MPD2     N 7860   2.572   4.208   0.420 -0.2899  0.0158 -0.4833
  529MPD2    H5 7861   2.570   4.252   0.329  0.6284  0.6327 -0.2050
  529MPD2    N1 7862   2.544   3.794   0.663  0.2241 -0.4618 -0.1436
  529MPD2    H7 7863   2.579   3.854   0.737 -1.3219 -0.7187  0.7949
  530TMC3    C1 7864   2.566   3.636   0.834  0.3456 -0.0077 -0.3102
  530TMC3    C2 7865   2.580   3.730   0.933  0.3597  0.1800  0.4094
  530TMC3    C3 7866   2.600   3.682   1.061  0.5380  0.7586  0.2285
  530TMC3    C4 7867   2.582   3.502   0.859  0.3424  0.4137 -0.0076
  530TMC3    C5 7868   2.614   3.462   0.985  0.1119 -0.3391 -0.2242
  530TMC3    C6 7869   2.615   3.550   1.092 -0.0034 -0.2596  0.2254
  530TMC3     C 7870   2.532   3.666   0.696 -0.3895  0.0319 -1.2388
  530TMC3     O 7871   2.490   3.576   0.624 -0.8974 -0.1559  0.7285
  530TMC3     H 7872   2.569   3.837   0.926 -0.1552 -0.1092 -3.4519
  530TMC3    H1 7873   2.570   3.423   0.786  0.4977  0.6903 -0.3322
  530TMC3    H2 7874   2.633   3.524   1.196 -1.8854  1.4077  0.9684
  530TMC3    C7 7875   2.667   3.328   1.012  0.7305  0.3197  0.4962
  530TMC3    C8 7876   2.641   3.785   1.154 -0.0801  0.6270  0.7431
  530TMC3    O1 7877   2.697   3.257   0.918 -0.1133 -0.2836 -0.3251
  530TMC3    O2 7878   2.590   3.897   1.132  0.2829 -0.1616 -0.1676
  531MPD2     C 7879   1.972   1.228  12.665 -0.8347 -0.0605  0.8239
  531MPD2    C1 7880   1.850   1.305  12.663  0.6052  0.5348 -0.0416
  531MPD2    C2 7881   1.766   1.277  12.562 -0.7957 -0.0143 -0.2064
  531MPD2    C3 7882   1.791   1.180  12.469 -0.2358 -0.6324  0.0866
  531MPD2    C4 7883   1.902   1.100  12.478  0.2529  0.2670  0.1921
  531MPD2    C5 7884   1.993   1.125  12.580 -0.7490  0.4316 -0.0202
  531MPD2     H 7885   1.675   1.335  12.554 -0.9652 -0.2745 -0.1450
  531MPD2    H1 7886   1.921   1.013  12.416  0.1313  2.0894 -2.3931
  531MPD2    H2 7887   2.045   1.245  12.744  0.4739 -0.8797 -0.2024
  531MPD2    H3 7888   2.090   1.076  12.574 -0.0808  1.7981 -0.5722
  531MPD2     N 7889   1.681   1.149  12.388  0.1303 -0.0083 -0.5733
  531MPD2    H5 7890   1.594   1.185  12.426 -0.5042 -2.2201  0.0341
  531MPD2    N1 7891   1.827   1.409  12.753  0.3310  0.3808  0.9584
  531MPD2    H7 7892   1.902   1.420  12.819  0.0849  1.3785  1.0720
  532TMC3    C1 7893   1.725   1.595  12.850  0.4388 -0.2599  0.3999
  532TMC3    C2 7894   1.618   1.675  12.831  1.1635  0.0929  0.5687
  532TMC3    C3 7895   1.534   1.701  12.931  0.6598 -0.7452  0.4567
  532TMC3    C4 7896   1.754   1.548  12.975 -0.2102 -0.4289  0.0547
  532TMC3    C5 7897   1.680   1.583  13.078 -0.2676  0.0840  0.3204
  532TMC3    C6 7898   1.563   1.654  13.061 -0.5801 -0.1822  0.2766
  532TMC3     C 7899   1.717   1.495  12.751 -0.2577 -0.3889  0.4376
  532TMC3     O 7900   1.618   1.492  12.686 -0.6537  0.4946 -0.1859
  532TMC3     H 7901   1.603   1.723  12.735 -1.6336 -1.0761  0.4047
  532TMC3    H1 7902   1.853   1.506  12.992  0.3077  0.6492 -0.2789
  532TMC3    H2 7903   1.487   1.666  13.137 -0.1104 -0.4212  0.7787
  532TMC3    C7 7904   1.749   1.604  13.202  0.1596  0.9981  0.4647
  532TMC3    C8 7905   1.393   1.684  12.896 -0.0196 -0.3117 -0.3886
  532TMC3    O1 7906   1.754   1.715  13.252  0.1709  0.3278  0.6024
  532TMC3    O2 7907   1.303   1.719  12.969  0.0786  0.3731  0.3406
  533TMC3    C1 7908   2.560   3.502  14.272 -0.2547 -0.2602  0.2880
  533TMC3    C2 7909   2.682   3.568  14.253  0.2409  0.2834  0.4935
  533TMC3    C3 7910   2.740   3.619  14.366 -0.1185  0.1168  0.1342
  533TMC3    C4 7911   2.490   3.528  14.385 -0.0180 -0.2051 -0.3231
  533TMC3    C5 7912   2.542   3.589  14.494  0.6681 -0.2605 -0.1180
  533TMC3    C6 7913   2.671   3.636  14.478  1.0554  0.3196 -0.4604
  533TMC3     C 7914   2.542   3.372  14.220  0.0415  0.0286  0.3267
  533TMC3     O 7915   2.587   3.353  14.111  0.3883  0.3311 -0.2678
  533TMC3     H 7916   2.744   3.536  14.169  0.9214  0.2739  1.0014
  533TMC3    H1 7917   2.391   3.483  14.384 -0.7050  1.3865 -2.0528
  533TMC3    H2 7918   2.733   3.672  14.560 -0.6418  0.8603  0.5893
  533TMC3    C7 7919   2.525   3.509  14.610  0.1560  0.9703 -0.5789
  533TMC3    C8 7920   2.878   3.623  14.382  0.0136 -0.3068 -0.3645
  533TMC3    O1 7921   2.504   3.390  14.587 -0.5766  0.2212  0.1929
  533TMC3    O2 7922   2.926   3.567  14.478 -0.1284  0.4718 -0.5073
  534MPD2     C 7923   0.782   4.554   1.443  0.8837  0.5137  0.2845
  534MPD2    C1 7924   0.682   4.644   1.457  0.0658 -0.1433 -0.0756
  534MPD2    C2 7925   0.560   4.624   1.396 -0.4452 -0.0171 -0.3690
  534MPD2    C3 7926   0.533   4.513   1.322  0.2293 -0.2988 -0.4613
  534MPD2    C4 7927   0.636   4.418   1.310 -0.8028 -0.9692 -0.0818
  534MPD2    C5 7928   0.755   4.437   1.376 -0.6467  0.8770 -0.2660
  534MPD2     H 7929   0.478   4.693   1.414  0.7694  1.3085  0.0588
  534MPD2    H1 7930   0.617   4.324   1.259 -0.8342 -1.9771  1.8201
  534MPD2    H2 7931   0.875   4.563   1.498  0.6962 -2.2066  1.0811
  534MPD2    H3 7932   0.827   4.356   1.372 -0.6158  1.0634 -3.6213
  534MPD2     N 7933   0.418   4.490   1.242 -0.2377 -0.4452  0.1962
  534MPD2    H5 7934   0.420   4.411   1.178 -1.4547  0.5832 -1.1066
  534MPD2    N1 7935   0.692   0.043   1.526  1.0554  0.4786  0.3649
  534MPD2    H7 7936   0.614   0.106   1.513 -0.3915 -1.3929  0.0446
  535TMC3    C1 7937   0.195   4.540   1.158  0.1265  0.0720  0.2107
  535TMC3    C2 7938   0.068   4.589   1.184 -0.0058  0.1979  0.0661
  535TMC3    C3 7939   4.698   4.579   1.089 -0.7471  0.5314  0.7973
  535TMC3    C4 7940   0.234   4.501   1.024  0.3377 -0.0247  0.5447
  535TMC3    C5 7941   0.132   4.488   0.930  0.4039  0.7646  0.0376
  535TMC3    C6 7942   0.000   4.521   0.966  0.3003 -0.0858  0.7375
  535TMC3     C 7943   0.302   4.565   1.251  1.0125 -0.8862 -0.2479
  535TMC3     O 7944   0.268   4.650   1.332  0.0841  0.3697 -0.1014
  535TMC3     H 7945   0.042   4.608   1.287 -1.9036 -1.3411 -0.1272
  535TMC3    H1 7946   0.335   4.465   1.012  0.4136  0.7639 -1.1750
  535TMC3    H2 7947   4.650   4.519   0.886  0.1699 -4.0982  0.9357
  535TMC3    C7 7948   0.161   4.414   0.802 -0.1558 -1.0339 -0.2914
  535TMC3    C8 7949   4.559   4.563   1.145 -0.5271  0.1883 -0.0108
  535TMC3    O1 7950   0.102   4.452   0.700 -0.2314 -0.6698 -0.4128
  535TMC3    O2 7951   4.484   4.482   1.108  0.4834  0.0863 -0.0941
  536MPD2     C 7952   3.459   2.206  16.912 -0.1659 -0.3429  0.5364
  536MPD2    C1 7953   3.358   2.286  16.950  0.3060 -0.6085  0.1380
  536MPD2    C2 7954   3.306   2.383  16.863 -0.5144 -0.9126  0.5859
  536MPD2    C3 7955   3.361   2.402  16.736  0.0966  0.4637  0.4508
  536MPD2    C4 7956   3.458   2.314  16.693 -0.2031  0.7383  1.0518
  536MPD2    C5 7957   3.508   2.221  16.783  0.2488 -0.4276 -0.7518
  536MPD2     H 7958   3.236   2.453  16.907 -0.3082  0.9188 -1.9727
  536MPD2    H1 7959   3.511   2.332  16.601 -0.0870 -1.1124  0.7528
  536MPD2    H2 7960   3.486   2.117  16.968 -0.3621 -1.9992 -1.9578
  536MPD2    H3 7961   3.580   2.151  16.742  1.8763  1.0439 -0.4020
  536MPD2     N 7962   3.323   2.516  16.654 -0.1409 -0.6792 -0.0664
  536MPD2    H5 7963   3.380   2.527  16.571 -1.1201 -0.4098 -0.7140
  536MPD2    N1 7964   3.297   2.252  17.074  0.9179  0.5654  0.3198
  536MPD2    H7 7965   3.344   2.184  17.132 -0.3523 -2.0059 -1.6880
  537TMC3    C1 7966   3.213   2.325  17.272  0.5003 -0.2425 -0.0695
  537TMC3    C2 7967   3.262   2.451  17.308 -0.8284 -0.1630  0.1354
  537TMC3    C3 7968   3.347   2.464  17.414 -0.2407 -0.1366 -0.7008
  537TMC3    C4 7969   3.238   2.218  17.345 -0.5743 -0.0168 -0.8477
  537TMC3    C5 7970   3.328   2.231  17.449 -0.2219  0.2006 -1.0984
  537TMC3    C6 7971   3.384   2.350  17.479 -0.4785 -0.2786 -0.4268
  537TMC3     C 7972   3.187   2.317  17.134  0.3130 -0.0538 -1.0098
  537TMC3     O 7973   3.109   2.396  17.083  0.3090  0.5757  0.0188
  537TMC3     H 7974   3.239   2.531  17.239 -2.6999 -1.0961 -0.3170
  537TMC3    H1 7975   3.187   2.128  17.310 -2.1768  1.4101 -2.1755
  537TMC3    H2 7976   3.449   2.365  17.564  0.5264  0.9968 -1.4283
  537TMC3    C7 7977   3.362   2.119  17.528 -0.1010  0.0546 -0.3751
  537TMC3    C8 7978   3.453   2.569  17.408 -0.5310  0.0405 -0.1601
  537TMC3    O1 7979   3.402   2.148  17.639  0.1615  0.2082 -0.1346
  537TMC3    O2 7980   3.546   2.553  17.484  0.0366  0.2604  0.3976
  538TMC3    C1 7981   0.736   0.691  10.891 -0.3390 -0.8947  0.3453
  538TMC3    C2 7982   0.825   0.661  10.791  0.6955 -0.1873 -0.3707
  538TMC3    C3 7983   0.803   0.703  10.660  0.1085  0.4170 -0.0511
  538TMC3    C4 7984   0.617   0.744  10.862 -0.1400  0.6219 -0.2422
  538TMC3    C5 7985   0.608   0.805  10.734  0.2926  0.4084 -0.0821
  538TMC3    C6 7986   0.693   0.779  10.622 -0.3078  0.0809 -0.6449
  538TMC3     C 7987   0.764   0.674  11.030  0.0131 -0.5355  0.2001
  538TMC3     O 7988   0.684   0.713  11.118  0.7353  0.2070 -0.2110
  538TMC3     H 7989   0.912   0.599  10.804  0.0425 -1.6524 -2.7749
  538TMC3    H1 7990   0.543   0.760  10.940 -0.0801 -0.0611 -0.0466
  538TMC3    H2 7991   0.677   0.827  10.526 -0.5389 -1.0956 -1.1935
  538TMC3    C7 7992   0.501   0.895  10.717  0.4007 -0.1394 -0.0006
  538TMC3    C8 7993   0.935   0.716  10.592  0.3063 -0.5435 -0.2995
  538TMC3    O1 7994   0.425   0.874  10.623 -0.4347 -0.7864 -0.3558
  538TMC3    O2 7995   1.010   0.619  10.588  0.6599  0.2620 -0.1429
  539MPD2     C 7996   0.287   0.062  11.947 -0.0936  0.3315 -0.5930
  539MPD2    C1 7997   0.357   0.151  11.868  0.0013 -0.1970  0.1875
  539MPD2    C2 7998   0.329   0.285  11.863  0.4037  0.2226 -0.1617
  539MPD2    C3 7999   0.226   0.337  11.937  0.4547  0.1829  0.1713
  539MPD2    C4 8000   0.154   0.249  12.013 -0.3774  0.0054 -0.6150
  539MPD2    C5 8001   0.184   0.115  12.018  0.2702 -0.8138 -0.1113
  539MPD2     H 8002   0.389   0.355  11.806  0.2313 -1.0051 -1.8205
  539MPD2    H1 8003   0.062   0.279  12.063  2.0791  2.6256  2.3309
  539MPD2    H2 8004   0.292   4.677  11.942 -1.3412  0.2788 -0.7102
  539MPD2    H3 8005   0.126   0.047  12.080  2.0666 -0.9357  1.4407
  539MPD2     N 8006   0.188   0.476  11.934  0.0608  0.1536  0.4855
  539MPD2    H5 8007   0.102   0.494  11.985 -1.7601 -2.5337 -1.6769
  539MPD2    N1 8008   0.450   0.095  11.784 -0.0725 -0.3243  0.2727
  539MPD2    H7 8009   0.466   4.718  11.794 -0.3768 -0.2923  1.0498
  540TMC3    C1 8010   0.157   0.682  11.834  0.2242  0.5938  0.3731
  540TMC3    C2 8011   0.213   0.772  11.751 -0.0786  0.3041  0.0617
  540TMC3    C3 8012   0.140   0.834  11.659  0.1431  0.3039 -0.3601
  540TMC3    C4 8013   0.023   0.670  11.845  0.0493  0.4811  0.3519
  540TMC3    C5 8014   4.673   0.734  11.755 -0.7136 -0.1036 -0.1782
  540TMC3    C6 8015   0.003   0.813  11.657 -0.2810 -0.0242 -0.3442
  540TMC3     C 8016   0.245   0.570  11.857  0.3424  0.3023  0.3967
  540TMC3     O 8017   0.368   0.578  11.827 -0.3930 -0.0660  0.4610
  540TMC3     H 8018   0.320   0.794  11.749  0.0792 -0.2943  1.8831
  540TMC3    H1 8019   4.701   0.604  11.918  0.2028  1.6625  1.4925
  540TMC3    H2 8020   4.658   0.861  11.587 -1.5408 -0.7298  0.4042
  540TMC3    C7 8021   4.543   0.762  11.801 -0.4674 -0.0869  0.2520
  540TMC3    C8 8022   0.206   0.865  11.537  0.0951  0.6345  0.4136
  540TMC3    O1 8023   4.483   0.670  11.856  0.1505 -0.8808 -0.4335
  540TMC3    O2 8024   0.320   0.907  11.555 -0.0509  0.3694 -0.3438
  541MPD2     C 8025   2.692   1.896  13.211  0.0287  0.1215 -0.4360
  541MPD2    C1 8026   2.694   1.791  13.124  0.1357 -0.3232  1.0669
  541MPD2    C2 8027   2.736   1.818  12.985 -0.3304  0.4017  0.6934
  541MPD2    C3 8028   2.787   1.942  12.944  0.7889 -0.4923  0.0431
  541MPD2    C4 8029   2.784   2.046  13.042 -0.5313 -0.0641 -0.8019
  541MPD2    C5 8030   2.744   2.017  13.172 -0.2751 -0.2300  0.4651
  541MPD2     H 8031   2.737   1.734  12.917  0.2469  1.8119 -1.0162
  541MPD2    H1 8032   2.814   2.147  13.019  0.0850  0.2335  1.3416
  541MPD2    H2 8033   2.665   1.893  13.316  1.9265  3.8883  0.1865
  541MPD2    H3 8034   2.748   2.094  13.248  1.9230 -2.3455  2.4705
  541MPD2     N 8035   2.830   1.972  12.808 -0.9559  0.3510  0.1661
  541MPD2    H5 8036   2.840   2.069  12.780 -2.0266  1.0993  2.3754
  541MPD2    N1 8037   2.644   1.667  13.172  0.0935 -0.1278  0.1199
  541MPD2    H7 8038   2.646   1.644  13.271  1.5277 -1.0673 -0.1285
  542TMC3    C1 8039   2.862   1.941  12.581  0.4772 -0.2275 -0.8618
  542TMC3    C2 8040   2.928   1.864  12.490  0.7353 -0.9171 -0.4495
  542TMC3    C3 8041   2.945   1.918  12.371  0.2409  0.0713  0.2129
  542TMC3    C4 8042   2.796   2.055  12.545 -0.0648  0.4142 -0.2002
  542TMC3    C5 8043   2.807   2.094  12.413 -0.8803  0.6874 -0.4740
  542TMC3    C6 8044   2.880   2.028  12.322 -0.0257  0.5406  0.7960
  542TMC3     C 8045   2.830   1.878  12.710 -0.3642  0.3853 -0.0142
  542TMC3     O 8046   2.819   1.757  12.709  0.3898 -0.4748 -0.3061
  542TMC3     H 8047   2.960   1.768  12.529 -0.2785 -1.1691 -0.2262
  542TMC3    H1 8048   2.743   2.116  12.617 -0.6533  2.1997 -2.1437
  542TMC3    H2 8049   2.898   2.061  12.220 -1.4278 -2.4558 -0.4205
  542TMC3    C7 8050   2.693   2.170  12.363 -0.5687  0.4000 -0.4101
  542TMC3    C8 8051   3.039   1.851  12.281 -0.0998 -0.1142  0.4550
  542TMC3    O1 8052   2.714   2.243  12.266 -0.1679 -0.0065  0.0046
  542TMC3    O2 8053   3.024   1.882  12.164  0.5939  0.7132 -0.2589
  543TMC3    C1 8054   2.314   2.887   0.179  0.6888 -0.4506 -0.1537
  543TMC3    C2 8055   2.364   2.761   0.185 -0.3954 -0.1880  0.0408
  543TMC3    C3 8056   2.355   2.692   0.303 -0.6393 -0.3379 -0.3151
  543TMC3    C4 8057   2.269   2.946   0.290 -0.3887  0.0442  0.4730
  543TMC3    C5 8058   2.279   2.881   0.406  0.0592 -0.2662  0.8373
  543TMC3    C6 8059   2.326   2.756   0.419 -0.1558  1.0702 -0.0053
  543TMC3     C 8060   2.335   2.955   0.055 -0.7463  0.4799 -0.2688
  543TMC3     O 8061   2.411   2.906  17.670  0.5282 -0.5870 -0.0794
  543TMC3     H 8062   2.382   2.703   0.095  0.0151  0.8657 -0.5616
  543TMC3    H1 8063   2.220   3.043   0.281 -0.2956  0.0182 -0.3661
  543TMC3    H2 8064   2.308   2.700   0.510  0.9529 -0.5636 -0.7919
  543TMC3    C7 8065   2.262   2.969   0.523 -0.0049 -0.1902  0.5257
  543TMC3    C8 8066   2.411   2.561   0.304 -0.0655  0.1082 -0.1597
  543TMC3    O1 8067   2.192   3.070   0.521 -0.1528 -0.1677 -0.4616
  543TMC3    O2 8068   2.391   2.491   0.204  0.7963 -0.7361 -0.2019
  544MPD2     C 8069   2.708   2.185   0.487  0.7935  0.5170  0.3884
  544MPD2    C1 8070   2.642   2.201   0.368  0.2562 -0.3618  0.6061
  544MPD2    C2 8071   2.562   2.313   0.337  0.0492  0.5173 -0.1360
  544MPD2    C3 8072   2.566   2.415   0.428  0.0949 -0.8073  0.3278
  544MPD2    C4 8073   2.638   2.403   0.544 -0.0580  0.4007 -0.6703
  544MPD2    C5 8074   2.702   2.285   0.581 -0.6318 -0.1716 -0.2349
  544MPD2     H 8075   2.492   2.306   0.255 -0.3019 -2.4806  0.4039
  544MPD2    H1 8076   2.617   2.485   0.612  1.5811 -1.7387  2.4809
  544MPD2    H2 8077   2.754   2.095   0.525 -0.2435 -0.1845 -0.0346
  544MPD2    H3 8078   2.738   2.270   0.682  2.8268  2.2302 -1.1505
  544MPD2     N 8079   2.502   2.543   0.408 -0.2129  0.0075  0.0183
  544MPD2    H5 8080   2.522   2.622   0.470  0.1672  0.9005 -1.2383
  544MPD2    N1 8081   2.651   2.090   0.276  0.0219  0.0468  0.2802
  544MPD2    H7 8082   2.714   2.018   0.309  1.9406  2.6388  2.2135
  545TMC3    C1 8083   2.651   1.960   0.090 -1.0863  0.1323  0.1337
  545TMC3    C2 8084   2.714   1.958  17.664  0.2862  0.1561  0.1294
  545TMC3    C3 8085   2.772   1.835  17.637 -0.9556  0.0514 -0.2232
  545TMC3    C4 8086   2.608   1.845   0.160  0.0653  0.1322  0.5179
  545TMC3    C5 8087   2.643   1.717   0.111  0.5408  0.2252 -0.0507
  545TMC3    C6 8088   2.734   1.713   0.005 -0.5979 -0.5026  0.4347
  545TMC3     C 8089   2.621   2.092   0.143 -0.2407 -0.4066  0.3202
  545TMC3     O 8090   2.560   2.166   0.064 -0.1784  0.4878 -0.4814
  545TMC3     H 8091   2.741   2.048  17.612  0.6731 -0.3015 -0.4641
  545TMC3    H1 8092   2.553   1.849   0.254  0.2481 -0.0568  0.6333
  545TMC3    H2 8093   2.763   1.616  17.661 -0.2239  0.4668 -1.8406
  545TMC3    C7 8094   2.636   1.612   0.205 -0.6039  0.3075 -0.1029
  545TMC3    C8 8095   2.848   1.812  17.517 -0.5586  0.0003 -0.0632
  545TMC3    O1 8096   2.545   1.624   0.287 -0.1172 -0.2520  0.3998
  545TMC3    O2 8097   2.916   1.713  17.517 -0.0281 -0.1732  0.4193
  546MPD2     C 8098   4.273   3.113  17.443 -0.2876 -0.1579  0.6416
  546MPD2    C1 8099   4.165   3.179  17.405 -0.1954 -0.0729 -0.5355
  546MPD2    C2 8100   4.162   3.285  17.315  0.0003  0.0525 -0.5698
  546MPD2    C3 8101   4.281   3.329  17.267  0.2102  0.1965 -0.5899
  546MPD2    C4 8102   4.396   3.261  17.309  0.2109  0.6399  0.0952
  546MPD2    C5 8103   4.394   3.149  17.386  0.5689  0.6034  0.7005
  546MPD2     H 8104   4.068   3.322  17.275 -0.0109  1.3921  0.6970
  546MPD2    H1 8105   4.496   3.288  17.278 -0.4939 -1.3248 -3.8362
  546MPD2    H2 8106   4.268   3.020  17.498  0.3995 -0.3344  0.4084
  546MPD2    H3 8107   4.488   3.099  17.404  0.5374  0.4018  0.2946
  546MPD2     N 8108   4.303   3.448  17.191  0.7935 -0.1273 -0.8272
  546MPD2    H5 8109   4.399   3.480  17.189  0.3080  1.4293  0.9952
  546MPD2    N1 8110   4.045   3.120  17.451  0.5428 -0.5168  0.1762
  546MPD2    H7 8111   4.053   3.051  17.525 -1.0084 -2.7245 -1.7080
  547TMC3    C1 8112   3.822   3.088  17.508  0.2338 -0.1055 -0.0366
  547TMC3    C2 8113   3.690   3.106  17.484  0.9431  0.0812 -0.7164
  547TMC3    C3 8114   3.598   3.028  17.548 -0.3181 -0.5942  0.8358
  547TMC3    C4 8115   3.861   2.983  17.584  0.3913 -0.3742  0.7962
  547TMC3    C5 8116   3.764   2.897  17.637  0.0264 -0.0684 -0.3607
  547TMC3    C6 8117   3.631   2.917  17.624 -0.6613  0.0086 -0.0993
  547TMC3     C 8118   3.917   3.158  17.419 -0.0624 -0.1582 -0.2341
  547TMC3     O 8119   3.874   3.217  17.321 -0.3841 -0.0298 -0.3964
  547TMC3     H 8120   3.658   3.181  17.412  0.6716 -1.4628 -2.2084
  547TMC3    H1 8121   3.965   2.964  17.608  0.4213 -0.4798  0.5851
  547TMC3    H2 8122   3.560   2.843  17.659 -0.0749  0.2547  1.6178
  547TMC3    C7 8123   3.811   2.791   0.036  0.1755 -0.1202  0.4501
  547TMC3    C8 8124   3.459   3.075  17.536  0.1972 -0.4316 -0.2181
  547TMC3    O1 8125   3.906   2.823   0.101 -0.1024 -0.5037  0.4409
  547TMC3    O2 8126   3.427   3.162  17.459  0.2195  0.2428 -0.0163
  548MPD2     C 8127   3.882   3.772  12.468  0.3714 -0.0893  0.1095
  548MPD2    C1 8128   3.851   3.643  12.468  0.5375 -0.5143 -0.2509
  548MPD2    C2 8129   3.928   3.553  12.393 -0.2149 -0.5063  0.0329
  548MPD2    C3 8130   4.043   3.592  12.324  0.7562 -0.1244  0.1113
  548MPD2    C4 8131   4.082   3.721  12.335  0.5778  0.0630 -0.5432
  548MPD2    C5 8132   4.006   3.809  12.410  0.0268 -0.0117 -0.9669
  548MPD2     H 8133   3.888   3.455  12.368 -0.1760 -1.0506  2.0633
  548MPD2    H1 8134   4.183   3.748  12.308  0.3412 -0.5650 -2.0877
  548MPD2    H2 8135   3.834   3.846  12.530 -0.4380 -0.7661  0.2847
  548MPD2    H3 8136   4.047   3.909  12.423 -0.4093 -0.1297  1.3548
  548MPD2     N 8137   4.117   3.500  12.246  0.3522  0.5202  0.1110
  548MPD2    H5 8138   4.100   3.402  12.265 -1.7612  0.9719  0.4832
  548MPD2    N1 8139   3.735   3.610  12.537  0.1328  0.0752 -0.9309
  548MPD2    H7 8140   3.681   3.691  12.566 -0.6125 -1.1252  1.0698
  549TMC3    C1 8141   3.571   3.487  12.642  0.1351 -0.8399  0.6352
  549TMC3    C2 8142   3.523   3.609  12.673  0.4915 -0.9198 -0.4075
  549TMC3    C3 8143   3.391   3.618  12.694  0.0589  0.4804  0.2687
  549TMC3    C4 8144   3.491   3.375  12.647  0.0230  0.1629 -0.5354
  549TMC3    C5 8145   3.361   3.379  12.684 -0.1206 -0.4360  0.7222
  549TMC3    C6 8146   3.305   3.507  12.700 -0.2009  0.2008 -0.1135
  549TMC3     C 8147   3.682   3.483  12.551  0.0069  0.4209  0.6040
  549TMC3     O 8148   3.722   3.370  12.523 -0.3939  0.0671 -0.3219
  549TMC3     H 8149   3.588   3.696  12.677  0.3010 -0.7478 -0.9832
  549TMC3    H1 8150   3.538   3.281  12.622  1.7084  0.8591  0.0506
  549TMC3    H2 8151   3.199   3.526  12.706 -0.9134 -3.1089 -2.3322
  549TMC3    C7 8152   3.273   3.267  12.683 -0.2936  0.3172  0.5674
  549TMC3    C8 8153   3.329   3.741  12.645 -0.1481  0.8101  0.0020
  549TMC3    O1 8154   3.154   3.296  12.673  0.3382  0.3880  0.3581
  549TMC3    O2 8155   3.211   3.725  12.615 -0.4071 -0.0098 -0.1487
  550TMC3    C1 8156   2.103   1.297  12.262 -0.9648  0.0864 -0.2745
  550TMC3    C2 8157   2.115   1.382  12.370  0.2992 -0.0771 -0.1247
  550TMC3    C3 8158   2.076   1.516  12.362 -0.5846  0.3965  0.6314
  550TMC3    C4 8159   2.067   1.341  12.137 -1.1486 -0.0033  0.5776
  550TMC3    C5 8160   2.051   1.474  12.126 -0.0462  0.8490 -0.7682
  550TMC3    C6 8161   2.053   1.565  12.234  0.2318  0.4431  0.4413
  550TMC3     C 8162   2.197   1.189  12.271 -0.2497 -0.4347 -0.8276
  550TMC3     O 8163   2.247   1.163  12.382  0.3441 -0.3150  0.0245
  550TMC3     H 8164   2.146   1.344  12.466  1.3637  0.0992 -0.3978
  550TMC3    H1 8165   2.041   1.279  12.052  1.1189  2.2781 -1.7378
  550TMC3    H2 8166   2.009   1.663  12.221 -3.1621 -1.2769 -1.0771
  550TMC3    C7 8167   2.023   1.529  11.984 -0.2112 -0.1632  0.5667
  550TMC3    C8 8168   2.071   1.600  12.475  0.3501  0.2944  0.0163
  550TMC3    O1 8169   1.990   1.447  11.901 -0.7189  0.2736 -0.4958
  550TMC3    O2 8170   2.038   1.715  12.449  0.1028 -0.3185  0.1436
  551TMC3    C1 8171   0.009   4.095  13.253 -0.1943  0.2775  0.0019
  551TMC3    C2 8172   0.138   4.127  13.209 -0.1068 -0.6819  0.1892
  551TMC3    C3 8173   0.183   4.253  13.223  0.0012  0.3176 -0.3208
  551TMC3    C4 8174   4.646   4.199  13.291 -0.0643 -0.6035 -0.4420
  551TMC3    C5 8175   4.695   4.320  13.303 -0.4509  0.2483  0.3113
  551TMC3    C6 8176   0.101   4.353  13.268 -0.7533 -0.5821 -0.9232
  551TMC3     C 8177   4.668   3.992  13.186 -0.0338  0.3866  0.2948
  551TMC3     O 8178   4.714   3.962  13.077 -0.0441 -0.4523  0.3528
  551TMC3     H 8179   0.207   4.051  13.173 -1.2744 -0.3428 -2.7759
  551TMC3    H1 8180   4.546   4.196  13.331 -0.8298 -1.8846 -2.4788
  551TMC3    H2 8181   0.137   4.451  13.299  2.6323 -1.1450 -3.0254
  551TMC3    C7 8182   4.639   4.396  13.411 -0.3847  0.5113 -0.3686
  551TMC3    C8 8183   0.309   4.293  13.158 -0.8563 -0.4767  0.2971
  551TMC3    O1 8184   4.598   4.330  13.505  0.9543 -0.2281 -0.5079
  551TMC3    O2 8185   0.387   4.196  13.147  0.1348 -0.2634 -0.6930
  552MPD2     C 8186   1.508   1.207  13.849  0.1010 -0.6951 -0.0330
  552MPD2    C1 8187   1.587   1.267  13.749 -0.7619 -0.0455 -0.6203
  552MPD2    C2 8188   1.727   1.269  13.759  0.6348 -0.5425  0.0645
  552MPD2    C3 8189   1.783   1.213  13.872  0.2616  0.1145 -0.2630
  552MPD2    C4 8190   1.705   1.166  13.970  0.8518  0.6368 -0.9310
  552MPD2    C5 8191   1.573   1.160  13.959 -0.1263  0.3074 -0.6284
  552MPD2     H 8192   1.789   1.312  13.682 -0.2048 -0.6501 -0.6716
  552MPD2    H1 8193   1.751   1.125  14.059  1.3113 -0.2430 -1.5771
  552MPD2    H2 8194   1.402   1.188  13.858  0.1814 -1.4467 -0.7128
  552MPD2    H3 8195   1.513   1.110  14.034  2.4109  1.4763  2.2038
  552MPD2     N 8196   1.920   1.201  13.904 -0.6604 -0.0128 -0.2359
  552MPD2    H5 8197   1.941   1.169  13.998  0.3628 -0.1039 -0.4926
  552MPD2    N1 8198   1.522   1.313  13.629  0.0628  0.9524  0.2192
  552MPD2    H7 8199   1.585   1.326  13.550 -2.2621 -2.1475 -2.1047
  553TMC3    C1 8200   1.339   1.348  13.477 -0.1346 -0.4760  0.5100
  553TMC3    C2 8201   1.432   1.363  13.379 -0.8388 -0.4687 -0.4097
  553TMC3    C3 8202   1.400   1.328  13.247  0.0563 -0.2657  0.1401
  553TMC3    C4 8203   1.225   1.281  13.450 -0.1308 -0.1303 -0.2759
  553TMC3    C5 8204   1.193   1.225  13.325 -0.0789 -0.5768 -0.5493
  553TMC3    C6 8205   1.281   1.257  13.224  0.2157  0.2004  0.0038
  553TMC3     C 8206   1.388   1.325  13.612  0.4631 -1.0081  0.3367
  553TMC3     O 8207   1.306   1.326  13.706 -0.1300  1.0595 -0.0158
  553TMC3     H 8208   1.531   1.399  13.405 -1.6377  3.0267 -2.1530
  553TMC3    H1 8209   1.157   1.265  13.533  0.2859  1.8716  0.4530
  553TMC3    H2 8210   1.257   1.217  13.126 -0.6528  1.6087 -0.3776
  553TMC3    C7 8211   1.182   1.082  13.329  0.4031 -0.1476  0.5901
  553TMC3    C8 8212   1.514   1.293  13.155 -0.4087  0.1278  0.3116
  553TMC3    O1 8213   1.167   1.035  13.220 -0.3293  0.5188  0.0575
  553TMC3    O2 8214   1.621   1.302  13.205 -0.1856 -0.2392  0.1862
  554TMC3    C1 8215   3.958   0.397  11.596 -0.3770 -0.3153  0.3010
  554TMC3    C2 8216   3.923   0.324  11.490  0.4969  0.1710 -0.6448
  554TMC3    C3 8217   4.012   0.313  11.385  0.6818  0.3233 -0.0972
  554TMC3    C4 8218   4.068   0.474  11.604  0.1318 -0.1143  0.0819
  554TMC3    C5 8219   4.151   0.473  11.493  0.2298  0.1275  0.7781
  554TMC3    C6 8220   4.122   0.391  11.384  0.4244 -0.0826  0.0487
  554TMC3     C 8221   3.882   0.371  11.714 -0.3795  0.2521  0.3590
  554TMC3     O 8222   3.766   0.330  11.699  0.0769  0.5296 -0.6284
  554TMC3     H 8223   3.829   0.270  11.486 -0.0231  1.0877 -0.7417
  554TMC3    H1 8224   4.081   0.545  11.685 -1.0236 -1.1038  1.1373
  554TMC3    H2 8225   4.190   0.389  11.300  1.6811  1.5329  1.0339
  554TMC3    C7 8226   4.237   0.584  11.454 -0.2198 -0.0519  0.3598
  554TMC3    C8 8227   3.954   0.299  11.257 -0.0831 -0.7051  0.4492
  554TMC3    O1 8228   4.331   0.549  11.384 -0.2343  1.2439 -0.4162
  554TMC3    O2 8229   4.007   0.353  11.161 -0.0132 -0.2478 -0.4023
  555TMC3    C1 8230   2.482   4.406  14.684  0.3195  0.1171  0.3808
  555TMC3    C2 8231   2.468   4.529  14.737  0.2150 -0.6350  0.3342
  555TMC3    C3 8232   2.501   4.551  14.869  0.8233  0.2245 -0.1679
  555TMC3    C4 8233   2.542   4.303  14.757  0.3513 -0.7528 -0.0597
  555TMC3    C5 8234   2.572   4.332  14.884  0.2436 -0.2528  1.0280
  555TMC3    C6 8235   2.561   4.452  14.943 -0.5459 -0.7019  0.7288
  555TMC3     C 8236   2.412   4.372  14.565  0.8659  0.4869 -0.4896
  555TMC3     O 8237   2.441   4.255  14.531  0.1765 -0.2892 -0.3921
  555TMC3     H 8238   2.435   4.614  14.678 -2.4678 -1.5081  0.5742
  555TMC3    H1 8239   2.542   4.198  14.731  0.2773 -0.6654 -0.4191
  555TMC3    H2 8240   2.575   4.471  15.048 -2.3333  2.7914  0.3391
  555TMC3    C7 8241   2.619   4.219  14.971 -0.4851  0.5263 -0.6805
  555TMC3    C8 8242   2.499   4.689  14.915  0.0086 -1.1056 -0.1949
  555TMC3    O1 8243   2.602   4.231  15.095 -0.0675  0.2077  0.3038
  555TMC3    O2 8244   2.403   0.025  14.871  0.1962  0.9763  0.2441
  556MPD2     C 8245   0.764   1.920  10.753 -0.5340 -0.2243 -0.0310
  556MPD2    C1 8246   0.875   1.835  10.772  0.1481 -0.0296  0.7137
  556MPD2    C2 8247   0.923   1.764  10.658  0.4653 -0.1109 -0.2422
  556MPD2    C3 8248   0.850   1.760  10.541 -0.0529  0.4651 -0.1271
  556MPD2    C4 8249   0.736   1.839  10.525  0.2414  0.1489  0.4489
  556MPD2    C5 8250   0.693   1.916  10.635  0.3927  0.6350 -0.7361
  556MPD2     H 8251   1.005   1.695  10.674 -0.0366 -0.6391  0.0508
  556MPD2    H1 8252   0.660   1.831  10.449 -2.1380  2.9723  2.5501
  556MPD2    H2 8253   0.713   1.977  10.829 -0.1386  0.1084 -0.0150
  556MPD2    H3 8254   0.600   1.970  10.625 -0.1038  0.1171  1.1607
  556MPD2     N 8255   0.896   1.679  10.435  1.0793 -0.8999 -0.3554
  556MPD2    H5 8256   0.975   1.619  10.460  1.5877 -0.6459 -1.3560
  556MPD2    N1 8257   0.952   1.828  10.895 -0.0189 -0.1092  0.4189
  556MPD2    H7 8258   1.024   1.757  10.903  0.4059  0.4877  2.0242
  557TMC3    C1 8259   0.902   1.569  10.226 -0.4867 -0.4645 -0.2614
  557TMC3    C2 8260   0.826   1.536  10.120  0.0141 -0.1773 -0.1007
  557TMC3    C3 8261   0.875   1.425  10.051 -0.0030 -0.6452 -0.3332
  557TMC3    C4 8262   1.025   1.515  10.264  0.3937  0.4720 -0.1178
  557TMC3    C5 8263   1.060   1.395  10.204 -0.0093 -0.0694  0.6521
  557TMC3    C6 8264   0.986   1.348  10.099  0.0592 -0.0711  0.1349
  557TMC3     C 8265   0.837   1.661  10.313  0.1986  0.5071  0.7753
  557TMC3     O 8266   0.731   1.713  10.280  0.4396  0.2758 -0.4359
  557TMC3     H 8267   0.732   1.585  10.098  0.0450  0.0625  0.2956
  557TMC3    H1 8268   1.093   1.548  10.342  0.6488  0.9368 -0.5397
  557TMC3    H2 8269   1.019   1.261  10.043  2.3324  1.4126 -0.8421
  557TMC3    C7 8270   1.081   1.297  10.304  0.0562  0.7751  0.6763
  557TMC3    C8 8271   0.771   1.367   9.967  0.9273  0.5292  0.4734
  557TMC3    O1 8272   1.042   1.328  10.414 -0.3611  0.0147 -0.2910
  557TMC3    O2 8273   0.667   1.421   9.959  0.1451  0.6655  0.2183
  558TMC3    C1 8274   3.584   4.200  10.123 -0.4030 -0.2072  0.2959
  558TMC3    C2 8275   3.525   4.104  10.187  0.5330  0.4531 -0.5936
  558TMC3    C3 8276   3.402   4.066  10.146 -0.0501  0.3672 -0.1376
  558TMC3    C4 8277   3.539   4.255  10.007 -0.1662 -0.7314  0.1009
  558TMC3    C5 8278   3.416   4.212   9.957 -0.6109  0.5916 -0.6232
  558TMC3    C6 8279   3.342   4.121  10.031 -0.5895  0.3495 -0.4068
  558TMC3     C 8280   3.713   4.243  10.174 -0.0817  0.8260  0.2641
  558TMC3     O 8281   3.779   4.320  10.108  0.2335  0.3528  0.1114
  558TMC3     H 8282   3.587   4.042  10.251  0.9775  1.2543 -0.2356
  558TMC3    H1 8283   3.592   4.339   9.963  0.7882 -2.0267 -1.2370
  558TMC3    H2 8284   3.243   4.089  10.002 -0.7586  2.0230 -1.6545
  558TMC3    C7 8285   3.387   4.237   9.816 -0.6316  0.4009 -0.2059
  558TMC3    C8 8286   3.346   3.943  10.200 -0.4083 -0.0518 -0.1222
  558TMC3    O1 8287   3.439   4.326   9.751  0.0863 -0.2120  0.2418
  558TMC3    O2 8288   3.268   3.884  10.129 -0.1802  0.2094  0.1957
  559MPD2     C 8289   3.700   4.516  10.671 -0.6395 -0.0796  0.4603
  559MPD2    C1 8290   3.659   4.466  10.787  0.1155  0.0848  0.6822
  559MPD2    C2 8291   3.754   4.465  10.893 -0.4081  0.0220 -0.0515
  559MPD2    C3 8292   3.875   4.513  10.878  1.3647  0.2402  0.2992
  559MPD2    C4 8293   3.921   4.570  10.758 -0.4526  0.1730 -0.1564
  559MPD2    C5 8294   3.832   4.559  10.653 -0.7250  0.0639 -0.2295
  559MPD2     H 8295   3.722   4.436  10.992  0.6171 -1.9335 -0.2963
  559MPD2    H1 8296   4.019   4.610  10.737 -1.0055  1.3442 -0.5152
  559MPD2    H2 8297   3.627   4.533  10.592 -1.4849 -1.4051  0.9503
  559MPD2    H3 8298   3.855   4.599  10.555  2.3570  1.5531  1.0898
  559MPD2     N 8299   3.957   4.526  10.999 -0.0527 -0.6614  0.3271
  559MPD2    H5 8300   3.922   4.485  11.085  1.5727 -0.3300  1.1448
  559MPD2    N1 8301   3.524   4.429  10.798 -1.1823  0.6123 -0.5612
  559MPD2    H7 8302   3.464   4.436  10.717 -2.9851 -1.6755  0.5414
  560TMC3    C1 8303   4.132   4.588  11.147 -0.5902  0.2715 -0.1342
  560TMC3    C2 8304   4.119   4.458  11.206  1.0972 -0.4770  0.5806
  560TMC3    C3 8305   4.185   4.437  11.324 -0.1692  0.8813  0.2512
  560TMC3    C4 8306   4.224   4.678  11.188 -0.1348  0.2609 -0.1798
  560TMC3    C5 8307   4.290   4.641  11.300 -0.1248 -0.0222  0.0738
  560TMC3    C6 8308   4.273   4.528  11.370 -0.6321  0.2556  0.0034
  560TMC3     C 8309   4.072   4.600  11.014 -0.5178  0.0653 -0.0311
  560TMC3     O 8310   4.128   4.673  10.934 -0.5688 -0.1893  0.0834
  560TMC3     H 8311   4.063   4.374  11.165 -1.6498  1.8895 -0.5749
  560TMC3    H1 8312   4.232   0.056  11.150 -0.0241 -0.4013 -1.9315
  560TMC3    H2 8313   4.340   4.500  11.450 -0.4085  0.3463 -0.1524
  560TMC3    C7 8314   4.362   0.024  11.373  0.2489  0.2614  0.4120
  560TMC3    C8 8315   4.157   4.321  11.412  1.1958  0.1985  0.3116
  560TMC3    O1 8316   4.386   4.719  11.490  0.1085  0.1034  0.2042
  560TMC3    O2 8317   4.240   4.279  11.488  0.6324  0.3841  0.0347
  561TMC3    C1 8318   1.245   3.643  10.975  0.0578 -0.3423 -0.3760
  561TMC3    C2 8319   1.170   3.587  11.071 -0.3909  0.1181 -0.8525
  561TMC3    C3 8320   1.169   3.627  11.204 -0.5538  0.2287 -0.4178
  561TMC3    C4 8321   1.333   3.746  11.011  0.9818  0.2529  0.2088
  561TMC3    C5 8322   1.331   3.782  11.146  0.4298  0.1756 -0.1672
  561TMC3    C6 8323   1.251   3.731  11.242  0.1024 -0.3630  0.8261
  561TMC3     C 8324   1.260   3.583  10.852 -1.1874 -0.4035  0.0408
  561TMC3     O 8325   1.177   3.510  10.805  0.5194 -0.0742  0.3491
  561TMC3     H 8326   1.123   3.492  11.050 -1.8738  1.0660 -1.8670
  561TMC3    H1 8327   1.382   3.803  10.933 -2.4250  0.0992 -2.0355
  561TMC3    H2 8328   1.258   3.757  11.347 -0.6435 -3.2461  1.6048
  561TMC3    C7 8329   1.421   3.884  11.190  0.4403  0.2814  0.2113
  561TMC3    C8 8330   1.070   3.569  11.292  0.1411  0.5639  0.1936
  561TMC3    O1 8331   1.421   3.926  11.305 -0.6760 -0.4945  0.3160
  561TMC3    O2 8332   1.006   3.473  11.253  0.3635 -1.2744  0.3720
  562TMC3    C1 8333   2.426   0.524  15.946 -0.3668 -0.5053  0.0504
  562TMC3    C2 8334   2.387   0.642  15.883  0.5564 -0.2162  0.4572
  562TMC3    C3 8335   2.354   0.637  15.750  0.5681  0.0594 -0.4517
  562TMC3    C4 8336   2.448   0.415  15.865  1.1415 -0.2883 -0.0974
  562TMC3    C5 8337   2.418   0.409  15.732 -0.1605  0.0096 -0.0153
  562TMC3    C6 8338   2.377   0.526  15.671  0.5891 -0.0241  0.1222
  562TMC3     C 8339   2.516   0.534  16.052  0.2078  0.8889  0.4851
  562TMC3     O 8340   2.480   0.562  16.166 -0.7050 -0.4196  0.3774
  562TMC3     H 8341   2.379   0.737  15.936 -3.9688 -0.0013 -0.6642
  562TMC3    H1 8342   2.472   0.327  15.924  2.0244  0.6080  0.9029
  562TMC3    H2 8343   2.337   0.522  15.570 -0.7812  0.7378  0.6399
  562TMC3    C7 8344   2.428   0.291  15.649  0.6073  0.8182  0.3394
  562TMC3    C8 8345   2.238   0.727  15.718 -0.3644  0.7774  1.0418
  562TMC3    O1 8346   2.398   0.309  15.532 -0.4414 -0.2247  0.1153
  562TMC3    O2 8347   2.170   0.756  15.819  0.1653 -0.8130 -0.2941
  563MPD2     C 8348   4.478   1.606  16.442  0.1471 -0.4027 -0.1737
  563MPD2    C1 8349   4.539   1.730  16.414  0.4482 -0.0991  0.1036
  563MPD2    C2 8350   4.670   1.743  16.381  0.2292  0.4883 -0.3682
  563MPD2    C3 8351   0.022   1.629  16.366 -0.0275 -1.1154 -0.0609
  563MPD2    C4 8352   4.694   1.505  16.386  0.3262 -0.6406  0.2388
  563MPD2    C5 8353   4.558   1.496  16.420 -0.2169  0.6514 -0.6262
  563MPD2     H 8354   4.715   1.840  16.364 -0.2048  0.2964 -2.5205
  563MPD2    H1 8355   0.017   1.411  16.357  0.6235 -0.8013  1.2125
  563MPD2    H2 8356   4.374   1.598  16.470 -0.1594  1.2503 -0.8960
  563MPD2    H3 8357   4.504   1.403  16.433  0.0711  0.9047  2.3762
  563MPD2     N 8358   0.151   1.651  16.326 -0.0056  0.1938 -0.4089
  563MPD2    H5 8359   0.188   1.745  16.321  2.4724 -0.6561  1.3946
  563MPD2    N1 8360   4.455   1.837  16.450  0.1821 -0.2269 -0.1324
  563MPD2    H7 8361   4.363   1.823  16.490 -0.6660 -1.4249 -2.5109
  564TMC3    C1 8362   4.455   2.040  16.547 -1.0681  0.1429 -0.0698
  564TMC3    C2 8363   4.346   1.994  16.616  0.9472 -0.4615 -0.2038
  564TMC3    C3 8364   4.356   1.968  16.751  0.1082 -0.3623 -0.1236
  564TMC3    C4 8365   4.575   2.055  16.611  0.3173 -0.0415  0.3288
  564TMC3    C5 8366   4.584   2.026  16.743  0.6335  0.2274  0.1226
  564TMC3    C6 8367   4.475   2.001  16.816  0.5107 -0.2445  0.3139
  564TMC3     C 8368   4.477   1.966  16.424  0.4545  0.0154  0.0501
  564TMC3     O 8369   4.557   2.012  16.342  0.2379 -0.0701  0.1577
  564TMC3     H 8370   4.257   1.981  16.555  0.3841 -0.4537  0.6057
  564TMC3    H1 8371   4.664   2.096  16.564 -0.6682  0.6324 -0.9672
  564TMC3    H2 8372   4.486   1.987  16.923 -1.3134 -2.0569  0.2609
  564TMC3    C7 8373   4.700   1.935  16.772 -0.4943  1.1307 -0.2389
  564TMC3    C8 8374   4.278   1.860  16.810 -0.3702  0.7157 -0.0185
  564TMC3    O1 8375   0.081   1.960  16.714  0.2684  0.0535 -0.7736
  564TMC3    O2 8376   4.305   1.831  16.924  0.1347 -0.2169 -0.6206
  565TMC3    C1 8377   1.028   2.969   9.713 -0.3600  0.3180  0.1304
  565TMC3    C2 8378   0.973   2.915   9.830  0.4910  0.1822  0.0418
  565TMC3    C3 8379   0.849   2.860   9.819  0.1143 -0.5884  0.9914
  565TMC3    C4 8380   0.964   2.977   9.590  0.5890 -0.3663 -0.0490
  565TMC3    C5 8381   0.842   2.916   9.580  0.0793  0.2573  0.3394
  565TMC3    C6 8382   0.792   2.851   9.693 -0.2979  0.3234 -0.4936
  565TMC3     C 8383   1.155   3.040   9.721 -0.0497  0.5555  0.0456
  565TMC3     O 8384   1.209   3.062   9.609  0.4656 -0.2010 -0.2488
  565TMC3     H 8385   1.026   2.903   9.924 -0.4264 -0.7782  0.4270
  565TMC3    H1 8386   1.006   3.035   9.509  0.3916 -0.7824 -0.4501
  565TMC3    H2 8387   0.692   2.811   9.686 -1.1046  2.4615 -1.1691
  565TMC3    C7 8388   0.777   2.943   9.458 -0.1961  0.5437  0.5229
  565TMC3    C8 8389   0.801   2.778   9.930  0.8566 -0.7079 -0.5105
  565TMC3    O1 8390   0.810   3.035   9.385 -0.1618 -0.3626 -0.0489
  565TMC3    O2 8391   0.865   2.792  10.036 -0.2765 -0.2319  0.0579
  566MPD2     C 8392   1.915   4.254  14.341  0.2982 -0.0157 -0.4744
  566MPD2    C1 8393   1.950   4.133  14.285  0.7319  0.3091  0.0563
  566MPD2    C2 8394   1.877   4.086  14.177  0.6783 -0.1147 -0.2886
  566MPD2    C3 8395   1.764   4.154  14.125 -0.5688 -0.4878  0.6777
  566MPD2    C4 8396   1.739   4.280  14.171 -0.0181 -0.2806  0.2265
  566MPD2    C5 8397   1.812   4.324  14.277  0.0225  0.4064  0.0253
  566MPD2     H 8398   1.909   3.996  14.126 -0.8468 -1.1339  0.5444
  566MPD2    H1 8399   1.662   4.346  14.132  0.0918 -1.2543 -1.6647
  566MPD2    H2 8400   1.977   4.300  14.417  0.4595  0.2793 -0.7822
  566MPD2    H3 8401   1.781   4.422  14.311 -0.8782  0.0207  0.3128
  566MPD2     N 8402   1.674   4.099  14.029  0.1111  0.0432  0.1884
  566MPD2    H5 8403   1.613   4.162  13.978  0.3915  0.8692  0.8774
  566MPD2    N1 8404   2.066   4.076  14.325 -0.3906  0.0410  0.0205
  566MPD2    H7 8405   2.112   4.108  14.410 -0.7847  0.3668  0.1144
  567TMC3    C1 8406   2.267   3.963  14.330 -0.0885  0.1143  0.7628
  567TMC3    C2 8407   2.370   3.969  14.242 -0.6965  0.1731 -0.0753
  567TMC3    C3 8408   2.500   3.957  14.280  0.0005 -0.6290  0.2841
  567TMC3    C4 8409   2.287   3.952  14.461  0.0118  0.7172 -0.0743
  567TMC3    C5 8410   2.416   3.945  14.508 -0.2944 -0.7278  0.0918
  567TMC3    C6 8411   2.520   3.935  14.419 -0.7834 -0.3175 -0.3191
  567TMC3     C 8412   2.141   3.986  14.260  0.3828  0.9204  0.0029
  567TMC3     O 8413   2.136   3.936  14.150  0.2764  0.2376 -0.0231
  567TMC3     H 8414   2.346   3.985  14.137 -0.5468 -1.2090 -0.3255
  567TMC3    H1 8415   2.204   3.946  14.530  0.1032 -0.3921 -0.0566
  567TMC3    H2 8416   2.618   3.933  14.465 -1.0740 -1.6359  0.2327
  567TMC3    C7 8417   2.442   3.928  14.649  0.7209 -0.0116 -0.4056
  567TMC3    C8 8418   2.572   4.071  14.221  0.1250 -0.0986 -0.6005
  567TMC3    O1 8419   2.534   3.860  14.690 -0.2857 -0.5867  0.0939
  567TMC3    O2 8420   2.520   4.122  14.124 -0.3803  0.1643  0.3972
  568MPD2     C 8421   0.229   0.546  16.987  0.2135  0.0978 -0.5101
  568MPD2    C1 8422   0.096   0.541  17.016  0.5703  0.4465 -0.0023
  568MPD2    C2 8423   0.025   0.659  17.001 -0.2428 -0.0520 -0.2474
  568MPD2    C3 8424   0.090   0.783  16.981 -0.3476 -0.0350  0.3298
  568MPD2    C4 8425   0.226   0.781  16.965 -0.4589  0.1254  0.0269
  568MPD2    C5 8426   0.295   0.664  16.969 -0.5628  0.0394  0.1590
  568MPD2     H 8427   4.641   0.657  17.018 -0.1944  0.4455  0.1290
  568MPD2    H1 8428   0.282   0.873  16.952  0.7088 -0.9031 -2.3298
  568MPD2    H2 8429   0.286   0.454  16.978 -2.3573 -1.7528  2.2466
  568MPD2    H3 8430   0.401   0.663  16.944 -0.8034  2.7744 -0.9276
  568MPD2     N 8431   0.015   0.903  16.982 -0.4238  0.3601  0.0156
  568MPD2    H5 8432   4.638   0.894  17.001  0.4412 -1.7734  3.4279
  568MPD2    N1 8433   0.045   0.416  17.051 -1.0880  0.4918 -0.6443
  568MPD2    H7 8434   0.096   0.330  17.034 -2.6007 -0.5566  0.0996
  569TMC3    C1 8435   4.681   1.136  17.010  0.5994  0.0440  0.0873
  569TMC3    C2 8436   4.713   1.253  17.078  0.4313 -0.4213 -0.6537
  569TMC3    C3 8437   4.612   1.336  17.125  0.4820 -0.1511  0.6611
  569TMC3    C4 8438   4.552   1.109  16.970  0.4138 -0.0166 -0.3633
  569TMC3    C5 8439   4.451   1.194  17.017  0.0048  0.4137  0.7120
  569TMC3    C6 8440   4.485   1.299  17.100 -0.0120 -0.4422  0.5304
  569TMC3     C 8441   0.063   1.033  16.994 -0.1940  0.5195 -0.1867
  569TMC3     O 8442   0.174   1.082  17.010  0.6312  0.4865  0.5082
  569TMC3     H 8443   0.094   1.276  17.100 -0.0379  0.5041  0.6085
  569TMC3    H1 8444   4.520   1.033  16.899 -0.4111  0.1508 -0.1796
  569TMC3    H2 8445   4.403   1.343  17.155  0.1780  1.5594 -0.8005
  569TMC3    C7 8446   4.350   1.223  16.919 -0.7881 -0.3178  0.0929
  569TMC3    C8 8447   4.624   1.475  17.159 -1.2132 -0.1328 -0.2560
  569TMC3    O1 8448   4.328   1.141  16.829  1.0689 -0.1651 -0.5330
  569TMC3    O2 8449   4.515   1.528  17.179  0.2673  0.3511  0.6504
  570TMC3    C1 8450   3.776   4.055  16.070  0.6487 -0.0136 -0.8729
  570TMC3    C2 8451   3.865   4.045  15.971  0.4194 -0.1170  0.4782
  570TMC3    C3 8452   3.874   4.149  15.879 -0.4930 -0.4993 -0.1621
  570TMC3    C4 8453   3.699   4.172  16.085  0.7365  0.4266  0.7782
  570TMC3    C5 8454   3.688   4.255  15.976  0.3439 -0.1873 -0.0648
  570TMC3    C6 8455   3.785   4.248  15.880 -0.2349  0.0444 -0.3106
  570TMC3     C 8456   3.781   3.963  16.171  0.4273  0.3414  0.1182
  570TMC3     O 8457   3.802   3.847  16.137  0.6176 -0.5450  0.1696
  570TMC3     H 8458   3.932   3.960  15.977  1.2707  0.4018 -1.8914
  570TMC3    H1 8459   3.622   4.175  16.161 -1.6514  1.0865 -1.6692
  570TMC3    H2 8460   3.792   4.331  15.810  0.4984  1.2408  1.1488
  570TMC3    C7 8461   3.661   4.388  16.031  0.5778  0.0894  0.0960
  570TMC3    C8 8462   3.990   4.176  15.803 -0.2561 -0.0282  0.1752
  570TMC3    O1 8463   3.689   4.413  16.146 -0.2796  0.6175  0.6417
  570TMC3    O2 8464   4.005   4.288  15.757 -0.5203 -0.6316 -0.7112
  571MPD2     C 8465   2.637   1.626  16.905 -0.6454 -0.8079  0.0115
  571MPD2    C1 8466   2.621   1.522  16.999  0.4438  0.2486 -0.1897
  571MPD2    C2 8467   2.583   1.548  17.128 -0.2284  0.1322  0.0123
  571MPD2    C3 8468   2.579   1.681  17.165 -0.7152 -0.2029 -0.3522
  571MPD2    C4 8469   2.626   1.780  17.078 -0.3984 -0.3653  0.2145
  571MPD2    C5 8470   2.660   1.752  16.947 -0.0095 -0.2997 -0.1431
  571MPD2     H 8471   2.539   1.471  17.191  2.4469  0.4780  2.3017
  571MPD2    H1 8472   2.632   1.884  17.106  0.5526 -0.1337 -0.8795
  571MPD2    H2 8473   2.669   1.605  16.804 -0.1649  1.4890 -0.3162
  571MPD2    H3 8474   2.711   1.820  16.880 -0.0868 -2.6753 -2.6000
  571MPD2     N 8475   2.521   1.724  17.290 -0.4264 -0.4960 -0.3089
  571MPD2    H5 8476   2.528   1.825  17.304  1.0029 -0.5765 -0.4330
  571MPD2    N1 8477   2.627   1.390  16.947 -0.3827 -0.5922 -0.1724
  571MPD2    H7 8478   2.635   1.381  16.846  0.0848  2.9325 -0.4642
  572TMC3    C1 8479   2.438   1.711  17.520 -0.5944 -0.3538  0.1159
  572TMC3    C2 8480   2.387   1.634  17.620  0.2187 -0.2242 -0.8869
  572TMC3    C3 8481   2.300   1.681   0.023  0.2829 -0.0732 -0.6105
  572TMC3    C4 8482   2.408   1.847  17.521  0.0565  0.2068  0.0608
  572TMC3    C5 8483   2.334   1.890  17.629  0.3421 -0.1687 -0.0826
  572TMC3    C6 8484   2.273   1.811   0.036 -0.0442  0.1671 -0.5408
  572TMC3     C 8485   2.483   1.642  17.394 -1.2687 -0.0122 -0.1908
  572TMC3     O 8486   2.477   1.519  17.393 -0.1095  0.5734  0.4729
  572TMC3     H 8487   2.385   1.526  17.606  1.7951 -0.4542  0.6950
  572TMC3    H1 8488   2.436   1.914  17.440 -1.4266  0.0151 -0.6160
  572TMC3    H2 8489   2.212   1.849   0.117 -1.1323 -0.1639 -1.2125
  572TMC3    C7 8490   2.275   2.023  17.609 -0.2735 -0.0942  0.6875
  572TMC3    C8 8491   2.229   1.574   0.100  0.5947 -0.0172 -1.6820
  572TMC3    O1 8492   2.171   2.032  17.672 -0.6330 -0.4274 -0.2152
  572TMC3    O2 8493   2.262   1.458   0.095  0.7016 -0.4331 -1.0178
  573MPD2     C 8494   3.902   1.122   0.734 -0.3602 -0.3358  0.0023
  573MPD2    C1 8495   3.811   1.217   0.687 -0.1973  0.1698 -0.1768
  573MPD2    C2 8496   3.725   1.189   0.586 -0.3014 -0.0730 -0.8329
  573MPD2    C3 8497   3.717   1.060   0.529  0.4909  0.0200 -0.4075
  573MPD2    C4 8498   3.805   0.967   0.581 -0.5540  0.0041 -0.2382
  573MPD2    C5 8499   3.893   0.994   0.683 -1.0575 -0.4257  0.6663
  573MPD2     H 8500   3.659   1.265   0.547 -3.4399 -2.5240 -0.3005
  573MPD2    H1 8501   3.805   0.870   0.534  0.5632 -0.1937  0.1905
  573MPD2    H2 8502   3.964   1.147   0.819  2.9438 -1.0593 -2.1995
  573MPD2    H3 8503   3.956   0.917   0.727  0.7393  1.1644  0.8746
  573MPD2     N 8504   3.622   1.022   0.433  0.1193  0.1092 -0.4974
  573MPD2    H5 8505   3.616   0.922   0.414 -1.4763 -0.2214  1.7131
  573MPD2    N1 8506   3.831   1.350   0.744  0.1195  0.5026 -0.1797
  573MPD2    H7 8507   3.894   1.357   0.823 -2.1146  0.4083  1.6307
  574TMC3    C1 8508   3.417   1.031   0.323  0.4857  0.2105 -0.6142
  574TMC3    C2 8509   3.295   1.082   0.353  0.1221  1.1812 -0.7189
  574TMC3    C3 8510   3.191   1.001   0.344  0.0270  0.5731  0.3018
  574TMC3    C4 8511   3.443   0.897   0.294  0.3288  0.6922 -0.0560
  574TMC3    C5 8512   3.329   0.821   0.293 -0.0942  0.6766 -0.8710
  574TMC3    C6 8513   3.201   0.867   0.312  0.0834 -0.0669  0.3567
  574TMC3     C 8514   3.525   1.102   0.382 -1.0283 -0.8610  0.1743
  574TMC3     O 8515   3.502   1.222   0.400 -0.4231 -0.5362 -0.1110
  574TMC3     H 8516   3.280   1.186   0.379  0.5635  0.4240  2.5931
  574TMC3    H1 8517   3.538   0.863   0.255 -0.8581 -1.1100 -1.3911
  574TMC3    H2 8518   3.113   0.804   0.304  1.7076 -2.3492  0.2404
  574TMC3    C7 8519   3.344   0.687   0.244 -0.7314  0.4300 -0.4738
  574TMC3    C8 8520   3.063   1.041   0.369  0.0146  0.3776 -0.0443
  574TMC3    O1 8521   3.453   0.664   0.193  0.5284 -0.1919 -0.1495
  574TMC3    O2 8522   2.978   0.959   0.402  0.3887  0.2415  0.0391
  575TMC3    C1 8523   0.700   2.583  10.804  0.2632  0.3041 -0.1489
  575TMC3    C2 8524   0.611   2.494  10.852 -0.1795  0.3560 -0.7265
  575TMC3    C3 8525   0.532   2.435  10.755  0.7866 -0.5725 -0.4514
  575TMC3    C4 8526   0.716   2.616  10.671 -0.5669  0.2485 -0.1305
  575TMC3    C5 8527   0.635   2.557  10.582 -0.2704  0.3594 -0.8388
  575TMC3    C6 8528   0.551   2.454  10.624 -0.1523  0.4944  0.0023
  575TMC3     C 8529   0.781   2.642  10.910  0.2320  0.5735 -0.1052
  575TMC3     O 8530   0.761   2.602  11.024 -0.0226 -0.4470 -0.0794
  575TMC3     H 8531   0.609   2.459  10.955  2.1053 -0.7601 -1.0608
  575TMC3    H1 8532   0.787   2.692  10.643 -1.0854  1.9739  3.2997
  575TMC3    H2 8533   0.500   2.388  10.555 -1.7153 -0.0487  1.6654
  575TMC3    C7 8534   0.654   2.590  10.442 -0.0911  0.4871  0.1967
  575TMC3    C8 8535   0.453   2.322  10.796  0.1782  0.6505  0.2049
  575TMC3    O1 8536   0.743   2.670  10.420 -0.1084  0.5199 -0.4171
  575TMC3    O2 8537   0.358   2.293  10.727 -0.1087  0.0686 -0.1650
  576MPD2     C 8538   0.697   3.772  12.707  0.5062 -0.0843  0.9282
  576MPD2    C1 8539   0.687   3.877  12.616 -0.0390  0.3981 -1.0420
  576MPD2    C2 8540   0.588   3.969  12.630  0.2093  0.4812  0.0060
  576MPD2    C3 8541   0.503   3.966  12.740 -0.0398  0.3075 -0.4817
  576MPD2    C4 8542   0.514   3.860  12.835  0.3086  0.8467 -0.0443
  576MPD2    C5 8543   0.609   3.759  12.812 -0.5948  0.1390  0.4263
  576MPD2     H 8544   0.571   4.038  12.548 -0.1505  1.5571  0.9864
  576MPD2    H1 8545   0.470   3.859  12.934 -0.8147  1.1077 -0.5479
  576MPD2    H2 8546   0.777   3.699  12.699  0.6127 -0.0288  1.4731
  576MPD2    H3 8547   0.596   3.668  12.870  2.6430  0.8604  2.2945
  576MPD2     N 8548   0.412   4.073  12.756 -0.1182 -0.2797  0.3022
  576MPD2    H5 8549   0.414   4.135  12.676 -0.2974 -1.6955 -0.7962
  576MPD2    N1 8550   0.768   3.887  12.504 -0.6201  0.1646 -0.1109
  576MPD2    H7 8551   0.754   3.966  12.441  0.4522 -0.4748 -1.1564
  577TMC3    C1 8552   0.904   3.825  12.330  0.3052 -0.5554  0.6606
  577TMC3    C2 8553   0.915   3.727  12.235  0.1277 -0.0664 -0.4124
  577TMC3    C3 8554   0.947   3.758  12.105  0.1381 -0.0494  0.2952
  577TMC3    C4 8555   0.922   3.956  12.293  0.3675  0.0738 -0.3496
  577TMC3    C5 8556   0.962   3.983  12.169 -1.0145  0.1594  0.7739
  577TMC3    C6 8557   0.972   3.889  12.070 -0.0894  0.4338  0.4670
  577TMC3     C 8558   0.857   3.791  12.460  0.2565  0.4551  0.0705
  577TMC3     O 8559   0.868   3.675  12.501 -0.0181 -0.1484  0.9209
  577TMC3     H 8560   0.898   3.626  12.270  1.9823 -1.0184 -2.2057
  577TMC3    H1 8561   0.921   4.039  12.363  0.8045 -0.1417 -0.0851
  577TMC3    H2 8562   0.998   3.908  11.966 -2.8710  1.0464 -0.1248
  577TMC3    C7 8563   1.012   4.110  12.139 -0.7893  0.6067 -0.4511
  577TMC3    C8 8564   0.930   3.653  12.009 -0.0284  0.1653 -0.7058
  577TMC3    O1 8565   1.064   4.173  12.235 -0.4011  0.1990  0.3934
  577TMC3    O2 8566   0.910   3.539  12.055 -0.1196 -0.5172  0.1426
  578MPD2     C 8567   3.069   4.095   1.250  0.9236 -0.0605 -0.0171
  578MPD2    C1 8568   3.156   3.995   1.222  0.5421 -0.0631 -0.2618
  578MPD2    C2 8569   3.288   4.007   1.257 -0.7167  0.5181 -0.6165
  578MPD2    C3 8570   3.332   4.121   1.327 -0.5405 -0.2960 -0.0367
  578MPD2    C4 8571   3.237   4.207   1.379 -0.1116  0.0114 -0.1141
  578MPD2    C5 8572   3.108   4.200   1.330  0.2621  0.5862 -0.0824
  578MPD2     H 8573   3.357   3.938   1.210 -0.8848  0.3504 -0.6185
  578MPD2    H1 8574   3.253   4.294   1.442  0.4734 -1.8999  2.3605
  578MPD2    H2 8575   2.966   4.087   1.216  0.7307  0.4460  0.4378
  578MPD2    H3 8576   3.034   4.273   1.359 -0.6517 -1.2445  2.1279
  578MPD2     N 8577   3.474   4.133   1.341  0.4994  0.9473  0.4760
  578MPD2    H5 8578   3.535   4.054   1.322  2.3843  2.1868  1.3744
  578MPD2    N1 8579   3.099   3.888   1.148 -0.0510 -0.5321 -0.0997
  578MPD2    H7 8580   2.999   3.894   1.132 -0.1405  0.6028  0.8144
  579TMC3    C1 8581   3.670   4.270   1.371 -0.0717  0.3275 -0.3487
  579TMC3    C2 8582   3.730   4.397   1.358 -1.1566 -0.3215 -0.2842
  579TMC3    C3 8583   3.863   4.412   1.344  0.5478 -0.3461  0.1889
  579TMC3    C4 8584   3.746   4.156   1.377 -0.0583  0.0296  0.2002
  579TMC3    C5 8585   3.887   4.174   1.348 -0.1768  0.3962  0.6519
  579TMC3    C6 8586   3.939   4.296   1.337  0.8110  0.1842 -0.1141
  579TMC3     C 8587   3.524   4.258   1.382 -0.0180 -0.1220 -0.3362
  579TMC3     O 8588   3.469   4.368   1.392 -0.5512  0.3366 -0.8491
  579TMC3     H 8589   3.663   4.482   1.363  1.1644  1.6080 -2.2082
  579TMC3    H1 8590   3.695   4.064   1.405  1.9511 -1.2622 -0.3674
  579TMC3    H2 8591   4.045   4.301   1.361  0.9230 -0.9518 -0.3806
  579TMC3    C7 8592   3.965   4.057   1.317 -0.5576 -0.1969 -0.5636
  579TMC3    C8 8593   3.928   4.532   1.378 -0.6815 -0.2767  0.6749
  579TMC3    O1 8594   4.082   4.083   1.289  0.2375 -0.3033  0.2722
  579TMC3    O2 8595   3.882   4.603   1.467  0.4278  0.3307  0.8466
  580TMC3    C1 8596   3.130   3.030  11.808 -0.2629  0.6098  0.0416
  580TMC3    C2 8597   3.154   2.995  11.677  0.6406  0.6847 -0.5302
  580TMC3    C3 8598   3.118   2.871  11.637  0.0418 -0.3738  0.1335
  580TMC3    C4 8599   3.065   2.942  11.896  0.3565 -0.4823  0.4661
  580TMC3    C5 8600   3.045   2.813  11.855  0.2405  0.4889  0.8164
  580TMC3    C6 8601   3.079   2.780  11.726  0.5858  0.3496  0.4458
  580TMC3     C 8602   3.201   3.148  11.861  0.7217 -0.4024 -0.2279
  580TMC3     O 8603   3.260   3.224  11.783  0.4852  0.2043 -0.3831
  580TMC3     H 8604   3.194   3.067  11.606  3.2604 -0.8631 -0.6247
  580TMC3    H1 8605   3.058   2.967  12.001  1.7154 -0.8940  0.6512
  580TMC3    H2 8606   3.053   2.679  11.697  0.7236  0.6566 -0.7181
  580TMC3    C7 8607   3.054   2.710  11.955 -0.1635  0.7594  0.5244
  580TMC3    C8 8608   3.190   2.819  11.522  0.0450 -1.2517  0.3984
  580TMC3    O1 8609   3.081   2.740  12.068 -0.2344  0.5702  0.0366
  580TMC3    O2 8610   3.157   2.712  11.474  0.3579 -0.2465  0.7597
  581MPD2     C 8611   1.578   2.748  14.889  0.1610 -0.0853 -0.0689
  581MPD2    C1 8612   1.457   2.688  14.913 -0.2708  0.0514 -0.4249
  581MPD2    C2 8613   1.350   2.711  14.827  0.2573  0.4302  0.3100
  581MPD2    C3 8614   1.361   2.809  14.725 -0.6894  0.2643  0.6543
  581MPD2    C4 8615   1.480   2.867  14.708  0.5976 -0.6045  0.1353
  581MPD2    C5 8616   1.587   2.836  14.788 -1.0976 -0.2945  0.7650
  581MPD2     H 8617   1.255   2.660  14.842 -1.0248  2.8404  0.4194
  581MPD2    H1 8618   1.497   2.948  14.638 -0.3417 -1.4250 -1.0699
  581MPD2    H2 8619   1.661   2.738  14.957 -0.2007  1.0784  0.5398
  581MPD2    H3 8620   1.683   2.888  14.784 -0.7193 -1.0097  0.4985
  581MPD2     N 8621   1.243   2.841  14.652  0.2092  0.1328 -0.2232
  581MPD2    H5 8622   1.158   2.785  14.656 -0.4447  1.1497  0.2254
  581MPD2    N1 8623   1.453   2.595  15.022  0.7455  0.5488 -0.1096
  581MPD2    H7 8624   1.535   2.589  15.082  0.9403  0.5919 -0.3680
  582TMC3    C1 8625   1.352   2.437  15.179 -0.5867 -0.1763  0.2997
  582TMC3    C2 8626   1.417   2.497  15.282  0.2325 -0.4719 -0.4429
  582TMC3    C3 8627   1.359   2.464  15.398  0.0342  0.8049  0.4007
  582TMC3    C4 8628   1.242   2.352  15.195 -0.2974 -0.2163  0.2377
  582TMC3    C5 8629   1.194   2.314  15.317 -0.7073 -0.2418 -0.0061
  582TMC3    C6 8630   1.255   2.373  15.422  0.7077  0.5089 -1.3612
  582TMC3     C 8631   1.347   2.506  15.051 -0.1095  0.5623 -0.2331
  582TMC3     O 8632   1.242   2.489  14.988 -0.5564 -0.0151 -0.1141
  582TMC3     H 8633   1.497   2.568  15.260 -1.3510  2.0565  1.9748
  582TMC3    H1 8634   1.200   2.305  15.107 -3.2042 -0.2582  1.6617
  582TMC3    H2 8635   1.211   2.355  15.519  3.2512 -0.2785 -0.3452
  582TMC3    C7 8636   1.050   2.306  15.317 -0.5885  0.1550  0.2509
  582TMC3    C8 8637   1.393   2.536  15.515  0.1407  0.0270  0.7838
  582TMC3    O1 8638   0.998   2.212  15.257 -0.0513  0.5699  0.2201
  582TMC3    O2 8639   1.317   2.529  15.616  0.2679  0.6121  0.2324
  583MPD2     C 8640   1.601   4.604  16.789 -0.0355  0.1113 -0.3696
  583MPD2    C1 8641   1.581   4.703  16.691  0.3763  0.0925 -0.1752
  583MPD2    C2 8642   1.530   0.100  16.732  0.3848 -0.2674 -0.1282
  583MPD2    C3 8643   1.508   0.124  16.866 -0.0543  0.0191  0.3750
  583MPD2    C4 8644   1.532   0.028  16.961 -0.0516  0.3084 -0.3011
  583MPD2    C5 8645   1.590   4.632  16.923  0.2648  0.6002  0.2108
  583MPD2     H 8646   1.490   0.170  16.659  0.4792  0.6498  0.7011
  583MPD2    H1 8647   1.506   0.037  17.066 -3.8161 -1.1565 -1.0992
  583MPD2    H2 8648   1.638   4.505  16.763 -2.2441 -0.7770 -0.2059
  583MPD2    H3 8649   1.605   4.549  16.991  1.2301 -0.9512 -1.8923
  583MPD2     N 8650   1.429   0.232  16.920  0.2851  0.6140  0.4033
  583MPD2    H5 8651   1.401   0.224  17.017  0.2663  0.3061  0.3738
  583MPD2    N1 8652   1.620   4.690  16.555 -0.2853 -0.0682 -0.3732
  583MPD2    H7 8653   1.611   0.055  16.504 -0.4064  0.0340 -0.1767
  584TMC3    C1 8654   1.328   0.446  16.931 -0.1471 -0.6317  0.5946
  584TMC3    C2 8655   1.347   0.576  16.897  0.2454 -0.3245  0.4899
  584TMC3    C3 8656   1.359   0.670  17.000 -0.8719  0.1453  0.3042
  584TMC3    C4 8657   1.280   0.414  17.055 -0.3260  0.6738  0.2123
  584TMC3    C5 8658   1.275   0.515  17.151 -0.6576  0.1612 -0.0996
  584TMC3    C6 8659   1.316   0.647  17.124 -0.0138  0.5463 -0.0552
  584TMC3     C 8660   1.398   0.347  16.849 -0.2460 -0.1758  0.3355
  584TMC3     O 8661   1.438   0.390  16.742  0.2576  0.8222  0.5031
  584TMC3     H 8662   1.380   0.605  16.798 -0.2072  1.3355  0.8363
  584TMC3    H1 8663   1.233   0.319  17.076  3.1250 -0.6389  2.0066
  584TMC3    H2 8664   1.308   0.732  17.191 -0.4305  0.5828 -0.1523
  584TMC3    C7 8665   1.186   0.496  17.267  0.4127  0.1333  0.0604
  584TMC3    C8 8666   1.359   0.804  16.961  0.5161  0.0272 -0.4321
  584TMC3    O1 8667   1.106   0.406  17.268  0.2580  0.5349 -0.1873
  584TMC3    O2 8668   1.327   0.827  16.846 -0.1672  0.0248  0.7407
  585MPD2     C 8669   4.703   4.120  17.489  0.4053  0.0515 -0.1569
  585MPD2    C1 8670   0.116   4.094  17.469  0.2414 -1.1278 -0.0993
  585MPD2    C2 8671   0.151   3.998  17.374  0.5229  0.5301 -0.1023
  585MPD2    C3 8672   0.053   3.921  17.313 -0.2110 -0.2426 -0.2050
  585MPD2    C4 8673   4.642   3.940  17.339  0.1265 -0.1867  0.5456
  585MPD2    C5 8674   4.609   4.040  17.423 -0.2508 -0.7419  0.2537
  585MPD2     H 8675   0.255   3.975  17.353  0.6220  0.5776  0.3474
  585MPD2    H1 8676   4.564   3.889  17.285 -0.7442 -0.5662  2.1632
  585MPD2    H2 8677   4.677   4.201  17.556  0.2642  1.3510 -1.8101
  585MPD2    H3 8678   4.507   4.074  17.439  0.9743  3.8779 -1.6434
  585MPD2     N 8679   0.091   3.813  17.232 -0.5261 -0.0490  0.4114
  585MPD2    H5 8680   0.012   3.772  17.182  0.3021 -0.9015 -0.1950
  585MPD2    N1 8681   0.215   4.163  17.549 -0.1700 -0.1342 -0.0248
  585MPD2    H7 8682   0.185   4.229  17.619 -2.3676 -0.3286 -0.7812
  586TMC3    C1 8683   0.207   3.621  17.146  0.0385  0.4461 -0.4189
  586TMC3    C2 8684   0.332   3.579  17.110  0.0196  0.3373  0.3183
  586TMC3    C3 8685   0.334   3.468  17.033  0.0813 -1.0362 -0.4977
  586TMC3    C4 8686   0.089   3.564  17.104  0.5294  0.0145 -0.7921
  586TMC3    C5 8687   0.101   3.461  17.011  0.1421 -0.5918  0.2533
  586TMC3    C6 8688   0.225   3.414  16.970 -0.6395 -0.0227  0.3321
  586TMC3     C 8689   0.212   3.757  17.200 -0.3545  0.5500 -0.1121
  586TMC3     O 8690   0.318   3.799  17.229 -0.6484  0.0167  0.2010
  586TMC3     H 8691   0.424   3.623  17.149 -0.9937  3.0862 -0.3953
  586TMC3    H1 8692   4.712   3.587  17.141  1.7389  1.1629  1.6864
  586TMC3    H2 8693   0.228   3.320  16.917  1.4982 -0.0432  0.4803
  586TMC3    C7 8694   4.721   3.366  17.006  0.3551  0.3042  0.7376
  586TMC3    C8 8695   0.464   3.409  17.033 -0.1701 -0.4691  0.3265
  586TMC3    O1 8696   0.013   3.261  17.063  0.1224  0.3718  0.0939
  586TMC3    O2 8697   0.515   3.413  17.142 -0.1322 -0.2402  0.4557
  587TMC3    C1 8698   2.574   2.816  16.201  0.2512  0.0970 -0.2120
  587TMC3    C2 8699   2.587   2.839  16.337  0.2486  0.0858 -0.6042
  587TMC3    C3 8700   2.712   2.811  16.386 -0.5363 -0.3446  0.1057
  587TMC3    C4 8701   2.665   2.755  16.121  0.3188 -0.1084  0.0237
  587TMC3    C5 8702   2.777   2.712  16.182 -0.2774  0.1895  0.3440
  587TMC3    C6 8703   2.808   2.744  16.317 -0.2395  0.0559  0.1815
  587TMC3     C 8704   2.484   2.907  16.130  0.7741  0.0088  0.2535
  587TMC3     O 8705   2.510   2.928  16.013 -0.4921  0.2641 -0.5308
  587TMC3     H 8706   2.518   2.895  16.399 -1.9406 -0.9449 -2.1297
  587TMC3    H1 8707   2.651   2.726  16.018 -3.2966  1.7933 -0.0363
  587TMC3    H2 8708   2.898   2.723  16.374 -1.1008 -1.0122  1.1509
  587TMC3    C7 8709   2.877   2.649  16.109  0.9117  0.2453 -0.1316
  587TMC3    C8 8710   2.732   2.830  16.528 -0.7115  0.7371  0.0409
  587TMC3    O1 8711   2.886   2.681  15.990  0.0189 -0.1649 -0.2236
  587TMC3    O2 8712   2.786   2.739  16.592 -0.3962 -0.0145 -0.2222
  588TMC3    C1 8713   0.297   0.412   9.898  0.0414 -0.4352  0.6788
  588TMC3    C2 8714   0.279   0.282   9.865 -0.1284  0.0325  0.2597
  588TMC3    C3 8715   0.375   0.188   9.883  0.5637 -0.6274  0.5159
  588TMC3    C4 8716   0.427   0.451   9.936  0.1166  0.1918  0.5352
  588TMC3    C5 8717   0.526   0.360   9.944 -0.3161  1.2022 -0.1927
  588TMC3    C6 8718   0.501   0.225   9.922 -0.4378 -0.5039  0.0803
  588TMC3     C 8719   0.204   0.519   9.865 -0.4724 -0.4259  0.4200
  588TMC3     O 8720   0.133   0.521   9.763  0.0235  0.6222  0.0323
  588TMC3     H 8721   0.180   0.258   9.829  0.7194 -0.0978 -1.9884
  588TMC3    H1 8722   0.446   0.557   9.935 -1.5828  0.4968  1.1666
  588TMC3    H2 8723   0.588   0.160   9.929  0.6852  1.0213  0.2524
  588TMC3    C7 8724   0.649   0.407  10.009  0.7758 -0.4239 -0.3017
  588TMC3    C8 8725   0.342   0.053   9.831  0.1134 -0.5697 -0.0089
  588TMC3    O1 8726   0.749   0.360   9.958  0.0365  0.0516  0.0616
  588TMC3    O2 8727   0.226   0.036   9.793  0.4282 -0.7205 -0.2839
  589TMC3    C1 8728   4.196   2.611   0.917  0.1757  0.7145  0.5057
  589TMC3    C2 8729   4.268   2.695   0.992 -0.0479  0.4842 -0.5542
  589TMC3    C3 8730   4.402   2.701   0.972  0.2057  0.0292  0.3619
  589TMC3    C4 8731   4.250   2.548   0.812 -0.1161 -0.8723 -0.2478
  589TMC3    C5 8732   4.389   2.578   0.777 -0.9169 -0.2981 -0.1372
  589TMC3    C6 8733   4.469   2.649   0.862 -0.0604 -0.0893 -0.6053
  589TMC3     C 8734   4.049   2.627   0.907  0.2975 -0.4205  0.0269
  589TMC3     O 8735   4.003   2.599   0.798 -0.1054  0.1238  0.2934
  589TMC3     H 8736   4.222   2.747   1.075 -1.0287 -1.4770  0.1243
  589TMC3    H1 8737   4.188   2.486   0.748 -1.1055  1.2103 -1.3111
  589TMC3    H2 8738   4.571   2.613   0.861 -1.1597 -3.2033 -0.7454
  589TMC3    C7 8739   4.460   2.498   0.682 -0.6426  0.1269  0.6112
  589TMC3    C8 8740   4.489   2.747   1.070 -0.0072  0.1005  0.6576
  589TMC3    O1 8741   4.584   2.505   0.673 -0.0855  0.5160 -0.1064
  589TMC3    O2 8742   4.452   2.743   1.188 -0.1115  0.0149  0.3183
  590MPD2     C 8743   3.347   0.782  16.473  0.8201  0.5672  0.3134
  590MPD2    C1 8744   3.327   0.862  16.360 -0.0073 -0.7147  0.4873
  590MPD2    C2 8745   3.440   0.898  16.285  0.3008 -0.0540 -0.2556
  590MPD2    C3 8746   3.567   0.866  16.335  0.5420 -0.6169  0.3216
  590MPD2    C4 8747   3.587   0.782  16.444  0.2251  0.1903  0.8321
  590MPD2    C5 8748   3.475   0.741  16.505  0.5284  0.4190 -1.0826
  590MPD2     H 8749   3.432   0.950  16.190 -1.7033  1.1442  0.5870
  590MPD2    H1 8750   3.688   0.758  16.478  0.3765  0.9078  0.8880
  590MPD2    H2 8751   3.270   0.747  16.541 -0.6322  0.2534 -1.5239
  590MPD2    H3 8752   3.486   0.679  16.594 -0.0670  1.1558 -0.4920
  590MPD2     N 8753   3.672   0.919  16.262  0.1354 -0.5490 -0.2504
  590MPD2    H5 8754   3.642   0.988  16.194 -0.1497 -0.6816 -0.2590
  590MPD2    N1 8755   3.201   0.898  16.301  0.4721  0.5415 -0.2107
  590MPD2    H7 8756   3.196   0.928  16.204 -0.8185 -0.1038 -0.3392
  591TMC3    C1 8757   3.881   0.996  16.227  0.1227 -0.2004  0.0190
  591TMC3    C2 8758   3.985   0.958  16.141 -1.3243 -0.1350  0.2829
  591TMC3    C3 8759   4.028   1.043  16.050 -0.5747  0.2010 -0.4448
  591TMC3    C4 8760   3.827   1.118  16.218 -0.1242  0.4500 -0.2852
  591TMC3    C5 8761   3.849   1.194  16.107  0.1348 -0.2167  0.0877
  591TMC3    C6 8762   3.957   1.158  16.018  0.1422  0.2738  0.2477
  591TMC3     C 8763   3.801   0.892  16.279  0.2299 -0.7161  0.7244
  591TMC3     O 8764   3.851   0.783  16.303 -0.2148  0.2862  0.0957
  591TMC3     H 8765   4.012   0.853  16.135  2.6007  0.9490 -1.2386
  591TMC3    H1 8766   3.754   1.149  16.292 -2.0970 -0.9034 -1.6577
  591TMC3    H2 8767   3.981   1.213  15.928  0.8267  0.1360  0.3500
  591TMC3    C7 8768   3.724   1.245  16.061  0.3657  0.1215 -0.7683
  591TMC3    C8 8769   4.106   0.989  15.943 -0.6668  0.0309  0.3828
  591TMC3    O1 8770   3.617   1.194  16.103  0.0219  0.3430  0.6350
  591TMC3    O2 8771   4.096   0.869  15.932 -0.1336 -0.9413 -0.0516
  592MPD2     C 8772   4.409   2.832  11.281  0.2490 -0.1667 -0.1795
  592MPD2    C1 8773   4.426   2.866  11.415 -0.1606 -0.4028  0.6677
  592MPD2    C2 8774   4.354   2.786  11.505 -0.1749  0.1057 -0.5218
  592MPD2    C3 8775   4.273   2.683  11.463  0.3058  0.2276  0.0754
  592MPD2    C4 8776   4.262   2.660  11.323 -0.3911  0.1705 -0.2012
  592MPD2    C5 8777   4.327   2.731  11.234 -0.6272 -0.2045 -0.3886
  592MPD2     H 8778   4.372   2.801  11.611  0.4184 -1.8615 -0.3413
  592MPD2    H1 8779   4.210   2.570  11.292  0.2793 -0.9007  1.7576
  592MPD2    H2 8780   4.469   2.880  11.204 -0.7244  0.9115 -0.2595
  592MPD2    H3 8781   4.336   2.706  11.129 -0.6917  0.5488 -0.5759
  592MPD2     N 8782   4.205   2.612  11.562 -0.7002  0.0529 -0.6999
  592MPD2    H5 8783   4.225   2.650  11.654 -2.1245 -1.4309  0.2318
  592MPD2    N1 8784   4.514   2.970  11.455  0.5974  0.2286 -0.2122
  592MPD2    H7 8785   4.568   3.016  11.383  0.2699  1.6510  0.4579
  593TMC3    C1 8786   4.668   3.089  11.585 -0.2223  0.1083 -0.2555
  593TMC3    C2 8787   0.027   3.097  11.697 -0.3277 -0.1752 -0.0536
  593TMC3    C3 8788   0.134   3.173  11.685 -0.4050  0.6049  0.2254
  593TMC3    C4 8789   4.701   3.160  11.474  0.2919 -0.3896  0.3377
  593TMC3    C5 8790   0.098   3.233  11.468  0.3173 -0.1969  0.3202
  593TMC3    C6 8791   0.178   3.241  11.578  0.3052 -0.2407 -0.2207
  593TMC3     C 8792   4.560   2.988  11.582 -0.4109 -0.2151 -0.0851
  593TMC3     O 8793   4.525   2.928  11.683 -0.4244 -0.3765 -0.5755
  593TMC3     H 8794   0.002   3.054  11.794 -1.3408 -0.6582 -0.5292
  593TMC3    H1 8795   4.633   3.185  11.393  1.7855 -0.3271 -0.8947
  593TMC3    H2 8796   0.280   3.279  11.580  0.1622  0.1050  0.6665
  593TMC3    C7 8797   0.121   3.336  11.362  0.0369  0.1276 -0.2502
  593TMC3    C8 8798   0.214   3.180  11.810  0.3516  0.5107  0.3911
  593TMC3    O1 8799   0.152   3.448  11.406 -0.7074 -0.0167  0.2778
  593TMC3    O2 8800   0.339   3.168  11.798  0.1448  0.3262  0.0250
  594MPD2     C 8801   2.427   1.570  14.304  0.2788 -0.7157 -0.9804
  594MPD2    C1 8802   2.474   1.530  14.178  0.5011  0.0504 -0.8865
  594MPD2    C2 8803   2.589   1.598  14.135 -0.0556  1.0382  0.1114
  594MPD2    C3 8804   2.654   1.692  14.217  0.0614  1.0607  0.2369
  594MPD2    C4 8805   2.609   1.705  14.351  0.2753  0.0642  0.3769
  594MPD2    C5 8806   2.501   1.638  14.393 -0.1651  0.4117 -0.1090
  594MPD2     H 8807   2.632   1.590  14.035 -0.0684 -0.1299  0.2051
  594MPD2    H1 8808   2.664   1.768  14.420 -2.7531  2.3480  0.6529
  594MPD2    H2 8809   2.339   1.514  14.334 -0.3979  0.9436  0.1508
  594MPD2    H3 8810   2.466   1.644  14.495 -0.3455  1.4672 -0.2397
  594MPD2     N 8811   2.769   1.756  14.169  0.5698 -0.2376  0.2091
  594MPD2    H5 8812   2.790   1.757  14.069 -1.3916  0.3090 -0.1904
  594MPD2    N1 8813   2.409   1.430  14.112 -0.1825  0.0800  0.0972
  594MPD2    H7 8814   2.337   1.386  14.170  0.0863  0.8780  1.0299
  595TMC3    C1 8815   3.195   1.910  14.172 -0.0974 -0.0429  0.5631
  595TMC3    C2 8816   3.098   1.822  14.202 -0.3871  0.1923  0.0871
  595TMC3    C3 8817   2.973   1.845  14.167  0.8604  0.5427  0.1211
  595TMC3    C4 8818   3.168   2.022  14.095  0.2907 -0.1620 -0.7426
  595TMC3    C5 8819   3.043   2.045  14.061 -0.1427 -0.2939 -0.3481
  595TMC3    C6 8820   2.943   1.954  14.097  0.2086  0.0112 -0.3141
  595TMC3     C 8821   3.325   1.903  14.230 -0.6492  0.2025 -0.5890
  595TMC3     O 8822   3.394   2.004  14.246 -0.6748  0.8398 -0.3785
  595TMC3     H 8823   3.111   1.740  14.272  1.2478  0.4457  0.0669
  595TMC3    H1 8824   3.256   2.071  14.055  1.3712 -1.3203  0.2067
  595TMC3    H2 8825   2.839   1.982  14.084  0.0968 -0.9068 -1.3187
  595TMC3    C7 8826   3.008   2.176  14.097 -0.7974 -1.4341 -0.0946
  595TMC3    C8 8827   2.873   1.803  14.252 -0.1053 -0.2834  0.2205
  595TMC3    O1 8828   2.897   2.225  14.064  0.5447 -0.1962 -0.0914
  595TMC3    O2 8829   2.892   1.788  14.372 -0.7317 -0.2389 -0.0488
  596MPD2     C 8830   2.382   0.208  16.465  0.7233 -0.6386 -0.1875
  596MPD2    C1 8831   2.299   0.286  16.386  0.0090 -0.1843 -0.5651
  596MPD2    C2 8832   2.299   0.262  16.246 -0.2034  0.2846 -0.0319
  596MPD2    C3 8833   2.370   0.150  16.195  0.1221 -0.0097  0.1607
  596MPD2    C4 8834   2.452   0.078  16.276 -0.8071 -0.2272 -0.2043
  596MPD2    C5 8835   2.458   0.112  16.412  0.1984  0.1948  0.1016
  596MPD2     H 8836   2.242   0.321  16.175  0.5484  2.4519  1.1731
  596MPD2    H1 8837   2.511   4.715  16.244 -0.2496  0.1552 -0.1956
  596MPD2    H2 8838   2.395   0.225  16.571  1.0979  1.7930 -0.6389
  596MPD2    H3 8839   2.523   0.063  16.484 -0.1092  1.0571  0.9637
  596MPD2     N 8840   2.353   0.100  16.064 -0.6217  0.1461 -0.2190
  596MPD2    H5 8841   2.404   0.014  16.044 -2.6099 -1.4260  1.5425
  596MPD2    N1 8842   2.229   0.393  16.451 -0.0677  0.1033  0.1770
  596MPD2    H7 8843   2.226   0.485  16.408  0.6039 -0.0516 -0.2063
  597TMC3    C1 8844   2.145   0.500  16.651  0.3492  0.4060 -0.1736
  597TMC3    C2 8845   2.102   0.608  16.592  0.9070 -0.0396 -0.7666
  597TMC3    C3 8846   2.053   0.715  16.669  0.3595 -0.3735 -0.0474
  597TMC3    C4 8847   2.132   0.476  16.783  0.2774  0.6602  0.0102
  597TMC3    C5 8848   2.094   0.581  16.858  0.5687  0.1483  0.2184
  597TMC3    C6 8849   2.053   0.706  16.805 -0.2508  0.5580  0.9382
  597TMC3     C 8850   2.174   0.379  16.579 -0.2636  0.3231 -0.5624
  597TMC3     O 8851   2.144   0.276  16.636  0.3295  0.3517 -0.1000
  597TMC3     H 8852   2.112   0.626  16.485  1.2472  0.3381 -0.6715
  597TMC3    H1 8853   2.167   0.387  16.833 -1.0738 -0.6675 -1.4363
  597TMC3    H2 8854   2.029   0.791  16.867 -0.5084  0.5173  0.8941
  597TMC3    C7 8855   2.070   0.564  17.002  0.3498  0.2229 -0.0443
  597TMC3    C8 8856   2.051   0.849  16.616 -0.0607 -0.7412 -0.1382
  597TMC3    O1 8857   2.043   0.451  17.026  0.3382  0.3966  0.1693
  597TMC3    O2 8858   2.110   0.864  16.510  0.0328 -0.5161  0.3343
  598TMC3    C1 8859   0.381   1.294  15.558 -0.0560 -0.3404 -0.9394
  598TMC3    C2 8860   0.250   1.274  15.597  0.1791 -0.2362 -0.1639
  598TMC3    C3 8861   0.160   1.286  15.503 -0.4123 -0.0498 -0.8859
  598TMC3    C4 8862   0.412   1.336  15.431 -0.4220 -0.6326 -0.0641
  598TMC3    C5 8863   0.312   1.345  15.343 -0.2602  0.3836 -0.1137
  598TMC3    C6 8864   0.185   1.306  15.372 -0.3835 -0.3120  0.4195
  598TMC3     C 8865   0.492   1.309  15.648  0.2033 -0.0024  0.3068
  598TMC3     O 8866   0.468   1.373  15.752  0.0986 -0.3037 -0.0206
  598TMC3     H 8867   0.238   1.260  15.704  1.5802  2.6930  0.3792
  598TMC3    H1 8868   0.513   1.352  15.394  0.0267 -1.7372  0.6742
  598TMC3    H2 8869   0.108   1.320  15.297 -0.1563 -1.6968 -0.0691
  598TMC3    C7 8870   0.356   1.365  15.208  0.4760 -0.4746 -0.2513
  598TMC3    C8 8871   0.035   1.351  15.531 -0.0659  0.3727 -0.1248
  598TMC3    O1 8872   0.311   1.283  15.126 -0.7729  0.0123  0.2900
  598TMC3    O2 8873   4.667   1.339  15.451  0.2046  0.2340 -0.0280
  599MPD2     C 8874   0.212   3.830  15.693  0.4777  0.3295  0.0948
  599MPD2    C1 8875   0.157   3.724  15.763  0.1876 -0.3272 -0.9374
  599MPD2    C2 8876   0.027   3.732  15.816  0.0030  0.4754 -0.0088
  599MPD2    C3 8877   4.679   3.849  15.796  0.1507 -0.2780  0.4759
  599MPD2    C4 8878   0.017   3.955  15.736  0.9501 -0.1245  0.2737
  599MPD2    C5 8879   0.143   3.942  15.684 -0.1137 -0.0454 -0.0866
  599MPD2     H 8880   4.706   3.650  15.873  0.9794  0.3111  0.4984
  599MPD2    H1 8881   4.683   4.047  15.727 -0.6816 -1.3192 -1.4618
  599MPD2    H2 8882   0.310   3.829  15.646 -0.3647  2.3615 -1.6991
  599MPD2    H3 8883   0.191   4.026  15.636 -1.9523  0.1797 -1.5507
  599MPD2     N 8884   4.556   3.877  15.854 -0.5205  0.2489  0.2094
  599MPD2    H5 8885   4.514   3.966  15.828 -0.9116 -0.2667 -0.9184
  599MPD2    N1 8886   0.238   3.609  15.775 -0.1547 -0.4856 -0.5392
  599MPD2    H7 8887   0.331   3.619  15.736 -0.6348 -1.3500 -1.9000
  600TMC3    C1 8888   4.379   3.866  16.009 -0.1690 -0.2476  0.8762
  600TMC3    C2 8889   4.290   3.797  16.086 -0.2297  0.1447 -0.4636
  600TMC3    C3 8890   4.205   3.872  16.166 -0.2883  0.0247  0.3355
  600TMC3    C4 8891   4.387   4.004  16.013 -0.1122 -0.4573 -0.2600
  600TMC3    C5 8892   4.302   4.072  16.093 -0.4365  0.0801 -0.1325
  600TMC3    C6 8893   4.206   4.006  16.159 -0.4033 -0.2560  0.1822
  600TMC3     C 8894   4.484   3.794  15.940 -0.0217 -0.6864 -0.1613
  600TMC3     O 8895   4.493   3.672  15.959 -0.5187 -0.4826 -0.3151
  600TMC3     H 8896   4.299   3.691  16.104  1.9282  0.3968 -0.0864
  600TMC3    H1 8897   4.464   4.068  15.972 -0.9902 -0.5556 -2.0562
  600TMC3    H2 8898   4.145   4.060  16.231 -1.0683  0.7144 -1.0978
  600TMC3    C7 8899   4.365   4.175  16.170  0.0574 -0.1675 -0.0647
  600TMC3    C8 8900   4.166   3.824  16.295 -0.6130  0.2031  0.0223
  600TMC3    O1 8901   4.487   4.175  16.188  0.0923 -0.8245 -0.3167
  600TMC3    O2 8902   4.154   3.906  16.390  0.3248  0.3236  0.0700
  601MPD2     C 8903   2.194   2.469  17.377  0.1967  0.0406  0.0849
  601MPD2    C1 8904   2.109   2.378  17.431  0.1936  0.7890 -0.4620
  601MPD2    C2 8905   2.159   2.255  17.475 -0.4577  0.1705  0.7049
  601MPD2    C3 8906   2.295   2.228  17.463 -0.3182 -0.2182  0.1926
  601MPD2    C4 8907   2.380   2.313  17.401  0.2613 -0.7325  0.2539
  601MPD2    C5 8908   2.325   2.429  17.358  0.5452 -0.2064 -0.0806
  601MPD2     H 8909   2.087   2.186  17.518 -0.8790 -0.3962 -0.9086
  601MPD2    H1 8910   2.487   2.298  17.387  1.2201  3.3961  3.2730
  601MPD2    H2 8911   2.173   2.574  17.360 -2.0745 -0.3027  0.8378
  601MPD2    H3 8912   2.396   2.495  17.308 -0.0007 -0.3941 -1.0951
  601MPD2     N 8913   2.344   2.109  17.521 -0.3431 -0.3378 -0.4990
  601MPD2    H5 8914   2.441   2.087  17.500  0.8838  2.1061  2.7026
  601MPD2    N1 8915   1.970   2.406  17.445  0.1752  0.5205  0.5434
  601MPD2    H7 8916   1.903   2.333  17.468  2.5344 -1.8142  0.0955
  602TMC3    C1 8917   1.769   2.523  17.451 -0.7839 -0.3338 -0.4582
  602TMC3    C2 8918   1.701   2.634  17.482 -0.3111  0.0620  0.3516
  602TMC3    C3 8919   1.571   2.653  17.441 -0.1883  0.3285 -0.6239
  602TMC3    C4 8920   1.703   2.420  17.384 -0.2210  0.1719 -1.2132
  602TMC3    C5 8921   1.567   2.436  17.349 -0.4111  0.9937 -0.7308
  602TMC3    C6 8922   1.505   2.553  17.379 -0.2865 -0.1058 -0.0947
  602TMC3     C 8923   1.917   2.529  17.458 -0.1293  0.1776  0.0445
  602TMC3     O 8924   1.964   2.641  17.455 -0.5863 -0.0160  0.2100
  602TMC3     H 8925   1.756   2.709  17.537 -2.4002 -1.6712  4.7922
  602TMC3    H1 8926   1.764   2.333  17.361  1.0937  1.1565 -1.5114
  602TMC3    H2 8927   1.397   2.560  17.374 -0.2956  0.1908  0.6525
  602TMC3    C7 8928   1.511   2.333  17.270 -0.3801  0.8399  0.1756
  602TMC3    C8 8929   1.551   2.782  17.380 -0.4656 -0.6048  0.1798
  602TMC3    O1 8930   1.556   2.223  17.273  0.5157  0.3264 -0.0406
  602TMC3    O2 8931   1.638   2.865  17.400  0.5274  0.4983 -0.3591
  603TMC3    C1 8932   0.110   2.334  11.170  0.2725  0.3162  0.7997
  603TMC3    C2 8933   0.172   2.290  11.284  0.7988 -0.6091  0.2469
  603TMC3    C3 8934   0.282   2.353  11.324 -0.4283  0.0388 -0.1522
  603TMC3    C4 8935   0.162   2.436  11.093 -0.4780  0.6788 -0.4924
  603TMC3    C5 8936   0.283   2.492  11.131  0.1059  0.1082 -0.3150
  603TMC3    C6 8937   0.347   2.451  11.243 -0.1222 -1.1263  0.0294
  603TMC3     C 8938   0.010   2.251  11.105 -0.1020 -0.1438  0.1397
  603TMC3     O 8939   0.012   2.255  10.984 -0.4070  0.2414 -0.0780
  603TMC3     H 8940   0.135   2.206  11.340 -1.3064 -0.5049 -0.9853
  603TMC3    H1 8941   0.108   2.458  11.002  2.0629 -0.8762 -2.3609
  603TMC3    H2 8942   0.427   2.515  11.279 -0.4625  0.2244 -1.6247
  603TMC3    C7 8943   0.337   2.603  11.064  0.3180 -0.1604 -1.1815
  603TMC3    C8 8944   0.355   2.284  11.424 -0.0223 -0.0058 -0.5042
  603TMC3    O1 8945   0.433   2.652  11.119 -0.0158 -0.2291 -0.1951
  603TMC3    O2 8946   0.292   2.208  11.494  0.4768 -0.1339 -0.4126
  604MPD2     C 8947   0.858   0.898  16.516  0.4945 -0.5984 -0.3594
  604MPD2    C1 8948   0.777   0.997  16.470 -0.3776  0.2261  0.2538
  604MPD2    C2 8949   0.740   1.003  16.337  0.0822 -0.0212 -0.2180
  604MPD2    C3 8950   0.772   0.903  16.250  0.1484 -0.1937  0.1653
  604MPD2    C4 8951   0.848   0.799  16.302  0.1558 -0.6658  0.3745
  604MPD2    C5 8952   0.880   0.790  16.435 -0.5625 -0.2803 -0.5899
  604MPD2     H 8953   0.684   1.091  16.309  0.1271  0.9308  2.7164
  604MPD2    H1 8954   0.863   0.708  16.245 -2.2141 -0.7799 -0.0801
  604MPD2    H2 8955   0.902   0.890  16.615  2.0447 -1.5599 -1.1344
  604MPD2    H3 8956   0.937   0.703  16.464 -0.3957  0.1309  0.3100
  604MPD2     N 8957   0.744   0.908  16.115 -0.8516 -0.5610  0.1971
  604MPD2    H5 8958   0.691   0.991  16.090  1.3481  0.5381 -0.8263
  604MPD2    N1 8959   0.740   1.102  16.556 -0.2571 -0.5527 -0.1686
  604MPD2    H7 8960   0.791   1.114  16.643  0.7569  0.0159 -0.8484
  605TMC3    C1 8961   0.650   1.317  16.600 -0.2713  0.1188 -0.4929
  605TMC3    C2 8962   0.773   1.373  16.618 -0.1448  0.0984  0.6400
  605TMC3    C3 8963   0.773   1.504  16.669  0.1244  0.0689  0.6018
  605TMC3    C4 8964   0.533   1.376  16.637  0.9908 -0.1067 -0.2873
  605TMC3    C5 8965   0.544   1.495  16.703  0.2286 -0.9196  0.6537
  605TMC3    C6 8966   0.659   1.574  16.708 -0.1615 -0.2080  0.5374
  605TMC3     C 8967   0.638   1.188  16.526  0.4674 -0.0654 -0.0634
  605TMC3     O 8968   0.529   1.160  16.479  0.2811  0.2408 -0.0760
  605TMC3     H 8969   0.864   1.327  16.579 -0.1231 -0.9479  1.9087
  605TMC3    H1 8970   0.437   1.333  16.609  1.7751 -0.7545 -1.9706
  605TMC3    H2 8971   0.663   1.677  16.741  0.2153 -0.4523  1.2509
  605TMC3    C7 8972   0.413   1.567  16.705 -0.0906  0.8073  0.1258
  605TMC3    C8 8973   0.912   1.563  16.671 -0.1408  0.2414  0.5584
  605TMC3    O1 8974   0.415   1.689  16.691 -0.1984  0.1507 -0.3695
  605TMC3    O2 8975   0.999   1.495  16.627  0.3665  0.2514  0.1474
  606TMC3    C1 8976   2.155   0.542  17.536 -0.0760  1.1621 -0.9148
  606TMC3    C2 8977   2.060   0.525  17.630  0.2551  0.2247 -0.7071
  606TMC3    C3 8978   2.003   0.403  17.644  0.0999  0.3430  0.0145
  606TMC3    C4 8979   2.186   0.441  17.445 -0.3514  0.2183 -0.1703
  606TMC3    C5 8980   2.130   0.317  17.463  0.3489 -0.6425 -0.1040
  606TMC3    C6 8981   2.038   0.298  17.566  0.1481 -0.3066  0.4902
  606TMC3     C 8982   2.247   0.653  17.547 -0.5232  0.2551 -0.3807
  606TMC3     O 8983   2.210   0.756  17.599  0.3148 -0.2975 -0.5152
  606TMC3     H 8984   2.026   0.602   0.006 -0.5829  0.2079 -1.0978
  606TMC3    H1 8985   2.240   0.463  17.353  1.7691 -1.7572  0.6163
  606TMC3    H2 8986   1.990   0.202  17.582 -1.1757  0.6354  2.2048
  606TMC3    C7 8987   2.183   0.209  17.382  0.1370  0.7539  0.0457
  606TMC3    C8 8988   1.964   0.360   0.082  0.5482 -0.2154 -0.1083
  606TMC3    O1 8989   2.237   0.250  17.280 -0.0011 -0.0762 -0.2314
  606TMC3    O2 8990   1.886   0.429   0.141  0.2646  0.1378  0.5689
  607MPD2     C 8991   4.551   2.382  11.670  0.4132  0.2382 -0.0229
  607MPD2    C1 8992   4.578   2.478  11.766  0.5320  0.0137  0.2783
  607MPD2    C2 8993   4.527   2.470  11.889 -0.0195 -0.1046  0.3299
  607MPD2    C3 8994   4.433   2.370  11.925  0.9247  0.0046  0.0404
  607MPD2    C4 8995   4.412   2.268  11.830  0.5303 -0.4461  0.3305
  607MPD2    C5 8996   4.470   2.280  11.702  1.1576 -0.0417 -0.2794
  607MPD2     H 8997   4.547   2.547  11.963 -3.5113  1.0143  0.0666
  607MPD2    H1 8998   4.352   2.182  11.857  0.8087 -0.6676  0.2420
  607MPD2    H2 8999   4.590   2.391  11.570 -0.5759 -2.0288 -0.6343
  607MPD2    H3 9000   4.446   2.205  11.627  2.4139 -0.8773  0.1464
  607MPD2     N 9001   4.380   2.372  12.060 -0.8293  0.1140  0.0284
  607MPD2    H5 9002   4.413   2.446  12.122  2.0981 -1.4834  0.3567
  607MPD2    N1 9003   4.668   2.580  11.741 -0.1980  0.2945 -0.4123
  607MPD2    H7 9004   4.668   2.655  11.810  0.1434 -0.1316  0.0529
  608TMC3    C1 9005   0.150   2.662  11.682  0.0952  0.7553  0.1538
  608TMC3    C2 9006   0.172   2.674  11.820  0.0592  0.2556 -1.1813
  608TMC3    C3 9007   0.267   2.762  11.855  0.2405 -0.2371 -0.7390
  608TMC3    C4 9008   0.204   2.741  11.585 -0.2446  0.1306  0.1253
  608TMC3    C5 9009   0.295   2.837  11.630 -0.1961 -0.3957  0.3108
  608TMC3    C6 9010   0.331   2.840  11.762  0.7241  0.1541  0.5758
  608TMC3     C 9011   0.031   2.598  11.635 -0.4823 -0.6990  0.6411
  608TMC3     O 9012   0.031   2.557  11.521  0.2740 -0.7394 -0.5658
  608TMC3     H 9013   0.138   2.604  11.896  1.4517  2.6458  1.6490
  608TMC3    H1 9014   0.169   2.735  11.483 -2.5653 -0.3668  0.9407
  608TMC3    H2 9015   0.399   2.917  11.795  0.5922 -0.1908  1.6425
  608TMC3    C7 9016   0.357   2.927  11.526 -0.2785 -0.4064  0.3655
  608TMC3    C8 9017   0.285   2.798  11.993  0.0731  0.0407 -0.4716
  608TMC3    O1 9018   0.313   2.915  11.414 -0.2466  0.0178 -0.0275
  608TMC3    O2 9019   0.393   2.834  12.033 -0.2280 -0.6254  0.1161
  609TMC3    C1 9020   2.885   1.942   9.176 -0.5436  0.0748  0.6847
  609TMC3    C2 9021   2.902   2.049   9.259 -0.4672  0.2091  0.1277
  609TMC3    C3 9022   3.012   2.034   9.338 -0.4578 -0.0566 -0.4104
  609TMC3    C4 9023   2.968   1.834   9.164 -0.6563 -0.4867  0.1003
  609TMC3    C5 9024   3.079   1.830   9.250 -0.1479 -0.4245  0.6017
  609TMC3    C6 9025   3.111   1.935   9.329 -0.2589 -0.0032  1.3557
  609TMC3     C 9026   2.769   1.948   9.081 -0.3299  0.4080  0.2067
  609TMC3     O 9027   2.779   1.877   8.984  0.5622 -0.3207  0.2909
  609TMC3     H 9028   2.858   2.148   9.246  0.1371  0.2635 -1.4151
  609TMC3    H1 9029   2.953   1.751   9.096 -0.3129  0.0449 -0.6287
  609TMC3    H2 9030   3.205   1.955   9.381  0.7738  0.4250 -0.6979
  609TMC3    C7 9031   3.198   1.749   9.227  0.1710  0.1587 -0.4440
  609TMC3    C8 9032   3.042   2.148   9.420  0.4345 -0.6348 -0.3188
  609TMC3    O1 9033   3.286   1.744   9.313 -0.1135 -0.2421  0.0336
  609TMC3    O2 9034   3.158   2.174   9.448  0.0200  0.3314 -0.0761
  610TMC3    C1 9035   3.954   2.306  12.477  0.0021  0.1759  0.3697
  610TMC3    C2 9036   4.007   2.413  12.539  0.8514  0.1094  0.6093
  610TMC3    C3 9037   4.123   2.400  12.612 -0.1413  0.2558  0.7571
  610TMC3    C4 9038   4.014   2.188  12.484 -0.4797  0.2136  0.3371
  610TMC3    C5 9039   4.141   2.175  12.541  0.3806 -0.0081  0.0294
  610TMC3    C6 9040   4.194   2.284  12.600 -0.5436  0.0748  0.1868
  610TMC3     C 9041   3.850   2.331  12.383  0.0707 -0.7664  0.1628
  610TMC3     O 9042   3.787   2.234  12.341 -0.0770  0.0823 -0.2757
  610TMC3     H 9043   3.963   2.512  12.538  0.3835 -0.1079 -1.4881
  610TMC3    H1 9044   3.962   2.109  12.429  1.9053  0.8524 -2.8404
  610TMC3    H2 9045   4.294   2.280  12.642  0.7758 -0.4042 -3.0209
  610TMC3    C7 9046   4.213   2.046  12.543 -0.1226 -0.0070 -0.5819
  610TMC3    C8 9047   4.161   2.497  12.717 -1.0992  0.6509  0.2132
  610TMC3    O1 9048   4.334   2.049  12.573 -0.2333  0.1375  0.0273
  610TMC3    O2 9049   4.277   2.476  12.746 -0.2621 -0.1428 -0.2350
  611MPD2     C 9050   4.264   2.614   9.911 -0.4121  0.6438 -0.6269
  611MPD2    C1 9051   4.313   2.557  10.027  0.0487 -0.2545  0.7865
  611MPD2    C2 9052   4.449   2.563  10.052 -0.5710  0.3599 -0.4501
  611MPD2    C3 9053   4.536   2.634   9.964  0.8314  0.0635  0.5411
  611MPD2    C4 9054   4.482   2.699   9.856  0.3373  0.1738  0.1774
  611MPD2    C5 9055   4.349   2.696   9.835  0.2166  0.2696 -0.4691
  611MPD2     H 9056   4.478   2.519  10.147 -0.9204  0.7012 -0.1865
  611MPD2    H1 9057   4.543   2.759   9.790  2.0728 -0.4910  1.1871
  611MPD2    H2 9058   4.159   2.608   9.884  0.0908  3.0794 -3.1244
  611MPD2    H3 9059   4.311   2.758   9.755  0.2651 -0.4681 -1.0581
  611MPD2     N 9060   4.676   2.644   9.984 -0.5769  0.5182  0.2578
  611MPD2    H5 9061   0.003   2.713   9.928 -0.5984 -0.8737 -1.5054
  611MPD2    N1 9062   4.220   2.477  10.100  0.6068 -0.0980  0.5346
  611MPD2    H7 9063   4.123   2.470  10.073  1.5187 -0.1946 -2.8075
  612TMC3    C1 9064   0.154   2.634  10.100  0.6847  0.1917 -0.1155
  612TMC3    C2 9065   0.194   2.674  10.229  0.3534 -0.3573  0.4280
  612TMC3    C3 9066   0.295   2.765  10.239 -0.3898 -0.0671  0.5438
  612TMC3    C4 9067   0.198   2.694   9.988  0.0982 -0.2769  0.3779
  612TMC3    C5 9068   0.287   2.794  10.000  0.9280 -0.2626  0.2728
  612TMC3    C6 9069   0.335   2.830  10.125  0.4490 -0.3906 -0.8401
  612TMC3     C 9070   0.021   2.584  10.083 -0.1427  0.3281  0.0313
  612TMC3     O 9071   4.713   2.485  10.152  0.0806 -0.2028 -0.3447
  612TMC3     H 9072   0.139   2.640  10.316 -2.8414  1.5908 -0.8425
  612TMC3    H1 9073   0.187   2.647   9.891 -0.2387  0.7633 -0.0877
  612TMC3    H2 9074   0.377   2.928  10.146 -0.2699  0.5796 -3.9425
  612TMC3    C7 9075   0.331   2.850   9.874  0.4098 -0.0218 -0.0071
  612TMC3    C8 9076   0.354   2.812  10.367 -0.2842 -0.3881 -0.6363
  612TMC3    O1 9077   0.260   2.820   9.779  0.5879  0.5215 -0.0325
  612TMC3    O2 9078   0.450   2.887  10.359 -0.4783 -0.4043 -0.0239
  613MPD2     C 9079   2.903   0.112  16.311 -0.5087  0.3849  0.5188
  613MPD2    C1 9080   2.843   0.102  16.180 -0.0586  0.4375 -0.1795
  613MPD2    C2 9081   2.756   4.720  16.156  0.1523  0.2210 -0.4042
  613MPD2    C3 9082   2.750   4.614  16.243  0.3320  0.3164 -0.4952
  613MPD2    C4 9083   2.814   4.623  16.369  0.0275 -0.4148 -0.6890
  613MPD2    C5 9084   2.885   0.013  16.408  0.0620 -0.3854  0.0722
  613MPD2     H 9085   2.716   4.702  16.057  0.5032  0.9693 -0.6808
  613MPD2    H1 9086   2.820   4.540  16.438 -1.4268 -0.3925 -0.5288
  613MPD2    H2 9087   2.953   0.202  16.346  1.3222 -0.1128 -0.8371
  613MPD2    H3 9088   2.927   0.021  16.508 -0.4637  0.4976  0.2205
  613MPD2     N 9089   2.703   4.487  16.209 -0.1309 -0.9567  0.3737
  613MPD2    H5 9090   2.738   4.413  16.267 -2.2569 -2.7211 -0.5908
  613MPD2    N1 9091   2.878   0.192  16.073 -0.1381  0.4249  0.4698
  613MPD2    H7 9092   2.962   0.247  16.087  0.1118  0.0119  0.5645
  614TMC3    C1 9093   2.902   0.270  15.860  0.0183  0.2898 -0.8624
  614TMC3    C2 9094   3.021   0.202  15.845 -0.3046  0.1524  0.0718
  614TMC3    C3 9095   3.037   0.138  15.729  0.3319  0.0985 -0.0569
  614TMC3    C4 9096   2.828   0.309  15.751 -0.2055  0.1442  0.0951
  614TMC3    C5 9097   2.855   0.238  15.631  0.9469  0.1237  0.0920
  614TMC3    C6 9098   2.958   0.149  15.621 -0.3614  0.2376 -0.0983
  614TMC3     C 9099   2.810   0.206  15.952 -1.7507  0.0063 -0.5860
  614TMC3     O 9100   2.704   0.161  15.913  0.3741  0.3685  0.2461
  614TMC3     H 9101   3.061   0.153  15.933 -0.5944  1.3925  0.8948
  614TMC3    H1 9102   2.737   0.367  15.765 -0.5576 -0.2052 -0.7315
  614TMC3    H2 9103   2.985   0.101  15.528 -1.1931  0.1565 -0.2949
  614TMC3    C7 9104   2.769   0.286  15.526 -0.0889  0.5139  0.4510
  614TMC3    C8 9105   3.110   0.014  15.720  1.3704  0.1402  0.2530
  614TMC3    O1 9106   2.709   0.395  15.535  0.4771 -0.0859 -0.0269
  614TMC3    O2 9107   3.075   4.646  15.644  0.6699  0.2767  0.5075
  615MPD2     C 9108   2.517   1.171  15.797 -0.1306 -0.2195  0.1425
  615MPD2    C1 9109   2.417   1.250  15.741 -0.3995 -0.2322 -0.1383
  615MPD2    C2 9110   2.361   1.201  15.627 -0.4616 -0.4100  0.3809
  615MPD2    C3 9111   2.409   1.079  15.566 -0.0337 -0.3766 -0.3466
  615MPD2    C4 9112   2.503   1.005  15.632 -0.2538  0.3242 -0.0076
  615MPD2    C5 9113   2.553   1.049  15.749 -0.0052 -0.7713  0.2081
  615MPD2     H 9114   2.290   1.268  15.579  0.3644  0.2262  0.0422
  615MPD2    H1 9115   2.542   0.918  15.580 -0.2523 -0.6181  1.5402
  615MPD2    H2 9116   2.575   1.215  15.877 -0.9245  0.3941  0.3760
  615MPD2    H3 9117   2.629   0.984  15.789  0.9155 -1.3689 -2.5290
  615MPD2     N 9118   2.368   1.038  15.437  0.1244 -0.4711 -0.0344
  615MPD2    H5 9119   2.413   0.954  15.400  0.6569  0.7896 -2.2031
  615MPD2    N1 9120   2.373   1.369  15.797 -0.0115  0.5614 -0.3070
  615MPD2    H7 9121   2.297   1.417  15.749  0.0974  0.2374 -0.8056
  616TMC3    C1 9122   2.385   1.558  15.939  0.3229 -0.1279 -0.3811
  616TMC3    C2 9123   2.461   1.665  15.975  0.3752  0.0687 -0.7576
  616TMC3    C3 9124   2.394   1.780  15.994 -0.1094 -0.1932 -0.3218
  616TMC3    C4 9125   2.251   1.556  15.918 -0.2281  0.2680  0.0728
  616TMC3    C5 9126   2.194   1.678  15.938 -0.4135 -0.0576 -0.5539
  616TMC3    C6 9127   2.259   1.799  15.969 -0.4344  0.3714 -0.0321
  616TMC3     C 9128   2.447   1.437  15.897  0.7232  0.6491  0.3552
  616TMC3     O 9129   2.561   1.423  15.944 -0.1374 -0.0666  0.4907
  616TMC3     H 9130   2.569   1.654  15.963  0.5717  1.4609 -0.1775
  616TMC3    H1 9131   2.195   1.463  15.917 -0.3680  0.3447  0.6916
  616TMC3    H2 9132   2.203   1.890  15.984  2.2328  2.1600 -0.9376
  616TMC3    C7 9133   2.045   1.671  15.908 -0.2494 -0.3441  0.5300
  616TMC3    C8 9134   2.466   1.901  16.020 -0.5803 -0.9048  1.0333
  616TMC3    O1 9135   1.986   1.775  15.877 -0.6031  0.7169 -0.1884
  616TMC3    O2 9136   2.399   2.001  16.035  0.1517  0.0942  0.6492
  617MPD2     C 9137   0.509   4.343  13.796  0.1416 -0.2071 -0.0487
  617MPD2    C1 9138   0.573   4.239  13.854  0.4774 -0.1565  0.7598
  617MPD2    C2 9139   0.495   4.134  13.897 -0.3353  0.9435 -0.5988
  617MPD2    C3 9140   0.366   4.118  13.872  0.4135 -0.0002 -0.6371
  617MPD2    C4 9141   0.301   4.224  13.813  0.2985 -0.4438  0.1058
  617MPD2    C5 9142   0.374   4.337  13.781 -0.2655 -0.1129  0.2224
  617MPD2     H 9143   0.537   4.041  13.934 -0.2743  0.8534 -0.8947
  617MPD2    H1 9144   0.196   4.218  13.787  0.4501  0.6787 -0.7758
  617MPD2    H2 9145   0.556   4.440  13.778  0.5893 -0.5782 -0.8671
  617MPD2    H3 9146   0.324   4.415  13.725 -0.3208 -0.5485 -0.3331
  617MPD2     N 9147   0.286   4.006  13.910  0.2570  0.1262 -0.1322
  617MPD2    H5 9148   0.188   4.004  13.882  0.0568 -0.0237  0.5788
  617MPD2    N1 9149   0.712   4.251  13.860 -0.3325  0.0469  0.3838
  617MPD2    H7 9150   0.756   4.321  13.801 -2.1164  0.0153 -1.0151
  618TMC3    C1 9151   0.943   4.166  13.893  0.1933 -0.5436 -0.3962
  618TMC3    C2 9152   1.027   4.078  13.958  0.1525  0.3158 -0.3193
  618TMC3    C3 9153   1.159   4.067  13.922  0.3760 -0.2681 -0.9958
  618TMC3    C4 9154   0.997   4.267  13.825 -0.0477  0.3329 -0.1354
  618TMC3    C5 9155   1.128   4.256  13.795 -0.3376  0.6502  0.1599
  618TMC3    C6 9156   1.214   4.165  13.846 -0.5862 -0.1885  0.2352
  618TMC3     C 9157   0.798   4.163  13.922 -0.4561 -0.4609 -0.1846
  618TMC3     O 9158   0.763   4.068  13.995 -0.2991 -0.2076 -0.0902
  618TMC3     H 9159   0.981   3.999  14.017 -1.1458  0.9129 -0.5266
  618TMC3    H1 9160   0.942   4.352  13.787  0.7480  1.0994  0.4314
  618TMC3    H2 9161   1.314   4.158  13.805  0.2740  0.0133  2.2726
  618TMC3    C7 9162   1.169   4.346  13.695  0.0412 -0.4207  0.3223
  618TMC3    C8 9163   1.238   3.945  13.952 -0.0578  0.1481 -0.0162
  618TMC3    O1 9164   1.095   4.368  13.600 -0.3821 -0.6446 -0.2931
  618TMC3    O2 9165   1.207   3.894  14.054  0.2809 -0.7712  0.5961
  619MPD2     C 9166   2.109   0.515  13.580  0.4382  0.0225 -0.1206
  619MPD2    C1 9167   2.006   0.600  13.529 -0.0050 -0.4535  0.0194
  619MPD2    C2 9168   1.885   0.602  13.583 -0.3413  0.6737 -0.3870
  619MPD2    C3 9169   1.848   0.522  13.691 -0.2068  1.2507  0.2335
  619MPD2    C4 9170   1.942   0.436  13.742  0.0661 -0.0738 -0.5119
  619MPD2    C5 9171   2.067   0.431  13.681  0.3392 -0.6986 -0.5713
  619MPD2     H 9172   1.811   0.666  13.536 -0.8315  0.6116  0.2999
  619MPD2    H1 9173   1.916   0.380  13.831  0.1180  0.8124  0.0532
  619MPD2    H2 9174   2.211   0.512  13.544  0.5518  0.8707  0.1337
  619MPD2    H3 9175   2.131   0.351  13.717  0.4238  0.6505  2.1973
  619MPD2     N 9176   1.720   0.534  13.755  0.3307 -0.1635  0.4902
  619MPD2    H5 9177   1.707   0.489  13.845  0.3626  0.3122  0.7307
  619MPD2    N1 9178   2.028   0.684  13.418 -0.0501 -0.5493 -0.2817
  619MPD2    H7 9179   1.953   0.750  13.400  0.4455  0.5557  1.6518
  620TMC3    C1 9180   2.159   0.816  13.273 -0.1010 -0.4713  0.4740
  620TMC3    C2 9181   2.053   0.800  13.183 -0.3207 -0.3736  0.2315
  620TMC3    C3 9182   2.058   0.888  13.077  0.3376  0.5275 -0.4452
  620TMC3    C4 9183   2.269   0.893  13.256 -0.5843 -0.3141  0.4019
  620TMC3    C5 9184   2.261   0.979  13.154 -0.6791 -0.9872 -0.4536
  620TMC3    C6 9185   2.163   0.971  13.056 -0.1836 -0.8347 -0.2617
  620TMC3     C 9186   2.159   0.726  13.386 -0.1391 -0.4829 -0.2376
  620TMC3     O 9187   2.262   0.709  13.450  0.1847 -0.5801 -0.3377
  620TMC3     H 9188   1.966   0.740  13.204 -0.6631 -0.5355 -1.6839
  620TMC3    H1 9189   2.350   0.900  13.327 -0.6586  1.4903  0.3008
  620TMC3    H2 9190   2.152   1.055  12.987  2.0291 -1.1407 -0.9838
  620TMC3    C7 9191   2.273   1.116  13.199  0.1067 -0.1799  0.1460
  620TMC3    C8 9192   1.931   0.962  13.066 -0.0375  0.3415 -0.2936
  620TMC3    O1 9193   2.380   1.146  13.246 -0.2203 -0.3427  0.0977
  620TMC3    O2 9194   1.921   1.053  13.145  0.1693 -0.4346  0.7433
  621MPD2     C 9195   2.671   0.608  10.263 -0.6026 -0.6032 -0.6020
  621MPD2    C1 9196   2.669   0.727  10.195  0.5429  0.4060 -0.3736
  621MPD2    C2 9197   2.782   0.752  10.117  0.6323  0.4709 -0.3363
  621MPD2    C3 9198   2.906   0.687  10.127  0.2200  0.3551  0.2141
  621MPD2    C4 9199   2.905   0.576  10.213  0.4555  0.1910  0.1603
  621MPD2    C5 9200   2.786   0.538  10.275  0.1785 -0.2358 -0.6000
  621MPD2     H 9201   2.776   0.841  10.055 -1.3830 -0.5057 -1.5584
  621MPD2    H1 9202   2.986   0.510  10.241 -0.6404 -0.0098  2.7747
  621MPD2    H2 9203   2.588   0.570  10.323  0.8423 -0.4958  1.4763
  621MPD2    H3 9204   2.788   0.455  10.345  0.0791 -0.1457 -0.4901
  621MPD2     N 9205   3.025   0.733  10.057 -0.5673 -0.0705 -0.2654
  621MPD2    H5 9206   2.995   0.794   9.982 -0.8099 -2.6968 -2.2971
  621MPD2    N1 9207   2.554   0.810  10.173  0.1195  0.1192  0.0203
  621MPD2    H7 9208   2.573   0.892  10.116 -0.0649  0.1682  0.0292
  622TMC3    C1 9209   2.338   0.890  10.163  0.2693  0.0173 -0.1963
  622TMC3    C2 9210   2.208   0.884  10.204  0.0195  0.7603 -0.5885
  622TMC3    C3 9211   2.134   0.993  10.172 -0.0390 -0.0362  0.2290
  622TMC3    C4 9212   2.380   1.004  10.105  0.3365  0.3420  0.1063
  622TMC3    C5 9213   2.296   1.095  10.057  0.2411 -0.2007  0.4478
  622TMC3    C6 9214   2.165   1.102  10.087  0.7230 -0.0692 -0.1619
  622TMC3     C 9215   2.428   0.776  10.196  0.1375  0.2792  0.0174
  622TMC3     O 9216   2.394   0.669  10.245  0.1820 -0.4792 -0.2416
  622TMC3     H 9217   2.160   0.800  10.254  0.0109  1.1533  0.0596
  622TMC3    H1 9218   2.481   1.016  10.069 -0.1265  0.6442 -1.0688
  622TMC3    H2 9219   2.108   1.192  10.067 -1.1126 -0.8975  1.3211
  622TMC3    C7 9220   2.343   1.195   9.964  0.3349  0.4270 -0.4192
  622TMC3    C8 9221   1.995   0.988  10.215  0.3954 -0.0892  0.3339
  622TMC3    O1 9222   2.465   1.205   9.959 -0.2507 -0.5188  0.6045
  622TMC3    O2 9223   1.943   0.877  10.236 -0.2343  0.1154  0.0955
  623MPD2     C 9224   0.922   1.255  16.203  0.5786 -0.4788  0.0783
  623MPD2    C1 9225   0.920   1.364  16.287 -0.3033 -0.3733 -0.0842
  623MPD2    C2 9226   1.039   1.402  16.344 -0.3516 -0.3612 -0.2582
  623MPD2    C3 9227   1.156   1.332  16.321  0.2223 -0.5973  0.7044
  623MPD2    C4 9228   1.158   1.232  16.234  0.0990 -0.3455 -0.2593
  623MPD2    C5 9229   1.043   1.187  16.181 -0.3071  0.0477  0.4497
  623MPD2     H 9230   1.055   1.491  16.404  0.6681  0.1812 -1.3395
  623MPD2    H1 9231   1.251   1.187  16.203  0.1383 -1.5089  1.5291
  623MPD2    H2 9232   0.831   1.221  16.154  0.1195  0.3594  0.3396
  623MPD2    H3 9233   1.049   1.110  16.105  3.0144  1.6118 -0.8766
  623MPD2     N 9234   1.269   1.375  16.389 -0.4137 -0.1167  0.5414
  623MPD2    H5 9235   1.254   1.455  16.450  1.9689  0.0790  0.8569
  623MPD2    N1 9236   0.810   1.440  16.304 -0.3955 -0.5218  0.0288
  623MPD2    H7 9237   0.831   1.537  16.328 -0.3209 -0.4533 -0.3176
  624TMC3    C1 9238   1.669   1.554  16.497  0.4885  0.1313  0.1871
  624TMC3    C2 9239   1.617   1.615  16.608 -0.1151 -0.1661  0.6056
  624TMC3    C3 9240   1.492   1.577  16.646 -0.0981 -0.9389  0.4233
  624TMC3    C4 9241   1.602   1.479  16.410 -0.5843 -0.0132 -0.1896
  624TMC3    C5 9242   1.475   1.447  16.448  0.1845  0.1525  0.0227
  624TMC3    C6 9243   1.425   1.490  16.570 -0.3111  0.0270 -0.1838
  624TMC3     C 9244   1.800   1.607  16.458 -0.7180 -0.0828  0.1252
  624TMC3     O 9245   1.843   1.704  16.520 -0.0163 -0.1991  1.0362
  624TMC3     H 9246   1.657   1.700  16.661  0.1285 -1.2772  2.2013
  624TMC3    H1 9247   1.630   1.458  16.308 -3.0506  0.6989 -1.0210
  624TMC3    H2 9248   1.330   1.460  16.613 -1.1684  0.9487 -1.4365
  624TMC3    C7 9249   1.401   1.361  16.354 -0.8010 -0.5882  0.7648
  624TMC3    C8 9250   1.407   1.649  16.736 -0.5288 -0.7529 -0.4698
  624TMC3    O1 9251   1.448   1.316  16.252 -0.4231  0.0612 -0.1299
  624TMC3    O2 9252   1.346   1.582  16.821 -0.3984  0.1339 -0.1128
  625MPD2     C 9253   1.663   2.295   0.509 -0.3318 -0.3859  0.4248
  625MPD2    C1 9254   1.680   2.367   0.628 -0.0608  0.5995 -0.3285
  625MPD2    C2 9255   1.739   2.304   0.731 -0.2100 -0.9551 -0.8416
  625MPD2    C3 9256   1.786   2.172   0.727  0.1928 -0.3459 -0.1946
  625MPD2    C4 9257   1.787   2.116   0.597 -0.3543  0.5313 -0.3056
  625MPD2    C5 9258   1.724   2.175   0.486  0.5325 -0.3613  0.6630
  625MPD2     H 9259   1.751   2.352   0.827 -0.0991  0.2234 -1.4412
  625MPD2    H1 9260   1.813   2.012   0.588  0.8051  0.7858  0.1822
  625MPD2    H2 9261   1.624   2.342   0.419 -0.6102 -0.5852  0.4422
  625MPD2    H3 9262   1.711   2.117   0.395 -0.1859 -1.5175  1.5208
  625MPD2     N 9263   1.830   2.113   0.845  0.4967  0.4614  0.4375
  625MPD2    H5 9264   1.843   2.177   0.922  1.4510  0.0111  0.6532
  625MPD2    N1 9265   1.647   2.502   0.653 -0.2791  0.4961 -0.5993
  625MPD2    H7 9266   1.680   2.546   0.738  0.9448 -0.1729 -0.7235
  626TMC3    C1 9267   1.529   2.709   0.621 -0.3812  0.2082 -0.4124
  626TMC3    C2 9268   1.500   2.813   0.539 -0.7500  0.0836  0.2707
  626TMC3    C3 9269   1.446   2.929   0.585 -0.2818  0.3033 -0.4771
  626TMC3    C4 9270   1.510   2.722   0.753  0.2311 -0.5222  0.5364
  626TMC3    C5 9271   1.462   2.843   0.800  0.3778  0.6305  0.1728
  626TMC3    C6 9272   1.428   2.946   0.719 -0.1231 -1.4248 -0.2336
  626TMC3     C 9273   1.575   2.583   0.562  0.2667 -0.0212 -0.5371
  626TMC3     O 9274   1.557   2.569   0.442  0.1201 -0.1591 -0.5655
  626TMC3     H 9275   1.527   2.801   0.435 -1.5919  1.2973 -0.0940
  626TMC3    H1 9276   1.523   2.638   0.820 -1.6053 -1.8954 -0.8581
  626TMC3    H2 9277   1.369   3.025   0.764  2.6160 -0.4940  1.7000
  626TMC3    C7 9278   1.468   2.861   0.940 -0.0500  0.4511 -0.1223
  626TMC3    C8 9279   1.400   3.022   0.486 -0.0589  0.1762  0.0220
  626TMC3    O1 9280   1.476   2.763   1.013 -0.2532  0.0557 -0.3400
  626TMC3    O2 9281   1.397   2.983   0.369 -0.2309 -0.2785 -0.2217
  627MPD2     C 9282   0.685   2.651  14.120  0.0218 -0.3121  0.2540
  627MPD2    C1 9283   0.648   2.730  14.228 -0.6717  0.3718 -0.2327
  627MPD2    C2 9284   0.512   2.726  14.269 -0.3290  0.7227  0.6256
  627MPD2    C3 9285   0.418   2.649  14.196 -0.5389 -0.0802 -0.0827
  627MPD2    C4 9286   0.459   2.576  14.084  0.9285 -0.2710 -0.5291
  627MPD2    C5 9287   0.591   2.580  14.047 -0.0173 -0.7276  0.8485
  627MPD2     H 9288   0.489   2.771  14.365 -2.3379 -2.1654  1.4965
  627MPD2    H1 9289   0.384   2.518  14.032  0.8464  1.3426 -2.2212
  627MPD2    H2 9290   0.789   2.630  14.098  0.0689 -1.6962  1.8235
  627MPD2    H3 9291   0.624   2.515  13.967  0.5111 -0.0381  0.5096
  627MPD2     N 9292   0.293   2.624  14.266  0.2264 -0.4364  0.0820
  627MPD2    H5 9293   0.281   2.675  14.352  0.7451 -0.5352  0.2137
  627MPD2    N1 9294   0.735   2.804  14.309 -0.2780  0.7649  0.1650
  627MPD2    H7 9295   0.696   2.854  14.388 -0.8455  2.7811 -1.3962
  628TMC3    C1 9296   0.929   2.904  14.381 -0.1199  0.4980  0.0125
  628TMC3    C2 9297   1.044   2.873  14.451  0.8769  1.1313 -0.2463
  628TMC3    C3 9298   1.108   2.977  14.521  0.0794 -0.7278  0.3454
  628TMC3    C4 9299   0.868   3.028  14.389 -0.3446  0.6047  0.0253
  628TMC3    C5 9300   0.944   3.125  14.453  0.6153 -0.1292  0.5974
  628TMC3    C6 9301   1.065   3.110  14.521 -0.0671  0.1751  0.4524
  628TMC3     C 9302   0.874   2.807  14.293 -0.3469  0.2885 -0.3914
  628TMC3     O 9303   0.947   2.744  14.217 -0.3619 -0.2236  0.3665
  628TMC3     H 9304   1.090   2.775  14.458 -1.1103  0.3504  1.9076
  628TMC3    H1 9305   0.783   3.062  14.331 -0.7790 -0.7009 -0.0920
  628TMC3    H2 9306   1.105   3.182  14.591 -2.2190  2.1308 -0.3457
  628TMC3    C7 9307   0.937   3.264  14.407 -1.1122 -0.1348 -0.3313
  628TMC3    C8 9308   1.234   2.961  14.585 -0.1908  0.1662  0.3675
  628TMC3    O1 9309   1.036   3.333  14.429  0.9271 -0.4040  0.1063
  628TMC3    O2 9310   1.304   3.060  14.601 -0.4077  0.2312 -0.1761
  629MPD2     C 9311   2.861   2.183  16.175  0.3790 -0.3303 -0.8051
  629MPD2    C1 9312   2.909   2.053  16.171 -0.1263 -0.1874  0.6672
  629MPD2    C2 9313   2.824   1.957  16.120  0.5316  0.0672  0.3380
  629MPD2    C3 9314   2.696   1.991  16.071 -0.8280  0.3124  0.1255
  629MPD2    C4 9315   2.655   2.117  16.083  0.0959 -0.7527 -0.3335
  629MPD2    C5 9316   2.736   2.219  16.136  0.0575 -0.2619  0.7420
  629MPD2     H 9317   2.848   1.851  16.119  1.1510  0.2042  1.0357
  629MPD2    H1 9318   2.561   2.162  16.055  1.8748  1.5287 -2.6992
  629MPD2    H2 9319   2.926   2.258  16.220  0.2880 -0.7451  0.0153
  629MPD2    H3 9320   2.707   2.323  16.132 -1.0919 -0.6810 -1.3926
  629MPD2     N 9321   2.605   1.884  16.030 -0.5072 -0.4761  0.1275
  629MPD2    H5 9322   2.637   1.788  16.029  0.2186 -0.2285 -0.4643
  629MPD2    N1 9323   3.031   2.031  16.244 -0.2443  0.2554 -0.1953
  629MPD2    H7 9324   3.082   2.112  16.280 -0.2603  0.1946 -0.0349
  630TMC3    C1 9325   3.203   1.900  16.353 -0.8254 -0.7773 -0.1367
  630TMC3    C2 9326   3.299   1.990  16.334 -0.1798  0.4505 -0.3953
  630TMC3    C3 9327   3.411   1.981  16.418  0.2131 -0.1130 -0.0646
  630TMC3    C4 9328   3.217   1.796  16.443 -0.4444 -0.4516 -0.6004
  630TMC3    C5 9329   3.337   1.777  16.512  0.1872 -0.1673 -0.6188
  630TMC3    C6 9330   3.438   1.874  16.506  0.4503  0.0851 -0.2230
  630TMC3     C 9331   3.080   1.909  16.277  0.5293 -0.5783  0.3279
  630TMC3     O 9332   3.031   1.805  16.235  0.3733 -0.4287 -0.2662
  630TMC3     H 9333   3.289   2.063  16.255  1.3865  1.2370  0.1541
  630TMC3    H1 9334   3.149   1.712  16.439  1.3538 -2.0014  1.0346
  630TMC3    H2 9335   3.533   1.852  16.552  0.6779  1.6149  0.0362
  630TMC3    C7 9336   3.358   1.669  16.606 -0.3861 -0.4531 -0.1467
  630TMC3    C8 9337   3.534   2.066  16.402  0.0047  0.0717  0.7092
  630TMC3    O1 9338   3.398   1.705  16.716  0.0358 -0.3672 -0.1815
  630TMC3    O2 9339   3.604   2.069  16.500  0.0087 -0.4011  0.0203
  631MPD2     C 9340   1.533   1.296  14.919  0.3540  0.9149  0.1726
  631MPD2    C1 9341   1.603   1.339  15.024  0.6942 -0.0668 -0.8037
  631MPD2    C2 9342   1.716   1.278  15.076 -0.0755  0.8616  0.2268
  631MPD2    C3 9343   1.765   1.168  15.012 -0.3801 -0.5286  0.1637
  631MPD2    C4 9344   1.694   1.116  14.903 -0.3510 -0.4514  0.1757
  631MPD2    C5 9345   1.576   1.181  14.865 -0.0197 -0.0216 -0.0147
  631MPD2     H 9346   1.771   1.320  15.159  0.3836 -0.0333  0.3722
  631MPD2    H1 9347   1.724   1.026  14.852  0.9918  1.4332 -2.3724
  631MPD2    H2 9348   1.451   1.349  14.872 -0.0927  0.0620 -0.0032
  631MPD2    H3 9349   1.525   1.138  14.779  0.3547 -1.4721  0.4857
  631MPD2     N 9350   1.887   1.113  15.059  0.0202 -0.4861  0.0886
  631MPD2    H5 9351   1.920   1.145  15.150 -2.1195  1.4038  0.2237
  631MPD2    N1 9352   1.560   1.466  15.069 -0.5434  0.3669  0.0250
  631MPD2    H7 9353   1.492   1.511  15.009 -1.2405 -0.0092  0.5245
  632TMC3    C1 9354   1.578   1.680  15.178 -0.6558 -0.7178  0.3408
  632TMC3    C2 9355   1.606   1.742  15.296 -0.7760  0.3887  0.0240
  632TMC3    C3 9356   1.650   1.872  15.292 -0.0845 -0.3615 -0.2616
  632TMC3    C4 9357   1.588   1.741  15.058  0.1342 -0.2950  0.5159
  632TMC3    C5 9358   1.644   1.866  15.055  0.1168 -0.3833 -0.1007
  632TMC3    C6 9359   1.666   1.940  15.172 -0.1067 -0.3549 -0.0772
  632TMC3     C 9360   1.604   1.535  15.183 -0.8198 -0.2966  0.0301
  632TMC3     O 9361   1.642   1.493  15.290 -0.2479 -0.0313 -0.7210
  632TMC3     H 9362   1.583   1.699  15.393 -1.4237 -2.7001 -1.5200
  632TMC3    H1 9363   1.569   1.698  14.960 -0.1051  1.0259 -0.0245
  632TMC3    H2 9364   1.655   2.048  15.163  3.4220 -0.0667 -1.1427
  632TMC3    C7 9365   1.733   1.893  14.940 -0.3476 -0.4191  0.8296
  632TMC3    C8 9366   1.616   1.945  15.414  0.4465  0.0408 -0.4896
  632TMC3    O1 9367   1.698   1.856  14.833  0.0925  0.3926  0.1176
  632TMC3    O2 9368   1.532   1.898  15.488 -0.1812  0.0110 -0.8242
  633MPD2     C 9369   1.751   0.121  17.467  0.4013  0.4603  0.2058
  633MPD2    C1 9370   1.767   0.033  17.364 -0.1896 -0.1927 -0.6496
  633MPD2    C2 9371   1.759   4.624  17.390  0.7058  0.1893 -0.3553
  633MPD2    C3 9372   1.735   4.579  17.521 -0.4452  0.4438 -0.0984
  633MPD2    C4 9373   1.711   4.660  17.630 -0.6988 -0.5719  0.1228
  633MPD2    C5 9374   1.722   0.074  17.596 -0.5892 -0.0382  0.3650
  633MPD2     H 9375   1.778   4.557  17.306 -0.1946 -0.0739 -0.3498
  633MPD2    H1 9376   1.697   4.626   0.039  0.4345  2.8043  1.4013
  633MPD2    H2 9377   1.764   0.226  17.442  1.7668  0.6183  1.5804
  633MPD2    H3 9378   1.721   0.141  17.681  0.6255  1.1968 -0.5876
  633MPD2     N 9379   1.723   4.446  17.547  0.1280  0.1853 -0.2153
  633MPD2    H5 9380   1.717   4.418  17.644  1.8166 -0.2920 -0.2420
  633MPD2    N1 9381   1.792   0.076  17.232  0.8103  0.5254 -0.5634
  633MPD2    H7 9382   1.807   0.006  17.160 -0.1313 -1.4126  1.1186
  634TMC3    C1 9383   1.825   0.208  17.035 -0.4096 -0.5971 -0.2679
  634TMC3    C2 9384   1.883   0.100  16.974 -0.3530  0.1536 -0.3309
  634TMC3    C3 9385   1.889   0.097  16.837 -0.0637 -0.1291  0.4185
  634TMC3    C4 9386   1.773   0.309  16.960 -0.1208 -0.3942 -0.3493
  634TMC3    C5 9387   1.794   0.307  16.826  0.4444 -0.3893  0.1236
  634TMC3    C6 9388   1.847   0.199  16.762 -0.1635 -0.3746 -0.6825
  634TMC3     C 9389   1.794   0.206  17.178  0.4098 -0.0043 -0.3317
  634TMC3     O 9390   1.751   0.305  17.233 -0.2211  0.6962 -0.5543
  634TMC3     H 9391   1.930   0.027  17.038  0.2241  0.7961 -0.0213
  634TMC3    H1 9392   1.719   0.384  17.016  0.3077 -1.1741  1.1275
  634TMC3    H2 9393   1.846   0.192  16.654 -0.5819 -3.7683 -0.4536
  634TMC3    C7 9394   1.776   0.421  16.735  0.0698  0.2875 -0.0945
  634TMC3    C8 9395   1.929   4.695  16.770 -0.0085  0.3974  0.7863
  634TMC3    O1 9396   1.788   0.393  16.618 -0.5347  0.4307 -0.0601
  634TMC3    O2 9397   1.929   4.588  16.827 -0.1544 -0.1018 -0.5350
  635TMC3    C1 9398   2.645   1.171  16.911 -0.1651 -0.2121  0.2649
  635TMC3    C2 9399   2.594   1.177  16.782  0.0550  0.6207  0.4149
  635TMC3    C3 9400   2.605   1.063  16.707 -0.5056 -0.0276 -0.2467
  635TMC3    C4 9401   2.714   1.066  16.964 -0.1871 -0.5490 -0.9161
  635TMC3    C5 9402   2.717   0.950  16.880  0.5455  0.0566  0.0253
  635TMC3    C6 9403   2.659   0.948  16.756 -0.3104  0.3682 -0.6491
  635TMC3     C 9404   2.613   1.276  17.012 -0.0266  0.0041 -0.5287
  635TMC3     O 9405   2.617   1.248  17.132  0.0113  0.4149  0.4589
  635TMC3     H 9406   2.542   1.264  16.744  1.2156  1.7603  1.4171
  635TMC3    H1 9407   2.763   1.068  17.061 -2.1006 -1.3095  0.0709
  635TMC3    H2 9408   2.658   0.848  16.716 -1.1121  0.8676 -1.8777
  635TMC3    C7 9409   2.772   0.829  16.939 -0.4698  0.0457 -1.0843
  635TMC3    C8 9410   2.587   1.089  16.572  0.4234 -0.0160  0.1476
  635TMC3    O1 9411   2.826   0.858  17.041  0.4266 -0.6180 -0.0117
  635TMC3    O2 9412   2.545   1.206  16.549 -0.0196 -0.4797 -0.1055
  636MPD2     C 9413   2.472   0.037  15.500  0.1431  0.1790  0.5780
  636MPD2    C1 9414   2.492   0.057  15.637 -0.1986  0.4199 -0.5359
  636MPD2    C2 9415   2.522   4.667  15.705 -0.0580 -0.1234  0.6463
  636MPD2    C3 9416   2.555   4.543  15.651 -0.1126  0.4376  0.9627
  636MPD2    C4 9417   2.548   4.532  15.513 -0.1450  0.0302 -0.3078
  636MPD2    C5 9418   2.505   4.639  15.443  0.1500  0.8116 -0.5336
  636MPD2     H 9419   2.546   4.686  15.809 -1.4632  0.7399  0.8179
  636MPD2    H1 9420   2.558   4.441  15.456 -0.3962 -0.1105 -0.1266
  636MPD2    H2 9421   2.434   0.113  15.432  0.9837 -1.3851 -1.6254
  636MPD2    H3 9422   2.488   4.628  15.337  1.0538  1.7335 -0.7743
  636MPD2     N 9423   2.587   4.435  15.733 -0.5257 -0.4155 -0.6347
  636MPD2    H5 9424   2.584   4.454  15.833  0.3128  0.8035 -0.8468
  636MPD2    N1 9425   2.480   0.177  15.707 -0.4333 -0.7881  0.1791
  636MPD2    H7 9426   2.509   0.188  15.804 -1.3256  2.5310  0.0730
  637TMC3    C1 9427   2.621   4.227  15.824  0.2545 -0.4007 -0.4757
  637TMC3    C2 9428   2.570   4.294  15.933  0.4663  0.6033 -0.8151
  637TMC3    C3 9429   2.648   4.320  16.045  0.0068  0.0805  0.4721
  637TMC3    C4 9430   2.748   4.170  15.828 -0.6849  0.5450 -0.6514
  637TMC3    C5 9431   2.825   4.203  15.932 -0.5623 -0.0674 -1.0748
  637TMC3    C6 9432   2.774   4.262  16.043 -0.0056  0.1244 -0.0031
  637TMC3     C 9433   2.604   4.303  15.700 -0.6003 -0.1613  0.2452
  637TMC3     O 9434   2.591   4.249  15.592  0.5875 -0.5644  0.9262
  637TMC3     H 9435   2.464   4.315  15.934  0.6215  1.2507  2.7626
  637TMC3    H1 9436   2.796   4.137  15.736 -2.4567  0.1990 -1.4585
  637TMC3    H2 9437   2.846   4.288  16.120  3.2229 -0.0667 -2.9016
  637TMC3    C7 9438   2.946   4.273  15.889  0.2730 -0.1751  0.5053
  637TMC3    C8 9439   2.636   4.457  16.095 -0.1385 -0.5125 -1.5399
  637TMC3    O1 9440   2.940   4.304  15.770  0.2282  0.3282 -0.7371
  637TMC3    O2 9441   2.573   4.528  16.018 -0.1093 -0.1264 -0.6563
  638MPD2     C 9442   2.564   3.601  14.956  0.1480 -0.4255  0.4770
  638MPD2    C1 9443   2.573   3.514  14.853  0.1351 -0.0382  0.9019
  638MPD2    C2 9444   2.563   3.382  14.869  0.3111 -0.1267 -0.3702
  638MPD2    C3 9445   2.556   3.336  15.003 -0.0764  0.8506 -1.1489
  638MPD2    C4 9446   2.562   3.429  15.110 -0.2817  0.4729  0.2211
  638MPD2    C5 9447   2.558   3.561  15.088 -0.1736 -0.4137  0.2802
  638MPD2     H 9448   2.557   3.312  14.786  0.8404  0.9957 -1.3536
  638MPD2    H1 9449   2.554   3.401  15.215 -1.7013  0.3775  0.0898
  638MPD2    H2 9450   2.554   3.707  14.932  0.3684  0.1024  2.7006
  638MPD2    H3 9451   2.554   3.635  15.167  0.3194  0.2069 -0.2909
  638MPD2     N 9452   2.523   3.203  15.016 -0.9137  0.3463  0.6196
  638MPD2    H5 9453   2.524   3.139  14.937  1.3613  1.8064 -0.5260
  638MPD2    N1 9454   2.566   3.573  14.728 -0.7166  0.2258 -0.6643
  638MPD2    H7 9455   2.579   3.673  14.713 -0.4389  0.8711  4.0216
  639TMC3    C1 9456   2.433   3.003  15.109 -0.0292 -0.1921  0.3774
  639TMC3    C2 9457   2.411   2.957  14.982 -0.6075 -0.3314 -0.3282
  639TMC3    C3 9458   2.351   2.832  14.976 -0.4909  0.1787  0.4356
  639TMC3    C4 9459   2.406   2.936  15.224 -0.1320  0.4374 -0.6975
  639TMC3    C5 9460   2.355   2.808  15.205 -0.0899 -0.1190  0.4641
  639TMC3    C6 9461   2.328   2.753  15.084  0.1189 -0.4532 -0.6794
  639TMC3     C 9462   2.481   3.143  15.133  0.8767 -0.0136 -0.2904
  639TMC3     O 9463   2.477   3.186  15.249 -0.1943 -0.1546  0.0750
  639TMC3     H 9464   2.432   3.010  14.890 -1.4599  1.0298  0.2703
  639TMC3    H1 9465   2.430   2.982  15.319 -1.8083 -0.5503  0.2071
  639TMC3    H2 9466   2.275   2.659  15.071 -0.9849  0.0725 -0.0194
  639TMC3    C7 9467   2.416   2.702  15.286  0.3017  0.0787 -0.2251
  639TMC3    C8 9468   2.282   2.797  14.851  0.3451 -0.4842  0.6151
  639TMC3    O1 9469   2.360   2.595  15.277 -0.3581  0.4564 -0.2269
  639TMC3    O2 9470   2.333   2.844  14.753 -0.0336  0.6904  0.4354
  640MPD2     C 9471   3.454   1.811  10.322 -0.5415  0.4195 -0.0376
  640MPD2    C1 9472   3.498   1.927  10.267  0.0918  0.3061 -0.5086
  640MPD2    C2 9473   3.400   2.022  10.227 -0.6007  0.5640  0.2461
  640MPD2    C3 9474   3.264   1.992  10.244  0.3989  0.4261 -0.3926
  640MPD2    C4 9475   3.224   1.882  10.304 -0.6632 -0.0593 -0.1040
  640MPD2    C5 9476   3.320   1.785  10.332  0.4082 -0.5704 -0.2906
  640MPD2     H 9477   3.428   2.119  10.189  0.0102  0.4236  0.3434
  640MPD2    H1 9478   3.119   1.854  10.305 -0.9432  0.9710 -0.3439
  640MPD2    H2 9479   3.534   1.742  10.350 -0.0211  1.9085  2.1467
  640MPD2    H3 9480   3.291   1.687  10.367  1.2183 -0.7486 -0.1176
  640MPD2     N 9481   3.164   2.079  10.208  0.6050 -0.1917  0.1260
  640MPD2    H5 9482   3.069   2.051  10.230  0.3853 -0.8596 -1.6671
  640MPD2    N1 9483   3.637   1.946  10.253 -0.2003  0.0224  0.3450
  640MPD2    H7 9484   3.710   1.880  10.277  0.9892  1.5675  0.9170
  641TMC3    C1 9485   3.795   2.064  10.122 -0.5100  0.1699  0.2242
  641TMC3    C2 9486   3.833   1.947  10.065  0.8188 -0.0446 -0.1323
  641TMC3    C3 9487   3.908   1.961   9.951  0.7306 -0.6872  0.0055
  641TMC3    C4 9488   3.845   2.177  10.086 -0.7066 -1.0510 -0.1478
  641TMC3    C5 9489   3.927   2.182   9.970 -0.1603  1.1006 -0.5959
  641TMC3    C6 9490   3.959   2.074   9.900 -0.3862 -0.6132  0.7460
  641TMC3     C 9491   3.677   2.068  10.205 -0.6530  0.0399 -0.7915
  641TMC3     O 9492   3.636   2.177  10.236 -0.0266 -0.2234 -0.1955
  641TMC3     H 9493   3.776   1.856  10.081 -2.2934  1.8418 -0.4683
  641TMC3    H1 9494   3.804   2.270  10.124  0.1737  0.3560 -2.5942
  641TMC3    H2 9495   4.021   2.074   9.811  0.4730 -2.7909  1.3399
  641TMC3    C7 9496   3.927   2.309   9.902 -0.2082  0.4998 -0.8790
  641TMC3    C8 9497   3.937   1.841   9.873 -0.9352  0.0885 -0.6333
  641TMC3    O1 9498   3.965   2.416   9.949  0.1208  0.1935 -0.1063
  641TMC3    O2 9499   3.965   1.860   9.757  0.7500 -0.1566 -0.6695
  642TMC3    C1 9500   4.303   3.430  12.123  0.2168  0.2325 -0.3507
  642TMC3    C2 9501   4.416   3.478  12.061 -0.1679 -0.2736 -0.6979
  642TMC3    C3 9502   4.480   3.388  11.985  0.3021 -0.9482  0.3091
  642TMC3    C4 9503   4.260   3.294  12.116  0.2653  0.1404  1.5145
  642TMC3    C5 9504   4.339   3.213  12.044  0.3049 -0.2392 -0.8311
  642TMC3    C6 9505   4.444   3.255  11.970 -0.0301 -0.0110 -1.1235
  642TMC3     C 9506   4.221   3.535  12.169 -0.7359 -0.1266 -0.3348
  642TMC3     O 9507   4.243   3.645  12.117  0.1037  0.0112 -0.5524
  642TMC3     H 9508   4.445   3.580  12.086  2.6728 -1.2264 -0.0499
  642TMC3    H1 9509   4.164   3.251  12.143 -0.0652 -0.4160 -0.5600
  642TMC3    H2 9510   4.503   3.190  11.907 -0.7447  0.2321 -2.0403
  642TMC3    C7 9511   4.312   3.076  12.044 -0.5467 -0.3650 -0.3373
  642TMC3    C8 9512   4.582   3.439  11.899 -0.3479 -0.4565  0.4180
  642TMC3    O1 9513   4.355   2.996  11.955 -0.6634 -0.2289 -0.0125
  642TMC3    O2 9514   4.640   3.353  11.833 -0.0550  0.0183 -0.9897
  643TMC3    C1 9515   4.054   2.828   0.565 -0.0617 -0.5270  0.0368
  643TMC3    C2 9516   3.923   2.855   0.597 -0.3643  0.2229  0.9639
  643TMC3    C3 9517   3.833   2.758   0.566 -0.5495  0.3517 -0.1150
  643TMC3    C4 9518   4.102   2.710   0.507  0.7533  0.4248 -0.4925
  643TMC3    C5 9519   4.002   2.628   0.459  0.0574 -1.5901  0.4469
  643TMC3    C6 9520   3.870   2.650   0.490  0.1117 -0.1739  0.3014
  643TMC3     C 9521   4.154   2.917   0.625  0.1021 -0.2084 -0.5879
  643TMC3     O 9522   4.259   2.923   0.563 -0.0705  0.6417 -0.0140
  643TMC3     H 9523   3.893   2.948   0.645  0.8108 -0.4123  2.9028
  643TMC3    H1 9524   4.205   2.677   0.500  0.5983  0.0015 -0.7935
  643TMC3    H2 9525   3.790   2.579   0.472  1.0343 -1.3398  0.8471
  643TMC3    C7 9526   4.038   2.490   0.439  0.1815  0.1534 -0.1436
  643TMC3    C8 9527   3.691   2.790   0.554  0.3240 -0.1439  0.6232
  643TMC3    O1 9528   4.133   2.462   0.514  0.1625  0.1180 -0.6901
  643TMC3    O2 9529   3.614   2.698   0.575 -0.0145  0.0703  0.1873
  644MPD2     C 9530   3.980   2.986   9.403  0.4972 -0.3475 -0.0563
  644MPD2    C1 9531   3.916   2.902   9.319 -0.4807  0.9374  0.4886
  644MPD2    C2 9532   3.783   2.936   9.277  0.5756  0.4667  0.3335
  644MPD2    C3 9533   3.715   3.047   9.332  0.0632  0.2883 -0.3313
  644MPD2    C4 9534   3.794   3.128   9.412 -0.1811  0.6405 -0.4904
  644MPD2    C5 9535   3.919   3.103   9.443  0.0161  0.1258 -0.0271
  644MPD2     H 9536   3.720   2.863   9.229  2.2868 -0.1870 -0.9202
  644MPD2    H1 9537   3.756   3.218   9.459 -1.1588  0.4418 -0.8912
  644MPD2    H2 9538   4.081   2.963   9.438  0.8956  2.7398  0.8422
  644MPD2    H3 9539   3.973   3.169   9.509 -0.0858  2.0732 -1.8834
  644MPD2     N 9540   3.580   3.068   9.304 -0.2294 -0.2434  0.1261
  644MPD2    H5 9541   3.528   3.001   9.248 -1.3628  0.8788 -0.1691
  644MPD2    N1 9542   3.984   2.781   9.284  0.1073  0.3992 -0.1807
  644MPD2    H7 9543   4.069   2.766   9.336  0.3226 -0.1335 -0.6908
  645TMC3    C1 9544   3.370   3.178   9.298 -0.4192  0.2566 -0.3667
  645TMC3    C2 9545   3.319   3.294   9.245 -0.2474 -0.0839  0.0954
  645TMC3    C3 9546   3.199   3.293   9.174 -0.6338 -0.0807  0.6214
  645TMC3    C4 9547   3.307   3.056   9.269  0.3882 -0.1227 -0.5551
  645TMC3    C5 9548   3.196   3.052   9.190  0.1503  0.0820 -0.8067
  645TMC3    C6 9549   3.146   3.172   9.130  0.4281  0.4459 -0.0004
  645TMC3     C 9550   3.513   3.183   9.338 -0.5016  0.1020  0.3392
  645TMC3     O 9551   3.558   3.288   9.377 -0.0277  0.7433  0.1105
  645TMC3     H 9552   3.372   3.388   9.263  1.9107 -0.9666 -1.5744
  645TMC3    H1 9553   3.344   2.965   9.316 -2.4766 -0.4923  0.9791
  645TMC3    H2 9554   3.067   3.175   9.057  1.5200  1.2151 -1.1539
  645TMC3    C7 9555   3.144   2.929   9.147  0.3236 -0.0729 -0.2453
  645TMC3    C8 9556   3.137   3.419   9.138 -0.3243  0.3884  0.1559
  645TMC3    O1 9557   3.222   2.836   9.140  0.3015  0.3071 -0.6002
  645TMC3    O2 9558   3.214   3.514   9.151  0.1783 -0.3570  0.4911
  646MPD2     C 9559   2.676   2.091  14.337 -0.3486 -0.5855 -0.3175
  646MPD2    C1 9560   2.632   2.178  14.426 -0.6321  1.3009  0.4618
  646MPD2    C2 9561   2.543   2.270  14.389 -0.1846  0.4096 -0.3025
  646MPD2    C3 9562   2.483   2.274  14.262  0.4635  0.1325  0.0066
  646MPD2    C4 9563   2.514   2.164  14.178  0.3242  0.0564  0.2107
  646MPD2    C5 9564   2.617   2.082  14.216 -0.1563  0.6242  0.3884
  646MPD2     H 9565   2.503   2.350  14.451  0.7798  0.4462  0.2716
  646MPD2    H1 9566   2.475   2.144  14.079  0.0478  2.4806 -0.1715
  646MPD2    H2 9567   2.751   2.017  14.362  0.4502  0.7237  1.1475
  646MPD2    H3 9568   2.640   2.002  14.147  1.5627  0.8528  0.6946
  646MPD2     N 9569   2.382   2.375  14.235  0.0234  0.1593 -0.1804
  646MPD2    H5 9570   2.350   2.434  14.311 -1.2469 -1.7212  0.7375
  646MPD2    N1 9571   2.696   2.174  14.555  0.1372 -0.2592 -0.3645
  646MPD2    H7 9572   2.788   2.132  14.560  0.7298  1.1354  0.2779
  647TMC3    C1 9573   2.716   2.180  14.783  0.0412 -0.1866  1.2176
  647TMC3    C2 9574   2.653   2.135  14.897  0.3329 -0.3658 -1.1553
  647TMC3    C3 9575   2.732   2.099  14.999 -0.8868 -0.4655 -0.4466
  647TMC3    C4 9576   2.851   2.198  14.774  0.1889  0.0752 -0.2548
  647TMC3    C5 9577   2.921   2.178  14.882 -0.2697  0.0606 -0.2328
  647TMC3    C6 9578   2.861   2.125  14.996 -0.6744  1.3455 -0.2360
  647TMC3     C 9579   2.631   2.207  14.664 -0.3222  0.0423 -0.3286
  647TMC3     O 9580   2.508   2.211  14.674  0.0467  0.2004 -0.2695
  647TMC3     H 9581   2.544   2.133  14.901  0.3254  0.3168 -1.0884
  647TMC3    H1 9582   2.904   2.228  14.685  1.5511 -0.5795  0.3130
  647TMC3    H2 9583   2.930   2.102  15.077  3.7205  1.4355 -3.9175
  647TMC3    C7 9584   3.066   2.187  14.883  0.2324  0.2019  0.6055
  647TMC3    C8 9585   2.720   1.965  15.061  0.2807  0.5102  0.2180
  647TMC3    O1 9586   3.114   2.193  14.996 -0.0679  0.0863 -0.1011
  647TMC3    O2 9587   2.815   1.891  15.056  0.7505  0.4535 -0.3223
  648TMC3    C1 9588   2.216   0.040  15.869  0.0848  0.0303  0.0373
  648TMC3    C2 9589   2.241   4.634  15.901 -0.1068 -0.8120  0.0832
  648TMC3    C3 9590   2.167   4.538  15.837 -0.3411  0.2994  0.5028
  648TMC3    C4 9591   2.108   0.075  15.789  0.1938 -0.4096  0.3668
  648TMC3    C5 9592   2.030   4.695  15.740 -0.0062  0.8279 -0.0956
  648TMC3    C6 9593   2.058   4.562  15.761 -0.5348  0.7029 -0.0965
  648TMC3     C 9594   2.266   0.147  15.965 -0.0678 -1.0694  1.0019
  648TMC3     O 9595   2.228   0.258  15.941  0.1473  0.7340  0.2130
  648TMC3     H 9596   2.313   4.600  15.975 -0.8533  0.0500  1.2124
  648TMC3    H1 9597   2.092   0.179  15.766 -1.3954 -0.8922 -0.7101
  648TMC3    H2 9598   1.992   4.478  15.742  1.5766 -1.4846  2.2749
  648TMC3    C7 9599   1.894   0.007  15.714 -0.2592 -0.1784  0.4236
  648TMC3    C8 9600   2.188   4.408  15.894  0.5699 -0.6727  0.4863
  648TMC3    O1 9601   1.839   4.662  15.627  0.1152  0.2826  0.6496
  648TMC3    O2 9602   2.210   4.406  16.017 -0.5475 -0.2279 -0.5194
  649TMC3    C1 9603   0.538   0.598  12.872  0.0307  0.6439  0.0942
  649TMC3    C2 9604   0.659   0.644  12.853 -0.3298 -0.5278 -1.0479
  649TMC3    C3 9605   0.756   0.621  12.944  0.6467  0.5339 -0.2526
  649TMC3    C4 9606   0.505   0.533  12.988  1.0404 -0.9766 -0.3106
  649TMC3    C5 9607   0.605   0.515  13.084  0.3431  0.3102 -0.4807
  649TMC3    C6 9608   0.741   0.553  13.059  0.3983 -0.4582  0.6905
  649TMC3     C 9609   0.433   0.608  12.770  0.4781 -0.1666 -0.1629
  649TMC3     O 9610   0.319   0.578  12.805  0.0062 -0.1055 -0.1737
  649TMC3     H 9611   0.686   0.696  12.762  4.2701 -0.8196  0.1479
  649TMC3    H1 9612   0.401   0.513  13.010  0.4028  1.5100 -1.0933
  649TMC3    H2 9613   0.814   0.545  13.137  0.1220 -1.0082  0.8891
  649TMC3    C7 9614   0.556   0.488  13.218  1.0705 -0.2393 -0.7084
  649TMC3    C8 9615   0.888   0.688  12.924  0.0806  0.1693 -0.2813
  649TMC3    O1 9616   0.437   0.474  13.233  0.6717  0.4762 -0.5010
  649TMC3    O2 9617   0.954   0.711  13.024 -0.0483 -0.4115  0.3455
  650TMC3    C1 9618   3.594   2.301  12.575 -0.0048 -0.3219  0.5007
  650TMC3    C2 9619   3.596   2.438  12.592 -0.0141 -0.6656 -0.2416
  650TMC3    C3 9620   3.515   2.517  12.521  0.7077 -0.8169  0.1196
  650TMC3    C4 9621   3.508   2.246  12.479  0.3215 -0.2079 -0.7550
  650TMC3    C5 9622   3.428   2.331  12.408  0.6712 -0.5358  0.1399
  650TMC3    C6 9623   3.426   2.465  12.433 -0.2284 -0.4766 -0.6618
  650TMC3     C 9624   3.685   2.217  12.658  0.1948 -0.3694 -0.1001
  650TMC3     O 9625   3.777   2.275  12.713  0.4089  0.5283 -0.3549
  650TMC3     H 9626   3.657   2.489  12.666 -2.3922  0.7981  0.6964
  650TMC3    H1 9627   3.506   2.140  12.460  0.3654 -0.2414 -0.5735
  650TMC3    H2 9628   3.355   2.529  12.380 -1.7755 -2.6666 -1.2074
  650TMC3    C7 9629   3.339   2.272  12.315  0.0467 -0.2093 -0.4557
  650TMC3    C8 9630   3.490   2.649  12.569 -0.2340  0.4917 -0.6295
  650TMC3    O1 9631   3.296   2.158  12.340 -0.0892 -0.0253  0.2269
  650TMC3    O2 9632   3.573   2.724  12.620  0.2754 -0.0585  0.7452
  651MPD2     C 9633   2.597   4.019  10.686  0.3683  0.4695 -0.7113
  651MPD2    C1 9634   2.569   4.141  10.740  0.9203  0.3675  0.5465
  651MPD2    C2 9635   2.668   4.205  10.809 -0.6680 -0.5605  0.2649
  651MPD2    C3 9636   2.793   4.156  10.833 -0.1566  0.0592 -0.1445
  651MPD2    C4 9637   2.823   4.030  10.780  0.1712 -0.4971  0.6164
  651MPD2    C5 9638   2.727   3.966  10.704 -0.3942  0.3723 -0.1738
  651MPD2     H 9639   2.652   4.304  10.849 -1.1027 -0.5404  0.0340
  651MPD2    H1 9640   2.918   3.979  10.794 -0.3049 -0.7887  2.6331
  651MPD2    H2 9641   2.519   3.963  10.636  1.4548 -3.0866  1.6137
  651MPD2    H3 9642   2.750   3.869  10.662 -0.1468  0.9110 -1.2829
  651MPD2     N 9643   2.889   4.238  10.894 -0.2592 -0.0299  0.6187
  651MPD2    H5 9644   2.867   4.328  10.935  0.3166  1.3980 -2.2023
  651MPD2    N1 9645   2.447   4.202  10.722  0.3185 -0.3368 -0.4201
  651MPD2    H7 9646   2.449   4.292  10.769 -0.6898  0.0726 -1.1677
  652TMC3    C1 9647   3.329   4.386  10.890  0.2642 -0.0503  0.0039
  652TMC3    C2 9648   3.244   4.286  10.923 -0.1121  0.4572 -0.6194
  652TMC3    C3 9649   3.109   4.309  10.937  0.4040  0.1816  0.8431
  652TMC3    C4 9650   3.279   4.510  10.885 -0.2869 -0.5276  0.4623
  652TMC3    C5 9651   3.145   4.537  10.896 -0.3715  0.7105  0.4546
  652TMC3    C6 9652   3.056   4.435  10.928  0.1787 -0.7816 -0.2892
  652TMC3     C 9653   3.465   4.376  10.906  0.0905 -0.3372  0.5514
  652TMC3     O 9654   3.501   4.336  11.015 -0.4942  0.2273 -0.0348
  652TMC3     H 9655   3.278   4.183  10.927  1.4087  0.8808 -2.7344
  652TMC3    H1 9656   3.355   4.587  10.877  0.1727 -0.8948  1.2757
  652TMC3    H2 9657   2.952   4.461  10.945  0.5879 -0.6635  2.0450
  652TMC3    C7 9658   3.113   4.669  10.947  0.3692  0.2404 -0.7934
  652TMC3    C8 9659   3.025   4.204  10.903  0.4336  0.4665  0.5799
  652TMC3    O1 9660   3.018   4.672  11.025 -0.2927  0.4917 -0.2007
  652TMC3    O2 9661   3.084   4.104  10.867  0.1510  0.2244  0.2653
  653MPD2     C 9662   1.358   4.649  17.273  0.1513  0.0318  0.4743
  653MPD2    C1 9663   1.243   4.720  17.288  0.9594  0.9104  0.0441
  653MPD2    C2 9664   1.125   4.665  17.246  0.5620  0.3988  0.8506
  653MPD2    C3 9665   1.128   4.541  17.177  0.5449 -0.3308 -0.1289
  653MPD2    C4 9666   1.247   4.472  17.171 -0.0465 -0.4489  0.4447
  653MPD2    C5 9667   1.359   4.525  17.229  0.3543 -0.5980 -0.1160
  653MPD2     H 9668   1.045   0.009  17.277 -0.1577  0.4733 -1.1978
  653MPD2    H1 9669   1.255   4.374  17.126  2.2204 -0.9596  1.9268
  653MPD2    H2 9670   1.452   4.688  17.312  0.4485 -1.7312  1.5315
  653MPD2    H3 9671   1.450   4.467  17.234 -0.3355 -1.7887 -1.3751
  653MPD2     N 9672   1.006   4.494  17.122  0.4478  0.2247 -0.3502
  653MPD2    H5 9673   0.921   4.546  17.143  1.7389  3.1776 -2.4088
  653MPD2    N1 9674   1.246   0.129  17.343 -0.2744 -0.3193  0.6289
  653MPD2    H7 9675   1.166   0.173  17.388  0.4326  1.4197  0.2034
  654TMC3    C1 9676   0.853   4.328  17.030  0.6987  0.1957  0.2173
  654TMC3    C2 9677   0.750   4.427  17.019  0.2157 -0.1665  0.3193
  654TMC3    C3 9678   0.627   4.379  16.983  0.0242 -0.0350 -0.5090
  654TMC3    C4 9679   0.835   4.196  16.999  0.7166 -0.4414 -0.5371
  654TMC3    C5 9680   0.713   4.161  16.953  0.5848  0.0266  0.2732
  654TMC3    C6 9681   0.608   4.247  16.956  0.0439  0.1269  0.9553
  654TMC3     C 9682   0.994   4.367  17.060 -0.3129  0.5372 -0.0741
  654TMC3     O 9683   1.074   4.282  17.025  0.3086  0.1557  0.6599
  654TMC3     H 9684   0.770   4.533  17.037 -2.7244  0.4286  0.0818
  654TMC3    H1 9685   0.910   4.120  16.980  2.4728  0.7540  1.7844
  654TMC3    H2 9686   0.512   4.204  16.931  0.8357 -1.7924  1.2570
  654TMC3    C7 9687   0.694   4.020  16.924  0.1362 -0.3871  0.0138
  654TMC3    C8 9688   0.515   4.470  16.961  0.5546  0.3690 -0.1669
  654TMC3    O1 9689   0.631   4.001  16.826  0.2013 -0.1620 -0.7725
  654TMC3    O2 9690   0.512   4.581  17.012 -0.5281 -0.2516  0.2763
  655MPD2     C 9691   2.126   0.199  15.314 -1.0892  0.1753  0.1070
  655MPD2    C1 9692   1.986   0.200  15.327  0.1585  0.0702 -0.1079
  655MPD2    C2 9693   1.911   0.086  15.297 -0.5453  0.0019 -0.6390
  655MPD2    C3 9694   1.978   4.694  15.265 -0.0209 -0.2198 -0.5450
  655MPD2    C4 9695   2.112   4.696  15.247  0.2966  0.0236  0.1841
  655MPD2    C5 9696   2.186   0.083  15.273 -0.1414 -0.2200 -0.5663
  655MPD2     H 9697   1.803   0.086  15.302 -0.5456 -0.9314 -0.6090
  655MPD2    H1 9698   2.170   4.607  15.226  2.0248  1.7074 -2.2098
  655MPD2    H2 9699   2.187   0.287  15.329 -0.1187 -0.2522 -1.3754
  655MPD2    H3 9700   2.294   0.072  15.262  0.0487  0.3955  0.7163
  655MPD2     N 9701   1.927   4.564  15.251  0.5348  0.2545 -0.2918
  655MPD2    H5 9702   1.992   4.497  15.213  0.7579  0.3069  0.0036
  655MPD2    N1 9703   1.915   0.317  15.369 -0.8791 -0.1176 -0.0702
  655MPD2    H7 9704   1.816   0.311  15.346 -1.1798 -0.8262  1.4236
  656TMC3    C1 9705   1.880   0.505  15.514  0.2857  0.1403 -0.0714
  656TMC3    C2 9706   1.908   0.549  15.641  0.4095  0.8278 -0.2193
  656TMC3    C3 9707   1.822   0.629  15.707  0.0943  0.0099 -0.4055
  656TMC3    C4 9708   1.764   0.545  15.458  0.0037  0.2637  0.6800
  656TMC3    C5 9709   1.681   0.626  15.530 -0.2818  0.1020  0.1989
  656TMC3    C6 9710   1.708   0.676  15.654  0.1781  0.1708  0.2928
  656TMC3     C 9711   1.974   0.420  15.439  0.3913 -0.8088  0.3408
  656TMC3     O 9712   2.089   0.444  15.478  0.3839 -0.2546 -0.2543
  656TMC3     H 9713   2.006   0.522  15.678  1.1990  0.6169 -2.4401
  656TMC3    H1 9714   1.740   0.509  15.358  2.3792 -0.0424  0.2335
  656TMC3    H2 9715   1.639   0.740  15.708  0.2846 -1.6102  2.4931
  656TMC3    C7 9716   1.566   0.678  15.451 -0.2251 -0.2684  0.0479
  656TMC3    C8 9717   1.851   0.652  15.847  0.4684 -0.2717  0.2163
  656TMC3    O1 9718   1.575   0.674  15.329  0.4078 -0.3537  0.5758
  656TMC3    O2 9719   1.768   0.726  15.895 -0.2818 -0.6021  0.1059
  657TMC3    C1 9720   1.313   4.140  14.698 -0.8124  0.0206  0.4679
  657TMC3    C2 9721   1.193   4.202  14.684  0.0105  0.2744 -0.0803
  657TMC3    C3 9722   1.185   4.336  14.676 -0.6441 -0.7170  0.1650
  657TMC3    C4 9723   1.422   4.221  14.692 -0.1333 -0.5229 -0.0520
  657TMC3    C5 9724   1.411   4.360  14.679  0.2284 -0.6722 -0.6162
  657TMC3    C6 9725   1.291   4.423  14.669  0.1265 -0.7639  0.1069
  657TMC3     C 9726   1.321   4.001  14.681 -0.5053  0.0425  0.0162
  657TMC3     O 9727   1.230   3.942  14.625 -0.0595 -0.4042  0.5004
  657TMC3     H 9728   1.105   4.142  14.662  0.5648 -0.2848 -0.7833
  657TMC3    H1 9729   1.523   4.182  14.703  0.0462 -0.6452 -2.0384
  657TMC3    H2 9730   1.281   4.531  14.677 -0.7850 -0.8871  0.5858
  657TMC3    C7 9731   1.536   4.426  14.645 -0.7053  0.1342 -0.4540
  657TMC3    C8 9732   1.056   4.405  14.681 -0.5808 -0.1432 -0.3497
  657TMC3    O1 9733   1.640   4.382  14.692  0.6143 -0.6618  0.1593
  657TMC3    O2 9734   1.060   4.525  14.663  0.6171 -0.1689  0.4589
  658MPD2     C 9735   2.292   4.018  15.127  0.2689 -0.2578 -0.1510
  658MPD2    C1 9736   2.198   4.065  15.039 -0.7843 -0.6235 -0.1540
  658MPD2    C2 9737   2.208   4.049  14.904  0.1496  0.4862 -0.2997
  658MPD2    C3 9738   2.323   3.992  14.858  0.1971 -0.8089  0.2404
  658MPD2    C4 9739   2.424   3.951  14.946  0.1489  0.0477 -0.3568
  658MPD2    C5 9740   2.411   3.969  15.082 -1.0217 -0.4399 -0.2610
  658MPD2     H 9741   2.132   4.083  14.834  0.5001  1.0257 -0.4114
  658MPD2    H1 9742   2.519   3.908  14.915 -1.1853 -4.0528  1.2321
  658MPD2    H2 9743   2.273   4.036  15.232  1.2684 -0.0089 -0.0097
  658MPD2    H3 9744   2.487   3.948  15.157 -0.7976  1.6436  0.1096
  658MPD2     N 9745   2.342   3.996  14.718  0.5613 -0.3284 -0.1283
  658MPD2    H5 9746   2.260   4.044  14.683 -0.3269 -0.6614  1.5109
  658MPD2    N1 9747   2.084   4.121  15.095  0.3421 -0.2576  0.2614
  658MPD2    H7 9748   2.083   4.146  15.193 -0.5172  0.5773  0.0372
  659TMC3    C1 9749   1.857   4.197  15.107 -0.4036 -0.1761 -0.4254
  659TMC3    C2 9750   1.883   4.312  15.177 -0.6197  0.4869  0.4091
  659TMC3    C3 9751   1.774   4.386  15.222  0.5243 -0.7107 -0.4891
  659TMC3    C4 9752   1.728   4.157  15.070  0.5282 -0.7420 -0.3502
  659TMC3    C5 9753   1.625   4.246  15.102 -0.7582  0.1585  0.3852
  659TMC3    C6 9754   1.642   4.355  15.180 -0.5948 -0.2220  0.0063
  659TMC3     C 9755   1.964   4.144  15.023  0.4152 -0.3217  0.1405
  659TMC3     O 9756   1.926   4.099  14.914  0.3718  0.1444  0.3916
  659TMC3     H 9757   1.980   4.332  15.222 -0.1341  1.3524 -1.0314
  659TMC3    H1 9758   1.704   4.065  15.018 -0.4704 -2.0744  2.4840
  659TMC3    H2 9759   1.557   4.406  15.224  0.7276  1.1789  0.9404
  659TMC3    C7 9760   1.486   4.206  15.086 -0.6137  0.1777 -0.6051
  659TMC3    C8 9761   1.795   4.521  15.272  0.0832  0.0749  0.0856
  659TMC3    O1 9762   1.444   4.095  15.087  0.3420  0.0953  1.1326
  659TMC3    O2 9763   1.691   4.586  15.294 -0.6903 -0.3661 -0.3158
  660MPD2     C 9764   0.355   2.413  12.369 -0.4840  0.3311  0.4600
  660MPD2    C1 9765   0.427   2.506  12.436 -0.6877 -0.5813 -0.2784
  660MPD2    C2 9766   0.386   2.543  12.565 -0.3246 -0.1874 -0.1774
  660MPD2    C3 9767   0.286   2.471  12.634 -0.7128 -0.4396  0.2730
  660MPD2    C4 9768   0.221   2.369  12.569  0.0329  0.0820  0.2208
  660MPD2    C5 9769   0.253   2.342  12.441 -0.1299  0.7310  0.6035
  660MPD2     H 9770   0.427   2.626  12.622  0.0371  0.5817 -1.5737
  660MPD2    H1 9771   0.147   2.306  12.616  2.2583 -0.3281  3.2491
  660MPD2    H2 9772   0.377   2.385  12.267  4.5845  1.4875  1.1988
  660MPD2    H3 9773   0.194   2.262  12.396  2.4988  0.6559 -2.7015
  660MPD2     N 9774   0.240   2.501  12.764  0.5014  0.3736 -0.1664
  660MPD2    H5 9775   0.169   2.436  12.795  1.1473  0.1194  0.7743
  660MPD2    N1 9776   0.530   2.577  12.363 -0.5106  0.1792 -0.1399
  660MPD2    H7 9777   0.521   2.581  12.262 -0.3642 -1.5396 -0.2203
  661TMC3    C1 9778   0.644   2.781  12.346  0.1069  0.8079 -0.6987
  661TMC3    C2 9779   0.659   2.761  12.213  0.6694 -0.7925 -0.1814
  661TMC3    C3 9780   0.700   2.877  12.141  0.2171  0.9390 -0.0109
  661TMC3    C4 9781   0.649   2.907  12.411 -0.6577 -0.3398  0.3837
  661TMC3    C5 9782   0.664   3.014  12.329 -0.2186 -0.2252  0.6072
  661TMC3    C6 9783   0.692   3.006  12.195  0.3616 -0.2400 -0.3892
  661TMC3     C 9784   0.591   2.679  12.430 -0.1949  0.2709 -0.1632
  661TMC3     O 9785   0.620   2.682  12.550  0.1841 -0.4428 -0.7148
  661TMC3     H 9786   0.687   2.663  12.176  0.9712 -1.3448  1.4888
  661TMC3    H1 9787   0.615   2.913  12.514  2.3034  0.7610  1.2919
  661TMC3    H2 9788   0.723   3.094  12.141  1.0751 -0.3440 -0.1458
  661TMC3    C7 9789   0.558   3.107  12.346 -0.1206 -0.1607 -0.3303
  661TMC3    C8 9790   0.729   2.879  11.997  0.1667  0.3830 -0.1534
  661TMC3    O1 9791   0.518   3.134  12.460  0.5691 -0.3467 -0.6093
  661TMC3    O2 9792   0.797   2.973  11.959 -0.0331  0.0977  0.5469
  662MPD2     C 9793   0.854   3.133  16.896  0.0602  0.0573 -0.6165
  662MPD2    C1 9794   0.781   3.126  17.013 -0.3799 -0.2647  0.4392
  662MPD2    C2 9795   0.667   3.205  17.021 -0.0386 -0.2480  0.3243
  662MPD2    C3 9796   0.616   3.277  16.909 -0.2012  0.4972 -0.1159
  662MPD2    C4 9797   0.685   3.272  16.789 -0.5131  0.6473  0.3377
  662MPD2    C5 9798   0.811   3.208  16.789 -0.1020  0.2774  0.4118
  662MPD2     H 9799   0.613   3.209  17.114 -0.7557  1.0232 -0.1433
  662MPD2    H1 9800   0.649   3.330  16.704 -0.4828 -1.6491 -1.2440
  662MPD2    H2 9801   0.956   3.096  16.894 -0.4445 -1.4173  0.8037
  662MPD2    H3 9802   0.867   3.215  16.697  1.0431  1.6555  1.2383
  662MPD2     N 9803   0.502   3.350  16.915 -0.1632  0.4348 -0.1600
  662MPD2    H5 9804   0.449   3.379  16.834 -0.1013  0.5252 -0.1687
  662MPD2    N1 9805   0.823   3.041  17.118  0.2815  0.8927  0.4862
  662MPD2    H7 9806   0.776   3.054  17.207  0.9552  3.3854  0.4736
  663TMC3    C1 9807   0.918   2.866  17.231 -0.1753  0.2362  0.1373
  663TMC3    C2 9808   0.843   2.915  17.334  0.9630 -0.1246  0.5628
  663TMC3    C3 9809   0.786   2.830  17.426  0.7657  0.1115 -0.4129
  663TMC3    C4 9810   0.923   2.732  17.204 -0.0089  0.3193 -0.1770
  663TMC3    C5 9811   0.853   2.649  17.294  0.0376  0.9525 -0.3892
  663TMC3    C6 9812   0.777   2.695  17.393 -0.4673 -0.3943  0.4506
  663TMC3     C 9813   0.915   2.941  17.114  0.5310 -0.4170 -0.7513
  663TMC3     O 9814   0.970   2.893  17.020  0.1216 -0.1002  0.2382
  663TMC3     H 9815   0.872   3.014  17.366  0.3834  0.3154 -0.2859
  663TMC3    H1 9816   0.982   2.683  17.128  1.1711  0.4741  0.6433
  663TMC3    H2 9817   0.737   2.632  17.471  0.2659  3.0626  3.6001
  663TMC3    C7 9818   0.857   2.507  17.274  0.7071  0.0401  0.1593
  663TMC3    C8 9819   0.838   2.851  17.558  0.2570 -0.4275  0.2961
  663TMC3    O1 9820   0.959   2.467  17.218 -0.1151 -0.0544  0.2236
  663TMC3    O2 9821   0.892   2.751  17.605 -0.7068 -0.0933  1.4320
  664MPD2     C 9822   3.603   0.907  17.641 -0.1553  0.5158 -0.0379
  664MPD2    C1 9823   3.594   1.044  17.630 -0.1831  0.1638 -0.2438
  664MPD2    C2 9824   3.679   1.116   0.012  0.5277 -0.3826 -0.0176
  664MPD2    C3 9825   3.767   1.065   0.093 -0.0231 -0.4813 -0.0264
  664MPD2    C4 9826   3.774   0.929   0.105  0.8840  0.0309  0.4018
  664MPD2    C5 9827   3.692   0.852   0.033 -0.3579 -0.3433  0.1943
  664MPD2     H 9828   3.683   1.224   0.006  0.9678 -0.4505 -0.8733
  664MPD2    H1 9829   3.848   0.881   0.168  1.1193  0.6862  0.6167
  664MPD2    H2 9830   3.535   0.839  17.590 -3.2870  4.0530 -0.6017
  664MPD2    H3 9831   3.702   0.744   0.027 -1.7037 -0.3923 -1.1937
  664MPD2     N 9832   3.838   1.140   0.189 -0.3708  0.0530  0.5643
  664MPD2    H5 9833   3.831   1.241   0.186 -0.0129  0.0121 -1.6139
  664MPD2    N1 9834   3.507   1.110  17.538  0.1121  0.5084 -0.9134
  664MPD2    H7 9835   3.497   1.210  17.552  2.7843  0.7186 -0.4051
  665TMC3    C1 9836   4.008   1.221   0.326  0.2719  0.3826  0.0408
  665TMC3    C2 9837   4.100   1.192   0.426  0.4058 -0.2952  0.1755
  665TMC3    C3 9838   4.146   1.296   0.498  0.3259 -0.1821  0.8130
  665TMC3    C4 9839   3.955   1.350   0.318  0.1553 -0.2395 -0.0903
  665TMC3    C5 9840   4.013   1.452   0.390  0.2111  0.4345 -0.5323
  665TMC3    C6 9841   4.104   1.428   0.489  0.2011 -0.7091  0.1203
  665TMC3     C 9842   3.947   1.107   0.267 -0.1413 -0.8659 -0.3375
  665TMC3     O 9843   4.004   0.997   0.274 -1.0514 -0.1388  0.4711
  665TMC3     H 9844   4.135   1.090   0.440 -0.0517 -0.6030 -0.9833
  665TMC3    H1 9845   3.911   1.376   0.222  0.2619  1.7959  0.4035
  665TMC3    H2 9846   4.146   1.511   0.545 -0.4981 -0.9516  1.0069
  665TMC3    C7 9847   3.929   1.574   0.394  0.0119  0.0200  0.9241
  665TMC3    C8 9848   4.215   1.276   0.623 -0.1651 -0.2088  0.2298
  665TMC3    O1 9849   3.817   1.568   0.347  0.2777  0.1103 -0.4682
  665TMC3    O2 9850   4.193   1.363   0.709 -0.6409  0.5614 -0.0845
  666TMC3    C1 9851   3.248   0.769  10.005  0.2936  0.0293  0.0084
  666TMC3    C2 9852   3.375   0.775  10.050  0.2204  0.4864 -0.3021
  666TMC3    C3 9853   3.463   0.826   9.965  0.9394 -0.1277  0.6292
  666TMC3    C4 9854   3.204   0.815   9.884  0.5476  0.1948  0.1102
  666TMC3    C5 9855   3.295   0.886   9.809 -0.6003  0.0109  0.2429
  666TMC3    C6 9856   3.425   0.873   9.842  0.3046  0.0619  0.8699
  666TMC3     C 9857   3.156   0.707  10.092  1.0854  0.0227  0.1929
  666TMC3     O 9858   3.202   0.642  10.180  0.2237 -0.0425  0.1640
  666TMC3     H 9859   3.404   0.752  10.152  3.0273 -0.6459 -1.3549
  666TMC3    H1 9860   3.099   0.822   9.861  0.2694 -0.9883  1.0417
  666TMC3    H2 9861   3.501   0.915   9.776 -0.1559 -2.5072 -1.3154
  666TMC3    C7 9862   3.244   1.021   9.783 -0.0817 -0.8992 -0.0106
  666TMC3    C8 9863   3.582   0.884  10.025  0.5354  0.5555 -0.4435
  666TMC3    O1 9864   3.130   1.050   9.755  0.1438 -0.0224 -0.1144
  666TMC3    O2 9865   3.607   0.995   9.978 -0.0888 -0.2064  0.2260
  667MPD2     C 9866   0.016   1.613  15.136  0.1898  0.1043 -0.6583
  667MPD2    C1 9867   4.611   1.636  15.184 -0.3953 -0.1785  0.0709
  667MPD2    C2 9868   4.526   1.528  15.190  0.0169  0.8227 -0.2024
  667MPD2    C3 9869   4.559   1.400  15.138  0.1895 -0.0177 -0.2921
  667MPD2    C4 9870   4.680   1.386  15.076  0.3744  0.6534 -0.5793
  667MPD2    C5 9871   0.052   1.493  15.075 -1.4585 -0.1749 -0.1236
  667MPD2     H 9872   4.428   1.553  15.228  0.0111 -0.7239  0.7883
  667MPD2    H1 9873   4.710   1.296  15.022 -0.7742 -2.9514  4.8382
  667MPD2    H2 9874   0.087   1.695  15.140 -0.5595  0.6770  0.5295
  667MPD2    H3 9875   0.146   1.482  15.021 -1.4627  0.3599 -0.2453
  667MPD2     N 9876   4.460   1.299  15.124  0.2720  0.8367 -0.1575
  667MPD2    H5 9877   4.485   1.237  15.047  1.8528  1.1781  0.0856
  667MPD2    N1 9878   4.562   1.762  15.216 -0.6215  0.1373  0.0956
  667MPD2    H7 9879   4.471   1.770  15.261 -0.9394 -0.8410 -0.3621
  668TMC3    C1 9880   4.559   2.003  15.216  0.5456  0.0627 -0.3621
  668TMC3    C2 9881   4.580   2.112  15.137 -0.3021 -0.0326 -0.2199
  668TMC3    C3 9882   4.571   2.234  15.192 -0.0851  0.0679  0.4648
  668TMC3    C4 9883   4.521   2.019  15.351  0.2224 -0.3146  0.1064
  668TMC3    C5 9884   4.510   2.149  15.394 -0.2526 -0.9236 -0.7521
  668TMC3    C6 9885   4.535   2.257  15.320 -0.9090  0.2200 -0.2492
  668TMC3     C 9886   4.620   1.878  15.178 -0.3057 -0.2795 -0.6690
  668TMC3     O 9887   4.717   1.891  15.101 -0.3426  0.3109  0.4666
  668TMC3     H 9888   4.618   2.093  15.037 -1.7377  1.6837 -1.0898
  668TMC3    H1 9889   4.512   1.927  15.409 -0.4641  0.7475  1.6941
  668TMC3    H2 9890   4.529   2.359  15.356  2.0556 -0.9418  3.4779
  668TMC3    C7 9891   4.460   2.168  15.534 -0.1855 -0.2194  0.6409
  668TMC3    C8 9892   4.640   2.338  15.130 -0.3877  0.3494  0.5074
  668TMC3    O1 9893   4.463   2.283  15.579  0.5499  0.5935  0.3874
  668TMC3    O2 9894   4.618   2.451  15.174 -0.1907 -0.0995  0.1927
  669TMC3    C1 9895   2.248   1.096  14.079 -0.1902  0.5497  0.2227
  669TMC3    C2 9896   2.146   1.102  13.986  0.3650 -0.2711  0.5845
  669TMC3    C3 9897   2.146   1.193  13.892  0.2159  0.2005 -0.2141
  669TMC3    C4 9898   2.367   1.168  14.053  0.6393  0.1530 -1.0354
  669TMC3    C5 9899   2.351   1.268  13.965 -0.2744 -0.0101  0.9696
  669TMC3    C6 9900   2.250   1.285  13.876 -0.0559  0.2039  0.7324
  669TMC3     C 9901   2.228   1.020  14.201 -0.4851 -0.2490 -0.2610
  669TMC3     O 9902   2.117   0.980  14.229  0.2800  0.0517  0.1992
  669TMC3     H 9903   2.057   1.045  14.010 -2.1390  2.6890 -1.6365
  669TMC3    H1 9904   2.446   1.186  14.125  0.2601 -1.8249 -0.1326
  669TMC3    H2 9905   2.254   1.362  13.800 -1.4435  1.5581  2.0429
  669TMC3    C7 9906   2.435   1.385  13.987  0.6813  0.8637  1.2107
  669TMC3    C8 9907   2.025   1.229  13.826  0.2084 -0.1384 -0.6030
  669TMC3    O1 9908   2.527   1.410  13.909  0.3782 -0.0701 -0.6651
  669TMC3    O2 9909   2.026   1.288  13.721 -0.3294 -0.1903 -0.5838
  670MPD2     C 9910   0.686   4.267  13.351 -0.3712 -0.1642 -0.3580
  670MPD2    C1 9911   0.808   4.228  13.407 -0.3391  0.1312  0.4624
  670MPD2    C2 9912   0.817   4.132  13.503  0.0225  0.7268  0.1260
  670MPD2    C3 9913   0.701   4.076  13.559 -0.2118  0.4760 -0.5193
  670MPD2    C4 9914   0.580   4.112  13.507  0.0570  0.4545 -0.0576
  670MPD2    C5 9915   0.573   4.210  13.411  0.4775  0.1088  0.1554
  670MPD2     H 9916   0.919   4.116  13.535 -0.6500  1.4893  2.7105
  670MPD2    H1 9917   0.490   4.081  13.560  0.3306 -0.6458 -0.2398
  670MPD2    H2 9918   0.675   4.343  13.275 -0.8733  0.0907 -0.0273
  670MPD2    H3 9919   0.478   4.251  13.380  0.4988  0.0856  0.0605
  670MPD2     N 9920   0.719   3.960  13.652 -0.3891  0.0470  0.3755
  670MPD2    H5 9921   0.814   3.933  13.674 -0.2909  0.1745  0.1097
  670MPD2    N1 9922   0.925   4.295  13.371  0.0460  0.3855  0.1084
  670MPD2    H7 9923   1.003   4.278  13.434  0.2320 -0.9503 -0.4766
  671TMC3    C1 9924   0.649   3.802  13.804 -0.1574 -0.4595  0.1193
  671TMC3    C2 9925   0.778   3.810  13.860 -0.1864 -0.0653  0.2225
  671TMC3    C3 9926   0.823   3.706  13.934  0.8186  0.3609 -0.0663
  671TMC3    C4 9927   0.581   3.682  13.807  0.5175 -0.0496  0.2032
  671TMC3    C5 9928   0.639   3.574  13.873  0.2265 -0.3597  0.0179
  671TMC3    C6 9929   0.762   3.584  13.936 -1.1616 -0.6973 -0.5519
  671TMC3     C 9930   0.615   3.882  13.696  0.0353  0.5848  0.1236
  671TMC3     O 9931   0.502   3.870  13.656 -0.6346 -1.0034  1.1742
  671TMC3     H 9932   0.847   3.893  13.848 -1.3396  0.7499 -0.7881
  671TMC3    H1 9933   0.496   3.671  13.741  0.8333 -1.1394 -0.0240
  671TMC3    H2 9934   0.797   3.502  13.998  1.0540  0.0198 -0.8329
  671TMC3    C7 9935   0.587   3.452  13.833  0.1091 -1.0281  0.4639
  671TMC3    C8 9936   0.970   3.697  13.927 -0.5214 -0.1862  0.0086
  671TMC3    O1 9937   0.516   3.443  13.735  0.6735  0.3557  0.6499
  671TMC3    O2 9938   1.022   3.710  13.817 -0.0468 -0.3259  0.1102
  672MPD2     C 9939   1.093   4.067   0.982  0.6887 -0.9649  0.2254
  672MPD2    C1 9940   1.216   4.119   1.002  0.2033 -0.2255  1.0184
  672MPD2    C2 9941   1.244   4.171   1.124  0.7114  0.1748 -1.2307
  672MPD2    C3 9942   1.149   4.153   1.230 -0.1229 -0.3494  0.2988
  672MPD2    C4 9943   1.025   4.100   1.204 -0.0033 -0.2971 -0.0198
  672MPD2    C5 9944   0.999   4.055   1.083  0.0398  0.1202  0.1911
  672MPD2     H 9945   1.339   4.222   1.134  1.0407 -0.3232 -1.7944
  672MPD2    H1 9946   0.947   4.073   1.274  0.1599  1.7342  0.9440
  672MPD2    H2 9947   1.067   4.031   0.883 -2.9790 -0.6781  1.0926
  672MPD2    H3 9948   0.907   4.006   1.053  0.1921  1.5056 -2.5877
  672MPD2     N 9949   1.164   4.208   1.363 -0.8504 -0.4237 -0.1681
  672MPD2    H5 9950   1.085   4.223   1.425 -0.5162  1.4692 -0.1998
  672MPD2    N1 9951   1.314   4.130   0.895 -0.0792 -0.3070 -0.7155
  672MPD2    H7 9952   1.411   4.154   0.915 -0.0128 -0.1591 -1.1959
  673TMC3    C1 9953   1.394   4.136   0.661  0.5436  0.2649  1.2736
  673TMC3    C2 9954   1.522   4.090   0.699  0.4167  0.8638  0.3077
  673TMC3    C3 9955   1.623   4.108   0.612 -0.5670 -0.2945  0.9266
  673TMC3    C4 9956   1.360   4.182   0.539  0.1977 -0.1429 -0.0918
  673TMC3    C5 9957   1.465   4.192   0.450 -0.8557 -0.1040 -0.3544
  673TMC3    C6 9958   1.591   4.157   0.489 -0.0034  0.3407 -0.4988
  673TMC3     C 9959   1.281   4.122   0.762  0.1583 -0.0758  0.5506
  673TMC3     O 9960   1.168   4.134   0.711 -0.4680 -0.6763  0.1714
  673TMC3     H 9961   1.545   4.034   0.789  0.8801  0.8495  0.1799
  673TMC3    H1 9962   1.261   4.176   0.497 -0.2951  1.0077  0.8852
  673TMC3    H2 9963   1.675   4.187   0.428 -0.0376 -0.1137 -0.7660
  673TMC3    C7 9964   1.440   4.204   0.303  0.0500 -0.4253  0.2422
  673TMC3    C8 9965   1.742   4.024   0.619 -0.1789  0.2125 -0.5467
  673TMC3    O1 9966   1.535   4.176   0.233  0.1609 -0.0930 -0.6465
  673TMC3    O2 9967   1.789   4.012   0.507 -0.8952 -0.7330 -0.3850
  674MPD2     C 9968   1.257   4.122  17.455 -0.0457  0.1865  0.3859
  674MPD2    C1 9969   1.219   4.073  17.578 -0.0881 -0.6480  0.7957
  674MPD2    C2 9970   1.096   4.105  17.625  0.6856 -0.1686  0.2118
  674MPD2    C3 9971   0.999   4.172  17.544  0.6872  0.3300  0.3590
  674MPD2    C4 9972   1.043   4.218  17.422 -0.3399  0.1720 -0.0509
  674MPD2    C5 9973   1.170   4.196  17.381 -0.2422 -0.4299 -1.1033
  674MPD2     H 9974   1.063   4.076   0.031  0.0505  0.2745  0.1293
  674MPD2    H1 9975   0.990   4.288  17.358 -1.4294 -0.0436  0.6169
  674MPD2    H2 9976   1.349   4.091  17.407 -1.5485 -0.8093 -1.8647
  674MPD2    H3 9977   1.199   4.232  17.283  1.3716 -1.0982 -0.8797
  674MPD2     N 9978   0.869   4.198  17.601 -0.0155  0.6123  0.1875
  674MPD2    H5 9979   0.858   4.179   0.008 -1.3683 -0.0885 -0.1013
  674MPD2    N1 9980   1.313   3.992  17.636 -0.2027  0.2183  0.1682
  674MPD2    H7 9981   1.400   3.976  17.586 -0.2821 -0.1626  0.1492
  675TMC3    C1 9982   1.404   3.847   0.105  0.2410  0.1018  0.4203
  675TMC3    C2 9983   1.389   3.798   0.225 -0.0771  0.8966  0.6955
  675TMC3    C3 9984   1.486   3.797   0.316  0.3166  0.3352  0.0665
  675TMC3    C4 9985   1.530   3.886   0.059  0.3135 -0.1647 -0.0376
  675TMC3    C5 9986   1.625   3.895   0.155 -0.6961  0.5004 -0.7573
  675TMC3    C6 9987   1.607   3.855   0.289  0.3463 -0.4849 -0.0550
  675TMC3     C 9988   1.285   3.914   0.048 -0.7368 -0.2236  0.4761
  675TMC3     O 9989   1.185   3.910   0.119 -0.7507  0.4464 -0.3099
  675TMC3     H 9990   1.289   3.770   0.256 -0.0080 -0.8168 -0.5954
  675TMC3    H1 9991   1.548   3.917  17.649 -0.0900  1.4034  0.3701
  675TMC3    H2 9992   1.676   3.868   0.372  0.7131 -1.7558 -0.1586
  675TMC3    C7 9993   1.753   3.925   0.099 -0.0841  0.6639 -0.2066
  675TMC3    C8 9994   1.438   3.804   0.450  0.0445  0.5708 -0.1425
  675TMC3    O1 9995   1.773   3.908  17.672  0.4125 -0.1383  0.0166
  675TMC3    O2 9996   1.336   3.875   0.462  0.4584 -0.4333 -0.1417
  676MPD2     C 9997   3.807   2.192  11.242  0.2609  0.0507  0.1027
  676MPD2    C1 9998   3.682   2.137  11.250 -0.1400 -0.3303  0.1660
  676MPD2    C2 9999   3.665   2.007  11.196 -0.3870  0.6977  0.0710
  676MPD2    C310000   3.766   1.935  11.133  0.0421  0.1454 -1.0421
  676MPD2    C410001   3.894   1.994  11.136  0.9607  0.2034  0.3101
  676MPD2    C510002   3.912   2.118  11.191 -0.5865  0.6019  0.7679
  676MPD2     H10003   3.563   1.971  11.190 -0.6723  1.5649 -0.2415
  676MPD2    H110004   3.974   1.941  11.087 -0.0581  0.5329 -1.7137
  676MPD2    H210005   3.827   2.292  11.277  1.2836  0.3158 -1.2407
  676MPD2    H310006   4.012   2.160  11.188  0.1371 -1.0501  1.6002
  676MPD2     N10007   3.763   1.807  11.076  0.4108  0.5510  0.0933
  676MPD2    H510008   3.856   1.767  11.061 -1.1696 -3.4973  1.0413
  676MPD2    N110009   3.569   2.199  11.310  0.2525  0.2161 -0.1624
  676MPD2    H710010   3.487   2.140  11.314 -1.1952  2.4110  3.3707
  677TMC3    C110011   3.471   2.359  11.457  0.0223 -0.3783 -0.1191
  677TMC3    C210012   3.394   2.256  11.500 -0.1553  0.4267 -0.6371
  677TMC3    C310013   3.334   2.270  11.619  0.5722 -0.6459  0.0719
  677TMC3    C410014   3.470   2.478  11.525 -0.2366  0.4373 -0.1796
  677TMC3    C510015   3.398   2.495  11.639  0.0286  0.3720 -0.2279
  677TMC3    C610016   3.338   2.387  11.697  0.1250  0.1121  0.5498
  677TMC3     C10017   3.574   2.329  11.354 -0.6309 -0.0363  0.2162
  677TMC3     O10018   3.655   2.417  11.328 -0.2282  0.0727 -0.2737
  677TMC3     H10019   3.399   2.155  11.461  1.2236 -0.1797  1.1280
  677TMC3    H110020   3.517   2.562  11.475  0.8118 -0.9169 -1.4779
  677TMC3    H210021   3.287   2.398  11.792 -1.4311  0.5873 -0.3298
  677TMC3    C710022   3.419   2.613  11.717 -0.3319  0.8106  0.1783
  677TMC3    C810023   3.239   2.165  11.652  0.2736  0.3597  0.1682
  677TMC3    O110024   3.338   2.642  11.804 -0.2929 -0.8330 -0.0138
  677TMC3    O210025   3.147   2.138  11.582  0.3752 -0.2443 -0.2918
  678MPD2     C10026   0.143   3.066   1.207  0.2214 -0.2540 -0.5360
  678MPD2    C110027   0.177   3.009   1.087 -0.1098  0.1867  0.1004
  678MPD2    C210028   0.092   2.923   1.021 -0.3956 -0.1620  0.3726
  678MPD2    C310029   4.696   2.888   1.084  0.7141 -0.0552 -1.0891
  678MPD2    C410030   4.672   2.926   1.215  0.1794 -0.1951  0.1066
  678MPD2    C510031   0.028   3.030   1.272 -0.1353  0.2385 -0.8358
  678MPD2     H10032   0.124   2.878   0.928 -1.4138  0.3538 -0.2167
  678MPD2    H110033   4.584   2.903   1.274 -0.6204 -1.0797 -1.4582
  678MPD2    H210034   0.202   3.142   1.257  0.1766 -1.2686  1.0365
  678MPD2    H310035   4.719   3.076   1.365  2.5465  0.6870 -0.1275
  678MPD2     N10036   4.598   2.808   1.018  0.5118 -0.4899  0.0463
  678MPD2    H510037   4.597   2.820   0.917  0.4310  0.4154  0.1596
  678MPD2    N110038   0.306   3.023   1.034  0.2198 -0.4423  0.1495
  678MPD2    H710039   0.340   2.973   0.952  2.4617  0.3576  0.5859
  679TMC3    C110040   0.718   3.002   0.940  0.4419 -0.1076  0.4895
  679TMC3    C210041   0.587   2.992   0.979 -0.0724 -0.2150  0.2059
  679TMC3    C310042   0.520   3.112   1.002 -0.5677  0.0317 -0.5137
  679TMC3    C410043   0.781   3.121   0.933  0.2227 -0.2229  0.0776
  679TMC3    C510044   0.721   3.235   0.966 -0.7885  0.0968 -0.3761
  679TMC3    C610045   0.587   3.230   1.002  0.2178  0.1437 -0.2049
  679TMC3     C10046   0.795   2.890   0.895 -0.5361  0.0077  0.1361
  679TMC3     O10047   0.758   2.782   0.932  0.0844  0.6086 -0.3392
  679TMC3     H10048   0.544   2.894   0.992 -0.7531  0.0051 -0.3868
  679TMC3    H110049   0.889   3.125   0.927  0.1550  1.2581 -0.1088
  679TMC3    H210050   0.539   3.327   1.008 -0.8514 -0.3715 -0.4212
  679TMC3    C710051   0.785   3.367   0.940  0.1864  0.1923  0.0594
  679TMC3    C810052   0.399   3.123   1.078  0.5443  0.1696  0.1855
  679TMC3    O110053   0.888   3.365   0.866 -0.4881  0.5045 -0.7692
  679TMC3    O210054   0.366   3.221   1.133 -0.0069 -0.2327  0.1382
  680MPD2     C10055   4.649   0.998  13.532  0.2847 -0.1630 -0.1201
  680MPD2    C110056   0.016   1.019  13.639  0.3060  0.4357 -0.1592
  680MPD2    C210057   0.066   1.143  13.662  0.1357  0.3297  0.4881
  680MPD2    C310058   0.048   1.247  13.578  0.1161 -0.3975  0.0671
  680MPD2    C410059   4.689   1.225  13.470 -0.3968 -0.2225  0.8131
  680MPD2    C510060   4.622   1.107  13.453  0.1078  0.0089 -0.0851
  680MPD2     H10061   0.127   1.154  13.751 -2.2399 -0.6692  2.2599
  680MPD2    H110062   4.664   1.303  13.398  0.7296 -0.8200 -0.2245
  680MPD2    H210063   4.597   0.903  13.521  0.2668  0.1390 -2.6042
  680MPD2    H310064   4.546   1.105  13.376 -0.8384  1.2731  0.8122
  680MPD2     N10065   0.118   1.369  13.591  0.2553 -0.2812 -0.3887
  680MPD2    H510066   0.122   1.426  13.507  2.8453 -0.0541 -0.1026
  680MPD2    N110067   0.057   0.913  13.731 -0.0856 -0.4438  0.8273
  680MPD2    H710068   0.140   0.933  13.786 -0.3593 -2.5360  2.0172
  681TMC3    C110069   0.072   0.711  13.831  0.3017 -0.0085 -0.1560
  681TMC3    C210070   0.075   0.780  13.951 -0.2420  0.2527 -0.1520
  681TMC3    C310071   0.178   0.762  14.040  0.2653  0.2834  0.2401
  681TMC3    C410072   0.175   0.631  13.796  0.5226  0.5115 -1.0670
  681TMC3    C510073   0.276   0.611  13.892  0.5895  0.3844  0.7614
  681TMC3    C610074   0.279   0.678  14.010 -0.1685  0.1787 -0.4122
  681TMC3     C10075   0.014   0.787  13.726 -0.7726  0.5980  0.0472
  681TMC3     O10076   4.664   0.729  13.651  0.0308 -0.5330  0.6771
  681TMC3     H10077   4.711   0.836  13.983 -1.1262 -0.5467 -1.1262
  681TMC3    H110078   0.172   0.591  13.695 -0.7193 -1.2252 -0.3387
  681TMC3    H210079   0.356   0.640  14.076 -0.4112 -1.0644 -0.8313
  681TMC3    C710080   0.398   0.551  13.852  0.0008  0.2471 -0.2305
  681TMC3    C810081   0.180   0.843  14.159 -0.0570 -0.8347 -0.1970
  681TMC3    O110082   0.475   0.520  13.942  0.1655 -0.2752  0.0915
  681TMC3    O210083   0.084   0.917  14.176  0.5521 -0.2682 -0.2249
  682MPD2     C10084   2.700   2.121  10.393 -0.1917  0.5368  0.5438
  682MPD2    C110085   2.683   1.992  10.438  0.6938  0.2138 -0.4624
  682MPD2    C210086   2.639   1.973  10.566  0.3657  0.3515 -0.2705
  682MPD2    C310087   2.613   2.081  10.646  0.0070  0.1924 -0.0999
  682MPD2    C410088   2.636   2.207  10.605 -0.1895  0.2338 -0.3946
  682MPD2    C510089   2.678   2.226  10.473 -0.0208 -0.1709  0.3234
  682MPD2     H10090   2.616   1.875  10.607  2.2064  0.0743  0.0774
  682MPD2    H110091   2.614   2.295  10.664 -1.8112 -2.1547  2.5295
  682MPD2    H210092   2.730   2.153  10.293 -1.0779  0.8452  0.3791
  682MPD2    H310093   2.686   2.325  10.429 -0.1995 -0.4645 -0.3752
  682MPD2     N10094   2.557   2.072  10.778  0.0649 -0.3476  0.7301
  682MPD2    H510095   2.523   2.156  10.823  0.8803  0.7374 -0.6876
  682MPD2    N110096   2.706   1.881  10.355  0.6057 -0.0822  0.4329
  682MPD2    H710097   2.684   1.789  10.392  0.6889  1.3136  4.0269
  683TMC3    C110098   2.471   2.089  11.170  0.3761 -0.0300 -0.2860
  683TMC3    C210099   2.402   1.985  11.231  0.0971 -0.0481  0.5820
  683TMC3    C310100   2.398   1.870  11.163 -0.2672  0.1879  0.6228
  683TMC3    C410101   2.517   2.082  11.041 -0.7651  0.3447  0.4452
  683TMC3    C510102   2.486   1.968  10.978  0.3659  0.1266 -0.1624
  683TMC3    C610103   2.432   1.862  11.035  0.5924  0.8093  0.1090
  683TMC3     C10104   2.471   2.217  11.242  0.2793  0.1912 -0.2529
  683TMC3     O10105   2.445   2.212  11.359  0.3666 -0.0836 -0.6567
  683TMC3     H10106   2.360   1.997  11.331  0.6535 -0.5874  0.8765
  683TMC3    H110107   2.565   2.170  11.000 -2.4095  0.5826 -0.9336
  683TMC3    H210108   2.430   1.767  10.983 -1.0249  0.3443  1.0024
  683TMC3    C710109   2.523   1.953  10.835 -0.2599  0.5630 -0.0903
  683TMC3    C810110   2.408   1.744  11.230 -0.4653 -0.2725 -0.5302
  683TMC3    O110111   2.528   1.838  10.787 -0.4848 -0.0053  0.5110
  683TMC3    O210112   2.471   1.652  11.177 -0.2243 -0.1656  0.2539
  684MPD2     C10113   0.741   2.120  16.428  0.3377  0.0542  0.3352
  684MPD2    C110114   0.670   2.059  16.331  0.1092  0.0820 -0.1620
  684MPD2    C210115   0.678   2.109  16.204  0.4152  0.6929 -0.1201
  684MPD2    C310116   0.775   2.199  16.173  0.0818 -0.3416 -0.5404
  684MPD2    C410117   0.852   2.262  16.273  0.6251  0.1335  0.5948
  684MPD2    C510118   0.825   2.224  16.400  0.0037  0.0671  0.0977
  684MPD2     H10119   0.616   2.063  16.128 -2.8110 -2.2366  4.3235
  684MPD2    H110120   0.926   2.340  16.257 -1.1621  1.5695 -0.7434
  684MPD2    H210121   0.729   2.099  16.533  0.9619 -1.9743 -0.0123
  684MPD2    H310122   0.880   2.261  16.485  0.3614 -1.2064  0.4171
  684MPD2     N10123   0.813   2.221  16.041 -0.1345 -0.6272 -0.4490
  684MPD2    H510124   0.899   2.274  16.034 -0.2393 -0.3559  0.3371
  684MPD2    N110125   0.592   1.942  16.347 -0.5035  0.0696  0.6600
  684MPD2    H710126   0.535   1.909  16.270 -1.5926  1.2802  0.9511
  685TMC3    C110127   0.546   1.720  16.418  0.2118  0.1654  0.4630
  685TMC3    C210128   0.417   1.712  16.374 -0.1431 -0.1029  0.1847
  685TMC3    C310129   0.376   1.605  16.299  0.1740 -0.4635  0.0459
  685TMC3    C410130   0.633   1.618  16.401 -0.3284 -0.6800 -0.4496
  685TMC3    C510131   0.591   1.520  16.314  0.7451  0.5358 -0.4872
  685TMC3    C610132   0.466   1.508  16.263 -0.1967 -0.2558  0.2120
  685TMC3     C10133   0.606   1.852  16.454  0.1019  0.1139 -0.3543
  685TMC3     O10134   0.687   1.848  16.546 -0.1615 -0.4273  0.5401
  685TMC3     H10135   0.344   1.776  16.422  0.8051  0.8113  0.4128
  685TMC3    H110136   0.732   1.629  16.445 -0.8279 -1.9457  0.9882
  685TMC3    H210137   0.432   1.425  16.202  1.4610  0.6684 -1.9481
  685TMC3    C710138   0.678   1.415  16.269 -0.2684 -0.3741 -0.4102
  685TMC3    C810139   0.242   1.551  16.305 -0.0074 -0.1314  0.0120
  685TMC3    O110140   0.632   1.315  16.226  0.1882  0.2339 -0.0554
  685TMC3    O210141   0.226   1.430  16.305 -0.1097  0.2040  0.4393
  686MPD2     C10142   2.219   1.581  14.863  0.0026 -0.0003  0.2835
  686MPD2    C110143   2.196   1.477  14.960 -0.1850 -0.2229 -0.0897
  686MPD2    C210144   2.269   1.363  14.964  0.0270  0.2751 -0.1144
  686MPD2    C310145   2.358   1.343  14.859  0.2504  0.2116  0.1606
  686MPD2    C410146   2.389   1.442  14.771  0.5703  0.0514  0.8019
  686MPD2    C510147   2.316   1.558  14.777 -0.0469 -0.1254 -0.2748
  686MPD2     H10148   2.258   1.296  15.048 -1.2969  0.4913 -0.1079
  686MPD2    H110149   2.451   1.425  14.683 -1.1645 -0.4701 -0.3319
  686MPD2    H210150   2.156   1.669  14.860 -1.7752 -1.2935 -0.5152
  686MPD2    H310151   2.323   1.635  14.701 -0.0956 -0.8518 -1.0099
  686MPD2     N10152   2.443   1.229  14.847 -0.3991  0.2416  0.6662
  686MPD2    H510153   2.515   1.233  14.775 -1.7140 -3.6801 -0.8721
  686MPD2    N110154   2.094   1.511  15.052 -0.0758  0.2390  0.3419
  686MPD2    H710155   2.076   1.611  15.051 -1.7496 -0.0567  1.1427
  687TMC3    C110156   2.340   1.072  15.010  1.0361  0.2835  0.3816
  687TMC3    C210157   2.218   1.056  14.950 -0.1179  0.2005 -0.1706
  687TMC3    C310158   2.110   1.046  15.036 -0.4895  0.3788 -0.2980
  687TMC3    C410159   2.359   1.053  15.141  0.3869 -0.2640 -0.3285
  687TMC3    C510160   2.253   1.049  15.226 -0.5456 -0.7574  0.2155
  687TMC3    C610161   2.125   1.042  15.174 -1.0504  0.7567 -0.0484
  687TMC3     C10162   2.458   1.117  14.930 -0.5758 -0.4649 -0.0820
  687TMC3     O10163   2.543   1.032  14.921  0.1483 -0.2203 -0.0332
  687TMC3     H10164   2.208   1.068  14.843  0.7502 -2.2028 -0.5222
  687TMC3    H110165   2.455   1.076  15.184 -0.2576  0.6420  0.6090
  687TMC3    H210166   2.042   1.055  15.242 -0.5849  2.4040  0.1987
  687TMC3    C710167   2.274   1.100  15.366 -0.4054  0.3244 -0.3706
  687TMC3    C810168   1.973   1.045  14.980 -0.7974  0.2691  0.0029
  687TMC3    O110169   2.183   1.175  15.415  0.4067 -0.6104 -0.0414
  687TMC3    O210170   1.967   1.007  14.862 -0.1179  0.0185  0.0707
  688MPD2     C10171   1.870   0.725  17.453 -0.7320  0.4095  0.2967
  688MPD2    C110172   1.854   0.611  17.380 -0.3505  0.2487  0.0125
  688MPD2    C210173   1.917   0.593  17.261 -0.3161  0.1334 -0.0965
  688MPD2    C310174   2.004   0.688  17.207  0.1726  0.4205 -0.2820
  688MPD2    C410175   2.021   0.804  17.285 -0.2452  0.4993 -0.2977
  688MPD2    C510176   1.951   0.819  17.401 -0.5561  0.9502  0.4365
  688MPD2     H10177   1.890   0.501  17.212  0.7280  0.5596 -1.4794
  688MPD2    H110178   2.084   0.887  17.254  0.1449  1.3742  2.8542
  688MPD2    H210179   1.822   0.753  17.547  2.1319  0.6072  1.7100
  688MPD2    H310180   1.966   0.911  17.456 -2.0736  0.1367  2.2028
  688MPD2     N10181   2.072   0.670  17.085 -0.5560  0.7175  0.0074
  688MPD2    H510182   2.133   0.747  17.059  0.2017  0.6837  1.6351
  688MPD2    N110183   1.753   0.512  17.414  0.4592 -0.5880 -0.2583
  688MPD2    H710184   1.731   0.440  17.345  0.7596  0.1796 -1.1658
  689TMC3    C110185   1.559   0.427  17.527  0.3795  0.5311  0.8224
  689TMC3    C210186   1.495   0.438  17.644 -0.8535  0.2832  0.2858
  689TMC3    C310187   1.385   0.356  17.658 -0.5058 -0.4216 -0.4737
  689TMC3    C410188   1.510   0.364  17.419 -1.0556 -0.1744 -0.6130
  689TMC3    C510189   1.392   0.299  17.432 -0.5921  0.3218  0.5503
  689TMC3    C610190   1.331   0.285  17.551  0.7393 -0.3490 -0.3338
  689TMC3     C10191   1.665   0.525  17.520  0.3748  0.1599  0.0676
  689TMC3     O10192   1.686   0.598  17.614  0.4641 -0.3888  0.7519
  689TMC3     H10193   1.529   0.499   0.035  0.3225  0.1598 -0.1036
  689TMC3    H110194   1.553   0.368  17.320  0.3676  2.0416  0.0826
  689TMC3    H210195   1.245   0.222  17.572 -0.4234  0.4966 -2.6335
  689TMC3    C710196   1.363   0.200  17.330 -0.8413  0.2991  0.0414
  689TMC3    C810197   1.323   0.341   0.101 -0.6139  0.2877  0.2703
  689TMC3    O110198   1.442   0.203  17.238  0.5109 -0.1775 -0.5677
  689TMC3    O210199   1.339   0.431   0.181  0.2220  0.0992  0.2080
  690MPD2     C10200   3.385   2.342  15.691  0.1981  0.0980  0.4732
  690MPD2    C110201   3.375   2.355  15.553 -0.2239  0.8485  0.3746
  690MPD2    C210202   3.473   2.432  15.489  0.1827 -0.6105 -0.0623
  690MPD2    C310203   3.585   2.471  15.554 -0.3086 -1.1396 -0.2404
  690MPD2    C410204   3.595   2.452  15.686  0.0475 -0.3168 -0.4809
  690MPD2    C510205   3.491   2.406  15.752  0.0994  0.7898  0.0012
  690MPD2     H10206   3.473   2.443  15.381 -0.9140 -1.5532 -0.1645
  690MPD2    H110207   3.671   2.498  15.748  0.7285 -1.5054 -0.4230
  690MPD2    H210208   3.320   2.285  15.757 -1.2050  0.2159 -0.7950
  690MPD2    H310209   3.486   2.401  15.860 -1.0286  1.5345 -0.0140
  690MPD2     N10210   3.684   2.546  15.483  0.1374  0.1505 -0.2895
  690MPD2    H510211   3.665   2.563  15.384  0.6033  0.0678 -0.3961
  690MPD2    N110212   3.273   2.284  15.484  0.6099  0.3590  0.3244
  690MPD2    H710213   3.273   2.293  15.383 -1.5864  1.5928  0.4434
  691TMC3    C110214   3.087   2.148  15.436  0.3551  0.0551 -0.2792
  691TMC3    C210215   2.976   2.086  15.489 -0.5337 -0.1678  0.4013
  691TMC3    C310216   2.913   1.987  15.417  0.0448  0.1458 -0.3047
  691TMC3    C410217   3.150   2.087  15.324  1.3559  0.1073  0.4322
  691TMC3    C510218   3.089   1.984  15.257  0.0968 -0.6410  0.2154
  691TMC3    C610219   2.966   1.930  15.303 -0.5178  0.4571  0.2109
  691TMC3     C10220   3.179   2.206  15.538  0.5976 -0.1170 -0.5769
  691TMC3     O10221   3.142   2.191  15.655  0.0506  0.5217 -0.0186
  691TMC3     H10222   2.928   2.123  15.579 -1.8299 -1.9376  0.4449
  691TMC3    H110223   3.241   2.128  15.282  0.9120  2.1278  1.4521
  691TMC3    H210224   2.917   1.839  15.270  0.9282 -1.1343  2.4840
  691TMC3    C710225   3.163   1.911  15.154 -0.5151 -0.4761 -0.9600
  691TMC3    C810226   2.792   1.936  15.473  0.7995 -0.0226  0.0326
  691TMC3    O110227   3.280   1.935  15.137 -0.2016  0.3697 -0.1534
  691TMC3    O210228   2.778   1.814  15.465  0.2196 -0.3700 -0.1159
  692TMC3    C110229   0.320   3.386  15.817 -0.2634  0.1943  0.2152
  692TMC3    C210230   0.444   3.448  15.816  0.1039  0.4718  0.3571
  692TMC3    C310231   0.554   3.362  15.807  0.0847  0.0606 -0.5369
  692TMC3    C410232   0.296   3.252  15.801 -0.0105  0.4689  0.2064
  692TMC3    C510233   0.408   3.176  15.801 -0.2764  0.3688 -0.5982
  692TMC3    C610234   0.531   3.228  15.809 -0.6010 -0.3279  0.2633
  692TMC3     C10235   0.208   3.483  15.839  0.1956 -0.5648 -0.3749
  692TMC3     O10236   0.099   3.453  15.886  0.1647 -0.2274  0.0541
  692TMC3     H10237   0.455   3.553  15.843 -1.1470  0.6992  0.0230
  692TMC3    H110238   0.196   3.211  15.810 -0.5263  1.1581 -2.2737
  692TMC3    H210239   0.612   3.158  15.795  0.8690  2.2505 -4.1379
  692TMC3    C710240   0.385   3.056  15.726 -0.4190 -0.1715 -0.3298
  692TMC3    C810241   0.663   3.384  15.898 -0.2831  0.2702 -0.1561
  692TMC3    O110242   0.272   3.045  15.685 -0.0837  0.0058 -0.2027
  692TMC3    O210243   0.741   3.290  15.900  0.7097  0.0116 -0.3823
  693MPD2     C10244   0.238   1.312  10.867 -0.1354 -0.0420 -0.2076
  693MPD2    C110245   0.192   1.204  10.794  0.3419 -0.0980  0.3666
  693MPD2    C210246   0.278   1.105  10.756 -0.3791 -0.4422  0.0269
  693MPD2    C310247   0.412   1.108  10.803  0.0219 -0.2863  0.0104
  693MPD2    C410248   0.454   1.216  10.879 -0.4762  0.1941  0.0393
  693MPD2    C510249   0.370   1.315  10.908  0.7063 -0.0312  0.2500
  693MPD2     H10250   0.247   1.015  10.704  2.4132  0.2805 -2.8294
  693MPD2    H110251   0.558   1.234  10.903 -0.5116 -1.0740  1.1702
  693MPD2    H210252   0.175   1.384  10.918  1.1722 -0.1322  1.5329
  693MPD2    H310253   0.384   1.390  10.985  1.2575  0.8503 -0.7159
  693MPD2     N10254   0.506   1.006  10.802 -0.0929 -0.1154 -0.1575
  693MPD2    H510255   0.584   1.014  10.867 -0.9845  2.5171  0.5782
  693MPD2    N110256   0.051   1.192  10.770  0.2243 -0.0193 -0.0159
  693MPD2    H710257   4.716   1.266  10.809 -0.0915 -0.9512  1.2644
  694TMC3    C110258   4.580   1.086  10.718  0.0056 -0.2963  0.3336
  694TMC3    C210259   4.511   0.983  10.652  0.4571 -0.3899  0.0977
  694TMC3    C310260   4.423   0.899  10.720  0.6384  0.6724 -0.3087
  694TMC3    C410261   4.547   1.114  10.842 -0.2004  0.0373 -0.1168
  694TMC3    C510262   4.454   1.032  10.903  1.2963 -0.1219 -0.2759
  694TMC3    C610263   4.391   0.928  10.848 -0.5082  0.0829 -0.0580
  694TMC3     C10264   4.719   1.094  10.688 -0.0832  0.0573 -0.1754
  694TMC3     O10265   0.044   1.013  10.610 -0.4187 -0.0899  0.5163
  694TMC3     H10266   4.550   0.955  10.555 -0.3821  2.0235 -0.9374
  694TMC3    H110267   4.592   1.190  10.905 -1.1218 -0.2295  0.8604
  694TMC3    H210268   4.315   0.874  10.903 -1.0241  0.8101 -0.0591
  694TMC3    C710269   4.429   1.064  11.042  0.0816  0.5420  0.6216
  694TMC3    C810270   4.340   0.809  10.642 -0.4203  0.5103 -0.0226
  694TMC3    O110271   4.450   1.181  11.076  0.2015  0.5419 -0.0774
  694TMC3    O210272   4.288   0.716  10.706 -0.2481 -0.3085  0.0160
  695MPD2     C10273   1.072   3.075  13.024  0.3613  0.8444  0.0826
  695MPD2    C110274   1.056   3.067  13.166 -0.8544 -0.8678  0.0185
  695MPD2    C210275   0.936   3.028  13.220 -0.1605  0.1090 -0.0450
  695MPD2    C310276   0.824   3.002  13.128  0.2495 -0.3256  0.4831
  695MPD2    C410277   0.841   3.006  12.990  0.1169  0.3395 -0.4183
  695MPD2    C510278   0.961   3.050  12.945 -0.0289  0.3873 -1.1502
  695MPD2     H10279   0.926   3.020  13.328  1.0926 -0.1737  0.0446
  695MPD2    H110280   0.759   2.993  12.920 -0.9472 -1.3719  1.1428
  695MPD2    H210281   1.169   3.088  12.977  1.4280 -1.0854  1.7256
  695MPD2    H310282   0.969   3.059  12.837 -1.0674  1.4538 -1.1310
  695MPD2     N10283   0.697   2.983  13.195 -0.0438  0.0653 -0.0388
  695MPD2    H510284   0.696   3.005  13.294 -1.8780  1.2334 -0.3189
  695MPD2    N110285   1.155   3.082  13.263 -0.1488  0.0631 -0.7024
  695MPD2    H710286   1.128   3.070  13.361  1.8188  1.3234 -0.0092
  696TMC3    C110287   0.472   2.955  13.237 -0.7688 -0.7251 -0.3889
  696TMC3    C210288   0.488   2.924  13.371 -0.2251 -0.2829  0.5244
  696TMC3    C310289   0.376   2.926  13.449 -0.2571  0.1655  0.6859
  696TMC3    C410290   0.353   2.982  13.176 -0.0361 -0.2688 -0.0938
  696TMC3    C510291   0.253   3.010  13.264 -0.1869  0.0340  0.4950
  696TMC3    C610292   0.257   2.965  13.397  1.0712 -0.0767  0.4933
  696TMC3     C10293   0.580   2.954  13.136 -0.6333  0.9128 -0.4548
  696TMC3     O10294   0.543   2.935  13.023  0.0256  0.1406 -0.3187
  696TMC3     H10295   0.582   2.897  13.417  0.0776  1.5428  0.9710
  696TMC3    H110296   0.351   3.021  13.074  1.3304  0.6582  0.2373
  696TMC3    H210297   0.169   2.974  13.460  0.6209 -3.0621  0.2943
  696TMC3    C710298   0.187   3.131  13.237  0.1963 -0.1782 -0.3805
  696TMC3    C810299   0.401   3.004  13.561 -0.0666  0.1828 -0.1459
  696TMC3    O110300   0.178   3.166  13.121 -0.1956  0.5564  0.0032
  696TMC3    O210301   0.341   3.112  13.566  0.2803  0.3774  0.0013
  697MPD2     C10302   4.556   0.514  15.724 -0.2708 -0.8602  0.1211
  697MPD2    C110303   4.607   0.436  15.624  0.4715  0.1156  0.2541
  697MPD2    C210304   4.680   0.506  15.529  0.4314  0.0982  0.2637
  697MPD2    C310305   4.704   0.642  15.519 -0.6606  0.0833  0.0442
  697MPD2    C410306   4.627   0.726  15.605 -0.3179 -0.4213  0.0722
  697MPD2    C510307   4.561   0.651  15.702  0.2338 -0.0353 -0.1177
  697MPD2     H10308   0.004   0.448  15.450 -0.6811 -0.4315 -0.0010
  697MPD2    H110309   4.617   0.834  15.605 -0.4031 -0.4291 -0.1268
  697MPD2    H210310   4.506   0.470  15.810 -0.9562 -0.4191 -0.0489
  697MPD2    H310311   4.513   0.704  15.784  2.2561 -0.7602  1.5431
  697MPD2     N10312   0.072   0.687  15.421 -0.2215  0.0651  0.4464
  697MPD2    H510313   0.125   0.614  15.375  1.4058  1.2208  0.4651
  697MPD2    N110314   4.606   0.294  15.618 -0.2505  0.0469  0.2953
  697MPD2    H710315   4.644   0.246  15.537 -2.0973  0.1919 -0.6352
  698TMC3    C110316   0.193   0.834  15.294 -0.2037  0.3348 -0.8664
  698TMC3    C210317   0.306   0.916  15.319  0.4214  0.2277 -0.6323
  698TMC3    C310318   0.391   0.939  15.218  0.5939 -0.4864  0.5518
  698TMC3    C410319   0.202   0.744  15.189  0.1541  0.7460  0.3273
  698TMC3    C510320   0.294   0.760  15.094 -0.2557 -0.5997  0.0513
  698TMC3    C610321   0.382   0.864  15.101  0.3586 -0.2660  0.5323
  698TMC3     C10322   0.105   0.818  15.410  0.0897  0.1139 -0.4531
  698TMC3     O10323   0.054   0.922  15.457 -0.3421 -0.1086 -1.0438
  698TMC3     H10324   0.309   0.980  15.406  2.0860 -0.0082 -0.5166
  698TMC3    H110325   0.124   0.672  15.169  1.8054 -0.9399  0.0183
  698TMC3    H210326   0.462   0.874  15.028 -1.5882 -1.1210 -1.7336
  698TMC3    C710327   0.266   0.691  14.972 -0.1268  0.5625  0.0824
  698TMC3    C810328   0.510   1.023  15.246  0.6693 -0.2791  0.0727
  698TMC3    O110329   0.149   0.671  14.946 -0.1066  0.4023  0.1016
  698TMC3    O210330   0.522   1.067  15.361 -0.0380 -0.0990  0.0825
  699TMC3    C110331   0.192   2.612  12.960 -0.3497  0.1628  0.3249
  699TMC3    C210332   0.162   2.486  13.017  0.2293 -0.8283 -0.0232
  699TMC3    C310333   0.083   2.488  13.131 -0.3075 -0.0195  0.5788
  699TMC3    C410334   0.140   2.732  13.005  0.1139  0.0532  0.6015
  699TMC3    C510335   0.063   2.728  13.117  0.7090  0.2372 -0.0206
  699TMC3    C610336   0.037   2.608  13.175 -0.5976  0.4952 -0.4434
  699TMC3     C10337   0.276   2.610  12.845 -0.3581 -0.9038 -0.0353
  699TMC3     O10338   0.356   2.703  12.832 -0.5570 -0.1243 -0.3590
  699TMC3     H10339   0.214   2.395  12.990 -1.0105 -1.1112 -1.5104
  699TMC3    H110340   0.174   2.822  12.956  2.1211 -0.1100  1.6934
  699TMC3    H210341   4.699   2.604  13.265  0.0168  2.7784  0.0717
  699TMC3    C710342   4.695   2.838  13.156 -0.2507 -0.3340  0.5791
  699TMC3    C810343   0.040   2.365  13.200  0.6576  0.7600  0.1721
  699TMC3    O110344   4.619   2.820  13.252  0.1285  0.4077 -0.6779
  699TMC3    O210345   4.715   2.381  13.308 -0.1453 -0.5854  0.3836
  700TMC3    C110346   3.846   1.015  17.341  0.4233 -0.0872  0.3056
  700TMC3    C210347   3.853   0.877  17.356  0.1424  0.4908  0.0422
  700TMC3    C310348   3.936   0.838  17.458  0.6113 -0.6168 -0.0361
  700TMC3    C410349   3.908   1.097  17.427 -1.0717  0.2399  0.2384
  700TMC3    C510350   3.985   1.054  17.531  0.1242 -0.4513 -1.2163
  700TMC3    C610351   3.997   0.919  17.554 -0.1896 -1.1050  0.1345
  700TMC3     C10352   3.754   1.072  17.252  0.6458  0.3441  0.5195
  700TMC3     O10353   3.729   1.005  17.152 -0.3798 -0.1403 -0.2054
  700TMC3     H10354   3.790   0.820  17.288  2.2404 -2.7487  0.8324
  700TMC3    H110355   3.929   1.195  17.384 -1.7194 -0.5781 -1.9306
  700TMC3    H210356   4.049   0.876  17.639  2.5218 -1.0692 -1.5145
  700TMC3    C710357   4.062   1.160  17.603  0.5508  0.2185  0.0219
  700TMC3    C810358   3.993   0.701  17.453 -0.6412  0.4613 -0.5371
  700TMC3    O110359   4.035   1.278  17.592  0.1405 -0.0418  0.3461
  700TMC3    O210360   4.103   0.693  17.506  0.5886  0.1028 -0.0676
  701TMC3    C110361   3.916   4.092  15.410 -0.0847 -0.5618 -0.8431
  701TMC3    C210362   4.004   4.012  15.335  0.1594  0.3380 -0.1124
  701TMC3    C310363   4.128   4.059  15.311 -0.2268 -0.0723  0.1960
  701TMC3    C410364   3.953   4.220  15.452 -0.2535  0.2824  0.2539
  701TMC3    C510365   4.079   4.257  15.429 -0.5702 -0.1969 -0.3479
  701TMC3    C610366   4.166   4.179  15.361  0.1406 -0.3536 -0.2994
  701TMC3     C10367   3.809   4.023  15.483 -0.1264 -0.1480 -0.1162
  701TMC3     O10368   3.770   4.076  15.585  0.4620  0.4054  0.0361
  701TMC3     H10369   3.982   3.907  15.320  2.6077 -0.0388 -1.0670
  701TMC3    H110370   3.890   4.291  15.504  1.7150  0.9360  1.7064
  701TMC3    H210371   4.267   4.214  15.347  0.3055  0.5101  3.0974
  701TMC3    C710372   4.115   4.394  15.427  0.2764 -0.4405  0.1195
  701TMC3    C810373   4.199   4.014  15.191 -0.5366 -0.0834  0.1651
  701TMC3    O110374   4.177   4.444  15.333 -0.8757  0.3647 -0.4925
  701TMC3    O210375   4.295   4.081  15.151 -0.5936  0.5965  0.7751
  702MPD2     C10376   4.042   1.591  10.480 -0.3192  0.5253 -0.5454
  702MPD2    C110377   3.975   1.678  10.564  0.8541 -0.6116  0.5193
  702MPD2    C210378   3.963   1.812  10.531  0.5627  0.0724  0.3737
  702MPD2    C310379   4.032   1.863  10.417 -0.4289  0.1221  0.3040
  702MPD2    C410380   4.102   1.775  10.339  0.0767  0.6809 -0.0512
  702MPD2    C510381   4.107   1.643  10.375 -0.0118 -0.6679 -0.2359
  702MPD2     H10382   3.903   1.876  10.595  1.2022  2.2024 -1.1773
  702MPD2    H110383   4.158   1.820  10.258  1.6646  2.8584  2.2639
  702MPD2    H210384   4.039   1.485  10.503 -1.5628  1.0086  1.5236
  702MPD2    H310385   4.152   1.579  10.301 -0.8377  0.8143 -2.0123
  702MPD2     N10386   4.038   2.000  10.385 -0.5942  0.1941  0.2115
  702MPD2    H510387   4.095   2.032  10.307 -1.8331 -0.2611 -0.8986
  702MPD2    N110388   3.897   1.640  10.679  0.1758 -0.1056 -0.8469
  702MPD2    H710389   3.859   1.722  10.726  0.3571 -0.2601 -0.4358
  703TMC3    C110390   3.999   2.230  10.425 -0.7274  0.1896  0.3604
  703TMC3    C210391   3.896   2.321  10.438 -0.6740 -0.8424  0.2463
  703TMC3    C310392   3.919   2.445  10.384  0.2483  0.1965 -0.0717
  703TMC3    C410393   4.109   2.257  10.355 -0.2348  0.1285 -0.6274
  703TMC3    C510394   4.115   2.374  10.278  0.1610 -0.2514  0.1482
  703TMC3    C610395   4.017   2.470  10.288 -0.0031  0.2083 -0.2534
  703TMC3     C10396   3.962   2.091  10.459  0.1471 -0.0584 -0.0578
  703TMC3     O10397   3.863   2.085  10.529  0.1685 -0.3529 -0.3774
  703TMC3     H10398   3.813   2.299  10.504 -0.1229  0.6867  1.4498
  703TMC3    H110399   4.187   2.181  10.352  0.6482  1.0683 -1.3037
  703TMC3    H210400   4.023   2.564  10.235  3.2221 -0.2417 -0.6945
  703TMC3    C710401   4.240   2.409  10.216  0.1457  0.3404 -0.3773
  703TMC3    C810402   3.826   2.555  10.412 -0.2424 -0.2573  0.2854
  703TMC3    O110403   4.343   2.352  10.249 -0.2732 -0.0701  0.3317
  703TMC3    O210404   3.845   2.660  10.354 -0.5885 -0.1184  0.6268
  704TMC3    C110405   1.067   0.001  12.810  0.4974 -0.2087  0.0089
  704TMC3    C210406   1.185   0.065  12.814  0.1658  0.0931  0.1684
  704TMC3    C310407   1.288   0.003  12.875 -0.2897  0.4865  0.5999
  704TMC3    C410408   1.038   4.611  12.869  0.2294  0.2392 -0.0140
  704TMC3    C510409   1.136   4.546  12.930  0.0809 -0.4632  0.0836
  704TMC3    C610410   1.266   4.600  12.928 -0.8759 -1.0161 -0.2490
  704TMC3     C10411   1.002   0.019  12.684  0.7459 -0.2549  0.6258
  704TMC3     O10412   0.893   4.681  12.673  0.5000  0.2491 -0.0328
  704TMC3     H10413   1.196   0.159  12.761  2.7792 -0.1545  0.2362
  704TMC3    H110414   0.940   4.565  12.856 -0.3948  1.4700  0.3511
  704TMC3    H210415   1.352   4.549  12.968 -1.5843 -0.0263  2.5188
  704TMC3    C710416   1.136   4.401  12.930 -0.2126 -0.7524 -0.1184
  704TMC3    C810417   1.406   4.718  12.789 -0.3921  0.6763  0.1109
  704TMC3    O110418   1.243   4.344  12.935  0.7674 -0.2901  0.2732
  704TMC3    O210419   1.391   0.015  12.668  0.1261  0.1271  0.1081
  705MPD2     C10420   0.792   2.721  16.095  0.4225 -0.2216  0.8158
  705MPD2    C110421   0.817   2.830  16.184 -0.5241 -0.3550  1.0229
  705MPD2    C210422   0.725   2.861  16.277 -0.2168 -0.7202  0.3461
  705MPD2    C310423   0.607   2.793  16.287 -0.3165  0.0082  0.0662
  705MPD2    C410424   0.586   2.687  16.203  0.4305  0.1293 -0.5031
  705MPD2    C510425   0.675   2.653  16.113 -0.1107  0.0306  0.5841
  705MPD2     H10426   0.744   2.935  16.355  0.5612 -1.6226  1.0219
  705MPD2    H110427   0.490   2.637  16.210 -0.4024  1.7886  0.1287
  705MPD2    H210428   0.846   2.694  16.004  0.4992  0.7790  0.5614
  705MPD2    H310429   0.638   2.582  16.040  0.7017 -0.8594  1.0344
  705MPD2     N10430   0.503   2.829  16.376  0.2410 -0.0034 -0.2193
  705MPD2    H510431   0.412   2.790  16.354 -0.5632 -0.1816  3.2887
  705MPD2    N110432   0.943   2.902  16.177  0.0796 -0.1423  0.7839
  705MPD2    H710433   0.957   2.972  16.249  1.0577  1.2543 -0.7630
  706TMC3    C110434   1.371   3.023  16.053  0.3457 -0.0501  0.8377
  706TMC3    C210435   1.361   3.151  16.100 -0.3006  0.2285 -0.1207
  706TMC3    C310436   1.233   3.185  16.137 -0.1539 -0.6119  0.0155
  706TMC3    C410437   1.266   2.937  16.048  0.5543 -0.0696 -0.1469
  706TMC3    C510438   1.143   2.977  16.095  0.4392 -0.0540  0.6330
  706TMC3    C610439   1.123   3.103  16.137  0.4510  0.3684 -0.5641
  706TMC3     C10440   1.487   2.998  15.973 -0.3586  0.8590  0.8845
  706TMC3     O10441   1.585   3.073  15.985 -0.3419  0.2169  0.0950
  706TMC3     H10442   1.447   3.213  16.120  1.1868 -0.9884 -2.8511
  706TMC3    H110443   1.282   2.833  16.020 -1.6812 -0.3153 -0.5387
  706TMC3    H210444   1.028   3.143  16.169  0.5452  1.6341 -1.8397
  706TMC3    C710445   1.041   2.883  16.082  0.9161 -0.0559 -0.1572
  706TMC3    C810446   1.226   3.298  16.226  0.3418 -0.8215 -0.1673
  706TMC3    O110447   1.043   2.800  15.995 -0.0343 -0.6399  0.0763
  706TMC3    O210448   1.297   3.304  16.325 -0.3927 -0.1534  0.1363
  707TMC3    C110449   3.597   2.107   1.537  0.5111 -0.6329 -0.2099
  707TMC3    C210450   3.715   2.068   1.594  0.1679 -0.5281  0.2195
  707TMC3    C310451   3.737   2.088   1.728 -0.3805  0.5534  0.1358
  707TMC3    C410452   3.490   2.152   1.617  0.1102 -0.1684 -0.5736
  707TMC3    C510453   3.518   2.168   1.751  0.7716  0.0176  0.7034
  707TMC3    C610454   3.642   2.140   1.806 -0.4925  0.6858  0.3241
  707TMC3     C10455   3.581   2.077   1.400 -0.4462 -0.2938 -0.7342
  707TMC3     O10456   3.687   2.074   1.335 -0.7064  0.4626 -0.3008
  707TMC3     H10457   3.771   2.003   1.527  0.1063 -0.2742 -0.0763
  707TMC3    H110458   3.392   2.182   1.580 -0.5139 -1.6082 -0.0768
  707TMC3    H210459   3.656   2.153   1.912 -1.6504 -1.2093  0.7108
  707TMC3    C710460   3.411   2.200   1.850  0.1311 -0.0408  1.1352
  707TMC3    C810461   3.868   2.079   1.775  0.1788 -0.7905  0.4946
  707TMC3    O110462   3.300   2.169   1.812  0.4237  0.4728  0.1083
  707TMC3    O210463   3.895   2.148   1.870 -0.1863  0.0334 -0.4266
  708MPD2     C10464   3.715   0.934  14.191  0.7934 -0.1039 -0.1050
  708MPD2    C110465   3.611   1.021  14.212 -0.4631  0.2548  0.3448
  708MPD2    C210466   3.564   1.032  14.342  0.2858  0.8344  0.2834
  708MPD2    C310467   3.629   0.971  14.450 -0.3481  0.1324  0.2487
  708MPD2    C410468   3.735   0.884  14.421  0.2841  0.6965 -0.5149
  708MPD2    C510469   3.784   0.876  14.293  0.2798  0.8501 -1.0396
  708MPD2     H10470   3.476   1.094  14.353 -0.6107 -0.5175  0.6067
  708MPD2    H110471   3.791   0.831  14.498 -1.7896  0.1420  0.6239
  708MPD2    H210472   3.766   0.944  14.096  0.7207  0.9087 -0.0371
  708MPD2    H310473   3.882   0.833  14.276 -0.6949 -1.2211 -1.3560
  708MPD2     N10474   3.579   0.992  14.578 -0.0244 -0.3069 -0.3917
  708MPD2    H510475   3.486   1.033  14.572 -0.6657 -1.0760  4.4586
  708MPD2    N110476   3.549   1.108  14.117  0.5965 -0.6837 -0.1899
  708MPD2    H710477   3.485   1.177  14.155  0.5273 -0.6047 -0.4525
  709TMC3    C110478   3.489   1.238  13.935  0.0159 -0.0324  0.0633
  709TMC3    C210479   3.420   1.203  13.822  0.7973  0.1691 -0.3402
  709TMC3    C310480   3.284   1.237  13.815  0.3323  0.1847 -0.2116
  709TMC3    C410481   3.444   1.331  14.027 -0.4886  0.6300 -0.1132
  709TMC3    C510482   3.306   1.356  14.023 -0.3157  0.0928  0.1648
  709TMC3    C610483   3.228   1.302  13.920 -0.0233 -0.0310 -0.0077
  709TMC3     C10484   3.581   1.135  13.984  1.2357  0.5060  0.9564
  709TMC3     O10485   3.653   1.078  13.915  0.2736 -0.1527 -0.7316
  709TMC3     H10486   3.447   1.115  13.765  1.0974  0.2734 -0.3588
  709TMC3    H110487   3.501   1.363  14.113  1.2832  0.5397 -1.2386
  709TMC3    H210488   3.120   1.308  13.917 -0.0402  0.9406  2.2878
  709TMC3    C710489   3.254   1.337  14.158  0.4873 -0.4545  1.1152
  709TMC3    C810490   3.194   1.195  13.708  0.0948  0.2480 -0.1300
  709TMC3    O110491   3.332   1.270  14.227  0.6181 -0.4598  0.2143
  709TMC3    O210492   3.080   1.163  13.731  0.5414  0.2062  0.1138
  710TMC3    C110493   0.646   3.740   0.267  0.2738 -0.5929  0.8045
  710TMC3    C210494   0.675   3.639   0.177 -0.2854  0.6588 -0.1624
  710TMC3    C310495   0.790   3.569   0.201 -0.0055 -0.4442 -0.5054
  710TMC3    C410496   0.725   3.778   0.374 -0.4947  0.0595 -0.5540
  710TMC3    C510497   0.840   3.707   0.396 -0.4138  0.0034 -0.3653
  710TMC3    C610498   0.874   3.601   0.309 -0.2177 -0.3570  0.5230
  710TMC3     C10499   0.526   3.818   0.226 -0.0540 -0.1532 -0.5001
  710TMC3     O10500   0.498   3.818   0.108  0.1768  0.1199 -0.3203
  710TMC3     H10501   0.606   3.624   0.094 -0.6325  0.1138  0.2259
  710TMC3    H110502   0.688   3.855   0.441 -0.0043  0.8451 -1.1872
  710TMC3    H210503   0.966   3.545   0.328  0.6362  0.9192  0.1526
  710TMC3    C710504   0.871   3.681   0.539  0.3389  0.1438  0.3373
  710TMC3    C810505   0.818   3.450   0.136  0.1297 -0.1282  0.1277
  710TMC3    O110506   0.939   3.582   0.565  0.3707  0.6951 -0.2455
  710TMC3    O210507   0.744   3.428   0.037  0.1483  0.2488  0.0959
  711TMC3    C110508   4.549   3.814  15.076  0.4591 -0.6220 -0.4619
  711TMC3    C210509   4.678   3.852  15.057  0.3578  0.4180  0.2216
  711TMC3    C310510   0.028   3.875  15.175  0.0865 -0.1377 -0.0203
  711TMC3    C410511   4.491   3.798  15.204 -0.1858  0.1161  0.4382
  711TMC3    C510512   4.572   3.812  15.313  0.2583  0.6985  0.0112
  711TMC3    C610513   4.707   3.854  15.302  0.3081  0.6660 -0.9833
  711TMC3     C10514   4.474   3.758  14.969 -0.1460  0.2397 -0.0399
  711TMC3     O10515   4.390   3.671  14.999  0.2776 -0.5266 -0.2705
  711TMC3     H10516   0.010   3.846  14.964  0.0099 -2.4890  0.1951
  711TMC3    H110517   4.391   3.758  15.217 -0.4156 -0.2615 -2.5033
  711TMC3    H210518   0.050   3.846  15.387 -1.3558 -1.1519  0.1391
  711TMC3    C710519   4.560   3.695  15.399 -0.1227 -0.6181  0.2311
  711TMC3    C810520   0.154   3.945  15.154 -0.8269  0.1644 -0.0919
  711TMC3    O110521   4.448   3.673  15.440  0.3792  0.1354  0.5419
  711TMC3    O210522   0.160   4.007  15.048  0.2326 -0.5214 -0.2805
  712MPD2     C10523   1.016   4.643  13.775  0.3864  0.5727 -0.1434
  712MPD2    C110524   0.983   0.011  13.675  1.0195  0.1691 -0.7193
  712MPD2    C210525   1.047   0.136  13.670 -0.6272  0.6105 -0.1049
  712MPD2    C310526   1.147   0.164  13.759  0.4640  0.6873  0.0512
  712MPD2    C410527   1.173   0.071  13.865 -0.7221  0.1650 -0.1262
  712MPD2    C510528   1.108   4.675  13.870 -0.2170 -0.5330 -0.0967
  712MPD2     H10529   1.033   0.193  13.579  0.2391  0.4659 -0.3244
  712MPD2    H110530   1.260   0.093  13.926 -0.9231 -2.1706  1.0116
  712MPD2    H210531   0.978   4.541  13.778  1.5071  0.0920 -1.7658
  712MPD2    H310532   1.130   4.598  13.944  1.5878 -0.0365 -0.1155
  712MPD2     N10533   1.232   0.278  13.753  0.1282  0.3830  0.8110
  712MPD2    H510534   1.291   0.297  13.834  1.4221 -0.8776  0.1604
  712MPD2    N110535   0.891   4.708  13.573  0.2337 -0.6413 -0.4924
  712MPD2    H710536   0.888   0.053  13.496 -2.4787 -0.7734 -0.5046
  713TMC3    C110537   1.289   0.501  13.699 -0.2305 -0.8177 -0.3111
  713TMC3    C210538   1.419   0.488  13.747  0.1188  0.3748 -0.1010
  713TMC3    C310539   1.497   0.598  13.785  0.9432  0.1604 -0.0011
  713TMC3    C410540   1.228   0.618  13.680 -0.0737  0.3088 -0.3729
  713TMC3    C510541   1.297   0.731  13.719 -0.4089 -0.6372  0.3379
  713TMC3    C610542   1.424   0.719  13.768 -0.1064 -0.4081  0.1445
  713TMC3     C10543   1.224   0.383  13.658 -0.2960 -0.3389  0.4770
  713TMC3     O10544   1.152   0.403  13.563 -0.0419  0.3132 -0.2358
  713TMC3     H10545   1.473   0.395  13.736 -0.5457  0.1760 -1.6375
  713TMC3    H110546   1.120   0.621  13.668 -0.1343  0.2798  0.1273
  713TMC3    H210547   1.475   0.808  13.802 -3.0047  1.7140 -1.0407
  713TMC3    C710548   1.237   0.857  13.759  0.0820  0.1901 -0.3491
  713TMC3    C810549   1.615   0.602  13.701  0.0380  0.3830  0.4028
  713TMC3    O110550   1.306   0.946  13.802 -0.3962 -0.2942  0.2396
  713TMC3    O210551   1.602   0.662  13.594  0.5751 -0.5199  0.1343
  714MPD2     C10552   2.914   4.000   1.507 -0.0608 -0.6225  0.1749
  714MPD2    C110553   2.981   3.881   1.491 -0.0119  0.0632 -0.1782
  714MPD2    C210554   2.921   3.788   1.400  0.2504  0.2498 -0.2679
  714MPD2    C310555   2.805   3.823   1.334 -0.7778 -0.5683 -0.1441
  714MPD2    C410556   2.748   3.941   1.361 -0.6090  0.5076  0.1877
  714MPD2    C510557   2.799   4.029   1.445  0.2102 -0.5631 -0.4670
  714MPD2     H10558   2.965   3.689   1.393  2.4940  1.2565 -0.3148
  714MPD2    H110559   2.653   3.974   1.320 -2.2425 -2.1302  1.8039
  714MPD2    H210560   2.953   4.068   1.582 -1.5624  0.9450 -0.4567
  714MPD2    H310561   2.744   4.121   1.464  0.0306 -0.7002 -0.3209
  714MPD2     N10562   2.742   3.740   1.240 -0.2249 -0.9568 -0.0279
  714MPD2    H510563   2.766   3.642   1.230 -0.2833 -0.9086 -0.6443
  714MPD2    N110564   3.096   3.864   1.572 -0.6883  0.1842  0.0023
  714MPD2    H710565   3.123   3.945   1.627  0.6091 -1.8898  2.4001
  715TMC3    C110566   3.304   3.767   1.648  0.4229  0.4131  0.6136
  715TMC3    C210567   3.373   3.647   1.649  0.3335 -0.0080  1.1198
  715TMC3    C310568   3.506   3.657   1.635 -0.0238  0.3430 -0.5771
  715TMC3    C410569   3.372   3.889   1.634 -0.4628 -0.4328  0.6623
  715TMC3    C510570   3.506   3.887   1.616 -0.5376  0.0479 -0.2424
  715TMC3    C610571   3.575   3.772   1.620  0.5073  0.5637  0.3071
  715TMC3     C10572   3.176   3.755   1.578  0.3897  0.2520 -0.6791
  715TMC3     O10573   3.156   3.648   1.526 -0.2803  0.4161  0.2543
  715TMC3     H10574   3.313   3.559   1.668 -0.0633 -0.4123 -1.8856
  715TMC3    H110575   3.314   3.977   1.609 -0.6724 -0.8425 -0.2870
  715TMC3    H210576   3.684   3.774   1.617  0.5385 -0.3037  0.6805
  715TMC3    C710577   3.580   4.006   1.638  0.7012 -0.6071  0.5427
  715TMC3    C810578   3.591   3.537   1.626  0.1861  0.3111 -0.3787
  715TMC3    O110579   3.700   3.996   1.635 -0.1785 -0.0975 -0.0753
  715TMC3    O210580   3.698   3.545   1.572  0.0612  0.4086  0.3844
  716MPD2     C10581   3.965   1.500  10.013 -0.4237  0.2794  0.3838
  716MPD2    C110582   3.948   1.595   9.913  1.0505  0.5421  0.1601
  716MPD2    C210583   3.949   1.556   9.781 -0.0845 -0.2279 -0.0309
  716MPD2    C310584   3.948   1.423   9.750 -0.2166 -0.6026  0.2654
  716MPD2    C410585   3.957   1.332   9.855  0.3149  0.4115  0.2333
  716MPD2    C510586   3.972   1.371   9.987  0.6758  0.0650 -1.1404
  716MPD2     H10587   3.947   1.630   9.702 -0.4803  1.8030  1.8942
  716MPD2    H110588   3.936   1.226   9.842  0.1823  0.4897 -0.2056
  716MPD2    H210589   3.974   1.529  10.118  1.3726  0.0432  0.2844
  716MPD2    H310590   3.998   1.297  10.062  1.2664  1.6674  0.2308
  716MPD2     N10591   3.928   1.393   9.616 -0.3512  0.0693  0.0775
  716MPD2    H510592   3.892   1.464   9.554 -1.1075  1.3229  1.9423
  716MPD2    N110593   3.947   1.732   9.951  0.0564  0.3650 -0.1061
  716MPD2    H710594   3.945   1.739  10.052  0.2340  0.3528 -0.1016
  717TMC3    C110595   3.896   1.256   9.417  0.2352  0.1139 -0.6144
  717TMC3    C210596   3.792   1.343   9.373  0.1213 -0.7719  0.6791
  717TMC3    C310597   3.735   1.311   9.253  0.0384 -0.2357 -0.3669
  717TMC3    C410598   3.924   1.148   9.344  0.1530 -0.1860 -0.3065
  717TMC3    C510599   3.861   1.119   9.230 -0.5237 -0.3104  0.1117
  717TMC3    C610600   3.760   1.201   9.182 -0.0402 -0.3423 -0.4162
  717TMC3     C10601   3.952   1.268   9.553 -0.5605 -0.4919  0.1469
  717TMC3     O10602   4.002   1.173   9.604 -0.0101  0.8029 -0.1209
  717TMC3     H10603   3.752   1.421   9.436 -1.8538 -1.3484  0.1337
  717TMC3    H110604   3.991   1.071   9.382  0.8360  0.4466 -0.2514
  717TMC3    H210605   3.708   1.171   9.092  0.5435  0.7570 -1.1174
  717TMC3    C710606   3.859   0.993   9.167  0.0061 -0.3735  0.2803
  717TMC3    C810607   3.623   1.400   9.215 -1.0212 -0.7517  0.1412
  717TMC3    O110608   3.824   0.991   9.049 -0.7297 -0.0625  0.0861
  717TMC3    O210609   3.572   1.456   9.311  0.0201  0.0765  0.3622
  718MPD2     C10610   3.071   0.223  13.062  0.5475 -0.1955  0.6821
  718MPD2    C110611   2.991   0.165  12.968  0.1492  0.7566 -0.0478
  718MPD2    C210612   2.861   0.207  12.964  0.6074  0.4288  0.0671
  718MPD2    C310613   2.809   0.291  13.056  0.2097 -0.0728  0.7122
  718MPD2    C410614   2.882   0.330  13.164  0.1783  0.5869 -0.4702
  718MPD2    C510615   3.015   0.296  13.164  0.2287 -0.2528 -0.2946
  718MPD2     H10616   2.809   0.189  12.871  0.7943 -2.0138  0.4226
  718MPD2    H110617   2.851   0.396  13.244  2.5535 -0.8079  1.6069
  718MPD2    H210618   3.176   0.199  13.077  1.5811  4.7121  1.2699
  718MPD2    H310619   3.079   0.327  13.246 -0.1902  0.4623 -0.2378
  718MPD2     N10620   2.679   0.340  13.026  0.5249  0.0845 -0.2568
  718MPD2    H510621   2.639   0.303  12.940  0.3768 -3.3103  1.2519
  718MPD2    N110622   3.059   0.091  12.866 -0.1499  0.1260  0.6719
  718MPD2    H710623   3.160   0.100  12.853  0.0993 -2.5644  0.6384
  719TMC3    C110624   3.043   0.034  12.638  0.6607  0.0952 -0.7804
  719TMC3    C210625   2.958   4.707  12.540 -0.1404 -1.2587  0.0791
  719TMC3    C310626   2.948   0.042  12.414 -1.1077  0.8035  0.4376
  719TMC3    C410627   3.141   0.123  12.601  0.3174  0.0980 -0.3439
  719TMC3    C510628   3.136   0.175  12.472 -0.1673 -0.3360  0.6253
  719TMC3    C610629   3.033   0.144  12.384 -0.5391  0.0580  0.3088
  719TMC3     C10630   2.990   0.017  12.770  0.5426  0.4527  0.0176
  719TMC3     O10631   2.871   4.708  12.776 -0.2944  0.3087  0.4276
  719TMC3     H10632   2.896   4.622  12.568 -2.8546  0.4858 -0.6634
  719TMC3    H110633   3.215   0.148  12.676 -0.4262  1.8856 -0.2157
  719TMC3    H210634   3.042   0.183  12.283 -0.1537 -2.3717 -0.6023
  719TMC3    C710635   3.250   0.217  12.405 -0.4112 -0.1832  0.4753
  719TMC3    C810636   2.815   0.065  12.356  0.2223  0.1725  0.7854
  719TMC3    O110637   3.235   0.269  12.294  0.4273  0.0238 -0.3404
  719TMC3    O210638   2.729   4.717  12.406 -0.5056  0.1643 -0.8626
  720MPD2     C10639   1.359   1.911  14.062 -0.1332  0.4498  0.2696
  720MPD2    C110640   1.448   1.960  13.963 -0.1468 -0.4056 -0.3923
  720MPD2    C210641   1.581   1.964  13.989 -0.1786 -0.6676 -0.3508
  720MPD2    C310642   1.626   1.931  14.120 -0.5875  0.4451 -0.6302
  720MPD2    C410643   1.539   1.889  14.216 -0.4702  0.2999 -0.6587
  720MPD2    C510644   1.406   1.877  14.187  0.4886 -0.5557  0.6258
  720MPD2     H10645   1.653   1.988  13.911  1.5423  1.7884  1.9727
  720MPD2    H110646   1.573   1.860  14.314 -2.1299  0.6668  0.0155
  720MPD2    H210647   1.252   1.905  14.048 -0.0575  0.7059 -0.4352
  720MPD2    H310648   1.340   1.848  14.267 -0.1842  0.2852  0.3762
  720MPD2     N10649   1.763   1.911  14.159  0.1996 -0.5452 -0.0573
  720MPD2    H510650   1.780   1.880  14.254 -1.8387  0.1243  0.5205
  720MPD2    N110651   1.399   2.012  13.839  0.1211 -0.0707  0.2401
  720MPD2    H710652   1.466   2.041  13.768  1.9257 -3.2925  0.6019
  721TMC3    C110653   2.003   1.908  14.131  0.4232  0.7076  0.7555
  721TMC3    C210654   2.022   1.912  14.273 -0.0293  0.5328 -0.1370
  721TMC3    C310655   2.150   1.907  14.320  0.1832  0.4567  0.1849
  721TMC3    C410656   2.100   1.889  14.044 -0.1183 -0.0998  0.2536
  721TMC3    C510657   2.225   1.868  14.091  0.2274  0.7223  0.6467
  721TMC3    C610658   2.252   1.880  14.227 -0.6270  0.3444  0.1242
  721TMC3     C10659   1.873   1.950  14.077 -0.2853 -0.1495 -0.0261
  721TMC3     O10660   1.877   2.009  13.971  0.4380 -0.0368 -0.0257
  721TMC3     H10661   1.944   1.958  14.333  0.7243  2.4085 -0.6088
  721TMC3    H110662   2.069   1.886  13.940 -1.5642 -0.7097  0.6964
  721TMC3    H210663   2.353   1.868  14.266  0.1322  0.0459 -1.9369
  721TMC3    C710664   2.324   1.850  13.989 -0.1599 -0.6227  0.1516
  721TMC3    C810665   2.185   1.956  14.459  0.1814  0.0496  0.3364
  721TMC3    O110666   2.427   1.922  13.989 -0.4910 -0.0812 -1.2909
  721TMC3    O210667   2.302   1.988  14.480  0.4477  0.0941  0.0816
  722MPD2     C10668   0.146   0.563  13.388 -0.7449  0.3943  0.7489
  722MPD2    C110669   0.100   0.688  13.351 -0.0572 -0.6113  0.1499
  722MPD2    C210670   4.708   0.704  13.282  0.2237  0.5039 -0.0791
  722MPD2    C310671   4.632   0.595  13.254 -0.1792  0.9417  0.0282
  722MPD2    C410672   4.673   0.464  13.298 -0.8355  0.4283  0.4098
  722MPD2    C510673   0.076   0.454  13.357 -0.0205 -0.3392  0.2336
  722MPD2     H10674   4.680   0.803  13.245  0.9211  0.4183 -0.8402
  722MPD2    H110675   4.618   0.372  13.279 -1.3546  0.8824 -0.3186
  722MPD2    H210676   0.243   0.534  13.428 -1.2741  1.7506  2.9858
  722MPD2    H310677   0.108   0.354  13.382  1.4168  0.0545 -0.0303
  722MPD2     N10678   4.522   0.615  13.167  0.3717  0.4069  0.0882
  722MPD2    H510679   4.506   0.711  13.139 -1.2729  0.7076  2.0886
  722MPD2    N110680   0.165   0.812  13.382  0.1577  0.4866  0.9923
  722MPD2    H710681   0.133   0.894  13.333 -0.9674  0.1244  1.1047
  723TMC3    C110682   4.375   0.570  12.992  0.5326 -0.0839  0.8870
  723TMC3    C210683   4.342   0.480  12.894 -0.8036 -0.0910  0.2280
  723TMC3    C310684   4.257   0.524  12.785 -0.1101 -0.3477  0.3292
  723TMC3    C410685   4.338   0.706  12.987  0.4374  0.0407  0.2669
  723TMC3    C510686   4.273   0.745  12.873 -0.2060  0.7716 -0.1688
  723TMC3    C610687   4.231   0.657  12.782 -0.0798 -0.3192 -0.3364
  723TMC3     C10688   4.455   0.516  13.103  0.4981  0.2115  0.5241
  723TMC3     O10689   4.470   0.392  13.100 -0.0578 -0.1328 -0.7291
  723TMC3     H10690   4.357   0.375  12.913 -0.2644  0.0949  0.8150
  723TMC3    H110691   4.346   0.780  13.066 -0.2496  1.3490 -0.8919
  723TMC3    H210692   4.160   0.690  12.706 -1.8715 -2.0500  0.5779
  723TMC3    C710693   4.225   0.879  12.857  0.2830  0.4337 -0.0600
  723TMC3    C810694   4.188   0.433  12.695  0.2864 -0.1320 -0.2645
  723TMC3    O110695   4.194   0.919  12.743  0.2223 -0.0290 -0.4572
  723TMC3    O210696   4.083   0.477  12.641 -0.6353  0.9534  0.1284
  724TMC3    C110697   1.278   3.892   9.444 -0.6451 -0.6498  0.0792
  724TMC3    C210698   1.160   3.957   9.412  0.7792  0.6468 -0.4092
  724TMC3    C310699   1.157   4.090   9.441  0.1791  0.2571  0.5579
  724TMC3    C410700   1.378   3.952   9.521  0.4234  0.1392 -0.1763
  724TMC3    C510701   1.355   4.079   9.559  1.0575  0.6708  0.2687
  724TMC3    C610702   1.252   4.161   9.515 -0.1699  0.6626 -0.7096
  724TMC3     C10703   1.303   3.753   9.420  0.5307 -0.0583 -0.5419
  724TMC3     O10704   1.412   3.709   9.449  0.2125 -0.2787  0.8190
  724TMC3     H10705   1.095   3.918   9.334  0.2283  2.4895 -0.8603
  724TMC3    H110706   1.449   3.888   9.570 -1.1664 -2.4113 -1.2123
  724TMC3    H210707   1.240   4.261   9.556 -0.4458  1.1448 -1.9485
  724TMC3    C710708   1.463   4.139   9.635  0.6921  0.0614 -0.3519
  724TMC3    C810709   1.033   4.155   9.424  0.8668 -0.3703  0.3459
  724TMC3    O110710   1.559   4.063   9.645 -0.0914 -0.4450 -0.1332
  724TMC3    O210711   0.932   4.089   9.443  0.0572  0.6051 -0.4326
  725TMC3    C110712   2.126   2.371  12.813 -0.5384  0.3848  0.5703
  725TMC3    C210713   2.003   2.415  12.866 -0.6576  0.2960  0.1539
  725TMC3    C310714   1.909   2.322  12.895  0.3629  0.0084  0.3318
  725TMC3    C410715   2.158   2.237  12.796  0.0984  0.0717  0.7002
  725TMC3    C510716   2.062   2.153  12.851 -0.6411  0.2081 -0.7133
  725TMC3    C610717   1.944   2.188  12.902  0.1347 -0.0231 -0.4856
  725TMC3     C10718   2.235   2.467  12.790 -0.5113  0.3498 -0.6426
  725TMC3     O10719   2.210   2.577  12.835 -0.3103  0.0780  0.6167
  725TMC3     H10720   1.986   2.520  12.886  0.2753  0.4465  0.1410
  725TMC3    H110721   2.249   2.196  12.752 -1.1973  0.4929 -2.3742
  725TMC3    H210722   1.865   2.115  12.911  0.2942 -0.4412 -2.6459
  725TMC3    C710723   2.072   2.020  12.798  0.8616 -0.1598  0.0679
  725TMC3    C810724   1.773   2.362  12.878 -0.5882  0.1211  0.2115
  725TMC3    O110725   2.125   2.002  12.688  0.0412  0.0056  0.3956
  725TMC3    O210726   1.678   2.299  12.918  0.1786  0.1417  0.5262
  726MPD2     C10727   0.309   3.711  10.292  0.2089 -0.3253 -0.8355
  726MPD2    C110728   0.288   3.802  10.395 -0.3837  0.0161  0.2415
  726MPD2    C210729   0.208   3.764  10.506  0.7246  0.0865 -0.5566
  726MPD2    C310730   0.128   3.655  10.499  0.0705 -0.7988  0.2198
  726MPD2    C410731   0.148   3.565  10.393 -0.1691  0.5321 -0.6279
  726MPD2    C510732   0.239   3.591  10.293  0.9792  0.7124  0.9190
  726MPD2     H10733   0.189   3.836  10.585 -0.2338 -0.1812 -0.5471
  726MPD2    H110734   0.091   3.475  10.374  1.4979 -0.6139 -0.2835
  726MPD2    H210735   0.388   3.721  10.218 -0.1667  0.1628 -1.1610
  726MPD2    H310736   0.255   3.522  10.211 -0.0847  2.2998 -0.6244
  726MPD2     N10737   0.020   3.629  10.589 -0.2214 -0.2852 -0.2699
  726MPD2    H510738   4.691   3.544  10.569  1.6979 -1.6423  0.5594
  726MPD2    N110739   0.346   3.930  10.396 -0.6762 -0.3367  0.0767
  726MPD2    H710740   0.331   3.991  10.476 -2.2238 -1.2552  0.4761
  727TMC3    C110741   0.433   4.127  10.334  0.9381  0.0106  0.0265
  727TMC3    C210742   0.540   4.142  10.421  0.0195 -0.2528  0.3525
  727TMC3    C310743   0.618   4.253  10.409 -0.8022  0.2921 -0.2487
  727TMC3    C410744   0.392   4.227  10.248  0.8486 -1.0089  0.0067
  727TMC3    C510745   0.479   4.336  10.229 -0.5321 -0.2559 -0.3584
  727TMC3    C610746   0.588   4.345  10.313  0.0700 -0.0153  0.0909
  727TMC3     C10747   0.400   3.993  10.290  0.9646  0.1205 -0.5978
  727TMC3     O10748   0.412   3.966  10.171 -0.2717  0.5134  0.4184
  727TMC3     H10749   0.579   4.056  10.475  0.8331  0.1581  0.4247
  727TMC3    H110750   0.328   4.200  10.164  2.2568 -0.9162 -1.1053
  727TMC3    H210751   0.662   4.423  10.299 -0.4787  0.4601 -0.1419
  727TMC3    C710752   0.417   4.457  10.173 -0.1125  0.2374 -0.3691
  727TMC3    C810753   0.755   4.228  10.423 -0.1683  0.7800  0.0880
  727TMC3    O110754   0.300   4.443  10.143 -0.6000  0.2039 -0.5064
  727TMC3    O210755   0.797   4.185  10.318 -0.3118  0.2471 -0.6038
  728TMC3    C110756   3.888   2.655  15.437  0.4078  0.6016 -0.1988
  728TMC3    C210757   4.026   2.640  15.442  0.8611  0.4235 -0.4502
  728TMC3    C310758   4.105   2.735  15.382 -0.3018  0.1605  0.0470
  728TMC3    C410759   3.832   2.741  15.346  0.6677  0.1125 -0.3301
  728TMC3    C510760   3.917   2.823  15.271 -0.9415  0.7803 -1.2501
  728TMC3    C610761   4.052   2.816  15.288 -0.4601  0.0321  0.8708
  728TMC3     C10762   3.809   2.572  15.534 -0.2527 -0.0257  0.0661
  728TMC3     O10763   3.859   2.553  15.644 -0.2673 -0.1466  0.7144
  728TMC3     H10764   4.073   2.576  15.516  2.7502  0.7311 -1.3877
  728TMC3    H110765   3.726   2.759  15.333  0.1542 -2.4537  0.1311
  728TMC3    H210766   4.114   2.888  15.237 -1.5676 -0.4074 -1.0826
  728TMC3    C710767   3.871   2.903  15.154  0.3205  0.7259 -0.1419
  728TMC3    C810768   4.247   2.726  15.384 -0.7581  0.0112 -0.3615
  728TMC3    O110769   3.959   2.971  15.099  0.3139 -0.2001 -0.2537
  728TMC3    O210770   4.283   2.634  15.451 -0.5666 -0.8382  0.1134
  729MPD2     C10771   1.508   4.209  16.761 -0.2443 -0.7800  0.4331
  729MPD2    C110772   1.602   4.111  16.787 -0.0476  0.0771  0.3117
  729MPD2    C210773   1.653   4.082  16.915  0.3976  0.5775  0.4875
  729MPD2    C310774   1.607   4.163  17.018 -0.2278 -0.6529 -0.6458
  729MPD2    C410775   1.505   4.255  16.997 -0.3798 -0.8434 -0.5312
  729MPD2    C510776   1.456   4.279  16.871 -0.2126 -1.3023 -0.3823
  729MPD2     H10777   1.731   4.008  16.932 -0.3911 -0.4176 -0.2331
  729MPD2    H110778   1.464   4.310  17.081  3.0579  0.5837  0.2038
  729MPD2    H210779   1.469   4.237  16.663  0.8565 -1.1958 -0.1206
  729MPD2    H310780   1.381   4.354  16.850  3.5370  1.7873 -2.8740
  729MPD2     N10781   1.647   4.140  17.160  0.2448  0.3239 -0.5463
  729MPD2    H510782   1.628   4.209  17.232 -3.3530  0.2507 -1.4302
  729MPD2    N110783   1.652   4.059  16.670  0.1282  0.1082 -0.1326
  729MPD2    H710784   1.611   4.093  16.583  1.0886  0.9167 -0.2692
  730TMC3    C110785   1.741   4.038  17.347 -0.4048 -0.1418 -0.4977
  730TMC3    C210786   1.878   4.031  17.369 -0.1144  0.1795 -0.5266
  730TMC3    C310787   1.929   4.129  17.450  0.0238  0.3639 -0.4293
  730TMC3    C410788   1.660   4.127  17.413  0.5910  0.4621 -0.8765
  730TMC3    C510789   1.713   4.216  17.498 -0.1866  0.1112 -0.1538
  730TMC3    C610790   1.841   4.213  17.526  0.2010  0.2735  0.2758
  730TMC3     C10791   1.711   4.023  17.207  0.3045 -0.5118  0.3573
  730TMC3     O10792   1.745   3.925  17.151 -0.2502 -1.1708 -0.3271
  730TMC3     H10793   1.938   3.962  17.312 -0.2870 -0.4097  0.0025
  730TMC3    H110794   1.556   4.142  17.388  0.3447  1.0516  0.5190
  730TMC3    H210795   1.883   4.277  17.603  0.3447  0.7740 -0.2179
  730TMC3    C710796   1.675   4.351  17.462 -0.7921 -0.3165 -0.0070
  730TMC3    C810797   2.026   4.206  17.371 -0.4354 -0.2563  0.0950
  730TMC3    O110798   1.632   4.352  17.346  0.6965 -0.3823 -0.1554
  730TMC3    O210799   2.083   4.157  17.276 -0.2340 -0.2182 -0.0513
  731MPD2     C10800   1.444   1.157  11.429  0.3905 -0.6778  0.3467
  731MPD2    C110801   1.560   1.214  11.481 -0.2973 -0.3057  0.9129
  731MPD2    C210802   1.568   1.248  11.619 -0.2771 -0.2828 -0.4707
  731MPD2    C310803   1.464   1.212  11.703  0.8779  0.0534  0.7019
  731MPD2    C410804   1.349   1.162  11.648 -0.2749 -0.1989 -0.2325
  731MPD2    C510805   1.351   1.122  11.522  0.2924  0.0579  0.1220
  731MPD2     H10806   1.657   1.300  11.653 -2.2502  1.2561  2.3513
  731MPD2    H110807   1.263   1.121  11.701 -0.5768 -1.2460 -1.5345
  731MPD2    H210808   1.425   1.152  11.323 -2.3403 -0.4620  0.8186
  731MPD2    H310809   1.270   1.069  11.472  0.3077 -1.8868  2.1317
  731MPD2     N10810   1.475   1.236  11.846 -0.2038 -0.5841 -0.6108
  731MPD2    H510811   1.557   1.290  11.870 -0.7309 -0.9681  2.0149
  731MPD2    N110812   1.649   1.258  11.384 -0.2021 -0.6823  0.2275
  731MPD2    H710813   1.649   1.206  11.297  0.8551 -0.6354  0.1920
  732TMC3    C110814   1.780   1.437  11.285 -0.2050 -0.2861  0.0968
  732TMC3    C210815   1.677   1.468  11.203 -0.3447  0.2867  0.1582
  732TMC3    C310816   1.638   1.597  11.173 -0.1344 -0.4485  0.5205
  732TMC3    C410817   1.859   1.545  11.326  0.6127 -0.5602  0.3765
  732TMC3    C510818   1.813   1.676  11.306 -0.0574  0.5794 -0.1779
  732TMC3    C610819   1.701   1.702  11.226  0.4080  0.2268 -1.1853
  732TMC3     C10820   1.748   1.353  11.397  0.2921  0.0876 -0.8512
  732TMC3     O10821   1.789   1.400  11.505  0.6304 -0.6045 -0.0949
  732TMC3     H10822   1.621   1.380  11.173 -1.5330  1.4265 -1.0056
  732TMC3    H110823   1.950   1.536  11.385  0.6866  1.4318  0.5741
  732TMC3    H210824   1.665   1.803  11.217  1.1679  0.5822 -0.2531
  732TMC3    C710825   1.856   1.777  11.398  0.0333 -0.1293  0.5769
  732TMC3    C810826   1.492   1.601  11.178  0.5312  0.3250 -0.9032
  732TMC3    O110827   1.873   1.890  11.362 -0.3845 -0.0493  0.1911
  732TMC3    O210828   1.436   1.597  11.068 -0.0486 -0.5423 -0.0452
  733TMC3    C110829   2.281   0.571  12.981  0.1294 -0.0140 -0.1156
  733TMC3    C210830   2.382   0.535  13.064  0.2049 -0.3616  0.2289
  733TMC3    C310831   2.490   0.480  13.004  1.0299 -0.1416  0.3839
  733TMC3    C410832   2.285   0.553  12.845 -0.1343 -0.2873  0.8043
  733TMC3    C510833   2.394   0.496  12.789 -0.2456  0.4295  0.0838
  733TMC3    C610834   2.503   0.461  12.867  0.2467  0.7140  0.0158
  733TMC3     C10835   2.141   0.545  13.025  0.5557  0.1867  0.3173
  733TMC3     O10836   2.053   0.592  12.951  0.6434  0.3606 -0.0850
  733TMC3     H10837   2.367   0.547  13.170 -3.3163 -0.3458 -0.2600
  733TMC3    H110838   2.197   0.568  12.784 -0.4321  0.4926  1.4292
  733TMC3    H210839   2.594   0.446  12.811 -0.3097  0.0849 -0.7280
  733TMC3    C710840   2.405   0.480  12.647  0.6248  0.0281  0.7316
  733TMC3    C810841   2.598   0.434  13.088 -0.0404 -0.3697  0.3205
  733TMC3    O110842   2.322   0.546  12.585 -0.5907 -0.1154  0.0586
  733TMC3    O210843   2.610   0.490  13.192  0.5043  0.0563 -0.5133
  734MPD2     C10844   0.109   2.743  12.477 -0.1005 -0.5480  0.6689
  734MPD2    C110845   0.024   2.681  12.389 -0.4018 -0.5744  0.1211
  734MPD2    C210846   0.050   2.688  12.258 -0.3086 -0.0991 -0.0456
  734MPD2    C310847   0.150   2.763  12.206  0.2692  0.7404 -0.1315
  734MPD2    C410848   0.231   2.837  12.295 -0.1331 -0.1009  0.3435
  734MPD2    C510849   0.213   2.817  12.430  0.3605  0.1039 -0.3266
  734MPD2     H10850   4.712   2.640  12.181 -1.1578  0.6705  0.1434
  734MPD2    H110851   0.310   2.903  12.260 -2.6817  1.1613 -3.0644
  734MPD2    H210852   0.100   2.724  12.583  0.7358 -1.3028  0.6025
  734MPD2    H310853   0.270   2.868  12.507  0.0424  0.0946 -0.0835
  734MPD2     N10854   0.170   2.760  12.063  0.1068  0.6005 -0.1615
  734MPD2    H510855   0.085   2.731  12.016  0.0374  1.2596 -0.4469
  734MPD2    N110856   4.631   2.613  12.434  0.0977  0.4976 -0.0339
  734MPD2    H710857   4.621   2.586  12.531  1.0851  2.9415  0.7511
  735TMC3    C110858   4.455   2.450  12.390 -0.0797  0.5587  0.1378
  735TMC3    C210859   4.355   2.418  12.306  0.0582 -0.4626  0.0673
  735TMC3    C310860   4.341   2.292  12.263 -0.3174 -0.2001  0.5857
  735TMC3    C410861   4.542   2.351  12.437  0.7084  0.0269 -0.0513
  735TMC3    C510862   4.524   2.222  12.401  0.0359 -0.0971 -0.3904
  735TMC3    C610863   4.431   2.198  12.300 -0.6698  0.6805 -0.1448
  735TMC3     C10864   4.532   2.572  12.348  0.2241 -0.4727  0.2888
  735TMC3     O10865   4.497   2.607  12.233  0.5574 -0.3637  0.4476
  735TMC3     H10866   4.282   2.491  12.274  0.2938  0.1146  0.8637
  735TMC3    H110867   4.634   2.365  12.493 -0.2381  0.2796  1.4443
  735TMC3    H210868   4.423   2.102  12.251  0.8694  0.0288  0.8635
  735TMC3    C710869   4.634   2.129  12.430  0.0666 -0.9264 -0.1917
  735TMC3    C810870   4.307   2.279  12.122 -0.0152  0.2485  0.2983
  735TMC3    O110871   0.007   2.162  12.503 -0.0120  0.0537 -0.2792
  735TMC3    O210872   4.272   2.169  12.081 -0.2238  0.0741 -0.2142
  736MPD2     C10873   4.652   1.772  12.353 -0.4092 -0.4371  0.1195
  736MPD2    C110874   4.696   1.901  12.377 -0.4932 -0.0213  0.0803
  736MPD2    C210875   0.110   1.928  12.358 -0.3897 -0.3852 -0.3265
  736MPD2    C310876   0.196   1.821  12.325  0.3840 -0.7232 -0.2846
  736MPD2    C410877   0.143   1.696  12.315 -0.1619 -0.0612  0.0946
  736MPD2    C510878   0.013   1.672  12.323  0.3550  0.4535 -0.3418
  736MPD2     H10879   0.150   2.027  12.373  1.1726 -1.3495  1.8702
  736MPD2    H110880   0.209   1.611  12.305  0.7604  0.8746 -1.9915
  736MPD2    H210881   4.546   1.751  12.362 -0.7908  1.9804  1.1279
  736MPD2    H310882   4.695   1.572  12.313  1.5378 -0.1621  1.1624
  736MPD2     N10883   0.334   1.828  12.304  0.3478 -0.7903  0.0622
  736MPD2    H510884   0.382   1.740  12.289  1.0189 -0.0375 -2.2074
  736MPD2    N110885   4.593   2.000  12.398 -0.3409  0.2642  0.2882
  736MPD2    H710886   4.495   1.976  12.383  0.3912 -2.1961 -0.5254
  737TMC3    C110887   0.542   1.936  12.286 -0.1642  0.5459 -0.0866
  737TMC3    C210888   0.582   2.051  12.221 -0.6987  0.3967  0.8434
  737TMC3    C310889   0.603   2.034  12.084  0.1868 -0.6288 -0.6058
  737TMC3    C410890   0.575   1.812  12.233  0.4215  0.0766  0.1382
  737TMC3    C510891   0.614   1.803  12.104 -0.0576  0.5438 -0.2174
  737TMC3    C610892   0.619   1.910  12.026  0.2043 -0.5272 -1.0420
  737TMC3     C10893   0.402   1.952  12.312 -0.6556 -0.0338  0.8555
  737TMC3     O10894   0.364   2.068  12.322  0.1389  0.3418  0.0903
  737TMC3     H10895   0.587   2.152  12.261 -3.1243  1.1514 -0.7176
  737TMC3    H110896   0.569   1.723  12.294  0.0277  1.1872  1.7435
  737TMC3    H210897   0.629   1.901  11.919  0.2326 -1.6848 -0.9416
  737TMC3    C710898   0.647   1.680  12.042  0.3057  0.4064  0.9862
  737TMC3    C810899   0.628   2.150  11.998 -0.4142  0.5288 -0.5848
  737TMC3    O110900   0.594   1.581  12.092  0.1779  0.4609  0.1263
  737TMC3    O210901   0.676   2.250  12.052 -0.3288  0.1856 -0.1389
  738MPD2     C10902   0.735   1.217  15.249  0.6979 -0.4864 -0.1040
  738MPD2    C110903   0.667   1.177  15.136  0.0429 -0.8484  0.1112
  738MPD2    C210904   0.691   1.243  15.014  0.5553 -0.1325 -0.2626
  738MPD2    C310905   0.783   1.348  15.017  0.3205 -0.5173  0.4953
  738MPD2    C410906   0.840   1.387  15.135 -0.1672 -0.2902 -0.7714
  738MPD2    C510907   0.818   1.323  15.248 -0.1488 -0.3998 -0.2983
  738MPD2     H10908   0.644   1.209  14.923  0.7992 -0.4336 -0.2772
  738MPD2    H110909   0.902   1.475  15.149 -2.2600  0.8342  1.4345
  738MPD2    H210910   0.716   1.169  15.344 -1.0538 -0.0488 -0.2255
  738MPD2    H310911   0.880   1.338  15.336 -3.3605  0.8859  1.7388
  738MPD2     N10912   0.820   1.429  14.905  0.6884 -0.0415 -0.4400
  738MPD2    H510913   0.877   1.510  14.926  0.4012 -0.7901  3.2361
  738MPD2    N110914   0.566   1.075  15.131  0.5288 -0.3070  0.6913
  738MPD2    H710915   0.532   1.049  15.039 -2.5956 -0.5853  1.9024
  739TMC3    C110916   0.852   1.510  14.682 -0.1259  0.2689 -0.0731
  739TMC3    C210917   0.819   1.498  14.549 -0.0405  0.3965  0.2122
  739TMC3    C310918   0.901   1.570  14.466  0.1892  0.6645  0.5070
  739TMC3    C410919   0.951   1.588  14.738  0.2420  0.0288  0.7703
  739TMC3    C510920   1.021   1.656  14.643 -0.0158 -0.4472 -0.3133
  739TMC3    C610921   1.008   1.649  14.505 -0.1321 -0.6787  0.5512
  739TMC3     C10922   0.787   1.414  14.772  0.0975 -0.8289  0.3540
  739TMC3     O10923   0.707   1.338  14.720  0.2184  0.0247 -0.4819
  739TMC3     H10924   0.740   1.438  14.504  0.5260 -1.0872  1.1812
  739TMC3    H110925   0.974   1.596  14.843  1.7532 -1.5440  0.5723
  739TMC3    H210926   1.069   1.708  14.438 -1.5305  1.1682  0.9189
  739TMC3    C710927   1.134   1.740  14.677 -0.5670  0.1864 -0.6993
  739TMC3    C810928   0.876   1.557  14.319  0.5071 -0.3438 -0.2767
  739TMC3    O110929   1.212   1.684  14.754  0.0527  0.2344  0.3089
  739TMC3    O210930   0.776   1.494  14.287 -0.2333  0.0929 -0.0185
  740TMC3    C110931   1.402   2.408  14.651  0.4760 -0.3831 -0.7394
  740TMC3    C210932   1.374   2.332  14.761  0.0340 -0.1690  0.1706
  740TMC3    C310933   1.482   2.263  14.817 -0.6811  0.1041 -0.3968
  740TMC3    C410934   1.533   2.424  14.604 -0.5507 -0.3140 -0.4453
  740TMC3    C510935   1.631   2.347  14.658  0.1767  0.7587  0.1575
  740TMC3    C610936   1.613   2.269  14.771  0.1696  0.0673  0.6667
  740TMC3     C10937   1.292   2.476  14.578 -0.2409  0.0281  0.6018
  740TMC3     O10938   1.323   2.554  14.484 -0.2970  0.3310  0.3764
  740TMC3     H10939   1.276   2.304  14.798 -0.4149  1.0920 -0.0511
  740TMC3    H110940   1.556   2.486  14.518  2.2716 -1.0657 -0.2064
  740TMC3    H210941   1.689   2.201  14.809 -1.2670 -0.7359  2.1061
  740TMC3    C710942   1.737   2.303  14.572 -0.3341 -0.2909  0.0845
  740TMC3    C810943   1.464   2.177  14.930  0.5068  0.3404 -0.3891
  740TMC3    O110944   1.826   2.239  14.625 -0.2736 -0.0518  0.5973
  740TMC3    O210945   1.547   2.187  15.020 -0.3651 -0.0918  0.0651
  741TMC3    C110946   0.620   1.867  14.048 -0.1103 -0.1949  0.3043
  741TMC3    C210947   0.573   1.772  14.137  0.1506  0.3765  0.9488
  741TMC3    C310948   0.627   1.772  14.266  0.6747  0.9390 -0.4287
  741TMC3    C410949   0.723   1.952  14.079  0.9327 -0.6296 -0.2049
  741TMC3    C510950   0.776   1.949  14.205 -0.5356 -0.1921  0.3138
  741TMC3    C610951   0.736   1.854  14.296  0.1736 -0.5307 -0.0770
  741TMC3     C10952   0.558   1.867  13.919  0.1546  0.4207  0.5792
  741TMC3     O10953   0.439   1.832  13.909 -0.3525 -0.0538 -0.0645
  741TMC3     H10954   0.493   1.710  14.096  1.2118 -1.1206  1.1549
  741TMC3    H110955   0.766   2.016  14.003 -0.4905  0.1622 -0.3544
  741TMC3    H210956   0.769   1.865  14.398 -1.7880  3.3261  0.1211
  741TMC3    C710957   0.915   2.004  14.218  0.4250 -0.1029  0.4777
  741TMC3    C810958   0.543   1.726  14.366 -0.1214  0.0860 -0.7130
  741TMC3    O110959   1.017   1.939  14.246  0.0546 -0.0621 -0.2443
  741TMC3    O210960   0.474   1.802  14.436 -0.1411 -0.0788  0.9561
  742TMC3    C110961   0.310   0.272  15.268  0.2885 -0.9015  0.0874
  742TMC3    C210962   0.286   0.312  15.141 -0.2035  0.8734  0.1929
  742TMC3    C310963   0.376   0.273  15.042  0.1041  0.0647  0.1837
  742TMC3    C410964   0.410   0.183  15.298  0.3603 -0.2981 -0.3186
  742TMC3    C510965   0.499   0.147  15.198  0.4287 -0.8995  0.1418
  742TMC3    C610966   0.485   0.188  15.068 -0.2174 -0.4594  0.5249
  742TMC3     C10967   0.260   0.352  15.374  0.8265  0.3125  0.2188
  742TMC3     O10968   0.265   0.472  15.358 -0.5265 -0.1669  0.3461
  742TMC3     H10969   0.226   0.401  15.128 -0.7526  0.0416 -2.8333
  742TMC3    H110970   0.432   0.148  15.398  1.0261  0.5845 -0.1554
  742TMC3    H210971   0.540   0.146  14.985  0.6155 -0.3532  1.0324
  742TMC3    C710972   0.617   0.070  15.233 -0.3344 -0.0336 -0.4457
  742TMC3    C810973   0.331   0.267  14.901 -0.2693 -0.1724 -0.3387
  742TMC3    O110974   0.619   4.713  15.326 -0.3656  0.1506  0.3850
  742TMC3    O210975   0.406   0.213  14.815 -0.9219  0.3971  0.1334
  743MPD2     C10976   0.135   1.454   1.763  0.5367  0.7644  0.5128
  743MPD2    C110977   0.148   1.501   1.636  0.3581 -0.3184  0.0035
  743MPD2    C210978   0.273   1.562   1.596  0.2652 -0.5023 -0.3580
  743MPD2    C310979   0.377   1.575   1.680 -0.7907 -0.0624 -0.4924
  743MPD2    C410980   0.369   1.509   1.799  0.5749  0.3781  0.1689
  743MPD2    C510981   0.251   1.451   1.841 -0.4336  0.9653 -0.5372
  743MPD2     H10982   0.283   1.603   1.496 -3.7645  3.0772  0.7220
  743MPD2    H110983   0.447   1.506   1.875  0.8249  1.6217 -0.0413
  743MPD2    H210984   0.045   1.397   1.781  1.0932 -0.8811 -1.9325
  743MPD2    H310985   0.249   1.394   1.934  0.5398  0.7923 -0.6153
  743MPD2     N10986   0.489   1.653   1.632 -0.1726 -0.0281 -0.2589
  743MPD2    H510987   0.463   1.705   1.549  2.3108  0.7800 -0.5362
  743MPD2    N110988   0.030   1.497   1.568  0.3961  0.4028 -0.4290
  743MPD2    H710989   4.667   1.469   1.616 -0.3898 -0.0953 -2.1266
  744TMC3    C110990   4.616   1.503   1.379 -0.5245  0.8218 -0.5787
  744TMC3    C210991   4.525   1.580   1.442 -0.5576  0.6256 -0.5592
  744TMC3    C310992   4.401   1.589   1.394 -0.2659  0.1128 -0.1507
  744TMC3    C410993   4.592   1.431   1.266 -0.2588 -0.4124 -0.0014
  744TMC3    C510994   4.458   1.437   1.229 -0.5399  0.1420 -0.6310
  744TMC3    C610995   4.360   1.508   1.290  0.9511  0.0229 -0.1662
  744TMC3     C10996   0.026   1.509   1.426  0.3602 -0.1135  0.9856
  744TMC3     O10997   0.120   1.495   1.348 -0.4498 -0.0981 -0.2402
  744TMC3     H10998   4.560   1.633   1.529  0.3281  3.7551 -2.8184
  744TMC3    H110999   4.662   1.374   1.206 -0.4630  0.0245 -0.6548
  744TMC3    H211000   4.259   1.525   1.254  0.7712 -2.7385 -0.9265
  744TMC3    C711001   4.412   1.354   1.117 -0.8765  0.1406  0.1811
  744TMC3    C811002   4.294   1.659   1.467  0.2816  0.6158 -0.1038
  744TMC3    O111003   4.297   1.372   1.084 -0.5533 -0.0260  0.1847
  744TMC3    O211004   4.175   1.622   1.463  0.3710  0.0872 -0.1899
  745TMC3    C111005   0.701   4.614  13.470  0.4090 -0.2647  0.5127
  745TMC3    C211006   0.574   4.628  13.529 -0.2067  0.3290  0.9684
  745TMC3    C311007   0.483   4.699  13.456 -0.0972  0.5118 -0.4620
  745TMC3    C411008   0.730   4.688  13.355  0.8178  0.5965  0.8144
  745TMC3    C511009   0.632   0.028  13.293  0.1649 -0.6057  0.0190
  745TMC3    C611010   0.503   0.028  13.337 -0.4066  0.1182  0.3974
  745TMC3     C11011   0.808   4.595  13.567 -0.6544 -0.2204 -0.2693
  745TMC3     O11012   0.784   4.518  13.658  0.5586 -0.0648  0.2675
  745TMC3     H11013   0.542   4.562  13.609 -0.7386  0.6810  1.0440
  745TMC3    H111014   0.827   4.684  13.306  0.1056  2.4435 -0.7259
  745TMC3    H211015   0.427   0.098  13.304  0.3218 -0.0609 -1.6329
  745TMC3    C711016   0.649   0.103  13.173 -0.4053  0.0917 -0.5066
  745TMC3    C811017   0.377   0.040  13.536  0.2446 -0.9337 -0.6511
  745TMC3    O111018   0.553   0.143  13.114 -0.5421 -0.3600 -0.5419
  745TMC3    O211019   0.277   0.067  13.475  0.3037 -0.2246 -0.0064
  746TMC3    C111020   3.693   1.600  11.011  0.7384 -0.1758  0.5224
  746TMC3    C211021   3.805   1.591  10.928 -0.6782 -0.6102  0.7429
  746TMC3    C311022   3.789   1.495  10.830 -0.1096  0.3868 -0.2156
  746TMC3    C411023   3.588   1.506  10.999  0.2931  0.1884 -0.2282
  746TMC3    C511024   3.594   1.399  10.919  0.4495 -0.9429  0.2592
  746TMC3    C611025   3.694   1.397  10.829  0.3024  0.3869  0.3525
  746TMC3     C11026   3.655   1.726  11.065  0.2385 -0.0764 -0.6451
  746TMC3     O11027   3.534   1.756  11.077 -0.1990  0.5375  0.3549
  746TMC3     H11028   3.886   1.663  10.916  0.4519 -1.7994  1.2381
  746TMC3    H111029   3.496   1.526  11.051 -1.0821  0.1228 -2.6369
  746TMC3    H211030   3.689   1.338  10.737 -2.4043  0.7150  0.3031
  746TMC3    C711031   3.467   1.338  10.887 -0.4730 -0.6873 -0.8147
  746TMC3    C811032   3.864   1.508  10.705 -0.4264  0.3891 -0.0513
  746TMC3    O111033   3.443   1.322  10.772  0.0954  0.1255  0.3347
  746TMC3    O211034   3.890   1.399  10.647  0.7864  0.2755 -0.3339
  747TMC3    C111035   0.996   1.876  11.112  0.2874  0.5143 -0.1649
  747TMC3    C211036   0.933   1.769  11.174 -0.1312  1.3261 -0.2520
  747TMC3    C311037   0.995   1.704  11.281 -0.0844  0.6066  0.1925
  747TMC3    C411038   1.107   1.936  11.160  0.4501  0.2060 -0.2492
  747TMC3    C511039   1.170   1.862  11.263 -0.4014  0.6550  0.3926
  747TMC3    C611040   1.113   1.755  11.326 -0.0195 -0.2644 -0.1371
  747TMC3     C11041   0.942   1.921  10.991 -0.6669  0.4076 -0.2626
  747TMC3     O11042   0.922   2.042  10.980 -0.0614  0.7046 -0.0296
  747TMC3     H11043   0.836   1.739  11.137 -0.0417  0.1823  0.4087
  747TMC3    H111044   1.157   2.003  11.092  0.2681 -0.3808 -0.9690
  747TMC3    H211045   1.155   1.700  11.409  1.1209  0.2031 -0.4112
  747TMC3    C711046   1.299   1.903  11.308 -0.3813  0.0744  0.3675
  747TMC3    C811047   0.898   1.633  11.364 -0.5571 -0.5970  0.2125
  747TMC3    O111048   1.326   1.884  11.427 -0.6698 -0.4412  0.0737
  747TMC3    O211049   0.797   1.604  11.307  0.2634  0.2941 -0.0787
  748MPD2     C11050   2.572   2.381   1.701  0.4118 -0.7637 -0.3989
  748MPD2    C111051   2.666   2.285   1.667 -0.2086  0.3380 -0.1221
  748MPD2    C211052   2.788   2.329   1.623  0.1726  0.1624 -0.4394
  748MPD2    C311053   2.826   2.463   1.634  0.9133 -0.4936  0.7690
  748MPD2    C411054   2.738   2.555   1.674 -0.4330 -0.2123 -0.4159
  748MPD2    C511055   2.606   2.515   1.700 -0.0719 -0.0184 -0.8120
  748MPD2     H11056   2.861   2.255   1.594  0.5611  0.0307  0.8429
  748MPD2    H111057   2.766   2.656   1.703 -0.7267 -0.0106 -0.8424
  748MPD2    H211058   2.467   2.359   1.716  0.2322  1.2487  1.2803
  748MPD2    H311059   2.546   2.600   1.729 -1.4032 -0.4443 -2.3354
  748MPD2     N11060   2.953   2.505   1.592 -0.2782  0.8061  0.6415
  748MPD2    H511061   3.015   2.430   1.562 -0.8457  0.3965  0.4936
  748MPD2    N111062   2.634   2.148   1.676  0.4091  0.3633 -0.0470
  748MPD2    H711063   2.539   2.120   1.698  0.1784  1.2094  0.0245
  749TMC3    C111064   3.101   2.625   1.464  1.1906 -0.1902 -0.1406
  749TMC3    C211065   3.212   2.569   1.526 -0.3004  0.1333 -0.2647
  749TMC3    C311066   3.331   2.601   1.475  0.0111  0.6612 -0.2990
  749TMC3    C411067   3.117   2.711   1.354  0.3553  0.4905  0.7105
  749TMC3    C511068   3.240   2.723   1.301  0.3742 -0.1476 -0.1018
  749TMC3    C611069   3.352   2.670   1.359 -0.0227  0.4557 -0.4925
  749TMC3     C11070   2.978   2.627   1.536  1.4041 -0.5817 -0.6892
  749TMC3     O11071   2.896   2.719   1.514  0.7496  0.0898  0.5260
  749TMC3     H11072   3.202   2.504   1.612  2.9764 -0.6446 -0.4774
  749TMC3    H111073   3.031   2.742   1.297  1.4004  1.8409 -0.1196
  749TMC3    H211074   3.446   2.700   1.313  0.8013 -1.2382  0.0965
  749TMC3    C711075   3.266   2.834   1.205 -0.3670  0.4085  0.0002
  749TMC3    C811076   3.444   2.546   1.535  0.4757 -0.9645  0.2023
  749TMC3    O111077   3.350   2.914   1.247 -0.0785  0.2637 -0.4852
  749TMC3    O211078   3.436   2.534   1.657  0.0362 -0.4581  0.0988
  750MPD2     C11079   4.118   3.619  11.516 -0.2723 -0.8976  0.2651
  750MPD2    C111080   4.033   3.524  11.571  0.3389 -0.2383 -0.6699
  750MPD2    C211081   3.965   3.439  11.489 -0.2858 -0.5656  0.6475
  750MPD2    C311082   3.990   3.431  11.352 -0.0761 -0.2947 -0.3064
  750MPD2    C411083   4.079   3.529  11.301 -0.7121 -0.8580 -0.0636
  750MPD2    C511084   4.141   3.620  11.378  0.0178 -0.5578  0.7442
  750MPD2     H11085   3.893   3.368  11.528  0.4308 -1.5483  0.1899
  750MPD2    H111086   4.109   3.529  11.197  3.0095 -0.0720  0.9977
  750MPD2    H211087   4.170   3.697  11.571 -0.7237 -0.4885  0.1076
  750MPD2    H311088   4.202   3.698  11.335  2.4752 -0.3609  4.5888
  750MPD2     N11089   3.931   3.350  11.255  1.2189  0.1923  0.3858
  750MPD2    H511090   3.976   3.368  11.166  0.9507 -0.6590  0.0792
  750MPD2    N111091   4.014   3.531  11.712 -0.2794 -0.2790 -0.3103
  750MPD2    H711092   4.060   3.610  11.755 -0.4515 -0.7381  0.7087
  751TMC3    C111093   3.803   3.180  11.154  0.6042  0.4054 -0.4124
  751TMC3    C211094   3.666   3.152  11.152 -0.2597  0.4617  0.1819
  751TMC3    C311095   3.613   3.102  11.041  0.2633 -0.7490  0.1902
  751TMC3    C411096   3.895   3.165  11.054  0.3094 -0.4288  0.6908
  751TMC3    C511097   3.838   3.095  10.950  0.3331 -0.1222  0.5491
  751TMC3    C611098   3.699   3.067  10.941  0.3743  0.3732 -0.1135
  751TMC3     C11099   3.843   3.252  11.274 -1.0138  0.9093  0.1052
  751TMC3     O11100   3.788   3.219  11.378 -0.1966 -0.0457  0.0988
  751TMC3     H11101   3.605   3.178  11.238 -0.8717  1.4761 -0.5505
  751TMC3    H111102   3.996   3.201  11.065  0.2604  0.1167 -0.6051
  751TMC3    H211103   3.656   3.016  10.856  0.7204 -2.6594  1.5327
  751TMC3    C711104   3.923   3.029  10.858 -0.1354  0.0440  0.8070
  751TMC3    C811105   3.468   3.090  11.014  0.2949  0.3602 -0.0201
  751TMC3    O111106   4.031   3.080  10.843  0.0798  0.4042 -0.3926
  751TMC3    O211107   3.447   3.032  10.907 -0.0095 -0.2130  0.3460
  752TMC3    C111108   1.916   3.649  17.376 -0.0440  0.0011  0.5075
  752TMC3    C211109   1.787   3.679  17.339 -0.0744 -0.1482  0.7499
  752TMC3    C311110   1.686   3.681  17.437 -0.7244 -0.2929  0.4584
  752TMC3    C411111   1.947   3.622  17.506 -0.3343 -0.1823 -0.1925
  752TMC3    C511112   1.841   3.617  17.591 -0.5510 -0.5226  0.2889
  752TMC3    C611113   1.716   3.656  17.563  0.1419  0.0376  0.1309
  752TMC3     C11114   2.027   3.650  17.287  0.0730 -0.1013 -0.4651
  752TMC3     O11115   2.138   3.626  17.330 -0.3806  0.3191  0.4419
  752TMC3     H11116   1.780   3.722  17.240 -1.4409 -1.0228  0.4667
  752TMC3    H111117   2.049   3.608  17.542 -0.1007 -0.6859 -1.0456
  752TMC3    H211118   1.635   3.673  17.633 -0.3463  0.6820 -0.5752
  752TMC3    C711119   1.890   3.623   0.038  0.0261  0.3535 -0.1895
  752TMC3    C811120   1.553   3.722  17.402 -0.0016 -0.1901 -0.3717
  752TMC3    O111121   2.009   3.638   0.060 -0.7098 -0.0290  0.8739
  752TMC3    O211122   1.478   3.730  17.498 -0.2159  0.4054 -0.3759
  753TMC3    C111123   4.223   0.111  13.248  0.3520 -0.2317  0.9237
  753TMC3    C211124   4.248   0.111  13.387  0.1680  0.3801  0.4661
  753TMC3    C311125   4.290   4.717  13.441 -0.1868  0.7746  0.5683
  753TMC3    C411126   4.237   4.721  13.164 -0.3411 -0.6992  0.0373
  753TMC3    C511127   4.287   4.606  13.226 -0.4003  0.1307  0.1583
  753TMC3    C611128   4.307   4.607  13.365 -0.2536 -0.0220 -0.3431
  753TMC3     C11129   4.169   0.221  13.176 -0.4999  0.0612 -0.1947
  753TMC3     O11130   4.119   0.199  13.066 -0.1113  0.0440  0.2453
  753TMC3     H11131   4.208   0.193  13.447  1.5765  1.5124 -0.1250
  753TMC3    H111132   4.216   4.718  13.058 -1.3894  0.5808  0.2083
  753TMC3    H211133   4.350   4.521  13.415 -0.3872 -0.7648 -1.4939
  753TMC3    C711134   4.278   4.483  13.157  0.5626  0.0574  0.0632
  753TMC3    C811135   4.277   4.692  13.585  0.1719 -0.4433  0.2938
  753TMC3    O111136   4.271   4.485  13.031  0.2267  0.1322 -0.0357
  753TMC3    O211137   4.241   4.578  13.613 -0.3438  0.5976 -0.4204
  754MPD2     C11138   3.405   3.347  13.090  0.2310 -0.2661 -0.1975
  754MPD2    C111139   3.373   3.218  13.056  0.2243  0.1503 -0.2034
  754MPD2    C211140   3.234   3.194  13.038 -0.1265 -0.3014 -0.5594
  754MPD2    C311141   3.137   3.288  13.043 -0.3419  0.3806 -1.0641
  754MPD2    C411142   3.176   3.418  13.073 -0.1965 -0.3628 -0.1669
  754MPD2    C511143   3.312   3.439  13.104 -0.6154  0.4844 -0.7081
  754MPD2     H11144   3.209   3.091  13.017  0.1081 -0.3938 -0.3901
  754MPD2    H111145   3.103   3.496  13.087  1.7406  1.7147 -1.6646
  754MPD2    H211146   3.503   3.382  13.121  0.7166 -1.9564  0.1650
  754MPD2    H311147   3.334   3.540  13.137 -0.3780  0.6549 -1.3795
  754MPD2     N11148   2.996   3.265  13.005  0.0262  0.8315  0.1476
  754MPD2    H511149   2.928   3.341  13.006 -1.3677 -0.4195  1.5195
  754MPD2    N111150   3.478   3.122  13.044  0.0710  0.0780 -0.1876
  754MPD2    H711151   3.571   3.157  13.063  0.1424 -0.5008  0.5476
  755MPD2     C11152   2.317   3.814  13.120 -0.0054 -0.6112 -0.1801
  755MPD2    C111153   2.258   3.692  13.120 -0.4926 -0.5208 -0.2486
  755MPD2    C211154   2.337   3.585  13.079  0.7724 -0.0612 -0.6489
  755MPD2    C311155   2.471   3.593  13.045  0.6892 -0.1586 -0.1756
  755MPD2    C411156   2.529   3.717  13.051 -0.5689 -0.5243 -0.3429
  755MPD2    C511157   2.453   3.829  13.093  0.6074 -0.1709 -0.0588
  755MPD2     H11158   2.291   3.488  13.070 -1.5395  0.8415  1.4136
  755MPD2    H111159   2.631   3.740  13.021 -0.5063  1.4027  1.3130
  755MPD2    H211160   2.263   3.905  13.142 -0.2838 -0.6539 -0.6809
  755MPD2    H311161   2.485   3.932  13.096  0.1229 -0.0267  0.1180
  755MPD2     N11162   2.549   3.484  12.995  0.3202 -0.4100  0.1747
  755MPD2    H511163   2.645   3.508  12.972  0.2213  0.8433  1.0615
  755MPD2    N111164   2.122   3.663  13.148 -0.0663  0.5146 -0.5419
  755MPD2    H711165   2.097   3.565  13.139 -0.8518  0.5912  0.7182
  756MPD2     C11166   3.291   4.206   9.527  0.3769  0.3643  0.1674
  756MPD2    C111167   3.253   4.126   9.629  0.3398  0.6449  0.2491
  756MPD2    C211168   3.158   4.025   9.599  0.1803  0.1644  0.0265
  756MPD2    C311169   3.092   4.015   9.484  0.6262  0.1503 -0.0472
  756MPD2    C411170   3.121   4.106   9.383  0.2437  0.2535  0.1640
  756MPD2    C511171   3.219   4.194   9.408  0.6066  0.7961  0.7246
  756MPD2     H11172   3.133   3.952   9.676 -0.0572  0.3128  0.0929
  756MPD2    H111173   3.062   4.113   9.293  0.2297  1.2351  0.2446
  756MPD2    H211174   3.361   4.288   9.535  1.9512 -0.6105 -3.4592
  756MPD2    H311175   3.242   4.265   9.329 -1.5045  0.0471 -0.5507
  756MPD2     N11176   3.014   3.895   9.460  0.5853  0.2784 -0.2323
  756MPD2    H511177   3.014   3.815   9.523 -0.0074 -0.9016 -1.7283
  756MPD2    N111178   3.302   4.144   9.763 -0.4463 -0.1216  0.1553
  756MPD2    H711179   3.256   4.082   9.829 -1.0721  0.2427  0.0621
  757MPD2     C11180   3.143   2.951   9.573  0.0876  0.0970  0.2704
  757MPD2    C111181   3.027   2.944   9.507 -0.0997  0.1443  0.4276
  757MPD2    C211182   2.957   3.059   9.476  0.2929 -0.3193 -0.2572
  757MPD2    C311183   3.013   3.182   9.513 -0.2071  0.1804 -0.1105
  757MPD2    C411184   3.134   3.186   9.589  0.1727  0.1041  0.0810
  757MPD2    C511185   3.190   3.068   9.621  0.3024  0.6749  0.1532
  757MPD2     H11186   2.873   3.057   9.408  0.1917 -0.8656 -0.1150
  757MPD2    H111187   3.179   3.280   9.615 -2.2014  0.5740  2.4681
  757MPD2    H211188   3.193   2.858   9.598 -0.2404  0.5646  2.7606
  757MPD2    H311189   3.270   3.069   9.693  0.2651  0.9241  0.1942
  757MPD2     N11190   2.942   3.301   9.483 -0.2594 -0.0601 -0.1384
  757MPD2    H511191   2.854   3.290   9.433  0.0304 -1.3411 -0.3767
  757MPD2    N111192   2.979   2.815   9.474  0.8581  0.6129 -0.6792
  757MPD2    H711193   3.035   2.739   9.510 -0.1502 -0.7001 -1.8585
  758MPD2     C11194   2.843   3.309  16.454  0.1848  0.0440 -0.1085
  758MPD2    C111195   2.905   3.232  16.553 -0.0812 -1.2826 -0.1121
  758MPD2    C211196   2.890   3.274  16.684 -0.4446 -1.1204  0.2714
  758MPD2    C311197   2.829   3.400  16.717 -0.3437 -0.0708  0.0387
  758MPD2    C411198   2.772   3.477  16.616  0.0002 -0.1032  0.0921
  758MPD2    C511199   2.790   3.434  16.484 -0.5140  0.2317 -0.0359
  758MPD2     H11200   2.932   3.212  16.762 -0.8961  0.8415  2.0817
  758MPD2    H111201   2.724   3.573  16.635  2.3918  1.4311 -1.6088
  758MPD2    H211202   2.861   3.285  16.350 -1.2190 -1.4388 -0.0135
  758MPD2    H311203   2.757   3.492  16.399 -0.4765  1.5638  0.8484
  758MPD2     N11204   2.803   3.427  16.851  0.1233  0.0122 -0.5752
  758MPD2    H511205   2.739   3.504  16.869  0.9408 -0.0550  2.5356
  758MPD2    N111206   2.967   3.118  16.509  0.4815  0.8121  0.2996
  758MPD2    H711207   2.954   3.090  16.412 -0.6467 -1.4541  1.0977
  759MPD2     C11208   1.781   2.199  10.085  0.4726 -0.2645 -0.3620
  759MPD2    C111209   1.695   2.111  10.016  0.3330  0.3497  0.1259
  759MPD2    C211210   1.717   2.102   9.882 -0.4778  0.5321 -0.6667
  759MPD2    C311211   1.810   2.176   9.815 -0.2074 -0.0680  0.4057
  759MPD2    C411212   1.885   2.263   9.887 -0.1178 -0.1991  0.3291
  759MPD2    C511213   1.876   2.269  10.022  0.6236  0.0158 -0.0346
  759MPD2     H11214   1.658   2.025   9.833  0.6335  0.8506 -2.5346
  759MPD2    H111215   1.954   2.329   9.835  1.0086 -1.1868  0.5623
  759MPD2    H211216   1.768   2.214  10.192  0.6654  0.5540 -0.4531
  759MPD2    H311217   1.934   2.342  10.078  0.4066 -0.5785  0.9610
  759MPD2     N11218   1.815   2.182   9.674  0.0561  0.0245  0.0673
  759MPD2    H511219   1.733   2.138   9.635  1.3141 -0.5577 -1.9108
  759MPD2    N111220   1.598   2.030  10.078  0.2890 -0.1302 -0.6365
  759MPD2    H711221   1.554   1.976  10.005 -1.0098  0.2310 -0.1143
  760MPD2     C11222   1.439   3.661  11.997 -0.7647 -0.0011 -0.4035
  760MPD2    C111223   1.572   3.647  12.001 -0.0815  0.6529 -0.4804
  760MPD2    C211224   1.631   3.521  12.040  0.6569 -0.5580  0.3247
  760MPD2    C311225   1.548   3.414  12.064  0.3922 -0.7965  0.4802
  760MPD2    C411226   1.414   3.430  12.066 -0.4601  0.3719 -0.7492
  760MPD2    C511227   1.363   3.552  12.042 -0.7046 -0.0361  0.4842
  760MPD2     H11228   1.739   3.523  12.042  0.5462  2.3795  3.2172
  760MPD2    H111229   1.348   3.346  12.085 -1.1565  1.6653  2.5402
  760MPD2    H211230   1.379   3.744  11.963 -1.3017 -0.3441 -0.3072
  760MPD2    H311231   1.257   3.575  12.050 -0.3603  1.4360  0.7230
  760MPD2     N11232   1.599   3.284  12.101 -0.0426  0.3470 -0.0087
  760MPD2    H511233   1.537   3.205  12.114  0.0589  0.1712 -0.5585
  760MPD2    N111234   1.658   3.753  11.968 -0.1191  0.2092 -0.6607
  760MPD2    H711235   1.755   3.738  11.996 -0.2320  1.4863  0.3919
  761MPD2     C11236   3.007   2.971  11.192 -0.6261  0.4455  1.0341
  761MPD2    C111237   3.074   2.932  11.084 -0.9096  0.1172 -0.5401
  761MPD2    C211238   3.200   2.983  11.061 -0.7289 -0.0298 -0.2881
  761MPD2    C311239   3.259   3.081  11.140  0.5272 -0.4261 -0.3891
  761MPD2    C411240   3.190   3.130  11.243  0.2774  0.0168  0.1649
  761MPD2    C511241   3.063   3.075  11.264  0.4119 -0.7949 -0.1172
  761MPD2     H11242   3.255   2.926  10.987 -0.6878  0.8905 -0.9586
  761MPD2    H111243   3.219   3.203  11.318  0.8361 -0.1452  0.1045
  761MPD2    H211244   2.910   2.927  11.216  0.5423 -2.6287  0.0462
  761MPD2    H311245   3.020   3.107  11.358 -1.7602  0.1620 -1.4562
  761MPD2     N11246   3.396   3.119  11.128  0.2303  0.3002  0.3680
  761MPD2    H511247   3.432   3.173  11.207 -2.0279  2.5034 -0.0945
  761MPD2    N111248   3.032   2.843  10.987  0.1433 -0.7746  0.2947
  761MPD2    H711249   3.092   2.828  10.907 -2.2049  2.0398 -2.0140
  762MPD2     C11250   3.466   2.824  10.661  0.2176  0.8189  0.0359
  762MPD2    C111251   3.436   2.691  10.675 -0.5096 -0.1887  0.1037
  762MPD2    C211252   3.515   2.595  10.615  0.4072 -0.1601  0.2411
  762MPD2    C311253   3.631   2.627  10.545  0.9634  0.5943  0.0264
  762MPD2    C411254   3.667   2.761  10.547  0.7516 -0.3619 -0.0298
  762MPD2    C511255   3.581   2.858  10.600 -0.6546 -0.9092 -0.2010
  762MPD2     H11256   3.489   2.490  10.624  0.3380 -0.0495  1.4541
  762MPD2    H111257   3.760   2.802  10.510  1.4496 -0.5213  1.5871
  762MPD2    H211258   3.408   2.908  10.697  0.2020  1.1400 -0.7338
  762MPD2    H311259   3.616   2.960  10.592  0.0049 -1.0880  0.3673
  762MPD2     N11260   3.714   2.526  10.490 -0.7176 -0.0041 -0.0686
  762MPD2    H511261   3.687   2.429  10.504  1.0793 -0.3080  1.3146
  762MPD2    N111262   3.314   2.661  10.748  0.2481 -0.1248 -0.0039
  762MPD2    H711263   3.256   2.738  10.780  0.3301  0.3209 -0.9201
  763MPD2     C11264   0.409   3.017  16.081  0.2598  0.0345  0.1385
  763MPD2    C111265   0.282   3.064  16.076  0.1792 -0.5362 -0.1225
  763MPD2    C211266   0.257   3.192  16.137  0.2954  0.6196  0.7336
  763MPD2    C311267   0.358   3.257  16.211 -0.2134 -0.5328  0.2372
  763MPD2    C411268   0.482   3.194  16.208  0.1330  0.6747 -0.1176
  763MPD2    C511269   0.510   3.083  16.140 -0.1642  0.4907 -0.1845
  763MPD2     H11270   0.159   3.239  16.135 -0.6755 -1.4369  0.5051
  763MPD2    H111271   0.567   3.230  16.264 -1.0637  3.1080  0.1080
  763MPD2    H211272   0.442   2.934  16.019  0.7912 -1.0487  1.8698
  763MPD2    H311273   0.614   3.060  16.123 -0.4410 -0.4676 -0.5952
  763MPD2     N11274   0.347   3.386  16.277 -0.4509 -0.5956  0.9963
  763MPD2    H511275   0.433   3.434  16.297 -0.4975  0.3815 -1.1057
  763MPD2    N111276   0.181   2.994  16.002  0.8899 -0.0506  0.2835
  763MPD2    H711277   0.091   3.040  15.986  0.3933 -1.0909  0.1077
  764MPD2     C11278   2.939   0.037  17.461  0.2129 -0.1796 -1.1699
  764MPD2    C111279   2.807   0.028  17.467  0.4390  0.4787  0.4458
  764MPD2    C211280   2.744   4.718  17.586 -0.6381 -0.0089  0.0850
  764MPD2    C311281   2.823   4.687   0.003 -0.5391 -0.1928  0.5290
  764MPD2    C411282   2.955   4.688  17.686  1.0309  0.9015 -0.7034
  764MPD2    C511283   3.014   4.719  17.570  0.4945 -0.0563  0.3219
  764MPD2     H11284   2.638   0.006  17.604 -0.7981 -0.3800 -0.6698
  764MPD2    H111285   3.017   4.659   0.078 -1.3855 -0.2337  0.6551
  764MPD2    H211286   2.984   0.035  17.363  1.5508 -1.9349 -0.5239
  764MPD2    H311287   3.120   4.707  17.555  0.7454  1.0580  1.2636
  764MPD2     N11288   2.763   4.655   0.131 -0.3487  0.0691  0.0833
  764MPD2    H511289   2.661   4.652   0.135 -0.2613 -1.4102  0.9913
  764MPD2    N111290   2.724   0.059  17.356 -0.2423  0.3935 -0.5624
  764MPD2    H711291   2.625   0.039  17.370 -0.0531 -1.0659 -1.3863
  765MPD2     C11292   2.319   2.008  15.659  0.0874  1.0153 -0.9143
  765MPD2    C111293   2.386   2.126  15.660  0.2686 -0.1032 -0.0704
  765MPD2    C211294   2.513   2.127  15.620 -0.6131  0.2200  0.3760
  765MPD2    C311295   2.585   2.011  15.587  0.1311 -0.0032 -0.8290
  765MPD2    C411296   2.526   1.890  15.616  1.2107 -0.3997  0.5097
  765MPD2    C511297   2.394   1.891  15.650 -0.9304 -0.1035  0.4051
  765MPD2     H11298   2.571   2.219  15.615 -2.0055  0.9296 -2.2302
  765MPD2    H111299   2.574   1.794  15.599  0.6512 -1.0098  2.4241
  765MPD2    H211300   2.210   2.008  15.662  0.1071 -1.0373  0.5161
  765MPD2    H311301   2.342   1.796  15.657 -2.0202  0.2971 -2.0731
  765MPD2     N11302   2.712   2.028  15.526  0.7379 -0.0977 -0.3776
  765MPD2    H511303   2.728   2.126  15.504  0.1198 -0.4241 -2.3297
  765MPD2    N111304   2.306   2.243  15.666  0.1154  0.2464 -0.3436
  765MPD2    H711305   2.207   2.224  15.678  0.3341 -1.1133 -0.7137
  766MPD2     C11306   1.945   2.406  15.097 -0.4208  0.4557 -0.8569
  766MPD2    C111307   2.070   2.418  15.145  0.2009 -0.4632  0.0145
  766MPD2    C211308   2.186   2.410  15.073  0.0203 -0.9589  0.3393
  766MPD2    C311309   2.169   2.407  14.935  0.4237  0.1514 -0.2306
  766MPD2    C411310   2.043   2.392  14.876 -0.0869 -0.2685  0.4347
  766MPD2    C511311   1.933   2.388  14.966  0.5165  0.2102 -0.0505
  766MPD2     H11312   2.284   2.408  15.118  0.9536  0.1103 -1.6187
  766MPD2    H111313   2.030   2.397  14.768 -1.3631 -0.2873  0.5931
  766MPD2    H211314   1.864   2.408  15.168 -0.1554 -2.2585 -0.4783
  766MPD2    H311315   1.834   2.370  14.925 -0.3021  0.1784  1.9375
  766MPD2     N11316   2.280   2.428  14.846 -0.0651  0.0322  0.2261
  766MPD2    H511317   2.260   2.421  14.747  0.6876  1.3895 -0.0313
  766MPD2    N111318   2.088   2.438  15.287  0.3203 -0.0206 -0.7289
  766MPD2    H711319   2.184   2.436  15.322  0.2212  1.0099 -0.3960
  767MPD2     C11320   1.936   2.695  14.791 -0.3168 -0.0473  0.0053
  767MPD2    C111321   2.066   2.726  14.766  0.1521 -0.1485  0.1249
  767MPD2    C211322   2.105   2.725  14.630 -0.0198 -0.2988  0.9860
  767MPD2    C311323   2.016   2.690  14.530  0.3762  0.1834 -0.3078
  767MPD2    C411324   1.897   2.645  14.560  0.0837 -0.1868 -0.4413
  767MPD2    C511325   1.846   2.654  14.691 -0.2329  0.0475 -0.0147
  767MPD2     H11326   2.207   2.749  14.601 -0.6955  1.8727  0.3931
  767MPD2    H111327   1.830   2.601  14.487 -2.2661 -1.3786  2.4077
  767MPD2    H211328   1.904   2.679  14.894 -0.9003 -1.3054 -0.3655
  767MPD2    H311329   1.746   2.619  14.717 -0.3774  0.8312  0.4640
  767MPD2     N11330   2.063   2.681  14.402  0.3141  0.2671  0.1635
  767MPD2    H511331   2.160   2.700  14.380  0.1368  0.5627 -0.3809
  767MPD2    N111332   2.155   2.759  14.870 -0.8710  0.0566  0.0548
  767MPD2    H711333   2.121   2.753  14.966 -0.6357  2.0785  0.2555
  768MPD2     C11334   3.503   0.989  10.440 -0.9665 -0.6258  0.4547
  768MPD2    C111335   3.440   0.927  10.553  0.1654  0.4526  0.0153
  768MPD2    C211336   3.500   0.932  10.669 -0.1771 -0.2703 -0.3478
  768MPD2    C311337   3.614   1.014  10.691 -0.1869 -0.1384 -0.5530
  768MPD2    C411338   3.665   1.079  10.578  0.3529  0.2799 -0.1073
  768MPD2    C511339   3.611   1.063  10.458  0.9282 -0.1647 -0.3521
  768MPD2     H11340   3.455   0.873  10.748 -2.3105  1.1471 -0.5281
  768MPD2    H111341   3.745   1.151  10.587  1.1606 -0.6584  0.1819
  768MPD2    H211342   3.460   0.982  10.341  1.4331  0.3904 -0.6638
  768MPD2    H311343   3.660   1.105  10.370  1.9668 -0.9493 -0.1536
  768MPD2     N11344   3.678   1.031  10.819 -0.0101  0.0375 -0.5177
  768MPD2    H511345   3.760   1.090  10.820 -2.6198  3.7137 -0.2457
  768MPD2    N111346   3.320   0.854  10.539 -0.2087  0.3148 -0.1059
  768MPD2    H711347   3.300   0.789  10.614  0.9499  1.0398  0.8156
  769MPD2     C11348   4.091   3.843  14.706  0.2838 -0.0255  0.0416
  769MPD2    C111349   4.013   3.781  14.803  0.3583 -0.3809  0.0058
  769MPD2    C211350   4.031   3.795  14.938 -0.0138  0.3452  0.0654
  769MPD2    C311351   4.123   3.894  14.983 -0.0065 -0.3864 -0.3080
  769MPD2    C411352   4.205   3.954  14.885 -0.9123  0.0805  0.2729
  769MPD2    C511353   4.193   3.933  14.749  0.6472 -0.3191 -0.2255
  769MPD2     H11354   3.972   3.748  15.016 -2.0475  0.7277 -1.2505
  769MPD2    H111355   4.277   4.020  14.932 -0.0185  0.3321 -1.4870
  769MPD2    H211356   4.078   3.831  14.599  1.4350  2.1067 -0.3377
  769MPD2    H311357   4.263   3.978  14.679 -0.9052  2.4304  0.0062
  769MPD2     N11358   4.117   3.928  15.117  0.4582 -0.4176  0.6859
  769MPD2    H511359   4.051   3.868  15.166 -0.2018  0.4739  0.8952
  769MPD2    N111360   3.904   3.715  14.752  0.8671  0.5088 -0.0275
  769MPD2    H711361   3.898   3.710  14.651  3.9372  1.6598 -0.2648
  770MPD2     C11362   3.112   2.976  14.914 -0.0202  0.3996 -0.2034
  770MPD2    C111363   3.231   2.993  14.988 -0.3316 -1.1137  0.2255
  770MPD2    C211364   3.310   3.092  14.939  0.3917  0.6123 -0.0848
  770MPD2    C311365   3.281   3.163  14.818  0.3703 -0.7861 -0.7176
  770MPD2    C411366   3.169   3.138  14.748  0.6433  0.2394  0.1734
  770MPD2    C511367   3.083   3.038  14.798 -0.1303  0.1585 -0.6290
  770MPD2     H11368   3.395   3.124  14.999  1.4001 -1.0744 -0.6351
  770MPD2    H111369   3.147   3.184  14.652  0.8067 -0.3110 -0.1255
  770MPD2    H211370   3.041   2.900  14.947  0.6935 -0.1349  0.0968
  770MPD2    H311371   2.993   3.017  14.741 -0.1795  1.2713 -0.9755
  770MPD2     N11372   3.366   3.261  14.766  0.0233  0.2068  0.3036
  770MPD2    H511373   3.333   3.321  14.691  1.2081 -0.0873 -0.4389
  770MPD2    N111374   3.243   2.919  15.111 -0.0479  0.2716  0.1239
  770MPD2    H711375   3.171   2.852  15.136  1.4450 -0.7487  1.7428
  771MPD2     C11376   4.361   1.462  14.018 -0.8733 -0.0746 -0.3457
  771MPD2    C111377   4.375   1.496  13.894  0.1544  0.5806  0.3758
  771MPD2    C211378   4.281   1.475  13.796 -0.1301  0.6081 -0.9848
  771MPD2    C311379   4.164   1.419  13.828 -0.1601 -0.5509 -0.5807
  771MPD2    C411380   4.139   1.409  13.967 -0.1720  0.5763  0.4370
  771MPD2    C511381   4.241   1.422  14.056  0.4791 -0.0770 -0.0571
  771MPD2     H11382   4.298   1.505  13.694 -1.5480  0.5989 -1.2211
  771MPD2    H111383   4.043   1.382  14.009 -0.9729 -0.6203 -2.2156
  771MPD2    H211384   4.442   1.473  14.089 -1.7318  2.9125  0.1689
  771MPD2    H311385   4.229   1.393  14.160  1.0905  2.5935  0.7682
  771MPD2     N11386   4.066   1.401  13.728 -0.6683 -0.3421  0.0972
  771MPD2    H511387   4.095   1.440  13.638  0.3112  0.5595  0.8041
  771MPD2    N111388   4.491   1.566  13.850 -0.0851 -0.2251 -0.2115
  771MPD2    H711389   4.485   1.621  13.765 -0.9208  0.2700  0.1674
  772MPD2     C11390   4.634   2.271  14.037 -0.3517  0.5897  0.0169
  772MPD2    C111391   4.608   2.148  14.082 -0.3404 -0.0905 -0.1925
  772MPD2    C211392   4.501   2.128  14.162 -0.2691 -1.1690 -1.1673
  772MPD2    C311393   4.413   2.237  14.200 -0.5616  0.3090 -0.4258
  772MPD2    C411394   4.447   2.361  14.158 -0.0078  0.0636 -0.0343
  772MPD2    C511395   4.557   2.374  14.078 -0.0204 -0.5607 -0.2766
  772MPD2     H11396   4.472   2.028  14.189 -0.5019 -0.7977 -0.0620
  772MPD2    H111397   4.386   2.449  14.177  2.6250  1.9327 -0.1712
  772MPD2    H211398   4.714   2.308  13.974 -2.8365  1.1701 -2.7991
  772MPD2    H311399   4.587   2.471  14.041 -1.1232 -0.0788  0.0806
  772MPD2     N11400   4.287   2.226  14.265  0.0338  0.3826  0.1106
  772MPD2    H511401   4.239   2.316  14.269  1.1248  1.0284 -1.0079
  772MPD2    N111402   4.660   2.030  14.032  0.4430  0.0250  0.1703
  772MPD2    H711403   4.609   1.947  14.059 -1.7774  1.1284 -0.5502
  773MPD2     C11404   3.824   3.574  17.409 -0.3044 -0.5683 -0.5698
  773MPD2    C111405   3.785   3.501  17.517 -0.2111  0.4743 -0.1180
  773MPD2    C211406   3.888   3.466  17.601  0.2907  0.0169 -0.3271
  773MPD2    C311407   4.024   3.485  17.574 -0.0911  0.2240  0.8706
  773MPD2    C411408   4.061   3.567  17.463  0.0817 -0.5913  0.1332
  773MPD2    C511409   3.956   3.605  17.382 -0.5094  0.2825  0.3914
  773MPD2     H11410   3.859   3.415  17.692 -2.1616 -2.7025 -2.6329
  773MPD2    H111411   4.161   3.591  17.428 -0.4150 -1.9028 -2.2350
  773MPD2    H211412   3.751   3.606  17.336 -0.2494 -1.7557 -1.1528
  773MPD2    H311413   3.979   3.669  17.298 -0.1178 -0.7961 -0.3150
  773MPD2     N11414   4.121   3.426  17.657  0.4455 -0.2071 -0.2717
  773MPD2    H511415   4.082   3.360   0.030  3.3213 -1.2744  0.3542
  773MPD2    N111416   3.656   3.451  17.557  0.6926 -0.0964  0.0952
  773MPD2    H711417   3.656   3.397  17.643 -2.1263  0.6474  0.5512
  774MPD2     C11418   3.121   2.063  13.017  0.0908  0.5225 -0.4317
  774MPD2    C111419   3.154   2.096  13.141  0.2408 -0.3538  0.0661
  774MPD2    C211420   3.198   2.227  13.160  0.0730 -0.5861 -0.7296
  774MPD2    C311421   3.203   2.318  13.050  0.8860  0.5574  1.1239
  774MPD2    C411422   3.166   2.279  12.926 -0.2718  0.2020  0.1252
  774MPD2    C511423   3.127   2.152  12.910  0.1378 -0.2373 -0.2549
  774MPD2     H11424   3.221   2.263  13.259 -1.2541 -0.5346 -0.4418
  774MPD2    H111425   3.167   2.342  12.837  0.8030  0.1206  0.0753
  774MPD2    H211426   3.092   1.965  12.980  0.5994  0.0244  0.5048
  774MPD2    H311427   3.105   2.117  12.809  1.3754 -1.7509 -0.0119
  774MPD2     N11428   3.245   2.452  13.083  0.1264  0.5992  0.2324
  774MPD2    H511429   3.266   2.468  13.181  1.0555  0.8742 -0.0152
  774MPD2    N111430   3.112   2.007  13.245 -0.2372 -0.2207 -0.2465
  774MPD2    H711431   3.047   1.933  13.218  0.5511 -1.1010  0.2626
  775MPD2     C11432   4.263   3.963  15.670  0.4578 -0.7475  0.5673
  775MPD2    C111433   4.197   4.081  15.726  0.1022  0.0334 -0.2808
  775MPD2    C211434   4.270   4.199  15.713 -0.1787 -0.8102 -0.3017
  775MPD2    C311435   4.389   4.211  15.642  1.2345 -0.0915  0.2034
  775MPD2    C411436   4.442   4.101  15.584  0.6468 -0.3452 -0.0992
  775MPD2    C511437   4.381   3.980  15.597  0.2344 -0.7841  0.0777
  775MPD2     H11438   4.222   4.286  15.758  0.4213  0.9862 -3.1401
  775MPD2    H111439   4.540   4.096  15.537  0.5725  2.1547 -0.5022
  775MPD2    H211440   4.227   3.860  15.673  0.5348 -0.8192 -1.0925
  775MPD2    H311441   4.427   3.891  15.555  1.9650  0.7288 -1.2019
  775MPD2     N11442   4.462   4.333  15.632  0.1005 -0.2509 -0.2849
  775MPD2    H511443   4.535   4.334  15.561  0.6525 -0.6762  0.2722
  775MPD2    N111444   4.069   4.067  15.784 -0.6707  0.1461  0.6447
  775MPD2    H711445   4.029   3.975  15.796  1.7555 -0.8037  1.2001
  776MPD2     C11446   4.316   3.946  11.947 -0.3598  0.1604  0.1958
  776MPD2    C111447   4.184   3.967  11.963  0.2852  0.0139  0.2817
  776MPD2    C211448   4.129   4.089  11.918  0.3590 -0.6336 -0.0809
  776MPD2    C311449   4.209   4.174  11.846 -1.0471  0.0970 -0.2288
  776MPD2    C411450   4.344   4.142  11.827 -0.3141  0.2787 -0.1673
  776MPD2    C511451   4.404   4.038  11.881  0.6665  0.1015 -0.5699
  776MPD2     H11452   4.025   4.115  11.929  0.3465 -0.1576 -1.2866
  776MPD2    H111453   4.404   4.209  11.766  0.3666  2.0610  2.4524
  776MPD2    H211454   4.359   3.851  11.977 -0.8381  0.7383  2.7126
  776MPD2    H311455   4.506   4.022  11.851  0.2318 -2.9317 -0.4424
  776MPD2     N11456   4.160   4.303  11.802  0.0516 -0.1573  0.6779
  776MPD2    H511457   4.222   4.366  11.752  0.6938 -1.2829  0.0473
  776MPD2    N111458   4.108   3.861  12.025  0.3443 -0.2116  0.1387
  776MPD2    H711459   4.169   3.782  12.046 -0.4377 -0.3957  1.7301
  777MPD2     C11460   3.833   2.049   0.556  0.6895  0.0426  0.1954
  777MPD2    C111461   3.952   2.012   0.604  0.5725 -0.3763 -0.1569
  777MPD2    C211462   4.003   1.890   0.573 -0.0024 -0.2875  0.7720
  777MPD2    C311463   3.929   1.797   0.505  0.0935 -0.6743  0.3060
  777MPD2    C411464   3.807   1.834   0.455  0.0163 -0.6958  0.5363
  777MPD2    C511465   3.759   1.959   0.481 -0.2713 -0.1981  0.0274
  777MPD2     H11466   4.105   1.860   0.593  0.3287  1.8098  2.2938
  777MPD2    H111467   3.745   1.772   0.391  0.6733  0.4595 -1.2288
  777MPD2    H211468   3.780   2.141   0.576  1.3830  0.2864  0.9004
  777MPD2    H311469   3.668   1.990   0.430  0.1147 -0.9209 -1.1058
  777MPD2     N11470   3.994   1.674   0.470  0.3567  0.0747  0.3548
  777MPD2    H511471   4.092   1.674   0.494  0.3837 -1.8317  0.2306
  777MPD2    N111472   4.009   2.102   0.699  0.0973 -0.0913  0.4853
  777MPD2    H711473   3.956   2.185   0.720 -1.5761 -1.4911  1.7620
  778MPD2     C11474   0.123   2.487  14.966  0.1002  0.6301 -0.0984
  778MPD2    C111475   0.042   2.379  14.922 -0.0133 -0.4691  0.1820
  778MPD2    C211476   0.074   2.327  14.797 -0.0592 -0.4668 -0.5278
  778MPD2    C311477   0.177   2.386  14.718 -0.1568 -0.1812 -0.7074
  778MPD2    C411478   0.253   2.493  14.764  0.0875 -1.0696  0.0470
  778MPD2    C511479   0.225   2.534  14.891  0.5150 -0.4450 -0.8463
  778MPD2     H11480   0.026   2.235  14.764  2.2218 -1.8810  0.1132
  778MPD2    H111481   0.338   2.538  14.714  0.4916  0.3715  2.0625
  778MPD2    H211482   0.099   2.531  15.063  0.1487  1.5907 -0.5205
  778MPD2    H311483   0.295   2.609  14.927 -0.6829  0.8661 -1.2483
  778MPD2     N11484   0.212   2.316  14.601  0.0443  0.0015  0.4206
  778MPD2    H511485   0.145   2.249  14.564  1.5010 -2.1187  1.6482
  778MPD2    N111486   4.674   2.309  15.001 -0.0411 -0.3019  0.0161
  778MPD2    H711487   4.634   2.223  14.967 -0.6930  0.8909 -2.2096
  779MPD2     C11488   4.331   1.040  14.306 -0.1724  0.2595  0.1782
  779MPD2    C111489   4.438   0.994  14.382 -0.2030 -0.2933 -0.7175
  779MPD2    C211490   4.466   1.065  14.504 -0.3244 -1.3274  0.7541
  779MPD2    C311491   4.397   1.180  14.535 -0.2161  0.8563  1.3868
  779MPD2    C411492   4.296   1.223  14.455 -0.0455  0.1437 -0.9071
  779MPD2    C511493   4.264   1.154  14.339  0.7798  0.4062 -0.1616
  779MPD2     H11494   4.527   1.020  14.581 -0.5442 -1.2638  0.9659
  779MPD2    H111495   4.245   1.318  14.465 -0.6906 -0.4008  0.8978
  779MPD2    H211496   4.295   0.996  14.214 -0.8782  0.5124  0.3355
  779MPD2    H311497   4.181   1.195  14.283  0.9463  0.0390 -0.6785
  779MPD2     N11498   4.448   1.255  14.645 -0.4193  0.1513  0.4575
  779MPD2    H511499   4.545   1.232  14.664 -0.5290  0.4752  1.4051
  779MPD2    N111500   4.512   0.883  14.349 -0.0865  0.0693 -0.3808
  779MPD2    H711501   4.567   0.849  14.427  1.9856  3.5598 -0.3412
  780MPD2     C11502   3.346   0.476   0.703  0.5897  0.7362 -0.5084
  780MPD2    C111503   3.372   0.359   0.633  1.1522  0.3370 -0.1544
  780MPD2    C211504   3.467   0.364   0.533 -0.6633 -0.4968  0.6548
  780MPD2    C311505   3.540   0.480   0.506 -0.1918 -0.8048 -0.3983
  780MPD2    C411506   3.513   0.596   0.579 -0.1026  0.5260 -0.3489
  780MPD2    C511507   3.411   0.598   0.672 -0.0255 -0.4177 -0.2515
  780MPD2     H11508   3.483   0.281   0.465  1.6457  0.8646 -0.4579
  780MPD2    H111509   3.579   0.680   0.562 -0.1766  0.7339  0.3975
  780MPD2    H211510   3.262   0.469   0.771 -1.6391  3.0360 -3.0239
  780MPD2    H311511   3.386   0.690   0.723  1.8256 -0.4311  0.6953
  780MPD2     N11512   3.644   0.473   0.402  0.6443 -0.4895  1.1059
  780MPD2    H511513   3.646   0.382   0.357  1.1724 -1.2979  2.7780
  780MPD2    N111514   3.294   0.247   0.662 -0.2584 -0.0233 -1.4705
  780MPD2    H711515   3.221   0.248   0.732  0.8809 -1.3027 -0.2585
  781MPD2     C11516   1.332   2.534  12.311  0.0258  0.3173 -0.0353
  781MPD2    C111517   1.371   2.401  12.301 -0.2804 -0.2738 -0.7693
  781MPD2    C211518   1.457   2.359  12.199  0.4354  0.2955 -0.6376
  781MPD2    C311519   1.504   2.456  12.112 -0.2402  0.4841 -0.9635
  781MPD2    C411520   1.481   2.588  12.138  0.3081 -0.6427 -0.1479
  781MPD2    C511521   1.396   2.629  12.231  1.0694 -0.2570  0.1964
  781MPD2     H11522   1.483   2.256  12.179  0.2555  0.1488 -0.1161
  781MPD2    H111523   1.529   2.661  12.074  2.4146 -3.3140 -1.6363
  781MPD2    H211524   1.275   2.575  12.394  1.2695 -1.9243  1.9293
  781MPD2    H311525   1.371   2.734  12.244  2.6055 -0.1010  1.8550
  781MPD2     N11526   1.584   2.422  12.007  0.5804 -0.4610 -0.2963
  781MPD2    H511527   1.637   2.499  11.968  0.2925 -0.4611 -0.6856
  781MPD2    N111528   1.338   2.293  12.390  0.3443 -0.5283 -0.4220
  781MPD2    H711529   1.368   2.197  12.374  0.7298 -0.2837 -1.1456
  782MPD2     C11530   4.098   3.334  10.213  0.1798  0.4526 -0.3078
  782MPD2    C111531   4.221   3.295  10.260 -0.1857  0.3304 -0.0584
  782MPD2    C211532   4.283   3.369  10.356 -0.6583  0.1056  0.4263
  782MPD2    C311533   4.220   3.481  10.400 -0.6729  0.5358  0.2433
  782MPD2    C411534   4.094   3.514  10.362  0.4594  0.1436  0.0550
  782MPD2    C511535   4.037   3.447  10.257  0.8931  0.0673 -0.1467
  782MPD2     H11536   4.380   3.331  10.386  0.1123  1.1562 -0.7489
  782MPD2    H111537   4.053   3.608  10.398  0.8267  0.1444  0.4766
  782MPD2    H211538   4.043   3.277  10.140 -0.6778 -1.9860  2.2297
  782MPD2    H311539   3.945   3.481  10.211 -0.6815 -1.4794  1.7949
  782MPD2     N11540   4.292   3.548  10.492  0.4839  0.2572 -0.3850
  782MPD2    H511541   4.391   3.527  10.499  0.1383 -0.5253  2.1551
  782MPD2    N111542   4.284   3.175  10.228 -0.4807  0.1010 -0.0877
  782MPD2    H711543   4.360   3.149  10.289 -0.2417  2.7175  0.7101
  783MPD2     C11544   3.918   2.675  10.788  0.1207  0.4459  0.0775
  783MPD2    C111545   3.943   2.808  10.768  0.1015 -0.1711 -0.1240
  783MPD2    C211546   4.030   2.844  10.665 -0.3898 -0.4231  0.7884
  783MPD2    C311547   4.088   2.746  10.589 -0.3567  0.1100  0.3073
  783MPD2    C411548   4.072   2.612  10.623 -0.4279  0.0244 -0.0900
  783MPD2    C511549   3.984   2.576  10.721 -0.0712 -0.3684 -0.0541
  783MPD2     H11550   4.047   2.950  10.651 -3.1092 -0.0607  0.2316
  783MPD2    H111551   4.132   2.535  10.575 -0.1853 -1.9535  3.3920
  783MPD2    H211552   3.850   2.655  10.870  1.2077 -2.2538  0.3107
  783MPD2    H311553   3.967   2.471  10.743 -2.6116  0.1213  0.4216
  783MPD2     N11554   4.174   2.789  10.483  0.2207  0.2960 -0.7971
  783MPD2    H511555   4.170   2.887  10.456  0.5054  0.7225  0.7400
  783MPD2    N111556   3.879   2.903  10.839  0.2560  0.8549 -0.0528
  783MPD2    H711557   3.822   2.871  10.917  0.1866 -2.4839 -1.4744
  784MPD2     C11558   2.151   3.799   0.844 -0.3313 -0.2448 -0.3764
  784MPD2    C111559   2.074   3.863   0.941 -0.8776  0.1435  0.1076
  784MPD2    C211560   1.953   3.928   0.905 -0.2409 -0.8649 -0.2467
  784MPD2    C311561   1.912   3.921   0.771  0.4472  0.3306 -0.2550
  784MPD2    C411562   2.003   3.888   0.673  0.5663 -0.6207  0.2009
  784MPD2    C511563   2.111   3.818   0.715 -0.4892  0.2502  0.2786
  784MPD2     H11564   1.896   3.977   0.982  0.1741  0.4374 -0.7758
  784MPD2    H111565   1.979   3.908   0.569 -0.7342 -2.3613  0.1709
  784MPD2    H211566   2.238   3.740   0.869  0.1994 -0.1565 -2.0286
  784MPD2    H311567   2.171   3.766   0.641  2.2103  0.7933  2.0772
  784MPD2     N11568   1.791   3.988   0.743  0.4480  0.0503  0.5211
  784MPD2    H511569   1.740   4.021   0.824 -1.9800  1.3049 -1.5295
  784MPD2    N111570   2.109   3.859   1.079  0.7131  0.1332  0.2100
  784MPD2    H711571   2.071   3.940   1.129 -2.9220 -1.2450 -0.2936
  785MPD2     C11572   1.869   1.778  10.679 -0.3169 -0.1760  0.0302
  785MPD2    C111573   1.838   1.903  10.731 -0.6495 -0.3613 -0.0764
  785MPD2    C211574   1.702   1.933  10.754  0.6624  0.8187 -0.4575
  785MPD2    C311575   1.600   1.843  10.720 -0.0298  0.8081 -0.2588
  785MPD2    C411576   1.642   1.719  10.684 -0.3454  0.2237  0.5346
  785MPD2    C511577   1.768   1.681  10.666  0.0494 -0.6109 -0.7127
  785MPD2     H11578   1.681   2.034  10.788  0.1228  0.8092 -0.7572
  785MPD2    H111579   1.572   1.643  10.651  0.3366 -0.8098  1.4799
  785MPD2    H211580   1.970   1.756  10.647  1.0057  0.8082  3.5354
  785MPD2    H311581   1.783   1.585  10.619 -4.2070 -1.2164 -0.8509
  785MPD2     N11582   1.464   1.890  10.710 -0.0612  0.9481 -0.0325
  785MPD2    H511583   1.441   1.986  10.731 -0.8531  1.0888 -1.5498
  785MPD2    N111584   1.925   2.005  10.763 -0.5921 -0.0756  0.1933
  785MPD2    H711585   1.888   2.093  10.797  0.7639  0.1949  1.0041
  786MPD2     C11586   4.665   0.266  14.553  0.5396 -0.2919  0.3782
  786MPD2    C111587   0.064   0.203  14.546  0.2476 -0.4019 -0.5731
  786MPD2    C211588   0.147   0.210  14.655  0.5904  0.8107  0.6941
  786MPD2    C311589   0.115   0.285  14.770  0.0245  0.1769 -0.7590
  786MPD2    C411590   4.712   0.343  14.770  0.4426 -0.6399 -0.2627
  786MPD2    C511591   4.629   0.336  14.664  0.1833 -0.5582 -0.2364
  786MPD2     H11592   0.246   0.166  14.652  0.0076 -0.3649 -1.0825
  786MPD2    H111593   4.679   0.409  14.849  0.4064 -0.9853  0.0090
  786MPD2    H211594   4.592   0.270  14.472  1.5496 -2.1834 -0.6344
  786MPD2    H311595   4.535   0.389  14.666  1.3678  1.5641 -1.0416
  786MPD2     N11596   0.195   0.303  14.889  0.6510  0.7794  0.3031
  786MPD2    H511597   0.158   0.334  14.978  0.7282 -0.2280  0.6797
  786MPD2    N111598   0.109   0.121  14.431  0.3795 -0.1681 -0.5025
  786MPD2    H711599   0.204   0.087  14.444 -0.4022 -2.6917 -1.4643
  787MPD2     C11600   0.028   4.125  14.240  0.0746 -0.2152 -0.3582
  787MPD2    C111601   0.142   4.198  14.267  0.0491 -0.2449  0.0037
  787MPD2    C211602   0.247   4.137  14.341 -0.3206 -0.2579  0.0125
  787MPD2    C311603   0.241   4.003  14.371 -0.1369  0.3670  0.0731
  787MPD2    C411604   0.125   3.932  14.341  0.0040  0.4077 -0.9562
  787MPD2    C511605   0.018   3.995  14.277  0.1204  0.6234  0.0175
  787MPD2     H11606   0.338   4.188  14.370 -0.2066 -1.7628  2.2816
  787MPD2    H111607   0.107   3.828  14.366 -1.8710  0.5731 -1.6129
  787MPD2    H211608   4.660   4.162  14.194  1.0469  0.1528 -1.9931
  787MPD2    H311609   4.648   3.940  14.262 -0.0328  1.2062 -1.2252
  787MPD2     N11610   0.354   3.946  14.432 -0.0442 -0.0784 -0.2664
  787MPD2    H511611   0.435   4.004  14.450 -1.2937  0.7747  2.5478
  787MPD2    N111612   0.150   4.331  14.232  0.0599  0.3932 -0.0255
  787MPD2    H711613   0.073   4.368  14.176 -0.4619  1.2761  1.2666
  788MPD2     C11614   1.859   2.317   1.537 -0.2214  0.0042  0.4918
  788MPD2    C111615   1.851   2.327   1.397 -0.5727 -0.4573 -0.2366
  788MPD2    C211616   1.832   2.450   1.341 -0.0818 -0.3163 -0.2122
  788MPD2    C311617   1.828   2.568   1.421 -1.0398 -0.0034  0.4995
  788MPD2    C411618   1.842   2.559   1.558 -0.3852  1.4193 -0.1702
  788MPD2    C511619   1.854   2.431   1.612  0.7000 -0.1041 -0.3671
  788MPD2     H11620   1.834   2.460   1.233 -1.0875  1.2659 -0.0890
  788MPD2    H111621   1.838   2.643   1.626 -0.3358  3.0373 -2.1967
  788MPD2    H211622   1.871   2.216   1.573 -1.9637 -0.3741  0.0154
  788MPD2    H311623   1.846   2.421   1.720  0.6671  1.2854 -0.2379
  788MPD2     N11624   1.832   2.694   1.363  0.1020  0.0658 -0.0529
  788MPD2    H511625   1.858   2.771   1.423  1.8691 -0.3634 -0.2818
  788MPD2    N111626   1.865   2.220   1.306  0.0289 -0.7849  0.3971
  788MPD2    H711627   1.874   2.246   1.209  0.0244 -4.3400 -0.5657
  789MPD2     C11628   2.747   2.938  16.810 -0.6741  0.5326 -0.6039
  789MPD2    C111629   2.681   3.000  16.711  0.2637 -0.5572 -0.6379
  789MPD2    C211630   2.594   3.104  16.734  0.2675 -0.3886  0.5103
  789MPD2    C311631   2.558   3.146  16.861 -0.2154  0.1308 -0.7889
  789MPD2    C411632   2.626   3.088  16.963  0.3155  0.0706  0.2914
  789MPD2    C511633   2.723   2.985  16.936  0.6347  0.2944  0.2868
  789MPD2     H11634   2.541   3.139  16.647 -1.5845  0.5089  2.0100
  789MPD2    H111635   2.613   3.109  17.068 -0.2710 -0.0737  0.2487
  789MPD2    H211636   2.819   2.859  16.791 -0.0957  0.6412  1.2041
  789MPD2    H311637   2.766   2.940  17.025  0.1467  0.9767  0.8643
  789MPD2     N11638   2.451   3.239  16.880 -0.0272 -0.1395 -0.5044
  789MPD2    H511639   2.411   3.242  16.973 -0.5051  2.5810 -0.7931
  789MPD2    N111640   2.683   2.950  16.576  0.3075  0.3577  0.2916
  789MPD2    H711641   2.636   3.002  16.502  1.6387 -1.8231 -2.0832
  790MPD2     C11642   3.648   4.558  13.579  0.3779  0.0743  0.3340
  790MPD2    C111643   3.607   4.430  13.594  0.2825 -0.0688  0.0533
  790MPD2    C211644   3.566   4.353  13.493  0.3629  0.1267  0.3394
  790MPD2    C311645   3.557   4.415  13.367 -0.2245 -0.1375  0.4851
  790MPD2    C411646   3.586   4.550  13.349  0.2159 -0.1893 -0.2134
  790MPD2    C511647   3.632   4.623  13.454  0.5695 -1.2591 -0.0788
  790MPD2     H11648   3.558   4.245  13.495 -0.5045  0.1664 -0.9984
  790MPD2    H111649   3.580   4.605  13.256 -0.4167 -1.0890 -0.6979
  790MPD2    H211650   3.694   4.615  13.659  0.1579  1.0336 -0.2179
  790MPD2    H311651   3.651   0.006  13.442  1.1647 -1.5006 -1.2972
  790MPD2     N11652   3.497   4.334  13.262 -0.5999  0.3616 -0.1073
  790MPD2    H511653   3.457   4.243  13.283 -0.8448  0.7581  1.1493
  790MPD2    N111654   3.630   4.382  13.726 -0.0629  0.7067 -0.2235
  790MPD2    H711655   3.665   4.448  13.795  0.4945 -0.6901  0.8234
  791MPD2     C11656   2.868   4.251  13.050 -0.0765 -0.3169  0.3316
  791MPD2    C111657   2.942   4.146  12.999  0.3143 -0.0089 -0.1507
  791MPD2    C211658   2.871   4.054  12.919 -0.4671  0.6170  0.3284
  791MPD2    C311659   2.730   4.060  12.915 -0.0535 -0.0032 -0.3238
  791MPD2    C411660   2.661   4.161  12.978 -0.2050  0.0566  0.3755
  791MPD2    C511661   2.732   4.259  13.040  0.0481  0.3799 -0.8579
  791MPD2     H11662   2.920   3.969  12.873  0.7981  0.8654  1.1925
  791MPD2    H111663   2.553   4.171  12.985 -0.2481 -0.5954  0.7345
  791MPD2    H211664   2.907   4.320  13.124  0.9194 -0.5920  0.0593
  791MPD2    H311665   2.687   4.336  13.102 -0.3676  0.4754 -1.2781
  791MPD2     N11666   2.677   3.961  12.832  0.0298  0.3095 -0.6990
  791MPD2    H511667   2.737   3.891  12.790 -0.1678 -0.5074  0.3810
  791MPD2    N111668   3.077   4.152  13.014  0.5547 -0.7776  0.4688
  791MPD2    H711669   3.113   4.217  13.083 -0.9756  1.4462 -0.8531
  792MPD2     C11670   4.022   4.092  11.554  0.4713 -0.2937 -0.4420
  792MPD2    C111671   3.985   4.150  11.436  0.2675 -0.7099 -0.1678
  792MPD2    C211672   3.888   4.091  11.355  0.2072  0.6484  0.1079
  792MPD2    C311673   3.853   3.957  11.381 -0.0307 -0.5669  0.0283
  792MPD2    C411674   3.905   3.898  11.501 -0.3438  0.3580 -0.4952
  792MPD2    C511675   3.987   3.964  11.585 -1.0110 -0.9309  0.4266
  792MPD2     H11676   3.850   4.148  11.271  0.3256 -1.8121 -1.6239
  792MPD2    H111677   3.871   3.799  11.531  0.7536 -0.4034 -1.7453
  792MPD2    H211678   4.100   4.133  11.617 -0.9476  1.9569 -0.1450
  792MPD2    H311679   4.018   3.915  11.676 -2.1589 -0.4177  1.1055
  792MPD2     N11680   3.766   3.880  11.300  0.9312  0.1406  0.1549
  792MPD2    H511681   3.776   3.782  11.323  0.0221 -0.7055 -3.0541
  792MPD2    N111682   4.038   4.270  11.385  0.1990  0.0996  0.2934
  792MPD2    H711683   3.983   4.324  11.319 -0.5557  0.5243  1.2541
  793MPD2     C11684   3.259   3.707  10.357 -0.7695 -0.0970 -0.5160
  793MPD2    C111685   3.330   3.813  10.409 -0.0317  0.6251 -0.1820
  793MPD2    C211686   3.374   3.800  10.540  0.1955  0.0208  0.7249
  793MPD2    C311687   3.340   3.691  10.617  0.1592 -0.6866 -0.3431
  793MPD2    C411688   3.274   3.586  10.565  0.1005 -0.1553  0.5353
  793MPD2    C511689   3.230   3.601  10.436 -0.4746 -0.2263 -0.6190
  793MPD2     H11690   3.437   3.881  10.574  1.4542 -0.3025 -0.8271
  793MPD2    H111691   3.260   3.489  10.611  1.1448 -0.5064  0.1105
  793MPD2    H211692   3.236   3.704  10.251 -0.5792 -2.2934 -0.4984
  793MPD2    H311693   3.176   3.528  10.377  0.7389 -1.4125 -0.2566
  793MPD2     N11694   3.379   3.676  10.752  0.1562 -0.4736  0.5546
  793MPD2    H511695   3.377   3.582  10.792  1.0382 -0.7712 -0.0916
  793MPD2    N111696   3.373   3.923  10.336 -0.2493 -0.1209 -0.4714
  793MPD2    H711697   3.429   3.992  10.386 -0.0689  0.3370 -1.2965
  794MPD2     C11698   2.821   3.699  17.482  0.6806  0.3499 -0.2621
  794MPD2    C111699   2.939   3.680  17.409 -0.6264  0.1709  0.1162
  794MPD2    C211700   2.940   3.700  17.273 -0.2078  0.6209  0.5027
  794MPD2    C311701   2.826   3.751  17.212  0.4570  0.0483  0.0405
  794MPD2    C411702   2.709   3.766  17.284 -0.7263 -0.2019 -0.4011
  794MPD2    C511703   2.706   3.738  17.413 -0.0896 -0.2803 -0.0697
  794MPD2     H11704   3.034   3.689  17.220 -1.3576  1.6748 -1.7187
  794MPD2    H111705   2.624   3.810  17.234  1.1196  2.0405 -1.5626
  794MPD2    H211706   2.808   3.687  17.589 -0.8175  2.3494 -0.2208
  794MPD2    H311707   2.623   3.749  17.483  0.1933  3.0655 -0.2664
  794MPD2     N11708   2.821   3.786  17.072  0.1868  0.2384  0.3095
  794MPD2    H511709   2.739   3.834  17.038 -0.4486 -1.0143  0.0989
  794MPD2    N111710   3.059   3.644  17.469 -0.3185 -0.5832  0.1785
  794MPD2    H711711   3.136   3.623  17.406 -0.6729 -2.8323  0.5079
  795MPD2     C11712   0.850   1.194  13.723 -0.1206  0.2144 -0.1642
  795MPD2    C111713   0.805   1.070  13.680 -0.4312 -0.4440  0.3236
  795MPD2    C211714   0.892   0.960  13.674  0.1940  0.6313  0.3819
  795MPD2    C311715   1.019   0.975  13.721  0.2828  0.1021 -0.6567
  795MPD2    C411716   1.057   1.091  13.782 -0.1807  0.5005 -0.8305
  795MPD2    C511717   0.970   1.200  13.784 -0.1402 -0.4499  0.3289
  795MPD2     H11718   0.868   0.867  13.624 -0.9314 -0.0779  2.2557
  795MPD2    H111719   1.150   1.113  13.833 -0.0624 -2.4525  0.2139
  795MPD2    H211720   0.782   1.279  13.724 -1.4384 -0.8738  1.5580
  795MPD2    H311721   1.004   1.296  13.818  0.7401  0.1208 -2.1205
  795MPD2     N11722   1.107   0.862  13.710 -0.0044  0.8057  0.1525
  795MPD2    H511723   1.061   0.777  13.679  1.4351 -0.5182  1.6510
  795MPD2    N111724   0.688   1.057  13.604  0.7244 -0.3172  0.7106
  795MPD2    H711725   0.656   0.961  13.594  0.8370 -0.2832  0.0628
  796MPD2     C11726   0.420   2.572  15.592  0.8140 -0.2422  0.0029
  796MPD2    C111727   0.543   2.605  15.646 -0.0848 -0.8480  1.1338
  796MPD2    C211728   0.553   2.733  15.703  0.1980  0.1816  0.1548
  796MPD2    C311729   0.467   2.830  15.670  0.1856  0.1395 -0.7024
  796MPD2    C411730   0.360   2.796  15.589 -0.4533 -0.0185  0.2099
  796MPD2    C511731   0.326   2.664  15.562  0.6652 -0.1195  0.5425
  796MPD2     H11732   0.636   2.758  15.769 -1.5014 -0.3476  2.4718
  796MPD2    H111733   0.285   2.865  15.551  0.8205  0.2949 -1.7298
  796MPD2    H211734   0.398   2.474  15.550  0.0277 -0.5171  1.0780
  796MPD2    H311735   0.230   2.648  15.515  0.8306 -1.7491  0.7685
  796MPD2     N11736   0.485   2.961  15.729 -0.9304  0.1511  0.4442
  796MPD2    H511737   0.571   2.963  15.782 -0.2363 -0.1880 -0.6759
  796MPD2    N111738   0.640   2.498  15.659 -0.1491 -0.2614  0.0873
  796MPD2    H711739   0.611   2.405  15.629  0.6644 -0.6522  0.5211
  797MPD2     C11740   1.378   2.193  17.044  0.6604 -0.9031 -0.3217
  797MPD2    C111741   1.354   2.324  17.069  0.6879 -0.4996  0.5761
  797MPD2    C211742   1.295   2.408  16.983 -0.2071 -0.2644 -0.6585
  797MPD2    C311743   1.241   2.362  16.867  0.0539  0.0935  0.9135
  797MPD2    C411744   1.266   2.228  16.835 -0.1544  0.4330 -0.1480
  797MPD2    C511745   1.330   2.146  16.924 -0.6867  0.2224  0.2500
  797MPD2     H11746   1.290   2.511  17.016 -1.2601 -0.5088 -0.0761
  797MPD2    H111747   1.219   2.184  16.749 -2.6006  0.9913  0.8939
  797MPD2    H211748   1.418   2.112  17.104 -1.1256 -1.4116  0.1825
  797MPD2    H311749   1.337   2.041  16.900  1.2958  0.1206  1.2300
  797MPD2     N11750   1.181   2.458  16.779 -0.4365 -0.2350 -0.3027
  797MPD2    H511751   1.139   2.425  16.693  2.1620  1.1908 -2.1242
  797MPD2    N111752   1.420   2.392  17.177  0.1905  0.4844 -0.0031
  797MPD2    H711753   1.399   2.490  17.193 -0.8161  0.2016  0.3827
  798MPD2     C11754   1.385   3.088  17.000  0.3344  0.9344 -0.1324
  798MPD2    C111755   1.339   2.956  16.983 -0.5053 -0.1891  0.1072
  798MPD2    C211756   1.367   2.852  17.072 -0.0450  0.4135  0.0647
  798MPD2    C311757   1.445   2.888  17.180 -0.1795  0.1097 -0.6342
  798MPD2    C411758   1.482   3.024  17.206 -0.5091  0.7988 -0.8763
  798MPD2    C511759   1.458   3.120  17.114  0.2652  0.9634  0.3264
  798MPD2     H11760   1.333   2.751  17.053 -3.1664  1.5714 -0.4504
  798MPD2    H111761   1.524   3.063  17.298 -2.9459  0.5911  0.3284
  798MPD2    H211762   1.346   3.169  16.940 -2.8264 -1.9861 -2.0029
  798MPD2    H311763   1.483   3.223  17.136  0.8592  0.7607  0.5973
  798MPD2     N11764   1.460   2.784  17.278  0.7910 -0.1644  0.1054
  798MPD2    H511765   1.393   2.709  17.260 -1.2664  1.2441  1.8324
  798MPD2    N111766   1.251   2.920  16.875  0.2426  0.4877  0.0451
  798MPD2    H711767   1.219   2.824  16.874 -4.1294  1.9529  2.4505
  799MPD2     C11768   0.855   3.554  14.333  0.8522  0.6164  0.3336
  799MPD2    C111769   0.783   3.440  14.309 -0.1372  0.1601 -0.1823
  799MPD2    C211770   0.655   3.461  14.263 -0.0083 -0.2282 -0.3230
  799MPD2    C311771   0.600   3.592  14.241 -0.1447  0.8487 -0.6004
  799MPD2    C411772   0.684   3.699  14.263 -0.1488  0.5166  0.2579
  799MPD2    C511773   0.805   3.679  14.316 -0.2052 -0.3071  0.5072
  799MPD2     H11774   0.603   3.371  14.231  0.8587 -0.3843 -1.2811
  799MPD2    H111775   0.657   3.801  14.241  2.7691  0.9020 -1.4993
  799MPD2    H211776   0.950   3.549  14.384 -0.5334  0.3893  2.8675
  799MPD2    H311777   0.881   3.752  14.343 -2.0670  1.1536  1.8372
  799MPD2     N11778   0.478   3.614  14.185 -0.5037 -0.3940  0.1765
  799MPD2    H511779   0.464   3.710  14.156 -0.6497  0.2847  2.5127
  799MPD2    N111780   0.820   3.304  14.347 -0.0738  0.2602  0.1334
  799MPD2    H711781   0.752   3.231  14.330 -2.0729  2.3187 -0.7775
  800MPD2     C11782   0.206   0.292  13.953 -0.7082  0.5038 -0.5731
  800MPD2    C111783   0.325   0.225  13.984  0.0022  0.3298  0.3302
  800MPD2    C211784   0.376   0.136  13.893 -0.0380 -0.3585 -0.0223
  800MPD2    C311785   0.335   0.123  13.766 -0.6850 -0.2497 -0.0245
  800MPD2    C411786   0.222   0.193  13.738 -0.2116 -0.3691  0.0949
  800MPD2    C511787   0.143   0.256  13.841 -1.0464 -0.5314  0.4681
  800MPD2     H11788   0.471   0.088  13.913 -0.6798 -1.5047  0.2472
  800MPD2    H111789   0.178   0.189  13.639 -1.7451 -0.1181  0.7659
  800MPD2    H211790   0.162   0.359  14.026 -2.5111 -0.2317 -0.9780
  800MPD2    H311791   0.052   0.307  13.810 -0.5657 -0.3456 -0.6523
  800MPD2     N11792   0.416   0.066  13.666  0.1656  0.0098  0.1694
  800MPD2    H511793   0.509   0.038  13.697  0.2734 -1.2908 -1.3378
  800MPD2    N111794   0.402   0.270  14.099  0.0280 -0.2210 -0.1807
  800MPD2    H711795   0.373   0.354  14.148  0.4775  0.1320 -0.5254
  801MPD2     C11796   0.689   0.942  14.128  0.5811 -0.1772 -0.1638
  801MPD2    C111797   0.754   0.886  14.233  0.1082 -0.3427  0.4175
  801MPD2    C211798   0.821   0.970  14.316  0.0148  0.3183  0.9584
  801MPD2    C311799   0.829   1.106  14.296 -0.1190  0.0140 -0.0957
  801MPD2    C411800   0.773   1.160  14.183  0.5073  0.0389  0.8961
  801MPD2    C511801   0.707   1.073  14.100 -0.3569  0.5075  0.2634
  801MPD2     H11802   0.879   0.923  14.394  0.5568  1.4891  1.2523
  801MPD2    H111803   0.779   1.263  14.148  0.5816  0.0999  1.0917
  801MPD2    H211804   0.625   0.884  14.061 -0.5564 -0.7750  1.4525
  801MPD2    H311805   0.660   1.111  14.010  0.6795  1.7025  0.2212
  801MPD2     N11806   0.893   1.194  14.389 -0.5789  0.0966  0.0257
  801MPD2    H511807   0.881   1.291  14.364 -1.7539 -0.3581 -1.1233
  801MPD2    N111808   0.752   0.747  14.259  0.4471  0.6969 -0.3150
  801MPD2    H711809   0.824   0.714  14.322 -0.6954 -0.8784  0.1599
  802MPD2     C11810   0.637   0.633  17.249  0.0531  0.4241  0.4413
  802MPD2    C111811   0.599   0.763  17.260 -0.4261  0.5729  0.6723
  802MPD2    C211812   0.682   0.871  17.240  0.3649 -0.6593 -0.5077
  802MPD2    C311813   0.812   0.858  17.192 -0.8715 -0.8017 -0.4323
  802MPD2    C411814   0.846   0.728  17.166 -0.1666 -0.3359 -0.0728
  802MPD2    C511815   0.759   0.625  17.187  0.5277  0.1511  0.5761
  802MPD2     H11816   0.651   0.974  17.258  1.6947 -0.3679  0.0732
  802MPD2    H111817   0.938   0.701  17.116  0.3170  1.8280 -0.3471
  802MPD2    H211818   0.567   0.550  17.258  1.4705 -0.4310  3.5094
  802MPD2    H311819   0.810   0.530  17.176  1.7668  0.7693  0.9367
  802MPD2     N11820   0.898   0.966  17.196  0.3697 -0.0205  0.0694
  802MPD2    H511821   0.859   1.054  17.229  0.0896  0.0703 -0.5088
  802MPD2    N111822   0.470   0.794  17.311  0.0162  0.6081  0.0655
  802MPD2    H711823   0.451   0.893  17.321 -2.4365  0.2112 -0.6395
  803MPD2     C11824   1.436   4.113  12.069 -0.0243 -0.0101 -0.1754
  803MPD2    C111825   1.532   4.116  12.169 -0.2304  0.5906  0.6109
  803MPD2    C211826   1.522   4.034  12.276  0.5635  0.6561 -0.1589
  803MPD2    C311827   1.418   3.934  12.274 -0.4158 -1.0535  0.0884
  803MPD2    C411828   1.320   3.935  12.176 -0.1804 -0.4825  0.1356
  803MPD2    C511829   1.332   4.023  12.070  0.7655 -0.2078  0.6569
  803MPD2     H11830   1.606   4.027  12.344 -0.8093 -0.5116  1.4264
  803MPD2    H111831   1.244   3.859  12.171 -1.7640  1.1274 -0.1048
  803MPD2    H211832   1.459   4.164  11.976  1.1306 -0.1541  0.0287
  803MPD2    H311833   1.279   4.019  11.975 -0.7788 -0.3195  1.5136
  803MPD2     N11834   1.407   3.831  12.370  0.1787  0.1048  0.6204
  803MPD2    H511835   1.329   3.767  12.361  0.3655  0.0736 -0.9244
  803MPD2    N111836   1.640   4.200  12.174  0.3648 -0.1039  0.4775
  803MPD2    H711837   1.699   4.206  12.256  0.2244  1.0233  0.4960
  804MPD2     C11838   1.417   1.093  16.926  0.5831 -0.3545 -0.8653
  804MPD2    C111839   1.498   1.005  17.002 -0.0376  0.2736  0.1770
  804MPD2    C211840   1.608   1.062  17.066  0.1659  0.5831  0.2714
  804MPD2    C311841   1.637   1.199  17.056  0.7084 -0.6899  0.4881
  804MPD2    C411842   1.551   1.284  16.987  0.9145 -0.1511  0.3376
  804MPD2    C511843   1.445   1.229  16.924  0.6730 -0.6667  0.2593
  804MPD2     H11844   1.657   0.999  17.140 -1.5396  1.9103  2.5266
  804MPD2    H111845   1.573   1.389  16.969  0.6461  0.0192  1.0243
  804MPD2    H211846   1.333   1.066  16.862 -0.3856  1.8087 -0.5065
  804MPD2    H311847   1.392   1.292  16.853 -0.2866 -0.8095  0.8520
  804MPD2     N11848   1.750   1.259  17.115 -0.2833 -0.2973  0.3096
  804MPD2    H511849   1.750   1.360  17.113  0.7508 -0.2789  1.2686
  804MPD2    N111850   1.466   0.872  17.021  0.4116  0.4412 -0.1596
  804MPD2    H711851   1.511   0.815  17.091  1.5381  1.6398  0.0913
  805MPD2     C11852   0.358   4.153  15.200  0.0317  0.2958 -0.1819
  805MPD2    C111853   0.341   4.048  15.288  0.2118 -0.6536 -0.3363
  805MPD2    C211854   0.430   4.025  15.391  0.3182  0.7014  0.0609
  805MPD2    C311855   0.535   4.111  15.415  0.4074  0.3355  0.2057
  805MPD2    C411856   0.539   4.224  15.341 -0.3998 -0.5523  0.2232
  805MPD2    C511857   0.455   4.247  15.229  0.4949  0.1593  0.2291
  805MPD2     H11858   0.420   3.931  15.444  0.8519  0.7225  0.2005
  805MPD2    H111859   0.617   4.297  15.359 -1.2805  0.4066  0.1314
  805MPD2    H211860   0.296   4.170  15.113 -1.7750  3.1098  1.6490
  805MPD2    H311861   0.457   4.337  15.170 -1.0170 -0.7467 -1.1892
  805MPD2     N11862   0.625   4.100  15.530  0.5194 -0.2101 -0.5554
  805MPD2    H511863   0.678   4.185  15.548 -0.3699  0.2698 -0.1939
  805MPD2    N111864   0.241   3.947  15.261 -0.0101  0.7042  0.5541
  805MPD2    H711865   0.232   3.872  15.330 -0.0661  0.6477  0.4852
  806MPD2     C11866   1.453   3.752   0.946 -0.2273  0.2364 -0.0045
  806MPD2    C111867   1.575   3.716   0.899  0.6341 -0.1825  0.4134
  806MPD2    C211868   1.600   3.714   0.764 -0.4187  0.5279  0.0641
  806MPD2    C311869   1.495   3.744   0.680  0.1816  0.8995 -1.0705
  806MPD2    C411870   1.371   3.767   0.727  0.2179 -0.3802 -0.3352
  806MPD2    C511871   1.348   3.767   0.863  0.3503  0.5967 -0.2064
  806MPD2     H11872   1.697   3.693   0.721  0.0016 -0.5564  1.5810
  806MPD2    H111873   1.283   3.784   0.666 -0.8189  0.7674  1.4891
  806MPD2    H211874   1.429   3.759   1.051  0.9390  2.0476  0.1527
  806MPD2    H311875   1.245   3.778   0.895  0.7739  3.2020  0.2695
  806MPD2     N11876   1.518   3.741   0.544  0.3624 -0.4361  0.0013
  806MPD2    H511877   1.599   3.692   0.509 -0.6311 -1.4474 -0.9021
  806MPD2    N111878   1.681   3.708   0.994  0.1511 -0.3658 -0.2801
  806MPD2    H711879   1.647   3.737   1.085  0.1556  0.3563 -0.5076
  807MPD2     C11880   1.556   3.959   1.673  0.0971 -0.3231  0.7846
  807MPD2    C111881   1.540   3.879   1.562 -0.6897  0.9569 -0.4104
  807MPD2    C211882   1.411   3.862   1.521  0.4529  0.2484 -0.5069
  807MPD2    C311883   1.298   3.912   1.582  0.1031 -0.4828 -0.1009
  807MPD2    C411884   1.311   3.984   1.699  0.5597  0.2761  0.0372
  807MPD2    C511885   1.443   4.006   1.738 -0.0703 -0.0142 -0.2649
  807MPD2     H11886   1.380   3.793   1.443 -0.5064  0.4199 -0.2716
  807MPD2    H111887   1.228   4.037   1.745  2.9368  1.4231  3.0583
  807MPD2    H211888   1.645   3.979   1.731 -0.6479  0.6965  1.5725
  807MPD2    H311889   1.462   4.059   1.831  0.8382 -1.0401  0.1468
  807MPD2     N11890   1.171   3.870   1.532  0.8738  0.0472 -0.1312
  807MPD2    H511891   1.163   3.813   1.449  2.2473  1.8548 -1.4895
  807MPD2    N111892   1.655   3.826   1.494  0.3839  0.2785 -0.4530
  807MPD2    H711893   1.747   3.844   1.533  0.0846 -0.4041  0.5641
  808MPD2     C11894   0.558   0.690   9.308  0.4487  0.0089 -0.1492
  808MPD2    C111895   0.691   0.707   9.336  0.4078 -0.5480 -0.3221
  808MPD2    C211896   0.732   0.831   9.382 -0.3042  0.2224  0.0629
  808MPD2    C311897   0.647   0.934   9.410  0.0888  1.1669 -0.0430
  808MPD2    C411898   0.510   0.918   9.387 -0.6199 -0.0050 -0.8968
  808MPD2    C511899   0.469   0.797   9.332 -0.3201  0.1404  0.0271
  808MPD2     H11900   0.840   0.841   9.388 -0.1119 -1.3335 -0.8644
  808MPD2    H111901   0.442   1.003   9.386 -0.3551  0.2126  0.8187
  808MPD2    H211902   0.517   0.599   9.266  0.9677 -1.0393  1.6029
  808MPD2    H311903   0.367   0.796   9.293 -0.6809 -1.3641  1.0111
  808MPD2     N11904   0.696   1.060   9.437 -0.7924 -0.0674  0.4518
  808MPD2    H511905   0.636   1.140   9.423 -0.3926  0.0321 -0.7402
  808MPD2    N111906   0.785   0.611   9.319  0.2959 -0.4029 -0.4150
  808MPD2    H711907   0.876   0.642   9.352  0.0934  1.8969 -2.0703
  809MPD2     C11908   1.433   1.664   9.044  0.8124  1.0373 -0.3832
  809MPD2    C111909   1.468   1.566   9.137 -0.2560  0.1237  0.9053
  809MPD2    C211910   1.369   1.506   9.210 -0.4193  0.3105  0.5026
  809MPD2    C311911   1.237   1.534   9.185  0.5622  0.3800  0.4712
  809MPD2    C411912   1.201   1.624   9.086  0.2397  0.3860 -0.0145
  809MPD2    C511913   1.302   1.694   9.026 -0.1781  0.6056 -0.1347
  809MPD2     H11914   1.399   1.437   9.288 -2.0860  0.0570  0.9102
  809MPD2    H111915   1.100   1.626   9.049 -0.1686 -0.3425  1.0602
  809MPD2    H211916   1.505   1.728   8.993 -0.3815  2.7822  0.1311
  809MPD2    H311917   1.279   1.759   8.942  0.6955  0.3500 -0.5714
  809MPD2     N11918   1.132   1.474   9.246 -0.0591  0.5089 -0.8359
  809MPD2    H511919   1.039   1.513   9.232 -0.0864 -0.2335 -2.7331
  809MPD2    N111920   1.607   1.531   9.170 -0.2794 -0.6070 -0.5061
  809MPD2    H711921   1.619   1.460   9.241 -1.7846 -0.2348  0.1205
  810MPD2     C11922   1.215   3.617   9.749 -0.3854  0.4140 -0.1492
  810MPD2    C111923   1.160   3.741   9.760 -0.0427  0.5519 -0.3203
  810MPD2    C211924   1.226   3.843   9.820 -0.6968 -0.0033 -0.2464
  810MPD2    C311925   1.357   3.830   9.867  0.4926  0.0378  0.4596
  810MPD2    C411926   1.410   3.708   9.845 -0.4878  0.2654  0.3494
  810MPD2    C511927   1.341   3.601   9.790 -0.5143  0.1660  0.1205
  810MPD2     H11928   1.188   3.944   9.815 -2.7766 -0.7876 -0.3323
  810MPD2    H111929   1.511   3.690   9.879 -1.2676 -0.5108  2.2246
  810MPD2    H211930   1.150   3.536   9.718  1.5446 -0.8714 -0.8316
  810MPD2    H311931   1.382   3.501   9.785 -4.6756 -1.4745 -0.9132
  810MPD2     N11932   1.432   3.937   9.919 -0.2313  0.2065  0.5319
  810MPD2    H511933   1.531   3.916   9.928  0.1615  2.0250  0.4673
  810MPD2    N111934   1.021   3.754   9.731 -0.6317 -0.3412  0.5547
  810MPD2    H711935   0.972   3.670   9.702  0.5582 -1.1201  0.8109
  811MPD2     C11936   0.444   4.309   9.640 -0.1485  0.5672  0.2901
  811MPD2    C111937   0.511   4.314   9.759 -0.0599  0.5986  0.0485
  811MPD2    C211938   0.519   4.441   9.821 -0.2202 -0.3745 -0.0618
  811MPD2    C311939   0.433   4.554   9.791 -0.0048 -0.9772  0.2415
  811MPD2    C411940   0.351   4.533   9.679 -1.0184 -0.2682  0.9657
  811MPD2    C511941   0.349   4.411   9.609 -0.0664 -0.0740  0.1621
  811MPD2     H11942   0.586   4.465   9.903  0.1269 -1.5683  0.0088
  811MPD2    H111943   0.274   4.599   9.642 -0.5757 -0.9830 -1.2495
  811MPD2    H211944   0.448   4.216   9.585 -0.1777  1.2608 -0.8829
  811MPD2    H311945   0.273   4.397   9.533 -0.1804 -2.2750  0.6819
  811MPD2     N11946   0.437   4.677   9.859  0.1292  0.1008  0.4787
  811MPD2    H511947   0.510   4.684   9.929  0.5459  0.2958  0.0335
  811MPD2    N111948   0.586   4.198   9.794  0.2222 -0.3002 -0.2847
  811MPD2    H711949   0.558   4.110   9.752 -1.9367 -1.0449  2.7141
  812MPD2     C11950   4.640   4.090  12.150 -0.1533 -0.7548  0.2632
  812MPD2    C111951   4.532   4.122  12.226  0.4734  0.0545  0.2876
  812MPD2    C211952   4.468   4.020  12.303 -0.6031  0.0612 -0.5974
  812MPD2    C311953   4.527   3.894  12.317 -0.0613 -1.1171  0.8107
  812MPD2    C411954   4.639   3.866  12.240 -0.0508  0.2529 -0.2055
  812MPD2    C511955   4.701   3.970  12.170 -0.0634 -0.0644  0.5759
  812MPD2     H11956   4.379   4.040  12.362 -0.2406  0.3970 -0.1740
  812MPD2    H111957   4.680   3.766  12.229  3.0446  1.4481  0.4557
  812MPD2    H211958   4.684   4.168  12.089  2.2657 -1.7546  0.7353
  812MPD2    H311959   0.069   3.960  12.111  0.6737  1.1807  1.4890
  812MPD2     N11960   4.460   3.800  12.399 -0.1988 -0.1456 -0.0662
  812MPD2    H511961   4.377   3.829  12.450 -0.9067 -1.3971 -0.5234
  812MPD2    N111962   4.491   4.254  12.216 -0.0922 -0.5410  0.6472
  812MPD2    H711963   4.558   4.317  12.173  0.2421 -0.3345  1.4792
  813MPD2     C11964   3.007   1.418  12.562  0.3801 -0.3902  0.1931
  813MPD2    C111965   3.038   1.324  12.648  0.0401  0.4434  0.1343
  813MPD2    C211966   2.943   1.275  12.736 -0.1947 -1.1953  0.3845
  813MPD2    C311967   2.822   1.331  12.756 -0.4206  0.2154  0.6273
  813MPD2    C411968   2.792   1.435  12.664 -0.0153 -0.5262  0.5005
  813MPD2    C511969   2.882   1.467  12.566 -0.8171  0.4213  0.3608
  813MPD2     H11970   2.965   1.197  12.809 -0.3548  0.3918  2.1198
  813MPD2    H111971   2.693   1.480  12.659  0.3060  0.2065  0.7433
  813MPD2    H211972   3.082   1.458  12.494 -1.0047  1.9871  0.0579
  813MPD2    H311973   2.845   1.547  12.503  0.1256  0.1287 -0.5459
  813MPD2     N11974   2.723   1.297  12.847  0.3591 -0.3255  0.0803
  813MPD2    H511975   2.642   1.357  12.855  1.1571  0.7930 -0.3001
  813MPD2    N111976   3.170   1.271  12.645  0.1328  0.2671  0.3382
  813MPD2    H711977   3.232   1.302  12.570  1.1742 -2.3602  0.1202
  814MPD2     C11978   4.091   2.674  12.260 -0.3591  0.9155  0.6311
  814MPD2    C111979   4.117   2.703  12.128 -0.4337  0.2203  0.2810
  814MPD2    C211980   4.172   2.829  12.098  0.5671 -0.6499  0.3566
  814MPD2    C311981   4.201   2.923  12.199 -0.0117  0.2389 -0.1365
  814MPD2    C411982   4.160   2.897  12.326 -0.0053 -0.6497  0.0852
  814MPD2    C511983   4.111   2.771  12.353 -0.6005 -0.5698 -0.3519
  814MPD2     H11984   4.192   2.855  11.995 -0.5161  2.8938  1.0322
  814MPD2    H111985   4.169   2.976  12.400 -0.4471  0.8834 -1.4853
  814MPD2    H211986   4.059   2.576  12.294  0.6172  1.1846  2.3285
  814MPD2    H311987   4.095   2.753  12.459  0.3156 -0.3340 -0.1695
  814MPD2     N11988   4.263   3.046  12.171 -0.3302 -0.2659 -0.1183
  814MPD2    H511989   4.269   3.110  12.250 -0.5167 -1.0118  0.5020
  814MPD2    N111990   4.100   2.615  12.020 -0.0059  0.2566  0.0196
  814MPD2    H711991   4.127   2.650  11.929 -2.0880  0.2732 -0.5961
  815MPD2     C11992   4.378   1.100  11.794  0.3488  0.0995 -0.0793
  815MPD2    C111993   4.386   0.962  11.813 -0.2121  0.1983  0.4750
  815MPD2    C211994   4.278   0.892  11.869  0.4125 -0.8335  0.2208
  815MPD2    C311995   4.173   0.964  11.924 -0.4326 -0.0288 -0.4312
  815MPD2    C411996   4.176   1.096  11.919 -0.5386 -0.3466  0.0715
  815MPD2    C511997   4.267   1.163  11.844 -0.1712  0.5825  0.5542
  815MPD2     H11998   4.282   0.785  11.886  0.1022 -1.2316 -2.2539
  815MPD2    H111999   4.106   1.158  11.974  1.1154 -0.8458  2.7362
  815MPD2    H212000   4.459   1.160  11.755 -0.9259  0.8478 -1.6137
  815MPD2    H312001   4.273   1.271  11.839 -0.4950  0.5883  0.2832
  815MPD2     N12002   4.076   0.892  11.990  0.0987 -0.1270 -0.6016
  815MPD2    H512003   4.080   0.791  11.997  1.9496  0.1340  2.1191
  815MPD2    N112004   4.507   0.897  11.792 -0.0773  0.1651  0.2983
  815MPD2    H712005   4.577   0.964  11.761 -0.1380  0.1069  0.0344
  816MPD2     C12006   3.844   0.393  17.314 -0.2128  0.2544 -0.2456
  816MPD2    C112007   3.944   0.481  17.352  0.0437 -0.6277  0.6129
  816MPD2    C212008   4.074   0.436  17.353 -0.3870  0.2198  0.4836
  816MPD2    C312009   4.103   0.310  17.311  0.2981 -0.3919  0.3176
  816MPD2    C412010   4.002   0.226  17.275 -0.5543 -0.1959 -0.3604
  816MPD2    C512011   3.870   0.267  17.279 -0.8089 -0.2448 -0.3208
  816MPD2     H12012   4.150   0.512  17.368  0.7950 -1.6457  3.9331
  816MPD2    H112013   4.014   0.123  17.245  1.6026  0.3828 -1.4878
  816MPD2    H212014   3.739   0.416  17.327  0.1658  1.1072  1.3062
  816MPD2    H312015   3.791   0.198  17.253  0.6385 -1.4068 -1.6189
  816MPD2     N12016   4.237   0.275  17.291 -0.5443 -0.2587  0.0602
  816MPD2    H512017   4.293   0.357  17.312 -0.0872 -1.0308  1.8129
  816MPD2    N112018   3.908   0.612  17.384 -0.0425 -0.0366 -0.4340
  816MPD2    H712019   3.815   0.644  17.358 -1.1640 -1.8208  1.3809
  817MPD2     C12020   4.341   2.112   9.858  0.2036  0.2753  0.0153
  817MPD2    C112021   4.275   2.025   9.779 -0.3138  0.9552 -0.5705
  817MPD2    C212022   4.222   2.069   9.655 -0.7805  0.2956  0.3371
  817MPD2    C312023   4.222   2.202   9.612  0.7257 -0.3422  0.2755
  817MPD2    C412024   4.280   2.290   9.704  0.2187  0.0434  0.0734
  817MPD2    C512025   4.336   2.245   9.826 -0.0490 -0.3721 -0.3969
  817MPD2     H12026   4.184   1.998   9.583 -0.7731  0.4632  0.1693
  817MPD2    H112027   4.273   2.398   9.697  0.3204  0.1750  2.1606
  817MPD2    H212028   4.392   2.085   9.949  1.8398  0.3840 -0.8804
  817MPD2    H312029   4.378   2.313   9.899 -1.0547 -0.1089 -0.0686
  817MPD2     N12030   4.174   2.237   9.489 -0.1017 -0.0455 -1.1948
  817MPD2    H512031   4.128   2.165   9.433  0.3915 -1.9050  0.8328
  817MPD2    N112032   4.270   1.890   9.807 -0.5531  0.3708 -0.3229
  817MPD2    H712033   4.220   1.828   9.744 -1.0953  0.3178  0.1590
  818MPD2     C12034   3.336   1.529   9.838 -0.5655  0.5894 -0.1831
  818MPD2    C112035   3.220   1.458   9.867 -0.7646 -0.2655 -0.4025
  818MPD2    C212036   3.224   1.321   9.851 -0.0195  0.0987  0.5922
  818MPD2    C312037   3.338   1.253   9.822 -0.7475  0.0956  0.0131
  818MPD2    C412038   3.455   1.321   9.804 -0.5032 -0.2171  0.4368
  818MPD2    C512039   3.452   1.461   9.816 -0.5938  0.3527  0.2965
  818MPD2     H12040   3.137   1.257   9.860 -1.4061  1.9014 -0.0043
  818MPD2    H112041   3.547   1.269   9.778 -2.0097 -1.5794 -2.2364
  818MPD2    H212042   3.343   1.635   9.858  1.1474  0.7622 -1.5941
  818MPD2    H312043   3.539   1.523   9.800 -0.9110  1.1848  1.7741
  818MPD2     N12044   3.350   1.113   9.798 -0.5822  0.1617 -0.1205
  818MPD2    H512045   3.439   1.074   9.826 -0.4023  2.4436  2.4756
  818MPD2    N112046   3.100   1.516   9.915 -0.5888  0.7982 -0.3332
  818MPD2    H712047   3.028   1.448   9.939  0.0471  1.1498  2.6235
  819MPD2     C12048   0.865   3.636  15.552 -0.2436  0.3364 -0.4782
  819MPD2    C112049   0.898   3.501  15.558  0.3438 -0.0175  0.0550
  819MPD2    C212050   0.993   3.461  15.651  0.2606 -0.3199 -0.1909
  819MPD2    C312051   1.068   3.559  15.711 -0.0332 -0.4173 -0.4250
  819MPD2    C412052   1.053   3.693  15.675 -0.0438 -0.1248  0.5313
  819MPD2    C512053   0.948   3.729  15.605  0.0842  0.1414  0.1084
  819MPD2     H12054   1.006   3.356  15.676  0.3901 -0.1224  0.5847
  819MPD2    H112055   1.132   3.763  15.699  1.1801 -1.0957 -0.6794
  819MPD2    H212056   0.771   3.660  15.502  0.0548  3.2005  0.3658
  819MPD2    H312057   0.945   3.834  15.578  0.1502  0.5076  1.5128
  819MPD2     N12058   1.172   3.519  15.798  0.1416  0.2922 -0.4214
  819MPD2    H512059   1.178   3.419  15.813  0.8167  0.4104  0.0663
  819MPD2    N112060   0.799   3.420  15.497  0.2719  0.1228  0.4033
  819MPD2    H712061   0.725   3.465  15.444  2.3720  3.1475  0.0615
  820MPD2     C12062   4.594   3.427  15.530 -0.2884  0.6372  0.2736
  820MPD2    C112063   4.687   3.489  15.448 -0.3341 -0.2870 -0.0856
  820MPD2    C212064   0.084   3.430  15.424 -0.6677 -0.2803  0.2736
  820MPD2    C312065   0.122   3.305  15.482  0.5041 -0.0634  0.0034
  820MPD2    C412066   0.019   3.237  15.541 -0.6538  0.2722  0.7947
  820MPD2    C512067   4.625   3.299  15.571 -0.0699 -0.6118  0.3751
  820MPD2     H12068   0.151   3.486  15.361  0.3131 -0.6406  0.9944
  820MPD2    H112069   0.036   3.137  15.579  0.6646 -0.8197 -2.6450
  820MPD2    H212070   4.499   3.472  15.554 -0.3703  0.3040  0.5680
  820MPD2    H312071   4.555   3.237  15.625  0.8532 -1.2171  0.8822
  820MPD2     N12072   0.247   3.238  15.465 -0.5649  0.5813  0.2278
  820MPD2    H512073   0.256   3.156  15.524  0.5571  1.0544  0.7200
  820MPD2    N112074   4.668   3.616  15.384 -1.5735 -0.2627 -0.3482
  820MPD2    H712075   0.028   3.658  15.343 -1.3224 -0.5564 -0.1412
  821MPD2     C12076   0.740   0.214  12.914  0.3015  0.2424  0.3109
  821MPD2    C112077   0.819   0.219  13.029  0.5213 -0.7466 -0.0003
  821MPD2    C212078   0.945   0.273  13.025 -0.4555 -1.0157 -0.1679
  821MPD2    C312079   0.990   0.337  12.908 -0.7933 -0.1564 -0.4259
  821MPD2    C412080   0.910   0.334  12.796  0.0997 -0.3083  0.6939
  821MPD2    C512081   0.786   0.275  12.799  0.0839 -0.6265 -0.0186
  821MPD2     H12082   1.011   0.267  13.111  0.5678  4.1864 -0.6031
  821MPD2    H112083   0.939   0.389  12.706  1.9471 -1.5394  0.5297
  821MPD2    H212084   0.645   0.161  12.919 -0.3685  1.4395  0.1170
  821MPD2    H312085   0.722   0.270  12.712 -1.0241 -0.6074  0.7860
  821MPD2     N12086   1.120   0.399  12.897 -0.4564  0.1694 -0.4695
  821MPD2    H512087   1.151   0.442  12.810 -0.7681  0.8453 -0.2526
  821MPD2    N112088   0.781   0.138  13.145  0.3352 -0.1946 -0.2538
  821MPD2    H712089   0.853   0.127  13.215 -1.9476  1.9660  2.4295
  822MPD2     C12090   1.662   0.176  15.637  0.1057 -0.3591 -0.5939
  822MPD2    C112091   1.724   0.186  15.756 -0.0067 -0.8196  0.3158
  822MPD2    C212092   1.679   0.284  15.847  0.2855 -0.3578  0.6286
  822MPD2    C312093   1.574   0.364  15.817 -0.0794 -0.1888  0.0188
  822MPD2    C412094   1.503   0.341  15.703 -0.5789 -0.9158  0.0326
  822MPD2    C512095   1.551   0.243  15.615  0.1127 -0.1108 -0.2412
  822MPD2     H12096   1.721   0.300  15.946  0.3911  2.1877  0.1679
  822MPD2    H112097   1.411   0.395  15.681 -1.2040 -0.6772  3.1920
  822MPD2    H212098   1.696   0.103  15.564  1.1476 -1.3202  0.8553
  822MPD2    H312099   1.496   0.237  15.522 -2.9903 -1.4387  1.6641
  822MPD2     N12100   1.536   0.466  15.911  0.1383 -0.4184 -0.0469
  822MPD2    H512101   1.580   0.473  16.002 -0.1203 -1.0178  0.1279
  822MPD2    N112102   1.841   0.114  15.789  0.1967 -0.7380 -0.0130
  822MPD2    H712103   1.878   0.139  15.881  0.0501 -2.1974  0.4423
  823MPD2     C12104   1.645   0.898  16.599  0.0602 -0.9781  0.7184
  823MPD2    C112105   1.647   0.786  16.525  0.5680 -0.0297  0.2155
  823MPD2    C212106   1.679   0.665  16.589  0.1447 -0.2062 -0.0363
  823MPD2    C312107   1.707   0.660  16.723  0.5071 -0.1281 -0.4148
  823MPD2    C412108   1.699   0.776  16.797 -0.7247  0.2829 -0.1360
  823MPD2    C512109   1.661   0.886  16.736 -0.5120 -0.1689 -0.0795
  823MPD2     H12110   1.683   0.574  16.530 -0.4466 -1.7659  2.3308
  823MPD2    H112111   1.717   0.791  16.902 -1.1908 -0.4163  0.0485
  823MPD2    H212112   1.621   0.991  16.548  1.0031 -0.7655  0.6598
  823MPD2    H312113   1.654   0.972  16.802  0.9396  0.1758 -0.3608
  823MPD2     N12114   1.739   0.540  16.786 -0.0422 -0.2869  0.2296
  823MPD2    H512115   1.731   0.538  16.887 -0.8939  2.0501  0.2005
  823MPD2    N112116   1.628   0.792  16.385  0.1854 -0.2304  0.4449
  823MPD2    H712117   1.609   0.884  16.347 -2.2410 -0.8585  0.1108
  824MPD2     C12118   2.161   4.123  15.956  0.5970 -0.2280 -0.4339
  824MPD2    C112119   2.207   4.175  15.839  0.9676  0.7735 -0.1697
  824MPD2    C212120   2.263   4.091  15.750 -0.0762 -0.3887 -0.7055
  824MPD2    C312121   2.273   3.957  15.770  0.4154 -0.6739 -0.2940
  824MPD2    C412122   2.234   3.908  15.894  0.2372 -0.2853 -0.0009
  824MPD2    C512123   2.167   3.988  15.985  0.2666  0.3457  0.1935
  824MPD2     H12124   2.309   4.127  15.659 -0.9596  2.3478 -0.0750
  824MPD2    H112125   2.253   3.804  15.919  0.4248 -0.8435 -2.5460
  824MPD2    H212126   2.104   4.191  16.018 -0.8038 -2.7489  1.0150
  824MPD2    H312127   2.104   3.951  16.065 -0.7749  1.8690  0.0769
  824MPD2     N12128   2.342   3.877  15.677 -0.3900 -0.2618  0.0650
  824MPD2    H512129   2.361   3.920  15.587 -0.2053  0.0922  0.2739
  824MPD2    N112130   2.203   4.311  15.800 -0.2981 -0.0117 -0.3749
  824MPD2    H712131   2.218   4.338  15.703 -0.7098  0.9260 -0.1809
  825MPD2     C12132   2.869   3.770  15.016  0.3218 -0.1737  0.1208
  825MPD2    C112133   2.800   3.841  15.119 -0.3253  0.0559 -0.8832
  825MPD2    C212134   2.751   3.963  15.084 -0.0687  0.1204 -0.2926
  825MPD2    C312135   2.759   4.014  14.955 -0.3333 -0.3898  0.6765
  825MPD2    C412136   2.839   3.944  14.862 -0.2206 -0.2401 -0.6897
  825MPD2    C512137   2.894   3.821  14.892  0.4534  0.8601  0.4588
  825MPD2     H12138   2.685   4.019  15.150  0.6729  0.5731  0.0644
  825MPD2    H112139   2.858   3.980  14.761  0.1465  0.7813 -0.2556
  825MPD2    H212140   2.904   3.669  15.036 -1.1108 -0.5615  0.7273
  825MPD2    H312141   2.946   3.761  14.818  1.7844 -1.6291  3.4005
  825MPD2     N12142   2.702   4.134  14.903  0.2514  0.8926 -0.7893
  825MPD2    H512143   2.720   4.142  14.803 -0.1245  0.6320 -0.8799
  825MPD2    N112144   2.766   3.775  15.236 -0.1813 -0.4181  0.3684
  825MPD2    H712145   2.784   3.676  15.252  0.2401 -0.2070  1.2385
  826MPD2     C12146   2.220   3.463  13.466  0.1527 -0.5667 -0.2572
  826MPD2    C112147   2.274   3.588  13.463 -0.6072 -0.2509  0.0945
  826MPD2    C212148   2.195   3.693  13.524  0.3705  0.0999  0.1595
  826MPD2    C312149   2.076   3.664  13.590  0.4660  0.5789 -0.7392
  826MPD2    C412150   2.036   3.537  13.597  0.2529 -0.2121  0.0235
  826MPD2    C512151   2.107   3.434  13.540  0.5111 -0.7443 -0.2901
  826MPD2     H12152   2.232   3.795  13.531  0.4013 -0.0980  3.0624
  826MPD2    H112153   1.946   3.510  13.650  1.5937  0.1941  2.4888
  826MPD2    H212154   2.269   3.384  13.411  0.1698  0.6097 -1.9252
  826MPD2    H312155   2.062   3.336  13.536  1.5065 -1.3172  2.4065
  826MPD2     N12156   1.989   3.758  13.650  0.2105  0.0003  0.3123
  826MPD2    H512157   1.926   3.722  13.721 -1.4151  0.1720 -1.0359
  826MPD2    N112158   2.415   3.603  13.437  0.0989 -0.1426  0.2288
  826MPD2    H712159   2.458   3.517  13.405  0.8804 -0.8100  3.0762
  827MPD2     C12160   3.600   0.470   9.908  0.1956  0.3889  0.0837
  827MPD2    C112161   3.545   0.410  10.017  1.0238 -0.3408  0.3498
  827MPD2    C212162   3.404   0.393  10.004  0.2530  0.0808  0.9001
  827MPD2    C312163   3.327   0.432   9.896 -0.0190  0.0241  0.3150
  827MPD2    C412164   3.392   0.491   9.788  0.1956  0.7635 -0.1645
  827MPD2    C512165   3.529   0.502   9.799 -0.1053 -0.4763 -0.9251
  827MPD2     H12166   3.348   0.358  10.090 -1.6098  2.8247  0.8185
  827MPD2    H112167   3.350   0.503   9.689 -2.3999 -0.7348  0.7616
  827MPD2    H212168   3.703   0.502   9.913  0.3204  0.5302 -3.4639
  827MPD2    H312169   3.586   0.549   9.719 -0.5249 -1.1612 -1.6256
  827MPD2     N12170   3.186   0.418   9.897 -0.2232  0.2176  0.0297
  827MPD2    H512171   3.152   0.366   9.977  0.2457  0.7076  0.5553
  827MPD2    N112172   3.626   0.364  10.124 -0.2452 -0.0978  0.1371
  827MPD2    H712173   3.722   0.395  10.113 -0.7200  1.4167  0.2327
  828MPD2     C12174   1.538   0.293  12.825  0.2731  0.5250 -0.6787
  828MPD2    C112175   1.590   0.292  12.698 -0.2156  0.3021  0.0135
  828MPD2    C212176   1.724   0.269  12.679 -0.1549  0.3697 -0.3896
  828MPD2    C312177   1.805   0.239  12.785 -1.1835  0.0939  0.4070
  828MPD2    C412178   1.759   0.243  12.914 -0.3105  0.1357 -0.9046
  828MPD2    C512179   1.624   0.265  12.932  0.0437  0.2232  0.0080
  828MPD2     H12180   1.770   0.278  12.582 -0.5938  2.5001 -0.4028
  828MPD2    H112181   1.818   0.213  13.000 -0.9769 -1.0027 -0.8352
  828MPD2    H212182   1.431   0.293  12.840  0.3830  0.0857  0.1119
  828MPD2    H312183   1.570   0.264  13.026  0.0095 -0.7846 -0.0224
  828MPD2     N12184   1.946   0.216  12.779  0.1162 -0.6222 -0.4199
  828MPD2    H512185   1.993   0.202  12.868 -0.2878 -5.0993 -0.9155
  828MPD2    N112186   1.518   0.334  12.584 -0.1245 -0.1175 -1.1277
  828MPD2    H712187   1.563   0.321  12.493  0.9342  1.8482 -0.8735
  829MPD2     C12188   1.898   0.342  11.830  0.0442  0.5640 -0.3455
  829MPD2    C112189   1.767   0.352  11.789 -0.0479 -0.4097  0.5246
  829MPD2    C212190   1.668   0.373  11.879  0.0135 -0.3997 -0.3876
  829MPD2    C312191   1.702   0.387  12.018  0.3045  0.2794  0.5314
  829MPD2    C412192   1.830   0.372  12.063 -0.7110  0.4030 -0.4767
  829MPD2    C512193   1.927   0.360  11.963 -0.2612 -0.5428  0.2242
  829MPD2     H12194   1.565   0.372  11.847 -0.6173  3.5227  1.4234
  829MPD2    H112195   1.860   0.363  12.166  0.7327 -1.7390 -1.0765
  829MPD2    H212196   1.979   0.306  11.767  0.2519  2.1488 -0.9722
  829MPD2    H312197   2.031   0.341  11.988  0.7074  1.4693 -2.2658
  829MPD2     N12198   1.596   0.398  12.113 -0.0914  0.0863 -0.3074
  829MPD2    H512199   1.625   0.414  12.209  0.2453 -0.1291 -0.3733
  829MPD2    N112200   1.734   0.327  11.656  0.2280  0.2947 -0.7134
  829MPD2    H712201   1.802   0.279  11.598  1.6410 -0.2307  1.3625
  830MPD2     C12202   1.924   3.128  15.740  0.7253 -0.0118 -0.4898
  830MPD2    C112203   1.829   3.210  15.694 -0.3905 -0.1951 -0.1414
  830MPD2    C212204   1.860   3.293  15.588  0.6948  0.3778  0.4355
  830MPD2    C312205   1.974   3.274  15.518 -0.6160 -0.0337 -0.2397
  830MPD2    C412206   2.065   3.183  15.552  0.4734  0.4800 -0.2408
  830MPD2    C512207   2.035   3.110  15.667  0.6292 -0.5760 -0.3567
  830MPD2     H12208   1.807   3.381  15.554  0.5079 -0.3467 -1.1232
  830MPD2    H112209   2.166   3.172  15.515  0.5148  2.1294 -0.6269
  830MPD2    H212210   1.904   3.067  15.828  0.7837 -0.0840 -0.5268
  830MPD2    H312211   2.103   3.031  15.695  1.6109  0.7097  0.9389
  830MPD2     N12212   2.011   3.371  15.414  0.3127  0.0013 -0.1865
  830MPD2    H512213   2.108   3.363  15.385  0.2374  0.8535 -0.6696
  830MPD2    N112214   1.709   3.222  15.763 -0.0659  0.0167 -0.8925
  830MPD2    H712215   1.696   3.180  15.855 -0.0189  1.4020 -0.2518
  831MPD2     C12216   1.911   0.611  16.135 -0.0641  0.5435 -0.1272
  831MPD2    C112217   1.904   0.514  16.044  0.4640  0.5630 -0.0507
  831MPD2    C212218   1.924   0.384  16.076  0.1583 -0.0026  0.6431
  831MPD2    C312219   1.901   0.346  16.208  0.5089 -0.6315  0.4395
  831MPD2    C412220   1.902   0.440  16.308 -1.0199  0.1808 -0.3041
  831MPD2    C512221   1.912   0.570  16.270  0.2681  0.3670 -0.0726
  831MPD2     H12222   1.939   0.303  16.005  0.0766 -1.0480  1.8252
  831MPD2    H112223   1.890   0.410  16.411 -0.9439  0.0203 -0.3437
  831MPD2    H212224   1.922   0.716  16.107 -0.8012  0.2618 -1.4589
  831MPD2    H312225   1.925   0.647  16.345  2.4742 -0.4462  0.4056
  831MPD2     N12226   1.880   0.208  16.250  0.4203  0.0940  0.0158
  831MPD2    H512227   1.836   0.189  16.340 -0.1813 -0.7245 -0.4480
  831MPD2    N112228   1.901   0.537  15.903  0.0890  0.9313  0.2719
  831MPD2    H712229   1.910   0.459  15.839 -2.7333 -1.7379  3.1354
  832MPD2     C12230   4.477   1.612  17.472  0.2084 -0.0345 -0.3677
  832MPD2    C112231   4.463   1.747  17.476  0.0903 -0.3740  0.1686
  832MPD2    C212232   4.330   1.802  17.465  0.4078 -0.1352 -0.3294
  832MPD2    C312233   4.222   1.708  17.475 -0.5205 -0.3514 -0.5263
  832MPD2    C412234   4.242   1.569  17.495 -0.6186 -0.6915  0.9063
  832MPD2    C512235   4.368   1.531  17.499  0.7207 -0.2773 -0.4211
  832MPD2     H12236   4.315   1.909  17.465 -1.4395 -0.3798  0.5648
  832MPD2    H112237   4.161   1.497  17.491 -1.8026  0.7161 -0.6253
  832MPD2    H212238   4.575   1.567  17.469  0.4005  0.3055  1.1866
  832MPD2    H312239   4.393   1.427  17.516  0.0807  0.0754  2.5898
  832MPD2     N12240   4.088   1.756  17.448 -0.6873 -0.0281 -0.0956
  832MPD2    H512241   4.022   1.681  17.429 -0.3852 -0.5724  1.0172
  832MPD2    N112242   4.582   1.812  17.487  0.3521  0.0991  1.1903
  832MPD2    H712243   4.665   1.752  17.488 -0.2699 -0.7453  1.9548
  833MPD2     C12244   2.412   2.801  12.464 -0.1848  0.2743  1.0506
  833MPD2    C112245   2.437   2.922  12.397  0.1468 -0.4762  0.3256
  833MPD2    C212246   2.514   2.921  12.288  0.9392  0.3899  0.6059
  833MPD2    C312247   2.563   2.805  12.237 -0.5100 -0.3983  0.0692
  833MPD2    C412248   2.543   2.687  12.298 -0.5350 -0.5763 -0.0834
  833MPD2    C512249   2.458   2.684  12.401 -0.7240 -0.0840 -0.5324
  833MPD2     H12250   2.515   3.010  12.225 -0.6597 -0.5014 -0.6868
  833MPD2    H112251   2.577   2.590  12.266 -1.1089  0.2133 -3.0588
  833MPD2    H212252   2.348   2.804  12.552 -0.9174  0.1474  0.5141
  833MPD2    H312253   2.423   2.596  12.455  2.0209 -0.8915 -0.0939
  833MPD2     N12254   2.639   2.819  12.115  0.0757 -0.5902 -0.7475
  833MPD2    H512255   2.638   2.905  12.061 -0.3894 -0.9098 -1.2497
  833MPD2    N112256   2.357   3.033  12.431  0.7866  0.2938 -0.1665
  833MPD2    H712257   2.270   3.012  12.478  1.1781 -1.9527 -0.4220
  834MPD2     C12258   2.446   2.545  11.094  0.3184 -0.0950 -0.0320
  834MPD2    C112259   2.462   2.461  11.195  0.1368  0.4738  1.0618
  834MPD2    C212260   2.492   2.499  11.324  0.2231 -0.6309 -0.1803
  834MPD2    C312261   2.506   2.633  11.356  0.0092  0.6740 -0.4533
  834MPD2    C412262   2.490   2.721  11.254  0.6853 -0.4880  0.1122
  834MPD2    C512263   2.462   2.679  11.122 -0.8594 -0.1735  0.3584
  834MPD2     H12264   2.511   2.429  11.404 -2.6768 -1.3222 -0.0703
  834MPD2    H112265   2.504   2.825  11.280 -1.0733 -0.1312 -0.3547
  834MPD2    H212266   2.437   2.511  10.991 -1.4294  1.6093 -0.4426
  834MPD2    H312267   2.447   2.754  11.045  0.9660  0.5618  0.7231
  834MPD2     N12268   2.522   2.686  11.482  0.4113  0.0763 -0.0023
  834MPD2    H512269   2.517   2.787  11.488  2.1233  0.2372 -1.2934
  834MPD2    N112270   2.465   2.327  11.157 -0.0107  0.6958 -0.8124
  834MPD2    H712271   2.466   2.305  11.058 -1.6864  0.2555 -0.7229
  835MPD2     C12272   2.783   0.558  10.755  0.7308 -0.7235  0.4904
  835MPD2    C112273   2.683   0.635  10.811 -0.2041  0.6830 -0.3487
  835MPD2    C212274   2.695   0.676  10.940 -1.3044  0.6721  0.1367
  835MPD2    C312275   2.797   0.636  11.021  0.7825 -1.2956  0.1666
  835MPD2    C412276   2.897   0.557  10.961 -0.1439 -0.1828 -0.5780
  835MPD2    C512277   2.889   0.514  10.831  0.9703  0.4992 -0.5332
  835MPD2     H12278   2.630   0.753  10.980 -1.9974 -0.0415  0.3764
  835MPD2    H112279   2.987   0.531  11.016 -0.0053 -0.1714 -0.7964
  835MPD2    H212280   2.775   0.529  10.651 -0.0597 -2.2131  0.9627
  835MPD2    H312281   2.970   0.456  10.787  0.5271 -0.9326  0.5203
  835MPD2     N12282   2.811   0.665  11.157  0.0415  0.5439 -0.1540
  835MPD2    H512283   2.900   0.632  11.193 -0.0603 -1.6555 -1.9903
  835MPD2    N112284   2.580   0.689  10.735 -0.8245 -0.1224  0.3087
  835MPD2    H712285   2.521   0.759  10.780  0.6446  0.2947  1.5519
  836MPD2     C12286   2.440   0.449  11.943  0.0085  0.5145  0.5573
  836MPD2    C112287   2.400   0.508  11.826 -0.0422 -0.3843 -0.4163
  836MPD2    C212288   2.276   0.571  11.827 -0.0850 -0.0640  0.1547
  836MPD2    C312289   2.196   0.576  11.943  0.3720  0.0399  0.3933
  836MPD2    C412290   2.229   0.495  12.053  0.7223 -0.1179 -0.3902
  836MPD2    C512291   2.351   0.436  12.048  0.0746 -0.4979 -0.1518
  836MPD2     H12292   2.246   0.624  11.738  2.1323  1.1452  0.1231
  836MPD2    H112293   2.176   0.489  12.147  0.3943  1.5523 -0.4629
  836MPD2    H212294   2.544   0.422  11.955  0.6660  2.1909 -1.5120
  836MPD2    H312295   2.385   0.390  12.139  1.4278  0.0498 -0.3870
  836MPD2     N12296   2.077   0.650  11.963  0.2837  0.0374 -0.0507
  836MPD2    H512297   2.019   0.620  12.040  0.2055 -0.5245 -0.3218
  836MPD2    N112298   2.500   0.507  11.732 -0.5012  0.4767  0.1292
  836MPD2    H712299   2.589   0.463  11.754 -0.6052 -1.2158 -2.7562
  837MPD2     C12300   0.865   0.622  10.064 -0.3268 -0.7571  0.4569
  837MPD2    C112301   0.737   0.621  10.102 -0.1426 -0.4802 -0.2185
  837MPD2    C212302   0.692   0.734  10.165  0.1615 -0.8531 -0.2648
  837MPD2    C312303   0.759   0.847  10.184  0.8303  0.1235 -0.0472
  837MPD2    C412304   0.898   0.839  10.167 -0.8567 -0.0464 -0.0313
  837MPD2    C512305   0.944   0.733  10.092 -0.0680  0.5288 -0.1504
  837MPD2     H12306   0.584   0.738  10.177  0.3866 -0.1973  1.4844
  837MPD2    H112307   0.970   0.919  10.179 -0.4215 -0.3579 -0.5833
  837MPD2    H212308   0.911   0.540  10.010 -2.5249 -0.3068 -2.0792
  837MPD2    H312309   1.049   0.739  10.067  0.8673 -1.0839  3.3715
  837MPD2     N12310   0.686   0.963  10.220  0.0795  0.6853  0.9079
  837MPD2    H512311   0.586   0.949  10.230  0.1520 -0.6006 -0.1765
  837MPD2    N112312   0.635   0.522  10.077  0.3687  0.7169 -1.1966
  837MPD2    H712313   0.549   0.552  10.120  0.1729  0.9156 -1.7319
  838MPD2     C12314   3.586   2.781  11.197  0.4173 -0.9398  0.3801
  838MPD2    C112315   3.626   2.853  11.310 -0.4825  0.2523 -0.8998
  838MPD2    C212316   3.532   2.894  11.404 -0.5530  0.1565  0.6627
  838MPD2    C312317   3.408   2.847  11.393  0.3358  0.6351 -0.2050
  838MPD2    C412318   3.366   2.782  11.281  0.2961  1.0809  0.2134
  838MPD2    C512319   3.456   2.752  11.182 -0.5138 -0.4472  0.2884
  838MPD2     H12320   3.565   2.941  11.496 -1.8966  4.3233 -0.9953
  838MPD2    H112321   3.262   2.756  11.263  0.1315  1.3899  0.7398
  838MPD2    H212322   3.661   2.750  11.125  0.7483  0.3594  0.1782
  838MPD2    H312323   3.414   2.711  11.091 -1.8037  2.6503 -0.5113
  838MPD2     N12324   3.311   2.886  11.494 -0.7364  0.9607  0.5559
  838MPD2    H512325   3.352   2.949  11.562  2.6724 -0.3104 -0.3093
  838MPD2    N112326   3.764   2.863  11.339 -0.5156  0.5790  0.9797
  838MPD2    H712327   3.778   2.884  11.437  0.2980 -3.2802  1.6985
  839MPD2     C12328   3.494   2.889  11.810  0.4294 -0.0239 -0.1707
  839MPD2    C112329   3.579   2.797  11.751 -0.3125 -0.8575 -0.5118
  839MPD2    C212330   3.707   2.842  11.725  0.0413  0.1392  0.2090
  839MPD2    C312331   3.747   2.970  11.762 -1.3126  0.0649  0.3775
  839MPD2    C412332   3.654   3.062  11.808  0.3706 -0.4968  0.2193
  839MPD2    C512333   3.528   3.015  11.841  0.2343  0.2224  0.2972
  839MPD2     H12334   3.784   2.783  11.677 -0.1801  0.2786 -0.3238
  839MPD2    H112335   3.688   3.155  11.853 -2.4340  1.1784 -1.1128
  839MPD2    H212336   3.395   2.856  11.837  0.6741 -1.2495 -0.7614
  839MPD2    H312337   3.462   3.092  11.878 -0.9573 -0.7018  0.1071
  839MPD2     N12338   3.873   3.020  11.716 -0.7190  0.3157 -0.6622
  839MPD2    H512339   3.863   3.114  11.681  0.5769  1.0761  0.9903
  839MPD2    N112340   3.538   2.673  11.693 -0.4137  0.0414  0.2030
  839MPD2    H712341   3.602   2.631  11.626  0.9175 -1.1882  2.2560
  840MPD2     C12342   4.131   0.651  10.198  0.3844  0.2269  0.3310
  840MPD2    C112343   4.127   0.597  10.320 -0.3374  0.1899 -0.0862
  840MPD2    C212344   4.185   0.660  10.434  0.2957 -0.6614 -0.4996
  840MPD2    C312345   4.250   0.780  10.418 -0.2341  0.2456 -1.0285
  840MPD2    C412346   4.251   0.834  10.296 -0.0088 -0.3805  0.3538
  840MPD2    C512347   4.198   0.771  10.190  0.8202 -0.0972 -0.4501
  840MPD2     H12348   4.189   0.606  10.528 -0.6712 -0.4357 -0.3246
  840MPD2    H112349   4.311   0.924  10.283 -0.1943 -0.3340 -0.1602
  840MPD2    H212350   4.076   0.612  10.114  5.1203 -2.2798 -1.6060
  840MPD2    H312351   4.203   0.820  10.093 -0.6528 -0.3660 -0.6572
  840MPD2     N12352   4.328   0.851  10.516 -0.1382  0.3336  0.1248
  840MPD2    H512353   4.381   0.933  10.490 -0.7682  1.4295  2.3400
  840MPD2    N112354   4.034   0.492  10.332  0.5131 -0.4117 -0.0755
  840MPD2    H712355   3.968   0.469  10.258 -1.5126 -0.1528  1.6358
  841MPD2     C12356   4.051   0.694  14.440  0.5798  0.5831  0.3501
  841MPD2    C112357   3.984   0.650  14.548 -0.2647  0.1134  0.1227
  841MPD2    C212358   4.010   0.700  14.668  0.3420  0.3251 -0.4337
  841MPD2    C312359   4.110   0.797  14.681  0.2157  0.0641 -0.1197
  841MPD2    C412360   4.176   0.842  14.568  0.2045  0.1966  0.4286
  841MPD2    C512361   4.144   0.789  14.454 -0.7339 -0.6902 -0.7104
  841MPD2     H12362   3.958   0.666  14.757 -1.3743  2.8993 -0.4553
  841MPD2    H112363   4.244   0.927  14.569  0.6734 -0.1949  1.3484
  841MPD2    H212364   4.045   0.651  14.340  2.5118  0.1017  0.4490
  841MPD2    H312365   4.189   0.817  14.359 -0.7358 -0.3566 -0.6131
  841MPD2     N12366   4.123   0.863  14.808 -0.0790  0.1034 -0.1834
  841MPD2    H512367   4.045   0.855  14.872  0.0915 -2.6259 -0.2852
  841MPD2    N112368   3.892   0.543  14.540  0.1372  0.0582 -0.0639
  841MPD2    H712369   3.843   0.520  14.626  0.6128 -1.0875 -0.0919
  842MPD2     C12370   3.291   1.304  16.531 -0.8556 -0.4317 -0.1194
  842MPD2    C112371   3.307   1.414  16.606  0.7333  0.4601  0.5689
  842MPD2    C212372   3.301   1.397  16.742  0.7891  0.5387 -0.2826
  842MPD2    C312373   3.288   1.278  16.800 -0.4151 -0.4282 -0.2238
  842MPD2    C412374   3.274   1.165  16.722 -0.8526 -0.2980  0.0533
  842MPD2    C512375   3.256   1.179  16.587  0.1928 -0.9347  0.0490
  842MPD2     H12376   3.317   1.486  16.802  0.9452  0.5259 -0.3053
  842MPD2    H112377   3.268   1.061  16.753 -0.5049 -0.3126  0.0773
  842MPD2    H212378   3.287   1.311  16.423  0.9952  3.6200  0.0751
  842MPD2    H312379   3.229   1.094  16.525 -0.4126  0.0873 -1.0930
  842MPD2     N12380   3.291   1.276  16.942  0.0816  0.2672  0.2141
  842MPD2    H512381   3.316   1.362  16.989  2.9190 -1.9604  2.8543
  842MPD2    N112382   3.327   1.543  16.546  0.4027 -0.2436 -0.1202
  842MPD2    H712383   3.322   1.545  16.445  1.9582 -1.3649 -0.2052
  843MPD2     C12384   1.116   2.324  17.549 -0.1025 -1.1723  0.2702
  843MPD2    C112385   1.215   2.227  17.575  0.1465  0.2232  0.2838
  843MPD2    C212386   1.350   2.267  17.600 -0.0656  0.4436  0.5363
  843MPD2    C312387   1.380   2.402  17.637  0.3322 -0.1061 -0.5435
  843MPD2    C412388   1.271   2.489  17.640  0.2565  0.4980  0.1065
  843MPD2    C512389   1.146   2.453  17.590  0.0517  0.0898 -0.4607
  843MPD2     H12390   1.428   2.192  17.606 -0.8561 -0.2701  1.7480
  843MPD2    H112391   1.288   2.592  17.670  1.1866  0.2018  0.5912
  843MPD2    H212392   1.018   2.289  17.519  0.0150 -0.7926 -0.5433
  843MPD2    H312393   1.061   2.520  17.598  0.9817  1.2756 -0.4929
  843MPD2     N12394   1.501   2.442  17.692 -0.2029  0.0197 -0.3129
  843MPD2    H512395   1.504   2.539   0.030 -1.3407 -0.5825  1.7075
  843MPD2    N112396   1.174   2.089  17.587  0.1884  0.9206 -0.4111
  843MPD2    H712397   1.074   2.072  17.580  0.4176 -0.4990 -0.1870
  844MPD2     C12398   4.667   1.763  17.171 -0.5975 -0.3039 -0.1089
  844MPD2    C112399   0.043   1.673  17.134 -0.6196  0.6808 -0.4261
  844MPD2    C212400   0.163   1.718  17.081 -0.4067  0.4891 -0.3324
  844MPD2    C312401   0.192   1.857  17.070  0.5205  0.5985  0.4299
  844MPD2    C412402   0.084   1.946  17.099 -0.5134  0.2997 -0.0577
  844MPD2    C512403   4.690   1.892  17.142  0.3205 -0.2325  0.1300
  844MPD2     H12404   0.233   1.640  17.054 -1.1178 -0.9830  2.0646
  844MPD2    H112405   0.091   2.053  17.088  0.9385  0.2223  0.1314
  844MPD2    H212406   4.576   1.735  17.223 -1.6502  1.9919 -0.7090
  844MPD2    H312407   4.609   1.957  17.174 -0.0360 -1.3726  1.5052
  844MPD2     N12408   0.317   1.896  17.020 -0.0933  0.5334 -0.7594
  844MPD2    H512409   0.378   1.816  17.006 -0.0653 -0.0596  2.8703
  844MPD2    N112410   0.024   1.534  17.137  0.4884 -0.0158 -0.1498
  844MPD2    H712411   0.099   1.472  17.107  1.1269  0.9992 -0.6562
  845MPD2     C12412   0.654   2.771  16.972  0.1799  0.5592  0.2999
  845MPD2    C112413   0.579   2.691  17.046 -0.7884 -0.6249 -0.1382
  845MPD2    C212414   0.587   2.556  17.028 -0.5611 -0.0557  0.4150
  845MPD2    C312415   0.658   2.497  16.924 -0.5381  0.3169 -0.1445
  845MPD2    C412416   0.723   2.587  16.838  0.5163 -0.2229 -0.4519
  845MPD2    C512417   0.729   2.720  16.871  0.6876 -0.1560  0.0960
  845MPD2     H12418   0.529   2.494  17.095 -0.6241 -0.3633  0.0721
  845MPD2    H112419   0.782   2.556  16.753 -1.0656 -1.1558 -1.1833
  845MPD2    H212420   0.644   2.878  16.987  0.6273  1.0669 -2.9723
  845MPD2    H312421   0.783   2.789  16.808 -1.3227 -0.6504 -2.1508
  845MPD2     N12422   0.649   2.356  16.911 -0.3517 -0.3776  0.2571
  845MPD2    H512423   0.594   2.303  16.978  0.5988 -0.4661  0.9716
  845MPD2    N112424   0.500   2.757  17.151  0.1178 -0.3056 -0.4667
  845MPD2    H712425   0.474   2.853  17.130 -0.7849 -0.2485  0.9356
  846MPD2     C12426   1.989   2.257  14.127 -0.0988 -0.0547  0.2897
  846MPD2    C112427   1.866   2.310  14.102  0.3585  0.8110  0.1789
  846MPD2    C212428   1.778   2.330  14.209  0.1883  0.0792  0.0765
  846MPD2    C312429   1.815   2.302  14.339 -0.3172 -0.1322 -0.2665
  846MPD2    C412430   1.945   2.265  14.362 -0.0551 -0.3728  0.1458
  846MPD2    C512431   2.025   2.229  14.260 -0.3697 -0.9889 -0.3396
  846MPD2     H12432   1.675   2.359  14.193  0.3655  0.6319 -0.0327
  846MPD2    H112433   1.977   2.239  14.462 -0.0788 -2.5088 -0.3873
  846MPD2    H212434   2.062   2.232  14.051 -0.3174 -3.2206  1.1189
  846MPD2    H312435   2.112   2.166  14.278  0.3614  0.4370  1.1051
  846MPD2     N12436   1.718   2.327  14.440 -0.3652 -0.4438  0.2597
  846MPD2    H512437   1.633   2.376  14.412  0.7121  0.3179 -1.6839
  846MPD2    N112438   1.823   2.336  13.973  0.4527  0.5810  1.3402
  846MPD2    H712439   1.724   2.349  13.960  0.3454 -1.5067  0.0452
  847MPD2     C12440   1.473   3.370  14.318 -0.1205 -0.2275 -0.0797
  847MPD2    C112441   1.591   3.448  14.314 -0.6974 -0.5640 -0.1950
  847MPD2    C212442   1.717   3.383  14.333  0.4464  0.2168 -0.5815
  847MPD2    C312443   1.728   3.256  14.364  0.0379  0.0274 -0.4001
  847MPD2    C412444   1.609   3.186  14.383 -0.2554  0.4253  0.5163
  847MPD2    C512445   1.489   3.243  14.362  0.4481  0.5593 -0.4230
  847MPD2     H12446   1.807   3.443  14.327  0.5161 -0.0760 -2.5429
  847MPD2    H112447   1.597   3.087  14.424  1.6843 -0.3785 -0.8232
  847MPD2    H212448   1.369   3.401  14.311  0.1382  1.1620  2.3715
  847MPD2    H312449   1.397   3.187  14.375  1.2719 -0.9127 -1.0418
  847MPD2     N12450   1.859   3.202  14.385  0.5036 -0.2608  0.6054
  847MPD2    H512451   1.937   3.263  14.364 -1.9796  1.4950 -3.4881
  847MPD2    N112452   1.585   3.589  14.295  0.6985 -0.6506  0.2970
  847MPD2    H712453   1.670   3.641  14.278  1.3912 -2.1093 -0.6993
  848MPD2     C12454   3.631   2.429  17.144 -0.4147 -0.2811  0.8338
  848MPD2    C112455   3.739   2.355  17.111  0.0749  0.5890 -0.7163
  848MPD2    C212456   3.835   2.414  17.037 -0.4058 -0.2395 -0.4043
  848MPD2    C312457   3.822   2.533  16.965 -0.5251 -0.2298  1.4029
  848MPD2    C412458   3.698   2.591  16.974 -0.4347  0.1583 -0.3031
  848MPD2    C512459   3.613   2.542  17.074 -0.0411  0.0591 -0.7518
  848MPD2     H12460   3.926   2.356  17.031  0.1098  0.6020 -0.7615
  848MPD2    H112461   3.690   2.683  16.917  3.3803  1.6162  1.4842
  848MPD2    H212462   3.548   2.394  17.204  0.2269 -0.7946  1.4078
  848MPD2    H312463   3.519   2.592  17.097  0.4481  0.5879  0.1035
  848MPD2     N12464   3.914   2.573  16.869  0.5420 -0.6498 -0.8005
  848MPD2    H512465   3.885   2.644  16.803  1.3493 -0.2698 -0.7472
  848MPD2    N112466   3.771   2.230  17.174  0.8267  0.9249  0.5234
  848MPD2    H712467   3.861   2.185  17.159  0.5543 -0.1547  2.2533
  849MPD2     C12468   2.969   1.460  14.359  0.6619  0.2379  0.0682
  849MPD2    C112469   3.090   1.408  14.330  0.2818  0.3667  0.5153
  849MPD2    C212470   3.162   1.364  14.440  0.7584 -0.3706  0.2116
  849MPD2    C312471   3.127   1.387  14.574 -0.2654  0.1392 -0.1114
  849MPD2    C412472   3.010   1.457  14.596 -0.4225  0.0675 -0.4819
  849MPD2    C512473   2.933   1.483  14.486  0.6697 -0.4207  0.2212
  849MPD2     H12474   3.264   1.334  14.417 -0.5451 -2.6940 -2.4905
  849MPD2    H112475   2.975   1.481  14.695  0.6643 -3.5118  0.7486
  849MPD2    H212476   2.905   1.498  14.280  0.2067 -1.9347 -0.5986
  849MPD2    H312477   2.835   1.527  14.501  0.2044 -0.6129 -2.2188
  849MPD2     N12478   3.209   1.335  14.678 -0.3545 -0.3038 -0.1380
  849MPD2    H512479   3.202   1.377  14.771 -0.7654  1.2246 -0.8701
  849MPD2    N112480   3.142   1.407  14.195  0.3270  0.6149 -0.0190
  849MPD2    H712481   3.085   1.456  14.127 -3.4967 -1.5574  1.5953
  850MPD2     C12482   0.994   4.348  15.095  0.0969 -0.2288  0.3448
  850MPD2    C112483   1.061   4.246  15.159  0.0151  0.2013  0.1254
  850MPD2    C212484   1.197   4.230  15.138  0.2445  0.8624 -0.4021
  850MPD2    C312485   1.271   4.331  15.074  0.5359  0.3330  0.1227
  850MPD2    C412486   1.201   4.422  14.999 -0.4247  0.7336 -0.1311
  850MPD2    C512487   1.065   4.424  15.008  0.1007  0.3420 -0.1547
  850MPD2     H12488   1.258   4.158  15.191  0.1794  1.9128  1.1067
  850MPD2    H112489   1.248   4.503  14.944  0.8496  0.7336  0.9575
  850MPD2    H212490   0.890   4.368  15.116  1.2635  3.6577  2.4632
  850MPD2    H312491   1.021   4.498  14.942  1.9729  0.8132 -0.8708
  850MPD2     N12492   1.410   4.326  15.062  0.3476 -0.2936 -0.7356
  850MPD2    H512493   1.461   4.408  15.030 -0.9770  0.4251 -1.0184
  850MPD2    N112494   0.991   4.151  15.239  0.1598 -0.4743 -0.7585
  850MPD2    H712495   0.901   4.120  15.203  0.0864  0.5555 -1.4765
  851MPD2     C12496   1.826   4.238  15.567 -0.0397  0.3046 -0.2772
  851MPD2    C112497   1.737   4.169  15.493 -0.3647  0.5753  0.3012
  851MPD2    C212498   1.774   4.065  15.417 -0.0129  0.1735  0.7492
  851MPD2    C312499   1.906   4.023  15.419 -0.0979 -0.0153 -0.3966
  851MPD2    C412500   1.998   4.102  15.484  0.3538 -0.3987  0.2510
  851MPD2    C512501   1.959   4.214  15.556 -0.4694  0.1007 -0.7606
  851MPD2     H12502   1.696   4.011  15.363  2.6231 -2.3627 -0.5651
  851MPD2    H112503   2.102   4.072  15.487  1.0200  1.6275 -2.5662
  851MPD2    H212504   1.788   4.318  15.629 -1.2606  0.0759 -0.7278
  851MPD2    H312505   2.029   4.278  15.607 -0.8063 -1.2512  1.3999
  851MPD2     N12506   1.941   3.908  15.342  0.1865 -0.0777  0.6998
  851MPD2    H512507   1.867   3.854  15.299  0.3642  1.6822 -1.8601
  851MPD2    N112508   1.604   4.214  15.501  0.0443 -0.0443  0.5776
  851MPD2    H712509   1.583   4.302  15.547 -1.9399 -0.3768  0.3055
  852MPD2     C12510   1.172   2.143  10.016 -0.2830 -0.5267 -0.0623
  852MPD2    C112511   1.263   2.195  10.109 -0.5170 -0.2116  0.2199
  852MPD2    C212512   1.363   2.281  10.077 -0.2977 -0.4527  0.6750
  852MPD2    C312513   1.371   2.323   9.943 -0.5566 -0.5940 -0.1325
  852MPD2    C412514   1.284   2.267   9.850 -0.7652 -0.0875 -0.0814
  852MPD2    C512515   1.182   2.183   9.887 -0.0867 -0.2498 -0.3657
  852MPD2     H12516   1.436   2.313  10.150 -1.2612 -1.5266  2.0861
  852MPD2    H112517   1.280   2.302   9.748 -0.9801 -0.4966 -0.2168
  852MPD2    H212518   1.091   2.077  10.044  0.2582 -1.5699 -0.9393
  852MPD2    H312519   1.117   2.144   9.809 -0.9841  0.6521 -0.0759
  852MPD2     N12520   1.485   2.403   9.909 -0.3555  0.2147  0.0243
  852MPD2    H512521   1.533   2.446   9.988 -0.2177 -0.4177  0.2803
  852MPD2    N112522   1.260   2.162  10.247  0.1045 -0.1757  0.0658
  852MPD2    H712523   1.320   2.222  10.302 -0.6165  2.1619 -1.6838
  853MPD2     C12524   3.325   1.641  12.347 -0.3601 -0.8030  0.8386
  853MPD2    C112525   3.253   1.724  12.279  0.5417  0.4919  0.2016
  853MPD2    C212526   3.272   1.733  12.143  0.4823 -1.1013 -0.1531
  853MPD2    C312527   3.375   1.668  12.081  0.3186  0.1213 -0.4229
  853MPD2    C412528   3.458   1.593  12.160  0.0703 -0.3063 -0.2159
  853MPD2    C512529   3.435   1.585  12.295  0.2616  0.2411  0.9450
  853MPD2     H12530   3.218   1.805  12.082  2.3539 -0.0121 -0.5553
  853MPD2    H112531   3.541   1.542  12.112  0.3483 -0.3050  0.2635
  853MPD2    H212532   3.316   1.627  12.455  2.1354 -2.7742  0.7891
  853MPD2    H312533   3.497   1.532  12.367  0.4125  0.3258  0.8779
  853MPD2     N12534   3.393   1.665  11.936  0.1539  0.3245  0.7962
  853MPD2    H512535   3.487   1.645  11.903  0.2958  1.4938  0.4892
  853MPD2    N112536   3.142   1.786  12.341 -0.2122 -0.9746  0.1066
  853MPD2    H712537   3.136   1.784  12.442  1.0982  0.3049  0.2072
  854MPD2     C12538   4.076   1.707  12.534 -0.3688 -0.1660  0.6731
  854MPD2    C112539   4.170   1.802  12.543 -0.2196  0.3782 -0.4212
  854MPD2    C212540   4.306   1.758  12.566 -0.6985 -0.4899  0.4614
  854MPD2    C312541   4.335   1.624  12.595  0.3088  0.0996  0.4057
  854MPD2    C412542   4.237   1.534  12.594  0.1877  0.2177 -0.3405
  854MPD2    C512543   4.109   1.577  12.571 -0.5044 -0.3214  0.0712
  854MPD2     H12544   4.391   1.825  12.567  1.5744 -3.3908  1.7540
  854MPD2    H112545   4.241   1.428  12.614  1.2571  0.1576 -0.8575
  854MPD2    H212546   3.971   1.727  12.515 -0.2805 -0.0730  0.2888
  854MPD2    H312547   4.026   1.507  12.571 -0.4777 -0.3521  0.4375
  854MPD2     N12548   4.471   1.581  12.612 -0.0309 -0.2866 -0.4665
  854MPD2    H512549   4.483   1.480  12.617  0.6427 -0.0195  2.9751
  854MPD2    N112550   4.129   1.943  12.521 -0.2392  0.3617 -0.4249
  854MPD2    H712551   4.032   1.958  12.497 -0.3529 -0.8895 -0.7875
  855MPD2     C12552   0.701   1.541  13.175  0.9085 -0.4825  0.1614
  855MPD2    C112553   0.577   1.583  13.217 -0.9773  0.0083  0.7405
  855MPD2    C212554   0.472   1.594  13.121  0.4915  0.0018  0.2282
  855MPD2    C312555   0.499   1.566  12.989  0.1414  0.8274 -1.0854
  855MPD2    C412556   0.629   1.542  12.943 -0.3041  0.6913  0.1472
  855MPD2    C512557   0.732   1.530  13.041  0.3449 -0.6257  0.7129
  855MPD2     H12558   0.368   1.601  13.152  1.6303  2.1346  3.5339
  855MPD2    H112559   0.656   1.530  12.838  0.7550 -0.6713  0.5886
  855MPD2    H212560   0.776   1.529  13.252  0.7494  2.7374  0.8484
  855MPD2    H312561   0.834   1.510  13.011 -0.5733 -0.5962 -2.5041
  855MPD2     N12562   0.401   1.556  12.887 -0.3147  0.0398 -0.1549
  855MPD2    H512563   0.434   1.533  12.794 -0.8605  2.3589 -0.9282
  855MPD2    N112564   0.558   1.589  13.357  0.5014 -0.4947 -0.1902
  855MPD2    H712565   0.623   1.543  13.420  0.3984 -1.5029 -0.8209
  856MPD2     C12566   2.858   2.400  13.183 -0.0876 -0.6702 -0.8171
  856MPD2    C112567   2.874   2.520  13.261 -0.5326  0.3084 -0.1653
  856MPD2    C212568   2.798   2.631  13.237  0.4264 -0.7161  0.5207
  856MPD2    C312569   2.719   2.636  13.127 -0.3465 -0.0737 -0.4081
  856MPD2    C412570   2.702   2.526  13.049  0.5870 -0.7478  0.2532
  856MPD2    C512571   2.772   2.411  13.075 -0.1256  0.8865  0.1998
  856MPD2     H12572   2.817   2.719  13.296 -2.2400 -0.7099  1.3497
  856MPD2    H112573   2.632   2.521  12.967  0.5538  0.1560  0.2328
  856MPD2    H212574   2.908   2.305  13.196 -1.3287 -1.5859 -2.8124
  856MPD2    H312575   2.756   2.330  13.005 -0.5351  0.3988  0.8573
  856MPD2     N12576   2.636   2.750  13.102 -0.0845  0.3599  0.1854
  856MPD2    H512577   2.549   2.724  13.057  0.0420 -2.2904  1.4643
  856MPD2    N112578   2.962   2.527  13.371 -0.5051 -0.5997 -0.3015
  856MPD2    H712579   2.998   2.616  13.404 -0.4366 -0.2266 -1.3732
  857MPD2     C12580   4.079   4.672  12.552  0.6605 -0.0156 -0.4358
  857MPD2    C112581   4.212   4.673  12.593  0.0085  0.0817  0.5600
  857MPD2    C212582   4.262   0.069  12.650  0.3711  0.2495  0.2341
  857MPD2    C312583   4.188   0.187  12.642 -0.3476  0.2782  0.2886
  857MPD2    C412584   4.064   0.186  12.586  0.2208 -0.1940  0.4301
  857MPD2    C512585   4.014   0.069  12.542  0.3404  0.3596 -0.2895
  857MPD2     H12586   4.358   0.080  12.699  0.0645 -0.6190  1.0077
  857MPD2    H112587   4.001   0.274  12.571 -1.9038 -1.8904 -0.5761
  857MPD2    H212588   4.038   4.583  12.507  1.0322 -0.1574 -0.4956
  857MPD2    H312589   3.917   0.082  12.496  0.5171 -0.2248 -0.8302
  857MPD2     N12590   4.248   0.305  12.691  0.0442  0.0312 -0.5023
  857MPD2    H512591   4.345   0.297  12.718  0.2668 -0.3932 -1.4468
  857MPD2    N112592   4.279   4.550  12.615  0.0658  0.2302 -0.7483
  857MPD2    H712593   4.232   4.465  12.584  0.6725  0.1052 -1.3287
  858MPD2     C12594   4.518   3.941  16.455  0.6252  0.3596  0.1817
  858MPD2    C112595   4.656   3.946  16.484 -0.9973  0.2936 -0.1422
  858MPD2    C212596   4.692   4.008  16.603 -0.3549  0.2352  0.3435
  858MPD2    C312597   4.596   4.068  16.683 -0.2229 -0.5461 -0.0601
  858MPD2    C412598   4.465   4.069  16.650  0.2254  0.0090  0.5075
  858MPD2    C512599   4.426   4.009  16.535  0.2703  0.6561  0.3819
  858MPD2     H12600   0.071   3.996  16.640 -0.4554 -1.1350  0.1875
  858MPD2    H112601   4.391   4.114  16.715 -1.2135 -0.1745 -0.9827
  858MPD2    H212602   4.487   3.888  16.366  1.5245 -0.2617  0.2364
  858MPD2    H312603   4.323   4.022  16.506  0.8652 -0.2268 -2.2300
  858MPD2     N12604   4.625   4.115  16.816  0.1650 -0.2810 -0.4405
  858MPD2    H512605   4.544   4.152  16.865  0.8833 -0.3580  0.8157
  858MPD2    N112606   0.017   3.890  16.385  0.2494 -0.3404  0.0100
  858MPD2    H712607   4.690   3.832  16.318 -0.9518 -1.7853  2.1628
  859MPD2     C12608   3.204   1.765  15.495 -0.4270 -0.4088  0.0758
  859MPD2    C112609   3.318   1.685  15.464 -0.1858  0.5732  0.1640
  859MPD2    C212610   3.309   1.551  15.495  0.3575 -0.2364  0.2076
  859MPD2    C312611   3.206   1.497  15.562 -0.1140  0.0802 -0.2082
  859MPD2    C412612   3.103   1.581  15.594  0.0476 -0.4389 -0.4721
  859MPD2    C512613   3.102   1.716  15.564 -0.1893 -0.1270  0.4940
  859MPD2     H12614   3.396   1.488  15.483  0.7158  0.5423 -1.3646
  859MPD2    H112615   3.013   1.549  15.645  0.3640 -1.4711 -0.5725
  859MPD2    H212616   3.216   1.871  15.478 -2.3503  0.0514  1.6283
  859MPD2    H312617   3.028   1.784  15.606 -1.9483 -0.8467 -1.4353
  859MPD2     N12618   3.206   1.364  15.619  0.2783 -0.3632 -0.2611
  859MPD2    H512619   3.134   1.334  15.684  1.9725 -1.0200  1.3176
  859MPD2    N112620   3.428   1.748  15.403  0.1360 -0.6143 -0.0990
  859MPD2    H712621   3.419   1.844  15.374 -0.6730 -0.2151  1.4786
  860MPD2     C12622   1.240   1.431  11.205  0.5131 -0.3673  0.1824
  860MPD2    C112623   1.326   1.479  11.306 -0.4856 -0.3844  0.1105
  860MPD2    C212624   1.280   1.464  11.435 -0.0799  0.0788 -0.0968
  860MPD2    C312625   1.172   1.389  11.469 -0.3138 -0.4355  0.2215
  860MPD2    C412626   1.108   1.328  11.362 -0.3468  0.3118 -0.2477
  860MPD2    C512627   1.133   1.356  11.236 -0.1016 -0.2743  0.3223
  860MPD2     H12628   1.335   1.521  11.509  0.4955  0.1044 -0.5395
  860MPD2    H112629   1.026   1.259  11.380 -1.1115  0.9792 -1.1817
  860MPD2    H212630   1.263   1.449  11.101 -0.5803  1.9132  0.3266
  860MPD2    H312631   1.085   1.299  11.158  2.0587 -3.1573  1.1038
  860MPD2     N12632   1.128   1.384  11.603  0.2085 -0.6449  0.1297
  860MPD2    H512633   1.185   1.428  11.675 -0.1954  0.1852 -0.0578
  860MPD2    N112634   1.445   1.549  11.294 -0.2630 -0.6781  0.0546
  860MPD2    H712635   1.500   1.565  11.378 -0.3044  0.0014 -0.0426
  861MPD2     C12636   0.542   0.026  10.959  0.6218  0.2712  0.6624
  861MPD2    C112637   0.450   0.052  11.060 -0.0388  0.4568  0.2752
  861MPD2    C212638   0.321   0.107  11.034  0.6083  0.7381 -0.4544
  861MPD2    C312639   0.295   0.142  10.899  0.0474 -0.0591 -0.7315
  861MPD2    C412640   0.385   0.118  10.796  0.5548 -0.2480  0.6079
  861MPD2    C512641   0.508   0.065  10.827 -0.4760 -0.4526  0.0982
  861MPD2     H12642   0.255   0.126  11.118  0.3316 -1.2908 -0.2166
  861MPD2    H112643   0.355   0.155  10.699  1.4362  1.4347  0.9844
  861MPD2    H212644   0.645   4.718  10.971  0.8713  1.5747  1.8281
  861MPD2    H312645   0.577   0.065  10.742  1.1092  3.1840  1.3839
  861MPD2     N12646   0.177   0.213  10.851  0.5981 -0.3846 -0.3696
  861MPD2    H512647   0.171   0.227  10.750 -1.8461  1.7775  0.0699
  861MPD2    N112648   0.478   0.016  11.190 -0.1850 -0.8446 -0.2197
  861MPD2    H712649   0.411   0.044  11.261  0.2705 -0.3338  0.0066
  862MPD2     C12650   4.410   0.409  10.314 -0.0780  0.7159  0.0108
  862MPD2    C112651   4.504   0.329  10.374 -0.6168 -0.5368  0.1279
  862MPD2    C212652   4.523   0.192  10.347 -0.4813  0.0161  0.4411
  862MPD2    C312653   4.444   0.135  10.247 -0.0860 -0.2327  0.1216
  862MPD2    C412654   4.339   0.212  10.201 -0.2386 -0.4913  0.0250
  862MPD2    C512655   4.324   0.345  10.231  0.4173  0.5811  0.1158
  862MPD2     H12656   4.604   0.138  10.395 -0.2403  0.6135  0.6936
  862MPD2    H112657   4.283   0.162  10.123 -0.7143 -1.3055  0.8794
  862MPD2    H212658   4.416   0.516  10.331  3.7132  0.2420  1.7391
  862MPD2    H312659   4.255   0.404  10.172  1.8095  0.9419 -1.1502
  862MPD2     N12660   4.455   4.721  10.210  0.2891  0.3222  0.2651
  862MPD2    H512661   4.379   4.673  10.163  0.7067  0.4944 -0.5857
  862MPD2    N112662   4.600   0.372  10.475  0.5505  0.3069 -0.3823
  862MPD2    H712663   4.657   0.296  10.509 -0.6634  0.6474  2.3886
  863MPD2     C12664   2.964   3.106   0.010 -0.2976  0.2894 -0.2612
  863MPD2    C112665   3.031   3.181  17.604 -0.0374 -0.4882 -0.2902
  863MPD2    C212666   3.169   3.155  17.575  0.2799 -0.3902  0.3472
  863MPD2    C312667   3.237   3.059  17.650 -0.1347  0.3482  0.2820
  863MPD2    C412668   3.171   2.989   0.056 -0.4723 -0.1735 -0.0104
  863MPD2    C512669   3.040   3.010   0.079 -0.3109 -0.2381  0.0490
  863MPD2     H12670   3.217   3.210  17.494  0.2882 -0.1122  0.5385
  863MPD2    H112671   3.216   2.909   0.114  0.1743  1.1462  1.3218
  863MPD2    H212672   2.861   3.130   0.031  0.1095 -0.3315  2.4140
  863MPD2    H312673   2.987   2.957   0.156  1.2066  0.3301  1.5054
  863MPD2     N12674   3.374   3.026  17.634 -0.2704 -0.1670  0.4556
  863MPD2    H512675   3.407   2.959   0.010  1.7312  0.6108  0.2370
  863MPD2    N112676   2.948   3.255  17.518 -0.3522 -0.3409  1.3154
  863MPD2    H712677   2.847   3.241  17.517 -0.2043 -1.4721  2.0012
  864MPD2     C12678   3.268   4.660  16.793 -0.2098  0.5170 -0.3224
  864MPD2    C112679   3.386   4.588  16.796 -0.4379 -0.8622 -0.1629
  864MPD2    C212680   3.499   4.646  16.746 -0.6154 -0.6255  0.5092
  864MPD2    C312681   3.502   0.044  16.679 -0.3463 -0.4127 -0.1675
  864MPD2    C412682   3.380   0.102  16.657  0.7123  0.4937 -0.1507
  864MPD2    C512683   3.272   0.053  16.720  0.8048  0.0530 -0.0344
  864MPD2     H12684   3.591   4.588  16.741  0.5691  1.1321  1.6288
  864MPD2    H112685   3.361   0.194  16.603 -0.2595  0.0758 -0.5119
  864MPD2    H212686   3.178   4.629  16.844 -0.5864  0.3439 -1.0896
  864MPD2    H312687   3.172   0.093  16.713  0.0930 -1.5906  0.6881
  864MPD2     N12688   3.617   0.108  16.622  0.4418 -0.6522 -0.2996
  864MPD2    H512689   3.603   0.194  16.569 -0.3605 -1.5973 -1.6362
  864MPD2    N112690   3.403   4.451  16.844  0.1449  0.1584 -0.0652
  864MPD2    H712691   3.479   4.392  16.814 -0.6877 -1.3143  0.7042
  865MPD2     C12692   3.614   4.694  15.840  0.4887  0.0597 -0.2147
  865MPD2    C112693   3.675   4.616  15.935  0.1924 -0.6555  0.1552
  865MPD2    C212694   3.761   4.675  16.027  0.0742 -0.7770 -0.6053
  865MPD2    C312695   3.774   0.089  16.028 -0.0208 -0.1176 -0.0543
  865MPD2    C412696   3.717   0.172  15.932  0.5151 -0.1654  0.0760
  865MPD2    C512697   3.646   0.102  15.832 -0.2846  0.1036 -0.6305
  865MPD2     H12698   3.823   4.613  16.090 -2.8114 -1.0214  1.9669
  865MPD2    H112699   3.723   0.279  15.915 -0.0240  0.2831  2.7514
  865MPD2    H212700   3.553   4.641  15.768  0.2285 -1.2501  0.9716
  865MPD2    H312701   3.614   0.172  15.756 -0.1514  1.5129  0.6027
  865MPD2     N12702   3.823   0.161  16.141 -0.5959  0.4109 -0.1119
  865MPD2    H512703   3.801   0.260  16.146 -0.6694  0.4726 -1.7098
  865MPD2    N112704   3.651   4.475  15.927  0.3075  0.2858 -0.2132
  865MPD2    H712705   3.597   4.447  15.846  1.0387  0.8200 -0.8915
  866MPD2     C12706   1.087   0.288  11.560 -0.5225 -0.0454  0.0201
  866MPD2    C112707   1.034   0.184  11.492 -0.1984  0.6012 -0.8448
  866MPD2    C212708   0.899   0.201  11.455  0.9082  0.7182 -0.0295
  866MPD2    C312709   0.824   0.316  11.492  0.2819  0.5478 -0.8375
  866MPD2    C412710   0.878   0.393  11.591 -0.1214  0.5793  0.9173
  866MPD2    C512711   1.010   0.384  11.620  0.2850 -0.3117  0.1576
  866MPD2     H12712   0.854   0.123  11.395  0.9254  1.3423 -0.8539
  866MPD2    H112713   0.825   0.479  11.629 -0.4305  1.6062 -1.8646
  866MPD2    H212714   1.186   0.282  11.603 -0.0941 -1.0967 -1.1094
  866MPD2    H312715   1.059   0.449  11.691  1.0887 -0.9190  0.1636
  866MPD2     N12716   0.702   0.351  11.429 -0.0109 -0.8588  0.2982
  866MPD2    H512717   0.652   0.415  11.490  2.8814  1.1022  0.6520
  866MPD2    N112718   1.111   0.070  11.465  0.4361  0.5656  0.1351
  866MPD2    H712719   1.208   0.077  11.494  0.7610 -0.2374 -0.7603
  867MPD2     C12720   2.528   4.309  16.533  0.2888 -0.4695  0.0096
  867MPD2    C112721   2.598   4.293  16.653 -0.7725 -0.0392  0.1709
  867MPD2    C212722   2.579   4.387  16.751  0.8299  0.6654  0.3309
  867MPD2    C312723   2.494   4.491  16.732 -0.2754  0.0193  0.5233
  867MPD2    C412724   2.420   4.499  16.620 -0.4701  0.0279  0.1437
  867MPD2    C512725   2.433   4.402  16.525  0.1375 -0.2509 -0.5022
  867MPD2     H12726   2.655   4.392  16.828 -1.0659  0.1504  2.2104
  867MPD2    H112727   2.342   4.573  16.609 -0.7441 -0.2636  0.1245
  867MPD2    H212728   2.540   4.240  16.451 -0.7026 -0.0912 -0.4479
  867MPD2    H312729   2.360   4.402  16.445  0.7571  1.9380 -1.0624
  867MPD2     N12730   2.481   4.596  16.829 -0.2335 -0.3117  0.7019
  867MPD2    H512731   2.413   4.671  16.822  0.0968 -0.0363  0.4897
  867MPD2    N112732   2.704   4.202  16.663  0.0643 -0.1776 -0.0079
  867MPD2    H712733   2.719   4.143  16.581 -1.3244 -0.1390 -0.2924
  868MPD2     C12734   4.590   3.133  12.957  0.4454 -0.2547  0.0554
  868MPD2    C112735   4.597   3.049  13.064 -0.3107  0.2888  0.3879
  868MPD2    C212736   4.519   3.078  13.179 -0.2861 -0.2210 -0.2037
  868MPD2    C312737   4.425   3.177  13.182 -0.5561 -0.1210  0.2675
  868MPD2    C412738   4.417   3.260  13.070  0.3346  0.1238 -0.6527
  868MPD2    C512739   4.501   3.240  12.961 -0.0969 -0.0550 -0.3559
  868MPD2     H12740   4.531   3.010  13.263 -0.6724  0.1224  0.1244
  868MPD2    H112741   4.339   3.334  13.054  0.6864  0.1301 -2.2759
  868MPD2    H212742   4.638   3.111  12.862 -2.8581  0.8299 -1.8485
  868MPD2    H312743   4.486   3.303  12.874 -0.3549 -0.9546 -0.9580
  868MPD2     N12744   4.327   3.173  13.281  0.4553  0.1162 -0.4788
  868MPD2    H512745   4.356   3.130  13.369 -3.2087 -1.5167 -0.0828
  868MPD2    N112746   4.683   2.931  13.059 -0.5494  0.4160 -0.3441
  868MPD2    H712747   0.010   2.916  12.972  3.3471  1.2953  1.7402
  869MPD2     C12748   1.240   2.043   1.698 -1.1563 -0.1552 -0.4828
  869MPD2    C112749   1.200   1.934   1.628  0.2301  0.5675 -1.0679
  869MPD2    C212750   1.171   1.951   1.493  0.0922  0.3356  0.5470
  869MPD2    C312751   1.174   2.081   1.446 -0.3961 -1.4220  0.2518
  869MPD2    C412752   1.180   2.192   1.533 -0.0108 -0.3583 -0.3870
  869MPD2    C512753   1.231   2.172   1.653  0.3381 -0.0387 -0.2283
  869MPD2     H12754   1.150   1.868   1.427  0.2148  1.0124 -0.3514
  869MPD2    H112755   1.184   2.293   1.495  0.6471  0.5166  2.0017
  869MPD2    H212756   1.264   2.035   1.804 -0.8427 -0.5397 -0.5794
  869MPD2    H312757   1.245   2.258   1.718 -0.7547  0.5817 -0.8058
  869MPD2     N12758   1.159   2.129   1.316  0.7150  0.5022 -0.0473
  869MPD2    H512759   1.175   2.228   1.301  0.5975  0.1707 -2.2912
  869MPD2    N112760   1.194   1.810   1.691  0.0668  0.5164 -0.5533
  869MPD2    H712761   1.213   1.813   1.791 -1.6965  0.7352 -0.2184
  870MPD2     C12762   0.262   0.565   1.555  0.3472 -0.8915 -0.0139
  870MPD2    C112763   0.366   0.504   1.488  0.3358 -0.6037 -0.1833
  870MPD2    C212764   0.355   0.492   1.345  0.2692 -0.1514  0.1327
  870MPD2    C312765   0.248   0.551   1.278 -0.3740  0.0446  0.0795
  870MPD2    C412766   0.155   0.617   1.358 -0.5386 -0.2616  0.2507
  870MPD2    C512767   0.159   0.627   1.492  0.1641 -0.0403 -0.4651
  870MPD2     H12768   0.444   0.466   1.289  0.7254 -1.7361  1.6042
  870MPD2    H112769   0.067   0.660   1.311 -0.2875  0.3950  0.3762
  870MPD2    H212770   0.265   0.569   1.663 -1.3683 -1.0842  0.0423
  870MPD2    H312771   0.078   0.675   1.545  0.2861  1.2127 -1.4218
  870MPD2     N12772   0.257   0.561   1.139  0.8471 -0.0849 -1.0365
  870MPD2    H512773   0.334   0.516   1.091  1.5525  1.0761 -0.9935
  870MPD2    N112774   0.484   0.459   1.549 -0.1667  0.0503 -0.1891
  870MPD2    H712775   0.538   0.405   1.483  0.4333 -0.5185  0.7679
  871MPD2     C12776   2.101   4.694  16.442 -0.3106 -0.4585  0.4223
  871MPD2    C112777   2.042   4.639  16.556  0.1309 -0.1335  0.1791
  871MPD2    C212778   2.026   4.502  16.563  0.6987  0.3251  0.8287
  871MPD2    C312779   2.064   4.417  16.469 -0.3914 -0.0810 -0.1581
  871MPD2    C412780   2.120   4.470  16.355 -0.0141  0.1296  0.3912
  871MPD2    C512781   2.135   4.606  16.348 -0.4745 -0.2358  0.4755
  871MPD2     H12782   1.972   4.454  16.644  0.5352 -1.3999 -0.3113
  871MPD2    H112783   2.156   4.413  16.270  0.8830 -1.5032  1.8650
  871MPD2    H212784   2.124   0.076  16.428 -0.8674 -0.6382 -1.7517
  871MPD2    H312785   2.185   4.641  16.259  1.1185  0.1919  1.5353
  871MPD2     N12786   2.037   4.279  16.492 -0.5539 -0.0583 -0.2031
  871MPD2    H512787   1.974   4.251  16.567 -1.2590 -1.7958 -1.4375
  871MPD2    N112788   1.983   0.005  16.651 -0.5613 -0.6175  0.4607
  871MPD2    H712789   1.988   0.105  16.634  0.7057 -0.6178  0.8384
  872MPD2     C12790   2.530   1.595  13.586  0.3748 -0.1547 -0.1225
  872MPD2    C112791   2.574   1.707  13.657  0.2173 -0.3158 -0.0903
  872MPD2    C212792   2.495   1.764  13.758  1.1413 -0.0932  1.0493
  872MPD2    C312793   2.370   1.715  13.783  0.6881  0.0938 -0.2343
  872MPD2    C412794   2.324   1.611  13.707 -0.6855  0.1819 -0.1473
  872MPD2    C512795   2.404   1.553  13.610  0.4293  0.4011 -0.7903
  872MPD2     H12796   2.533   1.841  13.823  1.8457 -1.1113  1.8431
  872MPD2    H112797   2.225   1.573  13.726 -0.7375 -0.1222 -1.0191
  872MPD2    H212798   2.586   1.537  13.512 -2.6345 -0.2105 -2.3604
  872MPD2    H312799   2.380   1.456  13.568 -1.8098 -0.4199  2.4231
  872MPD2     N12800   2.289   1.753  13.896 -0.1105 -0.5378  0.4803
  872MPD2    H512801   2.204   1.698  13.910 -0.0264 -0.8918 -0.3915
  872MPD2    N112802   2.701   1.763  13.643  0.0049  0.0453 -0.0498
  872MPD2    H712803   2.728   1.824  13.719  0.5038  0.1630 -0.3247
  873MPD2     C12804   4.320   2.213   0.521  0.3868 -0.5136  0.0963
  873MPD2    C112805   4.422   2.289   0.563 -0.6917 -0.2514 -0.6746
  873MPD2    C212806   4.549   2.241   0.569 -0.4034 -0.3792  0.4847
  873MPD2    C312807   4.582   2.114   0.529 -0.2810  1.0603 -1.1310
  873MPD2    C412808   4.473   2.034   0.502 -0.0613  0.3806  0.0907
  873MPD2    C512809   4.348   2.082   0.491 -0.1122  0.4654 -0.2507
  873MPD2     H12810   4.630   2.304   0.602  1.3333 -1.3890 -1.8664
  873MPD2    H112811   4.484   1.933   0.466  1.0395  0.4741  0.1748
  873MPD2    H212812   4.217   2.246   0.531  1.7885  3.7891  0.6199
  873MPD2    H312813   4.269   2.018   0.454  0.3347  0.3448 -1.0034
  873MPD2     N12814   4.708   2.053   0.522  0.1304 -0.0896 -0.9318
  873MPD2    H512815   4.707   1.957   0.488  1.4451 -0.1146 -0.9004
  873MPD2    N112816   4.376   2.408   0.619  0.4414  0.4365 -0.1450
  873MPD2    H712817   4.276   2.425   0.613  0.1092 -1.0178  1.3803
  874MPD2     C12818   3.669   2.237  16.107  0.6717  0.0666  0.1654
  874MPD2    C112819   3.652   2.213  16.242 -0.1642  0.2000  0.3938
  874MPD2    C212820   3.729   2.283  16.337 -0.1722  0.7725 -0.3812
  874MPD2    C312821   3.817   2.384  16.292  0.1508 -0.2939 -0.6827
  874MPD2    C412822   3.818   2.427  16.157 -0.1909 -0.1447  0.5458
  874MPD2    C512823   3.749   2.346  16.069  0.5025  0.7855 -0.6086
  874MPD2     H12824   3.735   2.251  16.440 -0.4002 -0.4119 -0.7287
  874MPD2    H112825   3.870   2.515  16.122 -0.7378  0.5186  1.4080
  874MPD2    H212826   3.605   2.186  16.036 -0.2571 -0.6226  1.4974
  874MPD2    H312827   3.747   2.372  15.963 -0.4845 -0.5499 -0.9273
  874MPD2     N12828   3.890   2.449  16.392  0.3464 -0.4247  0.5020
  874MPD2    H512829   3.872   2.416  16.487  0.6952  0.6002  0.9214
  874MPD2    N112830   3.554   2.118  16.273  0.3993 -0.2609  0.2394
  874MPD2    H712831   3.504   2.079  16.194 -1.9281  0.7187  1.2258
  875MPD2     C12832   0.399   0.518  14.515  0.2085 -0.7597  0.2520
  875MPD2    C112833   0.269   0.563  14.565 -0.1953 -0.4562  0.7378
  875MPD2    C212834   0.265   0.613  14.693  0.1138 -0.0397  0.0882
  875MPD2    C312835   0.378   0.628  14.763  0.3703 -0.5051 -0.3261
  875MPD2    C412836   0.497   0.580  14.713 -0.4675 -0.4652  0.0542
  875MPD2    C512837   0.512   0.523  14.592  0.9304 -0.0419  0.4013
  875MPD2     H12838   0.167   0.639  14.732 -0.8057 -2.3206 -0.7228
  875MPD2    H112839   0.582   0.593  14.779  2.3022 -0.5020 -3.5246
  875MPD2    H212840   0.413   0.478  14.416  0.5058 -3.9689  1.5943
  875MPD2    H312841   0.608   0.493  14.554  2.3221  3.2062  1.3602
  875MPD2     N12842   0.380   0.666  14.900  0.1572  0.3711  0.4180
  875MPD2    H512843   0.466   0.656  14.953  0.0496  0.2232  0.5666
  875MPD2    N112844   0.152   0.558  14.488  0.3647 -0.2797 -0.5494
  875MPD2    H712845   0.069   0.584  14.541  0.0282  0.5604 -1.4793
  876MPD2     C12846   3.452   1.607  15.829  0.5060  0.7653 -0.2924
  876MPD2    C112847   3.585   1.651  15.843  0.7606  0.4625 -0.1499
  876MPD2    C212848   3.676   1.564  15.885 -0.9854 -0.7659 -0.3957
  876MPD2    C312849   3.646   1.438  15.926  0.1503  0.1744  0.4135
  876MPD2    C412850   3.516   1.397  15.914  0.1993  0.0286 -0.3841
  876MPD2    C512851   3.421   1.480  15.858 -0.1938 -0.2727  0.6195
  876MPD2     H12852   3.779   1.588  15.905 -1.1543  0.5277 -1.0942
  876MPD2    H112853   3.484   1.296  15.935  2.7205 -0.4621  1.0513
  876MPD2    H212854   3.364   1.661  15.797  0.6584 -0.1147 -2.1946
  876MPD2    H312855   3.324   1.438  15.835 -1.0101  0.4054  2.8321
  876MPD2     N12856   3.745   1.360  15.998  0.2483 -0.5514 -0.3596
  876MPD2    H512857   3.842   1.388  15.995 -0.0650  0.3415 -2.0600
  876MPD2    N112858   3.609   1.788  15.798  0.0004  0.1995  0.0263
  876MPD2    H712859   3.527   1.831  15.756  0.5660  1.5033  0.2378
  877MPD2     C12860   3.529   2.254  15.166 -0.1459  0.3450 -0.0504
  877MPD2    C112861   3.662   2.234  15.200  0.5992  0.5330  0.7334
  877MPD2    C212862   3.763   2.249  15.107  0.5024 -0.3026 -0.2450
  877MPD2    C312863   3.725   2.257  14.976  0.1099  0.8833 -0.7980
  877MPD2    C412864   3.594   2.288  14.940 -0.0290  0.2132 -0.3631
  877MPD2    C512865   3.500   2.285  15.040  0.1086 -0.5599 -0.7243
  877MPD2     H12866   3.861   2.213  15.137  0.1800 -1.3151 -0.4334
  877MPD2    H112867   3.571   2.302  14.835  0.1726  1.6559 -0.2131
  877MPD2    H212868   3.446   2.244  15.235  0.4355 -1.4031  0.3960
  877MPD2    H312869   3.399   2.313  15.012  1.1059  2.1165 -1.6528
  877MPD2     N12870   3.809   2.205  14.874  0.2340 -0.4938  0.0958
  877MPD2    H512871   3.767   2.190  14.783  0.2353  1.6878 -0.2605
  877MPD2    N112872   3.708   2.188  15.328 -0.0752  0.1005  0.2343
  877MPD2    H712873   3.802   2.218  15.353  0.1454  0.3679 -0.9276
  878MPD2     C12874   3.109   1.127  13.207 -0.1556 -0.5777 -0.1918
  878MPD2    C112875   3.233   1.183  13.227  0.0162 -0.4765 -0.4683
  878MPD2    C212876   3.283   1.210  13.351 -0.7416 -0.1562  0.2011
  878MPD2    C312877   3.214   1.164  13.468 -0.2159 -1.1484  0.7875
  878MPD2    C412878   3.100   1.090  13.446  0.1666  0.0099  0.2629
  878MPD2    C512879   3.045   1.082  13.316  0.0989  0.2117  0.8372
  878MPD2     H12880   3.372   1.270  13.360 -0.2853 -0.6118 -1.3004
  878MPD2    H112881   3.037   1.057  13.529 -0.0408 -2.5712 -0.9096
  878MPD2    H212882   3.068   1.117  13.108 -2.1423  0.2940  0.5362
  878MPD2    H312883   2.954   1.033  13.286 -0.0043  0.5223  0.6515
  878MPD2     N12884   3.257   1.209  13.589 -0.3596  1.0982  0.0830
  878MPD2    H512885   3.346   1.257  13.592  0.4884 -0.5891  1.4681
  878MPD2    N112886   3.303   1.215  13.109 -0.6344 -0.1279  0.3580
  878MPD2    H712887   3.252   1.183  13.028 -0.8616 -0.1821  0.5229
  879MPD2     C12888   3.696   2.961  17.185  0.0486  0.6912 -0.3444
  879MPD2    C112889   3.750   2.852  17.254  0.4943  0.0364  0.1088
  879MPD2    C212890   3.664   2.760  17.315  0.6476  0.1528 -0.1289
  879MPD2    C312891   3.527   2.779  17.298  0.4606 -1.0535 -0.1602
  879MPD2    C412892   3.477   2.886  17.235 -0.5883 -0.4340  0.1993
  879MPD2    C512893   3.560   2.980  17.187  0.5133  0.1417  0.4069
  879MPD2     H12894   3.708   2.672  17.360  0.3238  0.0919  0.0727
  879MPD2    H112895   3.369   2.892  17.225 -0.3904  1.5850 -0.6150
  879MPD2    H212896   3.752   3.038  17.134  0.4820 -0.2609 -1.3107
  879MPD2    H312897   3.514   3.066  17.139 -0.5818 -0.2840  0.6869
  879MPD2     N12898   3.426   2.686  17.345  0.5385 -0.7367 -0.6517
  879MPD2    H512899   3.330   2.703  17.315  0.5673  1.7706  0.7001
  879MPD2    N112900   3.889   2.838  17.251  0.0263 -0.3050  0.5588
  879MPD2    H712901   3.943   2.901  17.192 -1.0446 -0.3778 -0.4968
  880MPD2     C12902   1.209   4.437  17.606  0.4532  0.2500  0.9816
  880MPD2    C112903   1.110   4.430   0.009  0.5941 -0.0925 -0.1111
  880MPD2    C212904   1.143   4.352   0.125 -0.3521  0.3509 -0.0055
  880MPD2    C312905   1.273   4.297   0.147 -0.3977  0.3518 -0.0411
  880MPD2    C412906   1.362   4.310   0.047  0.1058 -0.3987 -0.3362
  880MPD2    C512907   1.328   4.376  17.622 -0.2505  0.0637 -0.5279
  880MPD2     H12908   1.079   4.351   0.212 -0.9551 -4.2195 -0.5068
  880MPD2    H112909   1.448   4.245   0.047  0.4498  0.0545  0.7076
  880MPD2    H212910   1.179   4.485  17.514  0.3401  1.0584  1.4341
  880MPD2    H312911   1.399   4.393  17.541  2.3336  0.0339  1.7394
  880MPD2     N12912   1.316   4.259   0.275  0.2649 -0.7171 -0.2653
  880MPD2    H512913   1.253   4.267   0.354  0.1473 -2.8090 -0.1453
  880MPD2    N112914   0.997   4.505  17.687 -0.5631  0.4833  0.4296
  880MPD2    H712915   0.985   4.555  17.600  0.7570  0.4081  0.2053
  881MPD2     C12916   1.179   0.699  17.572 -0.1701  0.1231  0.3888
  881MPD2    C112917   1.134   0.601  17.478 -0.1183  0.0871  0.5974
  881MPD2    C212918   1.057   0.500  17.528 -0.1780  0.3696 -0.5207
  881MPD2    C312919   1.022   0.491  17.655 -0.8265 -0.4158 -0.3933
  881MPD2    C412920   1.044   0.597   0.048  0.5644 -0.1328 -0.2599
  881MPD2    C512921   1.124   0.697   0.008 -0.1871  0.7569  0.2183
  881MPD2     H12922   1.014   0.424  17.463 -1.6290  0.0659  0.7803
  881MPD2    H112923   0.992   0.604   0.143  0.1262  0.6868 -0.5567
  881MPD2    H212924   1.250   0.777  17.550 -1.4130  0.6360 -1.8179
  881MPD2    H312925   1.146   0.776   0.079  0.6133  2.0200 -1.4389
  881MPD2     N12926   0.962   0.376   0.014 -0.2204  0.5312  0.7322
  881MPD2    H512927   0.946   0.387   0.113  0.4114  1.2556  0.7584
  881MPD2    N112928   1.213   0.590  17.366  0.4905 -0.1075 -0.2212
  881MPD2    H712929   1.279   0.664  17.341 -0.6528  1.8481  2.4862
  882MPD2     C12930   3.680   1.578  14.440  0.4441 -0.3180  0.9637
  882MPD2    C112931   3.669   1.718  14.437  0.4879 -0.0685  0.2449
  882MPD2    C212932   3.564   1.782  14.369 -1.0680 -0.3188  0.3109
  882MPD2    C312933   3.462   1.712  14.314 -0.4688  0.1147 -0.6108
  882MPD2    C412934   3.469   1.577  14.327  0.9170 -0.6572 -0.0201
  882MPD2    C512935   3.581   1.508  14.375  0.0384  0.1251  0.4906
  882MPD2     H12936   3.571   1.889  14.349 -1.0208 -0.2041  0.9309
  882MPD2    H112937   3.393   1.514  14.282  0.7891 -1.6332  1.5383
  882MPD2    H212938   3.774   1.536  14.474  0.5818 -1.3217 -0.7057
  882MPD2    H312939   3.574   1.400  14.376  0.5207  0.0903  0.0394
  882MPD2     N12940   3.355   1.772  14.245  0.0308 -0.2745 -0.0750
  882MPD2    H512941   3.292   1.707  14.200  1.1176 -0.7960 -0.8509
  882MPD2    N112942   3.776   1.791  14.496  0.4586 -0.2625  0.0113
  882MPD2    H712943   3.846   1.738  14.546  0.3406  1.4777  2.0355
  883MPD2     C12944   1.495   2.311  16.582  0.5078  0.0395  0.9255
  883MPD2    C112945   1.506   2.358  16.460 -0.7763 -0.2211  1.2986
  883MPD2    C212946   1.562   2.485  16.446  0.3945 -0.7317 -0.2274
  883MPD2    C312947   1.603   2.569  16.551  0.6584  0.2647 -0.1488
  883MPD2    C412948   1.575   2.521  16.677  0.0848 -0.1580 -0.8716
  883MPD2    C512949   1.521   2.393  16.691 -0.5276 -0.0063  0.5400
  883MPD2     H12950   1.557   2.529  16.347 -0.4650 -0.9936 -0.3024
  883MPD2    H112951   1.602   2.580  16.764  2.1253 -0.8668 -1.0283
  883MPD2    H212952   1.456   2.211  16.594 -0.5403  0.4843  1.1993
  883MPD2    H312953   1.517   2.355  16.792  1.9115 -1.7273 -0.0029
  883MPD2     N12954   1.632   2.707  16.519 -0.0557 -0.3464 -0.0480
  883MPD2    H512955   1.633   2.735  16.422 -2.6312  0.1303  0.0629
  883MPD2    N112956   1.457   2.294  16.344  0.4827 -0.1265 -0.2206
  883MPD2    H712957   1.500   2.315  16.254 -1.7482  0.5666 -1.1236
  884MPD2     C12958   2.837   2.533  15.528 -0.1202 -0.5268  0.0671
  884MPD2    C112959   2.857   2.658  15.480 -0.5916 -0.1523 -0.4450
  884MPD2    C212960   2.755   2.722  15.410  0.7985  0.8041  0.3308
  884MPD2    C312961   2.628   2.670  15.404  0.2525  0.8894 -0.2832
  884MPD2    C412962   2.611   2.545  15.458 -0.1402  0.2702  0.3394
  884MPD2    C512963   2.713   2.486  15.519  0.5877  0.1279 -0.1384
  884MPD2     H12964   2.770   2.811  15.350 -2.5817  0.5393 -0.8765
  884MPD2    H112965   2.516   2.493  15.455  1.5208 -2.6874 -1.2478
  884MPD2    H212966   2.919   2.477  15.572 -0.3774  0.6050  1.9775
  884MPD2    H312967   2.693   2.387  15.557 -0.0858 -0.6827 -2.5969
  884MPD2     N12968   2.529   2.744  15.345 -0.0601  0.1410 -1.2117
  884MPD2    H512969   2.548   2.844  15.338 -1.4253  0.4796 -0.0518
  884MPD2    N112970   2.983   2.725  15.477 -0.1618  1.0336  0.1957
  884MPD2    H712971   2.987   2.814  15.429  1.3133  0.9749  0.2182
  885MPD2     C12972   1.289   3.369   0.537  0.0885  0.2005  0.2852
  885MPD2    C112973   1.331   3.268   0.459  0.5372  0.3016  0.1082
  885MPD2    C212974   1.324   3.281   0.323  0.1267 -0.3769  0.1004
  885MPD2    C312975   1.268   3.402   0.269 -0.6825  0.0587  0.3004
  885MPD2    C412976   1.236   3.505   0.351 -0.6789 -0.2824  0.0116
  885MPD2    C512977   1.245   3.485   0.486 -0.4838  0.1936 -0.2703
  885MPD2     H12978   1.346   3.203   0.251 -0.5311  0.1216 -0.6553
  885MPD2    H112979   1.199   3.603   0.324  0.9681 -0.0234 -1.3615
  885MPD2    H212980   1.282   3.361   0.645 -2.2762  1.1415  0.1972
  885MPD2    H312981   1.208   3.571   0.541  2.0930 -0.5952  2.6251
  885MPD2     N12982   1.263   3.417   0.123 -0.1852 -0.3223 -0.0268
  885MPD2    H512983   1.289   3.338   0.065 -1.5521 -1.2726  0.6580
  885MPD2    N112984   1.376   3.154   0.532 -0.1823  0.2164 -0.3073
  885MPD2    H712985   1.393   3.169   0.631  1.5380 -0.3097 -0.5222
  886MPD2     C12986   2.433   1.595  15.277 -0.3590  0.1829 -0.1213
  886MPD2    C112987   2.548   1.582  15.204  0.0012 -0.4089 -0.1135
  886MPD2    C212988   2.608   1.701  15.152 -0.1171 -0.2988 -0.3936
  886MPD2    C312989   2.549   1.829  15.178  0.7856 -0.0495 -0.3638
  886MPD2    C412990   2.439   1.840  15.263  0.1670  0.7227 -0.3598
  886MPD2    C512991   2.377   1.723  15.300  0.0911  0.1264  0.4119
  886MPD2     H12992   2.691   1.689  15.083 -0.6265 -1.1878 -0.8554
  886MPD2    H112993   2.387   1.935  15.275  0.3531  0.7729  0.0474
  886MPD2    H212994   2.373   1.510  15.305 -3.5042  2.4034 -0.0875
  886MPD2    H312995   2.277   1.720  15.342  1.0456 -1.1101  2.6029
  886MPD2     N12996   2.597   1.951  15.122  0.3882  0.5599  0.0915
  886MPD2    H512997   2.534   2.029  15.135 -0.0190  0.6668 -2.6928
  886MPD2    N112998   2.602   1.459  15.163 -0.2560 -0.3946  0.0126
  886MPD2    H712999   2.648   1.466  15.073 -0.8210 -0.2207 -0.2644
  887MPD2     C13000   3.191   1.423  14.976  0.7028  0.5362  0.8311
  887MPD2    C113001   3.065   1.468  14.972  0.6262 -0.5407  0.2969
  887MPD2    C213002   3.036   1.597  15.003  0.4497  0.1720  0.1937
  887MPD2    C313003   3.128   1.688  15.043 -0.4671  0.2309 -0.0746
  887MPD2    C413004   3.259   1.645  15.036  0.6799  0.3326  0.0868
  887MPD2    C513005   3.285   1.513  15.006 -0.6199  0.2066 -0.3902
  887MPD2     H13006   2.935   1.635  14.994  0.0532 -1.5330 -2.9962
  887MPD2    H113007   3.338   1.710  15.073  0.4911  0.4861  0.2179
  887MPD2    H213008   3.227   1.322  14.960  0.0367  0.5383 -0.6011
  887MPD2    H313009   3.385   1.470  15.007 -0.8790 -0.4205 -1.8301
  887MPD2     N13010   3.088   1.809  15.095 -0.1065  0.1494 -0.3194
  887MPD2    H513011   2.989   1.832  15.103 -0.1101 -0.1963  0.7206
  887MPD2    N113012   2.953   1.378  14.969  0.6626  0.1255 -0.5231
  887MPD2    H713013   2.863   1.424  14.981  0.4059 -1.1863  2.6164
  888MPD2     C13014   0.410   1.486  14.949  0.3141  0.6840  0.0038
  888MPD2    C113015   0.409   1.558  15.065 -0.2887  0.7985  0.3303
  888MPD2    C213016   0.412   1.697  15.055  0.5258 -0.0038 -0.0604
  888MPD2    C313017   0.423   1.761  14.937  0.0917  0.7270  0.6337
  888MPD2    C413018   0.433   1.684  14.824 -0.9444 -0.7455 -0.1774
  888MPD2    C513019   0.433   1.549  14.832 -0.6222  0.8523  0.1898
  888MPD2     H13020   0.397   1.760  15.141  2.1417  1.4719 -0.8576
  888MPD2    H113021   0.435   1.734  14.728  0.9210 -1.1605 -0.3424
  888MPD2    H213022   0.429   1.380  14.952 -2.7000  0.1616  1.0915
  888MPD2    H313023   0.438   1.482  14.746 -0.3901 -0.8225  1.4924
  888MPD2     N13024   0.427   1.907  14.941  0.1483  0.4183  0.0512
  888MPD2    H513025   0.432   1.943  15.036 -1.1806 -1.9440  1.0251
  888MPD2    N113026   0.393   1.498  15.191 -0.1216  0.9299 -0.1446
  888MPD2    H713027   0.403   1.548  15.278  1.3388  1.2329 -0.4927
  889MPD2     C13028   4.190   1.161  12.909  1.0437  0.0045  0.2129
  889MPD2    C113029   4.132   1.071  12.987  0.2252  0.4782 -0.2818
  889MPD2    C213030   4.070   1.107  13.103 -0.4871 -0.0221 -0.1409
  889MPD2    C313031   4.053   1.239  13.136 -0.2185 -0.9298 -0.0183
  889MPD2    C413032   4.099   1.335  13.055  0.1060 -0.1007 -0.5845
  889MPD2    C513033   4.175   1.299  12.944  0.5612 -0.0873  0.4800
  889MPD2     H13034   4.038   1.024  13.165  2.0513 -0.3472  0.7226
  889MPD2    H113035   4.078   1.440  13.075 -1.3172 -0.3702 -0.6828
  889MPD2    H213036   4.255   1.131  12.827  0.0791 -0.1291 -0.4947
  889MPD2    H313037   4.223   1.371  12.880 -0.3717 -0.0826 -0.2057
  889MPD2     N13038   3.979   1.271  13.251  0.5936  0.1417 -0.1861
  889MPD2    H513039   3.953   1.195  13.314  1.0343  0.8428  0.8403
  889MPD2    N113040   4.168   0.934  12.971  0.2083  0.0667  0.5805
  889MPD2    H713041   4.146   0.873  13.049  0.8374  0.3288  0.9663
  890MPD2     C13042   3.629   2.928  14.699  0.0736 -0.3503 -0.8394
  890MPD2    C113043   3.735   3.004  14.743  0.3222  0.2491 -0.4156
  890MPD2    C213044   3.782   2.985  14.877 -0.0606 -0.2335 -0.1367
  890MPD2    C313045   3.715   2.891  14.965 -0.4759 -0.5308  0.1749
  890MPD2    C413046   3.602   2.833  14.922  0.0659  0.4036 -0.1386
  890MPD2    C513047   3.567   2.846  14.787 -0.5280  0.6218  0.1477
  890MPD2     H13048   3.859   3.055  14.906  0.6477 -0.8193 -0.6155
  890MPD2    H113049   3.542   2.767  14.984  0.6981  1.5966  1.7231
  890MPD2    H213050   3.589   2.937  14.598  0.7497 -0.3933 -1.1068
  890MPD2    H313051   3.480   2.791  14.753  0.1276  0.1820 -0.8137
  890MPD2     N13052   3.754   2.858  15.099  0.0398  0.0448  0.0021
  890MPD2    H513053   3.695   2.787  15.142  1.0307 -1.4299 -1.0648
  890MPD2    N113054   3.788   3.103  14.657 -0.5871  0.5017  0.2024
  890MPD2    H713055   3.744   3.121  14.567 -0.4769 -0.7969 -0.1167
  891MPD2     C13056   2.065   1.419  16.296  0.0070 -0.3516 -0.4444
  891MPD2    C113057   2.012   1.531  16.360 -0.3539  0.0866  0.0544
  891MPD2    C213058   2.086   1.647  16.373 -0.3712  0.3616  0.2204
  891MPD2    C313059   2.224   1.655  16.349  0.1674 -0.3317  1.0739
  891MPD2    C413060   2.277   1.538  16.296 -0.2603 -0.2665  0.0578
  891MPD2    C513061   2.201   1.425  16.269 -0.9748 -0.3452 -0.5867
  891MPD2     H13062   2.041   1.732  16.423  0.0796  1.0152 -0.4913
  891MPD2    H113063   2.384   1.544  16.285 -0.1249 -0.6668  1.2235
  891MPD2    H213064   2.007   1.328  16.285 -0.7187  0.3355 -2.3735
  891MPD2    H313065   2.248   1.335  16.231 -1.0200 -0.7984  0.4199
  891MPD2     N13066   2.297   1.772  16.391 -0.3794  0.2863  0.3582
  891MPD2    H513067   2.245   1.838  16.449 -1.5098  0.4203 -0.7983
  891MPD2    N113068   1.870   1.520  16.381 -0.2578 -0.4781 -0.3133
  891MPD2    H713069   1.827   1.430  16.366  1.9325 -1.5343 -0.1699
  892MPD2     C13070   3.080   2.434  14.538  0.1541  0.7712 -0.2170
  892MPD2    C113071   2.966   2.433  14.460 -0.2377 -0.1819 -0.0928
  892MPD2    C213072   2.968   2.370  14.332 -0.4205  1.1832  0.4473
  892MPD2    C313073   3.089   2.313  14.287 -0.1987 -0.1279  0.3114
  892MPD2    C413074   3.198   2.318  14.374  1.0487  0.2281  0.4745
  892MPD2    C513075   3.189   2.367  14.497 -0.1107  0.0114 -0.2323
  892MPD2     H13076   2.876   2.339  14.285  0.2791  0.0910 -0.1934
  892MPD2    H113077   3.293   2.274  14.346  0.3693 -0.9320 -0.0553
  892MPD2    H213078   3.095   2.483  14.634  0.2736  0.9464 -0.3253
  892MPD2    H313079   3.273   2.368  14.565 -2.3152  0.5716  2.4929
  892MPD2     N13080   3.107   2.230  14.177  0.2878 -0.3626  0.0003
  892MPD2    H513081   3.191   2.175  14.191 -0.3137 -2.1302 -3.1555
  892MPD2    N113082   2.846   2.487  14.510 -0.8063 -0.1890  0.4696
  892MPD2    H713083   2.766   2.503  14.449 -0.8924 -0.0343  0.6204
  893MPD2     C13084   4.368   1.074   1.355 -0.2023  0.1743 -0.7389
  893MPD2    C113085   4.463   1.118   1.440  0.3381  0.1941  0.4684
  893MPD2    C213086   4.431   1.225   1.525 -0.9187  0.4111 -0.4026
  893MPD2    C313087   4.308   1.287   1.527  0.0844 -0.4354  0.8927
  893MPD2    C413088   4.211   1.231   1.444 -0.3654 -0.4237  0.3467
  893MPD2    C513089   4.245   1.132   1.353 -0.0717  0.5376  0.2915
  893MPD2     H13090   4.506   1.265   1.592 -2.4373  3.3672 -0.4620
  893MPD2    H113091   4.112   1.273   1.434  0.4678  1.4403  0.0088
  893MPD2    H213092   4.387   0.993   1.286 -0.2138 -2.0681  1.8764
  893MPD2    H313093   4.173   1.104   1.278 -0.8759  0.1873  1.1933
  893MPD2     N13094   4.273   1.386   1.625  0.4221 -0.2605  0.2085
  893MPD2    H513095   4.182   1.430   1.622 -0.3915 -1.9298  0.2841
  893MPD2    N113096   4.593   1.062   1.419 -0.6797 -0.4959 -0.2329
  893MPD2    H713097   4.591   0.989   1.349  0.1938  0.3705 -1.1664
  894MPD2     C13098   2.946   3.040   1.331 -0.3750  1.0074  0.6293
  894MPD2    C113099   2.894   3.146   1.402 -0.1962  0.9968 -0.5354
  894MPD2    C213100   2.802   3.235   1.341 -0.1303 -0.0379  0.4019
  894MPD2    C313101   2.760   3.207   1.209 -0.4751 -0.2791  0.4523
  894MPD2    C413102   2.808   3.098   1.145 -0.0901  0.1865  0.4850
  894MPD2    C513103   2.891   3.018   1.210 -0.4834  0.6375  0.1075
  894MPD2     H13104   2.770   3.327   1.387 -0.2604 -0.7725  1.7999
  894MPD2    H113105   2.777   3.066   1.046 -1.1707 -1.7112  1.4215
  894MPD2    H213106   3.014   2.971   1.380  0.6910  1.1723 -0.6305
  894MPD2    H313107   2.921   2.925   1.162  1.5703  1.7771 -0.8205
  894MPD2     N13108   2.676   3.299   1.144 -0.2674 -0.2726 -0.0476
  894MPD2    H513109   2.628   3.366   1.203  1.4424  0.5512  0.4063
  894MPD2    N113110   2.930   3.183   1.531 -0.2962 -0.2864 -1.1097
  894MPD2    H713111   2.875   3.254   1.579  1.6834  0.0179  0.7080
  895MPD2     C13112   2.053   1.573  13.302 -0.1475 -0.2462  0.3694
  895MPD2    C113113   1.959   1.478  13.261  0.3939  1.1430 -0.1319
  895MPD2    C213114   2.001   1.353  13.239 -0.5903  0.0230 -0.7429
  895MPD2    C313115   2.132   1.312  13.243  0.3204 -0.2065  0.1817
  895MPD2    C413116   2.224   1.404  13.283 -0.2644  0.2206 -0.4273
  895MPD2    C513117   2.186   1.539  13.320  0.1221  0.1205  0.1553
  895MPD2     H13118   1.930   1.276  13.208  0.2533 -3.0364  4.9840
  895MPD2    H113119   2.329   1.380  13.288 -0.5393 -1.1136 -0.8145
  895MPD2    H213120   2.009   1.671  13.319  1.4749  0.4337  0.5794
  895MPD2    H313121   2.256   1.617  13.347  1.4072 -0.3108 -1.8410
  895MPD2     N13122   2.150   1.179  13.203 -0.2848  0.3853 -0.5121
  895MPD2    H513123   2.072   1.118  13.184  0.5881 -0.3183 -1.8458
  895MPD2    N113124   1.822   1.489  13.233  0.0888 -0.1966 -0.4299
  895MPD2    H713125   1.772   1.403  13.209  0.8903 -0.8123  0.0984
  896MPD2     C13126   4.380   0.026   1.416 -0.1146  0.3530 -0.5169
  896MPD2    C113127   4.398   4.664   1.315 -0.3828  0.5465  0.3067
  896MPD2    C213128   4.285   4.580   1.285  0.6778 -0.1971  0.4093
  896MPD2    C313129   4.165   4.612   1.353  0.1461 -0.4018 -0.1719
  896MPD2    C413130   4.151   4.709   1.449 -0.1170 -0.1493  0.1921
  896MPD2    C513131   4.264   0.056   1.482 -0.0351 -0.6987  0.5749
  896MPD2     H13132   4.277   4.506   1.206  1.7085  1.3197 -1.0919
  896MPD2    H113133   4.066   0.009   1.511 -0.9170 -0.4860 -0.7782
  896MPD2    H213134   4.473   0.067   1.454  0.3430 -0.1461 -1.0999
  896MPD2    H313135   4.261   0.127   1.564  0.0169  1.0756 -0.9720
  896MPD2     N13136   4.059   4.530   1.323  0.0016  0.0934 -0.3437
  896MPD2    H513137   4.071   4.459   1.252 -0.1724  1.5425 -1.8159
  896MPD2    N113138   4.523   4.655   1.239  0.1402  0.8743 -0.2853
  896MPD2    H713139   4.596   4.718   1.270 -0.0895  1.5588 -1.1567
  897MPD2     C13140   1.244   0.970  10.266  0.2910 -0.2040 -0.1063
  897MPD2    C113141   1.150   1.056  10.316 -0.3635 -0.3016  0.6494
  897MPD2    C213142   1.063   1.009  10.417  0.1712 -0.3759  0.1226
  897MPD2    C313143   1.062   0.873  10.443  0.2025  0.0004 -0.3764
  897MPD2    C413144   1.154   0.792  10.396 -0.1460  0.7006  0.0978
  897MPD2    C513145   1.245   0.839  10.307 -0.3126  0.1855  0.3984
  897MPD2     H13146   0.992   1.081  10.457 -0.3545 -0.8273  0.0011
  897MPD2    H113147   1.161   0.690  10.434  2.1142  1.2088  1.0466
  897MPD2    H213148   1.303   1.010  10.184 -0.6602 -0.5501 -0.9515
  897MPD2    H313149   1.322   0.769  10.279 -0.3733  1.1358 -2.1620
  897MPD2     N13150   0.960   0.842  10.538  0.0680  0.0897  0.1156
  897MPD2    H513151   0.892   0.911  10.571 -0.0822  0.7202 -1.5187
  897MPD2    N113152   1.150   1.186  10.263  0.3237  0.5898  0.4825
  897MPD2    H713153   1.203   1.201  10.178  2.1708  0.2246  1.5736
  898MPD2     C13154   2.805   1.191   0.426 -0.7869 -0.2114  0.1426
  898MPD2    C113155   2.911   1.236   0.352  1.1950 -0.1188  0.4655
  898MPD2    C213156   2.892   1.361   0.292 -0.4342  0.3795  0.2939
  898MPD2    C313157   2.769   1.426   0.298  0.3552 -0.4842  0.5469
  898MPD2    C413158   2.670   1.384   0.383 -0.2297 -0.5964  0.7499
  898MPD2    C513159   2.692   1.264   0.444  0.1876 -0.0046  0.1276
  898MPD2     H13160   2.960   1.381   0.210 -1.8338 -0.2932 -1.0419
  898MPD2    H113161   2.572   1.427   0.397 -0.2611  0.4134 -2.4780
  898MPD2    H213162   2.815   1.100   0.484  2.0274  0.1766  0.2435
  898MPD2    H313163   2.610   1.219   0.499 -0.8757  1.1602 -0.5048
  898MPD2     N13164   2.751   1.534   0.220  0.3101 -0.3540 -0.2949
  898MPD2    H513165   2.824   1.554   0.153  0.8525 -2.3321 -0.3058
  898MPD2    N113166   3.039   1.172   0.338 -0.3223  0.1537  0.4545
  898MPD2    H713167   3.103   1.235   0.292 -0.3231  2.3002  3.4054
  899MPD2     C13168   3.654   2.467   0.096  0.1384  0.7023  0.3830
  899MPD2    C113169   3.744   2.560   0.105  0.0857 -0.4950 -0.2747
  899MPD2    C213170   3.849   2.546   0.194 -0.2635 -0.1098 -0.9122
  899MPD2    C313171   3.856   2.433   0.274  0.0706 -0.4367 -0.7994
  899MPD2    C413172   3.768   2.331   0.259 -0.2266  0.3544 -0.2661
  899MPD2    C513173   3.667   2.346   0.168 -0.6111  0.8716 -0.5254
  899MPD2     H13174   3.922   2.625   0.206 -0.1104 -0.6211  1.4465
  899MPD2    H113175   3.773   2.238   0.315 -0.3459  0.5558  0.0772
  899MPD2    H213176   3.570   2.475   0.029  1.0164 -1.8483 -1.0105
  899MPD2    H313177   3.593   2.267   0.161 -0.8345  1.0503 -0.1512
  899MPD2     N13178   3.949   2.405   0.378  0.4044 -0.3832  0.2921
  899MPD2    H513179   3.964   2.306   0.396  0.5071 -0.5374 -0.6526
  899MPD2    N113180   3.729   2.679   0.031 -0.1619  0.5140 -0.4733
  899MPD2    H713181   3.652   2.690  17.659 -0.0457  0.7699 -0.5685
  900MPD2     C13182   3.475   4.081  12.613  0.0116 -0.6731 -0.0473
  900MPD2    C113183   3.384   3.980  12.585 -0.2860 -0.5200 -0.1191
  900MPD2    C213184   3.275   4.008  12.504  0.5509 -0.3694  0.5081
  900MPD2    C313185   3.253   4.131  12.452  0.2394 -0.4787  0.9834
  900MPD2    C413186   3.340   4.233  12.479 -0.0309  0.5479 -0.3600
  900MPD2    C513187   3.454   4.203  12.551  0.0683  0.3262 -0.3717
  900MPD2     H13188   3.201   3.930  12.492  0.9694 -0.8719  1.1583
  900MPD2    H113189   3.330   4.334  12.441 -0.5606  1.3700  1.9733
  900MPD2    H213190   3.561   4.059  12.674  0.1055  0.0670  0.0838
  900MPD2    H313191   3.526   4.278  12.581  3.8497 -2.5866 -2.2103
  900MPD2     N13192   3.127   4.142  12.385  0.2687  0.8817  0.0489
  900MPD2    H513193   3.072   4.060  12.365  1.2227  0.9236 -2.6568
  900MPD2    N113194   3.411   3.849  12.644  0.1216 -0.4420  1.1383
  900MPD2    H713195   3.495   3.833  12.698  0.3401 -1.9010  0.3706
  901MPD2     C13196   3.153   2.789  12.612 -0.1865  0.1192  0.5338
  901MPD2    C113197   3.286   2.785  12.618 -0.8800 -0.0017  0.1182
  901MPD2    C213198   3.351   2.909  12.654 -0.3902 -0.0008  0.1464
  901MPD2    C313199   3.270   3.020  12.676 -0.0146  0.1405 -0.3385
  901MPD2    C413200   3.132   3.015  12.668 -0.3503 -0.1103 -0.2738
  901MPD2    C513201   3.075   2.896  12.635  0.5801  0.4094  0.4085
  901MPD2     H13202   3.457   2.926  12.667 -0.5471 -0.0846  1.5696
  901MPD2    H113203   3.066   3.099  12.687 -0.9664 -1.0328  1.6559
  901MPD2    H213204   3.085   2.712  12.577  0.0937 -0.3074  0.9446
  901MPD2    H313205   2.967   2.885  12.637  0.5839  0.1797 -0.6472
  901MPD2     N13206   3.337   3.146  12.692  0.2621 -0.0621 -0.4007
  901MPD2    H513207   3.438   3.140  12.684  0.4270  1.8970  0.1308
  901MPD2    N113208   3.351   2.667  12.575  0.7449  0.3780 -0.0158
  901MPD2    H713209   3.287   2.596  12.543  0.6537  0.1502  0.6702
  902MPD2     C13210   2.091   1.708  12.989  0.1037 -0.4693  0.2630
  902MPD2    C113211   2.067   1.792  12.880  0.1617  0.9268  0.8565
  902MPD2    C213212   2.059   1.737  12.758  0.2889  0.3985 -1.1496
  902MPD2    C313213   2.087   1.603  12.731  0.2334 -0.3497 -0.3711
  902MPD2    C413214   2.119   1.522  12.845 -0.0352 -0.3307 -0.1014
  902MPD2    C513215   2.123   1.573  12.969 -0.0998 -0.2709 -0.0958
  902MPD2     H13216   2.024   1.803  12.679  0.4670  0.3333 -1.2819
  902MPD2    H113217   2.143   1.416  12.844  2.5489  0.2835 -0.3027
  902MPD2    H213218   2.099   1.756  13.086  0.3667 -0.7231  0.3661
  902MPD2    H313219   2.141   1.508  13.054 -0.7387 -2.1515 -1.4085
  902MPD2     N13220   2.110   1.544  12.598 -0.6711  0.3912  0.5783
  902MPD2    H513221   2.131   1.445  12.600  0.4316  0.6169  0.0964
  902MPD2    N113222   2.038   1.931  12.901 -0.3385  0.5712 -0.0879
  902MPD2    H713223   2.043   1.967  12.996 -0.9094 -1.2687  0.6341
  903MPD2     C13224   2.014   1.881  11.882  0.7370  0.1690  0.2992
  903MPD2    C113225   1.997   1.745  11.866  0.1219  0.5089 -0.0243
  903MPD2    C213226   1.937   1.696  11.750 -0.1627 -0.2197 -0.3586
  903MPD2    C313227   1.906   1.773  11.642 -0.2171 -0.2476 -1.0164
  903MPD2    C413228   1.939   1.909  11.661 -0.3391 -0.2524  0.5842
  903MPD2    C513229   1.989   1.959  11.780 -0.3341  0.1539 -0.3520
  903MPD2     H13230   1.924   1.589  11.749 -0.2528 -0.2603  3.2819
  903MPD2    H113231   1.921   1.984  11.585  2.2437 -0.4750 -0.2773
  903MPD2    H213232   2.051   1.917  11.977  1.9648  0.3681 -0.2553
  903MPD2    H313233   2.015   2.062  11.800 -1.2626  0.2619  0.2747
  903MPD2     N13234   1.859   1.714  11.522  0.7863  0.5378  0.2857
  903MPD2    H513235   1.839   1.615  11.528  1.1722  0.4190 -0.3912
  903MPD2    N113236   2.042   1.665  11.973 -0.0753  0.4574  1.0654
  903MPD2    H713237   2.096   1.714  12.043  1.6663  1.3194 -0.8891
  904MPD2     C13238   1.422   0.919  13.277 -0.4646  0.1722  0.4645
  904MPD2    C113239   1.387   0.966  13.402 -0.3857 -0.1324  0.0152
  904MPD2    C213240   1.483   0.969  13.505 -0.4793 -0.8865  0.4914
  904MPD2    C313241   1.613   0.939  13.467 -0.1548  0.2946 -0.1025
  904MPD2    C413242   1.653   0.922  13.335  0.2099  0.0403 -0.6917
  904MPD2    C513243   1.557   0.904  13.240  0.0309  0.0412  0.6403
  904MPD2     H13244   1.459   0.995  13.607 -1.3742 -0.6956  0.2338
  904MPD2    H113245   1.758   0.915  13.312  0.1763 -2.6687 -0.0853
  904MPD2    H213246   1.346   0.901  13.202 -0.5671 -0.9539  0.8311
  904MPD2    H313247   1.589   0.888  13.138 -2.5934  0.3094 -0.2369
  904MPD2     N13248   1.702   0.941  13.580 -0.0004  0.1195 -0.2511
  904MPD2    H513249   1.650   0.953  13.666 -3.5768  1.3232 -2.5585
  904MPD2    N113250   1.265   1.034  13.431  0.1690 -0.3496 -0.0261
  904MPD2    H713251   1.247   1.082  13.518 -0.9215  1.3624 -1.1869
  905MPD2     C13252   1.517   1.125  12.821 -0.1312 -0.1244 -0.5886
  905MPD2    C113253   1.559   1.166  12.942 -0.4876  0.6822  0.4599
  905MPD2    C213254   1.680   1.109  12.982 -0.1249  0.0060  0.0195
  905MPD2    C313255   1.750   1.022  12.903  0.6252  0.2278  0.4054
  905MPD2    C413256   1.702   0.988  12.782 -0.3346  0.0441 -0.0220
  905MPD2    C513257   1.586   1.039  12.739 -0.7562 -0.4865  0.0312
  905MPD2     H13258   1.712   1.120  13.084  0.3613 -0.3511 -0.0966
  905MPD2    H113259   1.756   0.915  12.723 -2.9043  0.5412 -3.0186
  905MPD2    H213260   1.422   1.157  12.782 -2.2854  0.6723  5.2787
  905MPD2    H313261   1.531   1.021  12.648  0.0429  0.4886 -0.6400
  905MPD2     N13262   1.869   0.957  12.941 -0.1639  0.1066 -0.0050
  905MPD2    H513263   1.920   0.899  12.875 -0.3871  1.6554 -1.5217
  905MPD2    N113264   1.475   1.238  13.028  0.2380 -0.4284  0.6727
  905MPD2    H713265   1.381   1.255  12.994 -0.5607  0.8096  3.4430
  906MPD2     C13266   4.322   1.078  11.330  0.4933  0.0222  0.0033
  906MPD2    C113267   4.345   0.962  11.253 -0.1296 -0.0939 -0.1212
  906MPD2    C213268   4.308   0.843  11.306  0.2606  0.4439 -0.4250
  906MPD2    C313269   4.247   0.830  11.438 -0.2087 -0.4951 -0.7490
  906MPD2    C413270   4.217   0.948  11.505  0.6968  0.4331  0.0955
  906MPD2    C513271   4.251   1.068  11.447 -0.4418  0.5023 -0.2313
  906MPD2     H13272   4.323   0.757  11.243 -1.5157  0.1560 -0.4523
  906MPD2    H113273   4.160   0.945  11.598 -0.1490  0.9846 -0.4085
  906MPD2    H213274   4.337   1.177  11.291 -1.1306  0.9901  1.7970
  906MPD2    H313275   4.234   1.164  11.495 -0.3222  2.0525 -3.3453
  906MPD2     N13276   4.209   0.711  11.505  0.0452 -0.1346 -0.6309
  906MPD2    H513277   4.151   0.713  11.588 -0.0250 -0.6041 -0.6691
  906MPD2    N113278   4.391   0.961  11.117 -0.1328 -0.8690 -0.2070
  906MPD2    H713279   4.413   0.869  11.079 -2.6121 -1.3149 -0.5653
  907MPD2     C13280   2.510   0.210  15.077 -0.3873  0.0026  0.8261
  907MPD2    C113281   2.589   0.097  15.100  0.1986  0.2387 -0.3740
  907MPD2    C213282   2.672   0.097  15.217 -0.5572 -0.0287 -0.7625
  907MPD2    C313283   2.684   0.206  15.299  0.5914  0.1435 -0.2822
  907MPD2    C413284   2.600   0.308  15.274  0.5785 -0.6587  0.1009
  907MPD2    C513285   2.521   0.321  15.165  0.4267 -0.2828 -0.1707
  907MPD2     H13286   2.738   0.011  15.229 -0.0384  0.4654 -0.0339
  907MPD2    H113287   2.600   0.389  15.347 -0.3031  0.2257 -0.8882
  907MPD2    H213288   2.454   0.215  14.985  0.2430 -1.0678  0.3775
  907MPD2    H313289   2.456   0.405  15.145 -0.7209 -1.7005 -2.3940
  907MPD2     N13290   2.770   0.200  15.415  0.2653 -0.0741 -0.5252
  907MPD2    H513291   2.820   0.112  15.429 -0.4122 -0.2551  0.8038
  907MPD2    N113292   2.587   4.706  15.020 -0.1275 -0.0079  0.4130
  907MPD2    H713293   2.657   4.635  15.036 -0.0547 -0.3570 -1.4039
  908MPD2     C13294   0.512   0.965   9.760  0.0955  0.5144  0.8735
  908MPD2    C113295   0.641   0.923   9.795  0.2710  0.7650  0.2634
  908MPD2    C213296   0.729   1.014   9.859 -0.3731 -0.3127 -0.1643
  908MPD2    C313297   0.696   1.145   9.867  0.3114  0.6202  0.2375
  908MPD2    C413298   0.581   1.190   9.813 -0.4833  0.0707  0.4773
  908MPD2    C513299   0.490   1.097   9.766 -0.0056  0.4893 -0.8832
  908MPD2     H13300   0.821   0.986   9.910 -1.3255 -1.3998  0.9630
  908MPD2    H113301   0.554   1.294   9.798 -1.9916 -0.3321  0.3346
  908MPD2    H213302   0.433   0.901   9.724  0.7546 -1.2058  2.4473
  908MPD2    H313303   0.388   1.132   9.757 -0.7767 -0.9484  2.2567
  908MPD2     N13304   0.793   1.235   9.935  0.8950 -0.3604 -0.2145
  908MPD2    H513305   0.873   1.188   9.976  1.3437 -0.5010 -1.2506
  908MPD2    N113306   0.684   0.790   9.771  0.0374  0.7767  0.4039
  908MPD2    H713307   0.782   0.778   9.795  0.3223  1.8045 -0.2313
  909MPD2     C13308   0.961   3.443  11.552 -0.5529  0.0126  0.2885
  909MPD2    C113309   0.998   3.575  11.536 -0.6424  0.1099 -0.5749
  909MPD2    C213310   0.998   3.650  11.651 -0.0433  0.1657 -0.4644
  909MPD2    C313311   0.946   3.603  11.769 -0.6434  0.1453 -0.5180
  909MPD2    C413312   0.915   3.472  11.779 -0.0868  0.3825 -0.0874
  909MPD2    C513313   0.924   3.392  11.669  0.6744  0.3686 -0.4717
  909MPD2     H13314   1.038   3.750  11.641 -0.6041  0.3868 -0.4881
  909MPD2    H113315   0.883   3.428  11.873 -0.7947 -1.9745 -1.4391
  909MPD2    H213316   0.968   3.370  11.471  1.8844  0.3070  0.2307
  909MPD2    H313317   0.908   3.285  11.670 -0.3464  0.5218  0.1155
  909MPD2     N13318   0.945   3.695  11.879 -0.2640  0.0068  0.5064
  909MPD2    H513319   0.964   3.792  11.856  1.3905 -0.5928 -0.6442
  909MPD2    N113320   1.055   3.627  11.418  0.1464  1.3270 -0.2527
  909MPD2    H713321   1.089   3.722  11.428  0.7022  1.1975 -0.9025
  910MPD2     C13322   2.029   0.897  15.585  0.1029  0.4565 -0.4315
  910MPD2    C113323   2.108   0.804  15.521 -0.4822 -0.3378  0.2890
  910MPD2    C213324   2.071   0.758  15.399 -0.1759  0.5047 -0.6104
  910MPD2    C313325   1.952   0.803  15.342  0.4983  0.0505 -0.0368
  910MPD2    C413326   1.881   0.905  15.392  0.0067  0.1928 -0.3267
  910MPD2    C513327   1.919   0.952  15.517 -0.2905 -0.0209  0.1562
  910MPD2     H13328   2.134   0.684  15.351 -0.6779 -0.3601  0.0657
  910MPD2    H113329   1.792   0.949  15.349  1.2598  1.4556 -1.5980
  910MPD2    H213330   2.055   0.925  15.686 -0.1056  0.8640 -0.4906
  910MPD2    H313331   1.861   1.029  15.566  2.6033  2.1272  0.2483
  910MPD2     N13332   1.922   0.762  15.204  0.0455  0.1418 -0.0264
  910MPD2    H513333   1.840   0.808  15.166  0.1645  1.1235  0.8965
  910MPD2    N113334   2.216   0.742  15.588  0.1416  0.5975  0.2055
  910MPD2    H713335   2.272   0.682  15.528  0.1936 -0.1774  1.0366
  911MPD2     C13336   0.072   1.429  16.775 -0.3742  0.2082 -0.1040
  911MPD2    C113337   0.163   1.531  16.743  0.5774 -0.6054 -0.8641
  911MPD2    C213338   0.117   1.663  16.747  0.2172 -0.0593 -0.3681
  911MPD2    C313339   4.709   1.687  16.789  0.1845 -0.1068 -0.3831
  911MPD2    C413340   4.621   1.586  16.799  0.2238 -0.9456 -0.0236
  911MPD2    C513341   4.658   1.458  16.795 -0.4186  0.4920 -0.4635
  911MPD2     H13342   0.180   1.751  16.740  0.1745 -0.1678 -2.0901
  911MPD2    H113343   4.518   1.610  16.822 -0.0010 -1.2423 -0.7193
  911MPD2    H213344   0.106   1.328  16.790  0.2010  0.3454 -0.4782
  911MPD2    H313345   4.590   1.374  16.800  0.9186 -0.4821  1.5070
  911MPD2     N13346   4.644   1.811  16.796 -0.1247 -0.3761 -0.1407
  911MPD2    H513347   4.546   1.809  16.823 -0.5412  1.1449 -1.5263
  911MPD2    N113348   0.302   1.489  16.731  0.2835 -0.6723 -0.2795
  911MPD2    H713349   0.318   1.389  16.736 -0.7640 -0.9101 -1.6451
  912MPD2     C13350   4.143   1.573  16.617 -0.6157 -0.4514  0.1764
  912MPD2    C113351   4.218   1.638  16.715  0.4398  0.4562  0.3025
  912MPD2    C213352   4.275   1.564  16.822  0.0673  0.4424 -0.6234
  912MPD2    C313353   4.271   1.425  16.810  0.4032 -0.0396 -0.9884
  912MPD2    C413354   4.206   1.356  16.701  0.0771  0.6060  0.0293
  912MPD2    C513355   4.139   1.435  16.610  0.1660  0.8142  1.1518
  912MPD2     H13356   4.323   1.604  16.910  2.5869 -2.7891 -0.5337
  912MPD2    H113357   4.204   1.249  16.686 -1.5233  0.4160  1.5380
  912MPD2    H213358   4.086   1.627  16.542  0.0023  1.4651  1.0998
  912MPD2    H313359   4.085   1.395  16.525 -0.1747  1.1285  1.2213
  912MPD2     N13360   4.327   1.356  16.916 -0.2028 -0.2893 -0.1722
  912MPD2    H513361   4.371   1.415  16.986 -2.6043  1.3997 -0.0703
  912MPD2    N113362   4.217   1.781  16.711  0.0146 -0.1094  0.8222
  912MPD2    H713363   4.173   1.821  16.629  0.3407 -2.5365 -0.5338
  913MPD2     C13364   0.473   2.446  10.149 -0.3489  0.2808 -1.1464
  913MPD2    C113365   0.569   2.525  10.216  0.2516 -0.4942 -0.1219
  913MPD2    C213366   0.653   2.599  10.138  0.3191  0.2061  0.3526
  913MPD2    C313367   0.628   2.609   9.998  0.0754  0.8639 -0.6166
  913MPD2    C413368   0.530   2.535   9.942 -0.1939 -0.1659 -0.1285
  913MPD2    C513369   0.454   2.453  10.015  0.1943  0.4471  0.5853
  913MPD2     H13370   0.730   2.660  10.183  0.0061  0.0091  1.1529
  913MPD2    H113371   0.504   2.541   9.837 -1.1083 -1.4910  0.0330
  913MPD2    H213372   0.415   2.382  10.215  1.7313  0.5919  0.9898
  913MPD2    H313373   0.379   2.394   9.963  1.2495 -1.4398  1.2047
  913MPD2     N13374   0.698   2.693   9.900 -0.0176 -0.4194  0.4755
  913MPD2    H513375   0.667   2.678   9.805 -0.4566 -1.7721  0.8261
  913MPD2    N113376   0.572   2.523  10.358 -0.0622  0.0685 -0.4880
  913MPD2    H713377   0.497   2.470  10.401 -0.2571  1.9289  1.4349
  914MPD2     C13378   2.966   2.367  11.976  0.0329 -0.3983  0.3713
  914MPD2    C113379   3.055   2.467  11.971 -0.5630 -0.3202 -0.5324
  914MPD2    C213380   3.171   2.458  12.051  0.2859 -0.2384 -0.5105
  914MPD2    C313381   3.183   2.358  12.144  0.0300 -0.7165  0.0714
  914MPD2    C413382   3.093   2.259  12.142 -0.3530 -0.7500  0.7537
  914MPD2    C513383   2.980   2.265  12.065  0.2989  0.2405  0.0311
  914MPD2     H13384   3.257   2.521  12.033  0.2957 -0.2021 -0.3333
  914MPD2    H113385   3.110   2.178  12.211 -0.8944  0.2461  2.0554
  914MPD2    H213386   2.876   2.373  11.916 -0.0386  3.1643  0.8836
  914MPD2    H313387   2.903   2.189  12.066  0.7013 -0.1681  0.0152
  914MPD2     N13388   3.306   2.361  12.215 -0.0144  0.2249  0.3142
  914MPD2    H513389   3.357   2.449  12.209  1.5242 -0.8416 -1.9587
  914MPD2    N113390   3.021   2.583  11.905 -0.1069  0.0834 -0.1292
  914MPD2    H713391   2.972   2.578  11.816 -2.9665  0.9391  1.4000
  915MPD2     C13392   1.694   2.750  15.576 -0.3429  0.1584  0.3437
  915MPD2    C113393   1.562   2.709  15.584  0.0246  0.2735  0.0436
  915MPD2    C213394   1.493   2.764  15.689 -0.7283 -0.2283 -0.6452
  915MPD2    C313395   1.542   2.854  15.780  0.2056 -0.2707 -0.3480
  915MPD2    C413396   1.670   2.893  15.766  0.3983 -0.0654 -0.3306
  915MPD2    C513397   1.741   2.838  15.665  0.7625 -0.5066  0.0553
  915MPD2     H13398   1.396   2.721  15.711 -0.7707  0.0681 -0.2432
  915MPD2    H113399   1.712   2.969  15.831 -2.6048  0.1971  1.3183
  915MPD2    H213400   1.762   2.699  15.510  0.4026 -0.3909  1.5469
  915MPD2    H313401   1.844   2.865  15.646  0.2163 -0.8935 -3.4229
  915MPD2     N13402   1.464   2.891  15.890  0.1012 -0.1435 -0.2680
  915MPD2    H513403   1.370   2.855  15.887  0.2121 -0.5780  1.4563
  915MPD2    N113404   1.515   2.609  15.501 -0.1160 -0.5702 -0.8136
  915MPD2    H713405   1.577   2.593  15.423 -0.0241  1.5709 -1.1969
  916MPD2     C13406   4.302   1.173  15.689 -0.0373  0.1359 -0.2038
  916MPD2    C113407   4.231   1.069  15.744  0.4603  0.2435  0.5185
  916MPD2    C213408   4.219   0.952  15.671  0.2338  0.3614  0.1805
  916MPD2    C313409   4.279   0.933  15.548 -0.5740 -0.1603 -0.0758
  916MPD2    C413410   4.356   1.035  15.496  0.8663  0.0971 -0.1104
  916MPD2    C513411   4.362   1.152  15.569 -0.3584  0.6463  0.3556
  916MPD2     H13412   4.156   0.873  15.710 -0.1374  0.6865  0.2428
  916MPD2    H113413   4.386   1.030  15.392 -3.2767  1.2750 -1.3637
  916MPD2    H213414   4.315   1.269  15.738 -1.1066  0.5711 -0.7859
  916MPD2    H313415   4.402   1.240  15.520 -0.9600  0.0989 -1.1191
  916MPD2     N13416   4.254   0.805  15.486 -0.8374 -0.0988 -0.1747
  916MPD2    H513417   4.197   0.741  15.540  1.9349 -1.5657  1.0204
  916MPD2    N113418   4.166   1.092  15.873  0.0652  0.2922  0.7054
  916MPD2    H713419   4.172   1.188  15.906 -0.6979  0.7819 -0.5738
  917MPD2     C13420   0.063   3.317  11.001  0.3042 -0.7460  0.3152
  917MPD2    C113421   0.112   3.369  11.120 -0.1705  0.0757  0.2815
  917MPD2    C213422   0.183   3.491  11.115  0.6669 -0.2635  0.0068
  917MPD2    C313423   0.191   3.557  10.989  0.1695  0.5334  0.4283
  917MPD2    C413424   0.151   3.491  10.877  0.0399  0.3821 -0.2609
  917MPD2    C513425   0.080   3.382  10.880  0.0386 -0.2024  0.1169
  917MPD2     H13426   0.234   3.529  11.203  2.5119 -1.8798 -0.3588
  917MPD2    H113427   0.164   3.533  10.777  1.2934  1.4777  0.3556
  917MPD2    H213428   0.020   3.218  10.995 -0.0155 -0.5821 -0.1167
  917MPD2    H313429   0.044   3.353  10.781  0.7238 -1.7096  0.3069
  917MPD2     N13430   0.253   3.682  10.974 -0.2908  0.5294  0.0891
  917MPD2    H513431   0.242   3.727  10.883 -1.8543 -0.2342 -0.0887
  917MPD2    N113432   0.094   3.295  11.237  0.3819 -0.3046 -0.4587
  917MPD2    H713433   0.041   3.209  11.237 -2.4034  1.4058 -1.3353
  918MPD2     C13434   0.292   3.239  12.307  0.4005 -0.2973  0.4956
  918MPD2    C113435   0.364   3.169  12.209  0.5461  0.1987  0.3316
  918MPD2    C213436   0.320   3.150  12.079  0.2693 -0.0756 -0.4453
  918MPD2    C313437   0.197   3.207  12.048 -0.0729  0.1265 -0.5043
  918MPD2    C413438   0.117   3.261  12.148 -0.3772  0.0374  0.9492
  918MPD2    C513439   0.162   3.275  12.277 -0.1156  0.3832  0.2236
  918MPD2     H13440   0.374   3.088  12.008 -1.3803 -1.1053 -0.8179
  918MPD2    H113441   0.017   3.295  12.121 -0.2313 -0.0408  0.3047
  918MPD2    H213442   0.322   3.260  12.409  0.0841  0.4293  0.4419
  918MPD2    H313443   0.096   3.314  12.354 -1.0053 -0.8259  0.0667
  918MPD2     N13444   0.142   3.194  11.919 -0.2537  0.3497  0.3459
  918MPD2    H513445   0.051   3.239  11.908  0.0465  0.9328  0.2561
  918MPD2    N113446   0.496   3.127  12.225  0.0321  0.7227 -0.2898
  918MPD2    H713447   0.544   3.090  12.143  0.9311 -0.4122  0.7583
  919MPD2     C13448   0.745   2.301  11.775 -0.5933  0.1627  0.2605
  919MPD2    C113449   0.621   2.224  11.764  0.2494  0.2213  0.1076
  919MPD2    C213450   0.548   2.222  11.649 -0.1429  0.1730 -0.0518
  919MPD2    C313451   0.578   2.303  11.541 -0.1968 -0.3322  0.0486
  919MPD2    C413452   0.700   2.356  11.549 -0.4083 -0.1232 -0.0552
  919MPD2    C513453   0.788   2.350  11.654 -0.2630 -0.1005 -0.3698
  919MPD2     H13454   0.455   2.167  11.656 -1.5382  2.2596 -2.1669
  919MPD2    H113455   0.739   2.413  11.465 -1.0693 -0.2890 -0.4750
  919MPD2    H213456   0.799   2.309  11.869 -0.4656  0.4367  0.1620
  919MPD2    H313457   0.875   2.415  11.654  0.8721 -1.6207  2.3904
  919MPD2     N13458   0.488   2.329  11.434 -0.1594  0.0452 -0.2892
  919MPD2    H513459   0.522   2.391  11.360 -1.1126  0.8319 -0.0669
  919MPD2    N113460   0.580   2.142  11.868  0.0088  0.3198 -0.1326
  919MPD2    H713461   0.499   2.084  11.850  1.1147 -1.1712 -0.3666
  920MPD2     C13462   0.448   2.877  10.649  0.9092 -0.0478  0.3204
  920MPD2    C113463   0.360   2.773  10.607  0.2846 -0.1763 -0.4167
  920MPD2    C213464   0.306   2.687  10.709 -0.1450  0.1915 -0.2771
  920MPD2    C313465   0.322   2.713  10.844  0.2862  0.0533  0.2631
  920MPD2    C413466   0.410   2.817  10.876 -0.1376  0.5646 -0.2453
  920MPD2    C513467   0.463   2.902  10.782  0.6607  0.4074  0.1202
  920MPD2     H13468   0.248   2.600  10.681 -2.0158  0.5266  2.5696
  920MPD2    H113469   0.433   2.840  10.979  0.1596 -0.5005 -0.0699
  920MPD2    H213470   0.496   2.946  10.580  0.0814 -0.3765 -0.5887
  920MPD2    H313471   0.532   2.981  10.809 -0.8753  2.6296 -2.4419
  920MPD2     N13472   0.285   2.609  10.934  0.3686 -0.6408 -0.4856
  920MPD2    H513473   0.224   2.535  10.904  1.7331 -2.2885  0.7970
  920MPD2    N113474   0.313   2.745  10.473  0.6323 -0.2948 -0.2696
  920MPD2    H713475   0.243   2.675  10.453 -0.0176 -0.9279  4.2351
  921MPD2     C13476   1.234   1.947  16.633  0.0621  0.0642  0.0760
  921MPD2    C113477   1.249   1.821  16.679  0.2793 -0.2026 -0.5108
  921MPD2    C213478   1.141   1.735  16.679  0.3103  0.3570  0.9240
  921MPD2    C313479   1.018   1.783  16.666  0.3219 -0.0647 -0.1124
  921MPD2    C413480   1.000   1.916  16.631 -1.0571 -0.2079  0.0265
  921MPD2    C513481   1.106   2.000  16.618 -0.1417  0.4348  0.3220
  921MPD2     H13482   1.159   1.630  16.701  1.2419  0.2230 -0.4752
  921MPD2    H113483   0.903   1.958  16.607 -1.7910 -0.9125  1.8261
  921MPD2    H213484   1.321   2.008  16.614 -0.8916  1.5103  0.3322
  921MPD2    H313485   1.077   2.096  16.577 -1.5520  0.4981  1.4342
  921MPD2     N13486   0.904   1.699  16.666 -0.0546  0.2999 -0.5459
  921MPD2    H513487   0.811   1.736  16.648  0.0513  1.4882  1.3225
  921MPD2    N113488   1.381   1.777  16.691  0.3457  0.2439  0.0479
  921MPD2    H713489   1.449   1.823  16.632 -0.6530  1.4119 -0.2021
  922MPD2     C13490   2.207   4.665  17.238 -0.3132 -0.6185  0.1220
  922MPD2    C113491   2.147   4.683  17.357 -0.6096  0.6116 -0.2214
  922MPD2    C213492   2.086   4.572  17.410  0.1454 -0.5159 -0.1578
  922MPD2    C313493   2.091   4.452  17.352  0.0991 -1.0240  0.4169
  922MPD2    C413494   2.159   4.435  17.234 -0.1895  0.0126 -0.8872
  922MPD2    C513495   2.214   4.547  17.182  0.2482 -0.2080 -0.0621
  922MPD2     H13496   2.030   4.590  17.501 -2.0330  1.8315 -1.9451
  922MPD2    H113497   2.165   4.343  17.177 -1.1848 -0.0618 -0.8638
  922MPD2    H213498   2.259   0.024  17.190  1.9533 -1.0502  1.8698
  922MPD2    H313499   2.266   4.541  17.087 -0.8491 -1.3647 -0.5877
  922MPD2     N13500   2.025   4.341  17.415  0.6848  0.6414 -0.7586
  922MPD2    H513501   1.977   4.365  17.501  0.9912 -0.4877 -0.2683
  922MPD2    N113502   2.138   0.087  17.424 -0.2375  0.0942  0.0129
  922MPD2    H713503   2.090   0.094  17.513 -0.7809  0.4817 -0.3111
  923MPD2     C13504   3.255   1.566   8.902 -0.0768 -0.2478 -0.0504
  923MPD2    C113505   3.284   1.605   9.035 -0.2747  0.0112  0.1187
  923MPD2    C213506   3.390   1.537   9.104 -0.2040  0.7283  0.2319
  923MPD2    C313507   3.471   1.445   9.036  0.4363 -0.0402  0.4591
  923MPD2    C413508   3.439   1.408   8.906  0.0491 -0.6575  0.3846
  923MPD2    C513509   3.337   1.472   8.839 -0.1204  0.2858 -0.3974
  923MPD2     H13510   3.407   1.562   9.209 -2.9159  0.0008  0.8482
  923MPD2    H113511   3.500   1.333   8.857  3.2294  2.2041 -0.0809
  923MPD2    H213512   3.188   1.628   8.844 -1.0558 -0.1022  1.2388
  923MPD2    H313513   3.308   1.430   8.743 -1.1621 -2.1187  0.9944
  923MPD2     N13514   3.587   1.383   9.081 -0.4895  0.2638  0.0168
  923MPD2    H513515   3.646   1.326   9.021 -0.7544  0.8264 -0.7929
  923MPD2    N113516   3.194   1.690   9.100  0.4830 -0.0580 -0.4494
  923MPD2    H713517   3.105   1.707   9.054  0.7362 -0.9800 -1.2787
  924MPD2     C13518   3.253   4.377  16.057 -0.2993 -0.2104 -0.0818
  924MPD2    C113519   3.140   4.384  15.975  0.3590  0.2060 -0.2210
  924MPD2    C213520   3.129   4.498  15.892  0.0346  1.0050 -0.6009
  924MPD2    C313521   3.220   4.605  15.905  1.0884 -0.6849  0.0627
  924MPD2    C413522   3.319   4.608  16.000 -0.0461 -0.4386 -0.3765
  924MPD2    C513523   3.342   4.487  16.064  0.0705  0.0897 -0.2550
  924MPD2     H13524   3.053   4.511  15.816  1.1159  0.4105 -1.7807
  924MPD2    H113525   3.390   4.688  16.017 -0.9114  0.4530 -0.9544
  924MPD2    H213526   3.267   4.301  16.133  2.2328  1.3523  1.0353
  924MPD2    H313527   3.428   4.482  16.129  0.7645  2.4210 -0.9961
  924MPD2     N13528   3.203   0.002  15.821 -0.3188 -0.3690 -0.9834
  924MPD2    H513529   3.241   0.091  15.850 -1.1869 -0.2018 -0.3547
  924MPD2    N113530   3.046   4.279  15.977 -0.2854 -0.2568  0.2022
  924MPD2    H713531   3.050   4.206  16.048  1.0040 -0.2329  0.1470
  925MPD2     C13532   2.185   2.024  14.742 -0.2297 -0.5651  0.4538
  925MPD2    C113533   2.074   1.981  14.681  0.2170  0.1377 -0.8286
  925MPD2    C213534   1.960   1.971  14.759 -0.0869 -0.3227  0.1980
  925MPD2    C313535   1.960   1.989  14.899  0.1118  0.1678  0.0112
  925MPD2    C413536   2.074   2.033  14.951 -0.4568 -0.6547  0.2808
  925MPD2    C513537   2.185   2.050  14.876  0.4526  0.3033  0.3923
  925MPD2     H13538   1.864   1.945  14.714  0.0171 -0.1369 -0.1349
  925MPD2    H113539   2.080   2.047  15.059 -1.3259 -0.6628  0.3343
  925MPD2    H213540   2.280   2.048  14.694 -0.3954 -2.5746 -0.9061
  925MPD2    H313541   2.281   2.072  14.922  0.7460  0.7363 -0.4276
  925MPD2     N13542   1.854   1.956  14.983  0.0659 -0.2097 -0.6492
  925MPD2    H513543   1.882   1.974  15.079  0.3438  1.5362 -1.0441
  925MPD2    N113544   2.073   1.954  14.538 -0.3928 -0.1875  0.5730
  925MPD2    H713545   1.984   1.916  14.508  0.2983  0.5586 -2.4510
  926MPD2     C13546   0.594   0.386  13.725 -0.1090 -0.2300  0.5683
  926MPD2    C113547   0.507   0.465  13.656  0.0529  0.4535 -0.3331
  926MPD2    C213548   0.519   0.474  13.512 -0.1997  0.0727 -0.1001
  926MPD2    C313549   0.630   0.425  13.446  0.1075  0.1810  0.0498
  926MPD2    C413550   0.720   0.357  13.520 -0.6596 -0.1528  0.0522
  926MPD2    C513551   0.693   0.321  13.653 -0.3599 -0.2170  0.7196
  926MPD2     H13552   0.448   0.543  13.468 -1.4677 -1.3048 -0.2451
  926MPD2    H113553   0.807   0.308  13.477 -1.2102 -0.9309 -0.1778
  926MPD2    H213554   0.576   0.363  13.829 -1.5907  0.9674  0.5646
  926MPD2    H313555   0.765   0.261  13.707  3.1665  2.6304 -0.7396
  926MPD2     N13556   0.652   0.449  13.306 -0.1747 -0.6012 -0.2122
  926MPD2    H513557   0.749   0.447  13.275 -0.5340 -1.1520 -1.3059
  926MPD2    N113558   0.411   0.545  13.715  1.0484  0.3628  0.2913
  926MPD2    H713559   0.352   0.588  13.645  1.3094 -0.3269 -0.3572
  927MPD2     C13560   1.017   3.166   0.237  0.0670 -0.2772  0.4432
  927MPD2    C113561   0.924   3.234   0.160 -0.3765 -0.7268  0.2081
  927MPD2    C213562   0.871   3.169   0.047 -0.1651  0.4482 -0.3141
  927MPD2    C313563   0.903   3.041   0.017 -0.2451  0.2745  0.3776
  927MPD2    C413564   0.986   2.969   0.103 -0.6644  0.5176  0.1299
  927MPD2    C513565   1.037   3.036   0.210  0.7304 -0.7795  0.5471
  927MPD2     H13566   0.801   3.226  17.678  1.6855  0.8657 -2.0063
  927MPD2    H113567   1.008   2.865   0.083 -0.9526  0.3928  0.4656
  927MPD2    H213568   1.049   3.219   0.326  1.0931  0.9611 -0.6713
  927MPD2    H313569   1.100   2.979   0.278 -1.1598 -2.2538  1.0646
  927MPD2     N13570   0.836   2.975  17.602 -0.6006 -0.3096 -0.4491
  927MPD2    H513571   0.786   3.044  17.547 -0.1162  0.8815  0.6161
  927MPD2    N113572   0.900   3.367   0.201  0.2217 -0.0983  0.1567
  927MPD2    H713573   0.947   3.408   0.281  0.1710 -1.4735  0.8931
  928MPD2     C13574   4.555   1.066   0.941 -0.3916  0.8254 -0.6752
  928MPD2    C113575   4.474   1.175   0.961  0.3321  0.1104  0.5834
  928MPD2    C213576   4.383   1.210   0.859 -0.1959  0.1739 -0.3726
  928MPD2    C313577   4.370   1.136   0.742  0.0643 -0.2184 -0.4386
  928MPD2    C413578   4.442   1.017   0.737 -0.2291  0.1407 -0.4532
  928MPD2    C513579   4.530   0.981   0.837 -1.0999  0.0859 -0.2290
  928MPD2     H13580   4.321   1.298   0.866 -0.9151 -0.4179  0.7020
  928MPD2    H113581   4.430   0.954   0.650 -1.2344  1.7266 -1.4606
  928MPD2    H213582   4.631   1.031   1.010 -3.1507 -2.1491  0.8741
  928MPD2    H313583   4.587   0.889   0.838  1.2534  1.5382 -0.2179
  928MPD2     N13584   4.294   1.166   0.625 -0.1484 -0.2673 -0.4075
  928MPD2    H513585   4.304   1.110   0.541 -1.6541  2.0049 -2.0904
  928MPD2    N113586   4.501   1.248   1.077  0.0641  0.5795  0.5385
  928MPD2    H713587   4.577   1.222   1.139 -0.3520 -1.8562  0.0111
  929MPD2     C13588   3.938   0.932  10.370  0.2555  0.3476  0.3098
  929MPD2    C113589   3.876   0.815  10.402 -0.2925 -0.0840 -0.5163
  929MPD2    C213590   3.798   0.755  10.297  0.7448 -0.2355  0.4167
  929MPD2    C313591   3.760   0.837  10.194 -0.3841 -0.2512 -0.1486
  929MPD2    C413592   3.824   0.958  10.174  0.3881 -0.3613 -0.0915
  929MPD2    C513593   3.918   0.996  10.257 -0.3075 -0.0127  0.2374
  929MPD2     H13594   3.742   0.664  10.317  0.2192 -0.5962 -2.6562
  929MPD2    H113595   3.794   1.029  10.098 -2.0122 -1.7228 -0.4196
  929MPD2    H213596   4.021   0.980  10.422  1.0277 -1.0779  0.4046
  929MPD2    H313597   3.971   1.089  10.237  0.6383 -0.6685 -0.3534
  929MPD2     N13598   3.645   0.801  10.118  0.1649  0.1906  0.1417
  929MPD2    H513599   3.596   0.717  10.147 -2.7569  2.0707  0.6831
  929MPD2    N113600   3.880   0.763  10.538  0.2364  0.1891 -1.1208
  929MPD2    H713601   3.939   0.811  10.605 -1.6655  0.4625  0.3357
  930MPD2     C13602   0.675   3.129  13.986  0.7742  0.4668  0.6527
  930MPD2    C113603   0.604   3.207  13.891 -0.1876  0.4919 -0.4141
  930MPD2    C213604   0.533   3.150  13.784 -0.1186  0.2922 -0.3513
  930MPD2    C313605   0.536   3.010  13.770  0.5745 -0.1307 -0.1211
  930MPD2    C413606   0.595   2.931  13.859 -0.2114  0.2974  0.5882
  930MPD2    C513607   0.656   2.988  13.968 -0.4132 -0.1710  0.5063
  930MPD2     H13608   0.471   3.213  13.722 -1.1532  0.5828  0.9806
  930MPD2    H113609   0.607   2.825  13.842  2.4660  0.5130  1.1966
  930MPD2    H213610   0.716   3.172  14.077 -0.5660 -0.1195  1.5417
  930MPD2    H313611   0.704   2.916  14.033  0.1447 -2.2421 -2.1819
  930MPD2     N13612   0.480   2.942  13.657 -0.1005  0.1071 -0.2523
  930MPD2    H513613   0.507   2.845  13.649 -2.0685 -0.3007 -1.9390
  930MPD2    N113614   0.629   3.347  13.915  0.0406  0.0531 -0.1657
  930MPD2    H713615   0.684   3.370  13.998  2.5060  0.2771 -1.8697
  931MPD2     C13616   0.761   3.864   0.842  0.0654  0.2708 -0.2661
  931MPD2    C113617   0.799   3.757   0.763  0.6741  0.0967  0.5344
  931MPD2    C213618   0.791   3.626   0.819 -0.3089  0.2735  0.2221
  931MPD2    C313619   0.741   3.606   0.942  0.1985 -0.8439  0.1179
  931MPD2    C413620   0.706   3.713   1.017  0.5333 -0.1473 -0.1327
  931MPD2    C513621   0.719   3.844   0.975  0.3602  0.5284  0.0487
  931MPD2     H13622   0.781   3.546   0.747 -0.9475  0.8835 -0.3732
  931MPD2    H113623   0.671   3.694   1.118  0.4267 -1.8007 -0.4919
  931MPD2    H213624   0.748   3.962   0.797  2.7645 -0.0145 -1.6948
  931MPD2    H313625   0.683   3.928   1.033 -2.0685 -1.8213  1.9891
  931MPD2     N13626   0.721   3.474   0.995  0.0301 -0.3534  0.3422
  931MPD2    H513627   0.658   3.467   1.074 -0.7466 -2.8786 -0.5007
  931MPD2    N113628   0.810   3.775   0.622 -0.1536 -0.2755  0.2087
  931MPD2    H713629   0.791   3.867   0.583 -0.6140  0.0182  1.1115
  932MPD2     C13630   2.275   1.672  11.573 -0.2552  0.7775 -0.1527
  932MPD2    C113631   2.340   1.646  11.450 -0.4198  0.5974 -0.0969
  932MPD2    C213632   2.372   1.512  11.423  0.4015  0.0472 -0.1435
  932MPD2    C313633   2.354   1.411  11.516 -0.0980  0.2882  0.2450
  932MPD2    C413634   2.294   1.439  11.637 -0.2295  1.0194  0.5173
  932MPD2    C513635   2.259   1.569  11.664  0.0637  1.1988 -0.6225
  932MPD2     H13636   2.403   1.491  11.321 -2.3357  2.3864 -1.4644
  932MPD2    H113637   2.273   1.364  11.713  0.3281 -0.2152 -0.5569
  932MPD2    H213638   2.247   1.775  11.593  0.8405  0.9648  0.4109
  932MPD2    H313639   2.216   1.584  11.762 -0.4612  1.3174 -0.8694
  932MPD2     N13640   2.387   1.275  11.486 -0.1396 -0.2999 -0.1607
  932MPD2    H513641   2.363   1.199  11.549 -0.2377  0.5571  0.8267
  932MPD2    N113642   2.345   1.751  11.356 -0.1561 -0.2136  0.4126
  932MPD2    H713643   2.282   1.828  11.377 -1.9200 -0.9307 -2.1700
  933MPD2     C13644   4.358   1.925   1.719  0.5343 -0.4361 -0.3551
  933MPD2    C113645   4.280   1.851   1.630  1.4158 -0.5265 -0.2815
  933MPD2    C213646   4.141   1.878   1.624 -0.4086 -0.0549  0.5838
  933MPD2    C313647   4.087   1.970   1.718 -0.7165 -0.0315 -0.0023
  933MPD2    C413648   4.162   2.034   1.814 -0.1168 -0.1641  0.1266
  933MPD2    C513649   4.300   2.011   1.814  0.6329  0.3341  0.1056
  933MPD2     H13650   4.076   1.833   1.550  0.3771  0.2383 -0.2831
  933MPD2    H113651   4.122   2.105   1.886  1.7183 -0.9113  1.8980
  933MPD2    H213652   4.465   1.917   1.733  0.0149 -1.0995  3.3328
  933MPD2    H313653   4.367   2.062   1.882 -0.2461 -1.5324  2.4148
  933MPD2     N13654   3.947   2.003   1.695 -0.1907 -0.7280  0.3065
  933MPD2    H513655   3.897   1.954   1.622 -0.2435 -0.6887  0.3161
  933MPD2    N113656   4.348   1.757   1.545  0.5622 -0.6970  0.4093
  933MPD2    H713657   4.450   1.751   1.547  0.6182 -0.2359 -0.7049
  934MPD2     C13658   3.601   4.479   1.828  0.7177  0.0771 -0.9890
  934MPD2    C113659   3.697   4.398   1.774  0.1725  0.3330  0.7286
  934MPD2    C213660   3.670   4.271   1.733  0.0344  0.1785  1.3060
  934MPD2    C313661   3.536   4.232   1.726  0.4749  0.7362 -0.5113
  934MPD2    C413662   3.437   4.317   1.770  0.1009 -0.1613  1.0732
  934MPD2    C513663   3.474   4.438   1.822 -0.7408 -0.2158  0.4983
  934MPD2     H13664   3.748   4.199   1.709 -1.2713 -1.1091  0.9863
  934MPD2    H113665   3.333   4.290   1.757  0.6100 -2.2778  1.4579
  934MPD2    H213666   3.615   4.582   1.860  0.1870  0.2894 -1.4269
  934MPD2    H313667   3.393   4.499   1.862 -0.0042  0.3767  1.0909
  934MPD2     N13668   3.498   4.102   1.689 -0.6411 -0.4910  0.0074
  934MPD2    H513669   3.399   4.084   1.699 -0.6229 -0.7601 -0.3094
  934MPD2    N113670   3.828   4.451   1.781  0.0118  0.3971  0.0229
  934MPD2    H713671   3.842   4.534   1.838  0.9797 -0.0116  0.3808
  935MPD2     C13672   3.774   3.128   1.890 -0.2279 -0.3036 -0.2696
  935MPD2    C113673   3.818   3.183   1.773 -0.3511  0.7804  0.2712
  935MPD2    C213674   3.750   3.284   1.719 -0.2469  0.0588 -0.2238
  935MPD2    C313675   3.631   3.336   1.772  0.1407 -0.8402 -0.4360
  935MPD2    C413676   3.586   3.279   1.888 -0.4074  1.0306 -0.8495
  935MPD2    C513677   3.658   3.171   1.935  0.4819 -0.1271 -0.0082
  935MPD2     H13678   3.794   3.323   1.628  4.0045 -0.8860  1.4693
  935MPD2    H113679   3.492   3.303   1.936 -0.0511  0.6039  0.0721
  935MPD2    H213680   3.831   3.057   1.949  2.1542  0.2037 -1.9766
  935MPD2    H313681   3.630   3.116   2.024 -0.6206  1.8867  0.8866
  935MPD2     N13682   3.550   3.446   1.721  0.6928  1.0540 -0.3004
  935MPD2    H513683   3.462   3.460   1.770  0.4019  1.2536 -0.8880
  935MPD2    N113684   3.939   3.149   1.704 -0.1496 -0.0814  0.3153
  935MPD2    H713685   3.961   3.199   1.618  0.0633  0.1758  0.5171
  936MPD2     C13686   2.530   0.487  12.385 -0.3124  0.1768  1.0113
  936MPD2    C113687   2.546   0.381  12.469  0.6822 -0.1135  0.2642
  936MPD2    C213688   2.626   0.277  12.432  0.2381 -0.4869 -0.0805
  936MPD2    C313689   2.701   0.282  12.316 -0.0037 -0.6269 -0.4463
  936MPD2    C413690   2.695   0.395  12.241 -0.2072  0.5330 -0.5539
  936MPD2    C513691   2.600   0.487  12.269  0.3966 -0.3414  0.2402
  936MPD2     H13692   2.624   0.190  12.496 -2.0502 -1.3664 -1.3180
  936MPD2    H113693   2.758   0.403  12.153  0.0347 -1.1976 -0.5436
  936MPD2    H213694   2.471   0.576  12.401 -2.7297 -1.2584  0.2306
  936MPD2    H313695   2.597   0.583  12.219  0.9962 -0.8973 -0.8535
  936MPD2     N13696   2.811   0.191  12.293  0.2245 -0.4936  0.1687
  936MPD2    H513697   2.890   0.222  12.236  2.3783 -2.6530  1.9603
  936MPD2    N113698   2.491   0.389  12.601 -0.5347  0.5733  0.3388
  936MPD2    H713699   2.518   0.324  12.674  0.7362  0.1699 -0.5157
  937MPD2     C13700   0.668   1.514  11.805  0.7445 -0.6746 -0.3505
  937MPD2    C113701   0.762   1.611  11.833 -0.7092  0.2682 -0.9704
  937MPD2    C213702   0.844   1.659  11.729  0.0810  0.8044  0.4091
  937MPD2    C313703   0.827   1.611  11.601 -0.0511 -0.6859  0.2189
  937MPD2    C413704   0.749   1.493  11.583  0.3482  0.3215  0.0019
  937MPD2    C513705   0.669   1.451  11.684 -0.4959 -0.0635  0.1328
  937MPD2     H13706   0.911   1.743  11.742  2.5721 -1.2434  0.8620
  937MPD2    H113707   0.744   1.434  11.492 -0.4345 -0.1780  0.3679
  937MPD2    H213708   0.595   1.482  11.878  1.0640 -0.3425  0.1143
  937MPD2    H313709   0.596   1.375  11.660 -1.2501 -0.2924  3.1780
  937MPD2     N13710   0.912   1.656  11.499  0.7862  0.1695  0.6674
  937MPD2    H513711   0.990   1.714  11.527 -0.3805  1.4358  1.3038
  937MPD2    N113712   0.736   1.697  11.944 -0.6040  0.7827  0.2974
  937MPD2    H713713   0.772   1.792  11.936  1.1651  0.0294 -0.6580
  938MPD2     C13714   3.260   3.049   0.736 -0.0736 -0.5183 -0.3271
  938MPD2    C113715   3.350   3.063   0.842 -0.0514  0.0281 -0.5169
  938MPD2    C213716   3.323   2.993   0.962 -0.0930  0.1893  0.0205
  938MPD2    C313717   3.218   2.906   0.979 -0.3568  0.1990 -0.0301
  938MPD2    C413718   3.123   2.894   0.875 -0.0999 -0.1959  0.3474
  938MPD2    C513719   3.152   2.960   0.756  0.0502  0.2710 -0.2479
  938MPD2     H13720   3.386   3.016   1.047  0.7263  1.7992 -1.0295
  938MPD2    H113721   3.034   2.833   0.886  0.8066 -1.9992 -2.4357
  938MPD2    H213722   3.263   3.103   0.642  0.7861  1.9791  1.1294
  938MPD2    H313723   3.078   2.963   0.677  0.8450  0.6617 -0.9813
  938MPD2     N13724   3.191   2.826   1.096 -0.2087  0.0519 -0.3329
  938MPD2    H513725   3.125   2.749   1.088  0.0342 -0.2144  0.2180
  938MPD2    N113726   3.453   3.154   0.818  0.1100  0.3594  0.3910
  938MPD2    H713727   3.470   3.196   0.727 -0.4950  0.1141  0.1635
  939MPD2     C13728   4.412   4.567   0.714  1.0707 -0.0271 -0.6972
  939MPD2    C113729   4.438   4.695   0.741 -0.6689  0.5798  0.3700
  939MPD2    C213730   4.517   0.050   0.661  0.0649  0.0200  0.2198
  939MPD2    C313731   4.589   4.709   0.560 -0.3433  0.6850  0.3961
  939MPD2    C413732   4.575   4.576   0.543  0.1106  0.4793 -0.4701
  939MPD2    C513733   4.491   4.509   0.617  0.0875  0.2468 -0.2188
  939MPD2     H13734   4.535   0.156   0.675 -0.4177  0.4454 -2.2928
  939MPD2    H113735   4.627   4.520   0.466  0.0087  2.0969 -1.7102
  939MPD2    H213736   4.328   4.513   0.756  1.7046  0.0448  0.6306
  939MPD2    H313737   4.487   4.402   0.596  1.7024 -0.2362  1.9819
  939MPD2     N13738   4.666   0.070   0.474  0.0044  0.4489  0.4746
  939MPD2    H513739   4.667   0.171   0.484  0.0678  0.5027 -0.0862
  939MPD2    N113740   4.372   0.047   0.845  0.1248 -0.0649 -0.0655
  939MPD2    H713741   4.401   0.144   0.858 -0.4830  0.2079 -0.7771
  940MPD2     C13742   3.182   4.533  12.942  0.0532 -0.9277 -0.3531
  940MPD2    C113743   3.301   4.600  12.970 -0.5981  0.7845 -0.1420
  940MPD2    C213744   3.402   4.600  12.870  0.0604  0.3567  0.1824
  940MPD2    C313745   3.375   4.533  12.752  0.9013 -0.3761  0.6254
  940MPD2    C413746   3.262   4.462  12.733 -0.0829 -0.4175 -0.1107
  940MPD2    C513747   3.161   4.465  12.827  0.6303 -0.2276 -0.0338
  940MPD2     H13748   3.499   4.647  12.886 -0.8333  2.6288 -1.1179
  940MPD2    H113749   3.237   4.404  12.645 -1.6017  2.0251 -1.2989
  940MPD2    H213750   3.096   4.545  13.008  0.8544  0.1356  0.4990
  940MPD2    H313751   3.063   4.427  12.802  0.8528 -0.2906 -0.8045
  940MPD2     N13752   3.479   4.523  12.648  0.1571 -0.0699 -0.2990
  940MPD2    H513753   3.441   4.499  12.557 -1.2861  1.4089 -0.0913
  940MPD2    N113754   3.324   4.681  13.086 -0.1241 -0.2377 -0.1300
  940MPD2    H713755   3.409   0.013  13.076  0.3255 -1.3542 -2.4622
  941MPD2     C13756   2.755   4.442  10.549 -0.8237  0.0346 -0.1921
  941MPD2    C113757   2.850   4.354  10.496  0.2857  0.0001  0.6777
  941MPD2    C213758   2.807   4.252  10.417 -0.4439 -0.2781  0.3272
  941MPD2    C313759   2.676   4.230  10.381  0.0345 -0.6292  0.8535
  941MPD2    C413760   2.580   4.305  10.443 -0.6477 -0.9167  0.3011
  941MPD2    C513761   2.619   4.410  10.529 -0.0915 -0.2671  0.4644
  941MPD2     H13762   2.879   4.180  10.380  0.9088  1.0927  0.3376
  941MPD2    H113763   2.475   4.279  10.437 -0.9214 -0.1067  1.7705
  941MPD2    H213764   2.782   4.524  10.615  0.5513 -1.2668  0.8834
  941MPD2    H313765   2.546   4.462  10.590  0.3053  0.3077  0.4495
  941MPD2     N13766   2.637   4.127  10.306  0.6174 -0.4397 -0.0641
  941MPD2    H513767   2.536   4.120  10.295  0.5387 -0.8478  0.9937
  941MPD2    N113768   2.984   4.366  10.511 -0.4158 -0.4822 -0.0522
  941MPD2    H713769   3.047   4.291  10.485  1.0129  0.6092  0.2902
  942MPD2     C13770   2.868   1.737   9.513 -0.4069 -0.1690 -0.0772
  942MPD2    C113771   2.832   1.644   9.417  0.7960 -0.0593 -0.1373
  942MPD2    C213772   2.917   1.538   9.386  0.3157 -0.6471 -0.0517
  942MPD2    C313773   3.031   1.528   9.464  0.2504  0.1344  0.1845
  942MPD2    C413774   3.062   1.618   9.570 -0.2348  0.1635 -0.0610
  942MPD2    C513775   2.973   1.723   9.592  0.8068  0.1645 -0.1914
  942MPD2     H13776   2.890   1.474   9.302  1.4976 -1.3134  0.0791
  942MPD2    H113777   3.148   1.596   9.632 -1.3970 -2.6895  0.5722
  942MPD2    H213778   2.804   1.825   9.518 -0.8648 -0.3531 -2.5703
  942MPD2    H313779   3.002   1.790   9.672 -0.2118 -0.6186  0.8572
  942MPD2     N13780   3.133   1.433   9.431 -0.1004  0.2904 -0.1728
  942MPD2    H513781   3.218   1.433   9.486  0.5765 -0.1133 -1.2341
  942MPD2    N113782   2.720   1.662   9.335 -0.2295 -0.4121 -0.2801
  942MPD2    H713783   2.695   1.596   9.263 -1.6109 -0.5873  0.3386
  943MPD2     C13784   2.433   3.555   9.659 -0.1887 -0.0496  0.0597
  943MPD2    C113785   2.300   3.576   9.688 -0.2110  0.1946  0.5857
  943MPD2    C213786   2.268   3.686   9.764 -0.6301  0.1485  0.3810
  943MPD2    C313787   2.366   3.776   9.801 -0.6033  0.3999 -0.9298
  943MPD2    C413788   2.502   3.745   9.781 -0.5069 -0.0423  0.0557
  943MPD2    C513789   2.535   3.631   9.712  0.0960 -0.2827  0.7573
  943MPD2     H13790   2.168   3.717   9.792 -1.4012 -3.4397  1.5951
  943MPD2    H113791   2.581   3.805   9.826 -0.2132  0.6090 -1.3273
  943MPD2    H213792   2.473   3.479   9.593  1.8483  0.7047  0.4214
  943MPD2    H313793   2.639   3.613   9.687 -0.1602 -0.9637  0.1908
  943MPD2     N13794   2.330   3.896   9.864  0.0678  0.3415  0.4714
  943MPD2    H513795   2.407   3.958   9.885 -0.9915  1.4727  0.9861
  943MPD2    N113796   2.202   3.489   9.637  0.5821 -0.0184  0.0040
  943MPD2    H713797   2.229   3.430   9.560  3.4907 -1.4371  2.1124
  944MPD2     C13798   1.631   3.206  10.976  0.2616  0.0538  0.5685
  944MPD2    C113799   1.533   3.180  10.883  0.0493 -0.1940 -0.2616
  944MPD2    C213800   1.403   3.185  10.926  0.3659 -0.4673  1.1039
  944MPD2    C313801   1.375   3.215  11.056 -0.3843 -0.2026  0.1201
  944MPD2    C413802   1.474   3.247  11.145 -0.3461 -0.1060  0.7538
  944MPD2    C513803   1.604   3.233  11.108 -0.1714  0.3191 -1.2750
  944MPD2     H13804   1.315   3.174  10.864  2.6963 -1.0797 -2.1591
  944MPD2    H113805   1.448   3.284  11.244  1.9378  2.1392  0.4953
  944MPD2    H213806   1.736   3.199  10.949  0.1693  1.1262 -0.0439
  944MPD2    H313807   1.682   3.259  11.178 -0.0902  2.7635 -2.2673
  944MPD2     N13808   1.240   3.202  11.089 -0.1816  0.2564 -0.7106
  944MPD2    H513809   1.180   3.174  11.013 -1.0644 -0.2351  0.1624
  944MPD2    N113810   1.574   3.142  10.753 -0.0840  0.1329 -0.1504
  944MPD2    H713811   1.670   3.157  10.725 -0.1134  2.3155  0.8535
    1TCq1    O113812   4.354   3.934  13.849 -0.0515 -0.2612 -0.4196
    1TCq1    C113813   4.395   3.910  13.978 -0.3354 -0.0475  0.0918
    1TCq1    O213814   4.507   3.890  14.019 -0.2967  0.0368 -0.1939
    1TCq1    C213815   4.296   3.942  14.074 -0.1080 -0.0477 -0.3145
    1TCq1    C313816   4.169   3.892  14.055 -0.8632  0.5875 -0.0355
    1TCq1    C413817   4.073   3.920  14.150  0.4590  0.0617 -0.2063
    1TCq1    C513818   4.112   3.970  14.264  0.4334 -0.3189  0.2000
    1TCq1    C613819   4.241   3.995  14.291 -0.2105  0.7219  0.2146
    1TCq1    C713820   4.333   3.980  14.200 -0.2828 -0.4525 -0.3912
    1TCq1    C813821   4.270   4.086  14.398 -0.6724 -0.0319 -0.2030
    1TCq1    O413822   4.393   4.092  14.428  0.3247  0.2455 -0.3686
    1TCq1    C913823   3.942   3.877  14.138 -0.0142  0.7656 -0.3377
    1TCq1    O513824   3.890   3.850  14.245  0.3351 -0.4816 -0.4005
    1TCq1    O613825   3.901   3.840  14.023  0.8745 -0.5415 -0.1341
    1TCq1    H113826   4.262   3.966  13.835  0.6991  1.9771 -0.1941
    1TCq1    H213827   4.132   3.845  13.965  0.9697  0.0410 -0.4916
    1TCq1    H313828   4.037   3.987  14.341  1.2691 -0.1969  0.9938
    1TCq1    H413829   4.426   4.034  14.212 -0.0288 -0.2483 -3.2560
    2MPD2     C13830   4.222   4.494  14.675  0.1941 -0.3347  0.7851
    2MPD2    C113831   4.121   4.498  14.586  0.1430 -0.0699 -0.1059
    2MPD2    C213832   4.081   4.374  14.529  0.0031 -1.0726 -0.3663
    2MPD2    C313833   4.171   4.269  14.526  0.3568 -0.6583 -0.8111
    2MPD2    C413834   4.284   4.278  14.607 -0.4111 -0.0453  0.8137
    2MPD2    C513835   4.298   4.382  14.687  0.2825 -0.2445 -0.2271
    2MPD2     H13836   4.003   4.375  14.454 -0.8641 -0.6218  0.5452
    2MPD2    H113837   4.370   4.213  14.615 -0.5795 -0.1910  1.3725
    2MPD2    H213838   4.235   4.576  14.744  0.8866 -1.1806  1.6440
    2MPD2    H313839   4.374   4.388  14.764  0.6556  0.2208 -0.6372
    2MPD2     N13840   4.160   4.161  14.435 -0.0085 -0.2564  0.7972
    2MPD2    H513841   4.080   4.158  14.372  2.5936  1.7502 -2.5658
    2MPD2    N113842   4.068   4.626  14.557  0.5674 -0.4316 -0.4119
    2MPD2    H713843   4.118   4.700  14.604 -0.8250  0.2801 -0.0406
    3TMC2    C113844   3.969   0.062  14.401  0.7948  0.3491 -0.0264
    3TMC2    C213845   4.059   0.166  14.435 -0.1189  0.1150 -0.1066
    3TMC2    C313846   4.109   0.244  14.332 -0.0750 -0.8508  0.2974
    3TMC2    C413847   3.947   0.042  14.269 -0.3411 -0.6415 -0.7158
    3TMC2    C513848   3.990   0.125  14.168  0.3896 -0.3820 -0.1027
    3TMC2    C613849   4.084   0.221  14.197  0.1890 -0.0271  0.1626
    3TMC2     C13850   3.959   4.655  14.473 -0.5761  0.7418 -0.7235
    3TMC2     O13851   3.886   4.567  14.427 -0.1141  0.0488 -0.4355
    3TMC2     H13852   4.082   0.194  14.537 -0.6816  0.6092 -0.1149
    3TMC2    H113853   3.889   4.676  14.243 -0.1174 -1.0095  0.0504
    3TMC2    H213854   4.142   0.270  14.119  4.0414 -1.6443  2.0461
    3TMC2    C713855   3.969   0.090  14.031  0.7823 -0.2313  0.3333
    3TMC2    C813856   4.232   0.324  14.353 -0.9724 -0.6975 -0.1360
    3TMC2    O113857   3.916   4.704  14.011 -0.2505  0.9766  0.1555
    3TMC2    O213858   4.262   0.402  14.262  0.4799 -0.0648  0.4474
    3TMC2    O513859   4.317   0.230  14.411 -0.5119 -0.6278  0.3633
    3TMC2    H513860   4.275   0.172  14.478  1.3764 -0.4347  1.6962
    4MPD2     C13861   3.117   0.748  13.121 -1.0653 -0.2936 -0.2601
    4MPD2    C113862   3.202   0.783  13.012  0.9730 -0.1921  0.1783
    4MPD2    C213863   3.338   0.766  13.041 -0.4714 -0.6649  0.5504
    4MPD2    C313864   3.382   0.713  13.162 -0.1799 -0.0147  0.2377
    4MPD2    C413865   3.294   0.694  13.262  0.1158  0.4224  0.3240
    4MPD2    C513866   3.163   0.719  13.245  0.1370  1.0570 -0.3194
    4MPD2     H13867   3.414   0.764  12.964 -0.9085  0.0713  0.1048
    4MPD2    H113868   3.323   0.646  13.355  2.0189 -2.1253 -1.5871
    4MPD2    H213869   3.010   0.747  13.104 -1.0815  0.1854 -0.2052
    4MPD2    H313870   3.090   0.693  13.321 -0.9377  2.4520 -0.8913
    4MPD2     N13871   3.526   0.693  13.176 -0.0247  0.0166  0.0706
    4MPD2    H513872   3.587   0.739  13.110  1.0631  0.7207  1.5599
    4MPD2    N113873   3.145   0.813  12.887 -0.2328  0.5734 -0.1707
    4MPD2    H713874   3.047   0.791  12.870 -0.1639 -0.4120  0.6703
    5TCq2    C113875   3.583   0.643  13.294 -0.8344 -0.7556 -0.4549
    5TCq2    O213876   3.536   0.575  13.382  0.2969 -0.5804  0.3754
    5TCq2    C213877   3.717   0.683  13.321 -0.9007 -0.4735 -0.6627
    5TCq2    C313878   3.752   0.822  13.316 -0.2144 -0.0954 -0.4380
    5TCq2    C413879   3.846   0.864  13.410 -0.2796  0.7202  0.2427
    5TCq2    C513880   3.912   0.784  13.495  0.6589 -0.3073  0.7196
    5TCq2    C613881   3.884   0.654  13.483 -0.4061  0.0594  0.4895
    5TCq2    C713882   3.780   0.603  13.415  0.2023  0.1136 -0.3130
    5TCq2    C813883   3.929   0.566  13.588  0.7670  0.0029  0.7631
    5TCq2    O413884   3.965   0.612  13.698  0.2883  0.7872 -0.0338
    5TCq2    C913885   3.889   1.000  13.394  0.1910  0.0016  0.2816
    5TCq2    O513886   3.812   1.070  13.327 -0.4708 -0.1491 -0.2597
    5TCq2    O613887   4.000   1.040  13.436 -0.7071  0.1125 -0.3691
    5TCq2    H213888   3.689   0.888  13.259 -2.0287 -0.9806  0.5402
    5TCq2    H313889   3.993   0.818  13.559  0.7761 -1.6834  1.2933
    5TCq2    H413890   3.749   0.501  13.437  0.5627  0.0573 -0.0679
    6MPD1     C13891   2.405   2.088  13.044  0.6748 -0.2525 -0.5121
    6MPD1    C113892   2.465   2.116  12.923 -0.2069 -0.1424 -0.4112
    6MPD1    C213893   2.461   2.022  12.821 -0.0589 -0.1675  0.1125
    6MPD1    C313894   2.434   1.888  12.858  1.2540  0.2715 -0.5202
    6MPD1    C413895   2.390   1.863  12.989  0.6507 -0.0063 -0.3280
    6MPD1    C513896   2.364   1.968  13.067 -0.5292  0.2037 -0.6180
    6MPD1     H13897   2.486   2.051  12.720  1.1409 -0.5666  0.2872
    6MPD1    H113898   2.366   1.761  13.017 -0.9676  1.0506  2.1393
    6MPD1    H213899   2.392   2.160  13.124 -3.3025 -3.6175  1.9161
    6MPD1    H313900   2.332   1.948  13.169 -0.0442  3.7929  0.2527
    6MPD1     N13901   2.441   1.782  12.766  0.3232 -0.4169  0.0050
    6MPD1    H513902   2.419   1.689  12.800  0.0556  0.8414  3.2349
    6MPD1    N113903   2.489   2.252  12.903 -0.6572 -0.4629  0.3172
    6MPD1    H613904   2.524   2.293  12.990 -0.7570  2.7375 -1.1379
    6MPD1    H713905   2.556   2.264  12.827  1.4146 -1.9036  1.8958
    7MPD2     C13906   2.405   1.030  12.744 -0.0936 -0.2693  0.6666
    7MPD2    C113907   2.492   1.077  12.645 -0.3141 -0.3073 -0.2177
    7MPD2    C213908   2.594   0.992  12.598  0.7141 -0.4659 -0.6927
    7MPD2    C313909   2.625   0.873  12.658 -0.6078  0.4868 -0.5156
    7MPD2    C413910   2.547   0.831  12.766  0.9531  0.4420  0.4461
    7MPD2    C513911   2.438   0.907  12.800  0.0364  0.2115 -0.4235
    7MPD2     H13912   2.660   1.026  12.520 -1.2696 -0.2999 -2.3191
    7MPD2    H113913   2.577   0.747  12.828 -2.2155 -0.5325  0.6466
    7MPD2    H213914   2.325   1.083  12.795  0.3980  0.8694  0.2480
    7MPD2    H313915   2.378   0.878  12.885  0.0688 -1.4689 -0.9791
    7MPD2     N13916   2.733   0.792  12.620  0.0894 -0.0007 -0.7086
    7MPD2    H513917   2.762   0.726  12.691  1.3533  0.6416 -0.6377
    7MPD2    N113918   2.490   1.211  12.582  0.6378  0.2025 -0.6586
    7MPD2    H713919   2.545   1.216  12.496  0.7210 -0.2903 -0.6328
    8TMC3    C113920   2.950   0.783  12.514  0.4870 -0.9341 -0.5513
    8TMC3    C213921   3.013   0.776  12.639  0.1386 -0.6101  0.2348
    8TMC3    C313922   3.144   0.820  12.651 -0.0776 -0.2198 -0.4792
    8TMC3    C413923   3.018   0.818  12.400 -0.0504 -0.6760  0.9578
    8TMC3    C513924   3.146   0.857  12.416 -0.0281 -0.0651 -0.3816
    8TMC3    C613925   3.213   0.864  12.540 -0.3116 -0.1366  0.0897
    8TMC3     C13926   2.812   0.814  12.509 -0.5757 -0.4449 -2.0624
    8TMC3     O13927   2.783   0.868  12.406  0.3969 -0.3020  0.2830
    8TMC3     H13928   2.956   0.751  12.728 -0.2090 -0.1711  0.1319
    8TMC3    H113929   2.973   0.786  12.307  0.8341  3.1562 -0.7447
    8TMC3    H213930   3.318   0.894  12.537  0.2876 -2.2319  0.2854
    8TMC3    C713931   3.152   0.985  12.351  0.8746  0.4449  0.3629
    8TMC3    C813932   3.219   0.849  12.777  0.2230 -0.2471 -0.1827
    8TMC3    O113933   3.261   1.035  12.330  0.5201  0.0288  0.6556
    8TMC3    O213934   3.334   0.890  12.774 -0.2259 -0.3698  0.7476
    9TMC3    C113935   2.497   1.655  12.569 -0.1137  0.4357 -0.3547
    9TMC3    C213936   2.574   1.648  12.453 -0.2928 -0.6298  0.1395
    9TMC3    C313937   2.565   1.531  12.385 -0.5032 -0.0046 -0.7779
    9TMC3    C413938   2.407   1.555  12.611  0.2302 -0.2129  0.0179
    9TMC3    C513939   2.416   1.434  12.536 -0.0636  0.1415  0.1155
    9TMC3    C613940   2.491   1.426  12.420  0.0554 -0.4104  0.2235
    9TMC3     C13941   2.497   1.788  12.637  0.6147 -0.3594 -0.2660
    9TMC3     O13942   2.555   1.887  12.584  0.0520  0.2174 -0.4417
    9TMC3     H13943   2.644   1.726  12.426 -0.4771 -1.4658 -2.7468
    9TMC3    H113944   2.349   1.550  12.703 -0.1761  2.1592 -0.1035
    9TMC3    H213945   2.476   1.339  12.358  2.1034 -1.8494  1.7402
    9TMC3    C713946   2.397   1.308  12.612 -0.0770  0.5519 -0.4307
    9TMC3    C813947   2.675   1.518  12.292 -0.5942  0.3641 -0.0110
    9TMC3    O113948   2.317   1.310  12.707  0.3836  0.0031  0.2164
    9TMC3    O213949   2.734   1.620  12.256 -0.0928 -0.7325  0.1011
   10MPD2     C13950   3.095   1.256  12.231 -0.3150  0.2795 -0.6532
   10MPD2    C113951   2.999   1.169  12.281  0.3916  0.3662 -0.1525
   10MPD2    C213952   2.870   1.212  12.289 -0.2454  0.2382  0.1155
   10MPD2    C313953   2.842   1.344  12.252  0.2276 -0.0389 -1.0103
   10MPD2    C413954   2.944   1.427  12.207  0.3189 -0.1421  0.7958
   10MPD2    C513955   3.069   1.387  12.189  0.2694  0.4180  0.5582
   10MPD2     H13956   2.790   1.149  12.326 -0.7077  0.2766 -0.8346
   10MPD2    H113957   2.922   1.527  12.171  0.1505  0.1212  1.6303
   10MPD2    H213958   3.192   1.208  12.224 -0.5245 -0.3359  0.8178
   10MPD2    H313959   3.153   1.448  12.157  1.9994 -3.0728 -1.5432
   10MPD2     N13960   2.714   1.386  12.287 -0.7497  0.3882 -0.5638
   10MPD2    H513961   2.646   1.316  12.316  0.5708  0.0295  1.6352
   10MPD2    N113962   3.029   1.043  12.324  0.3768 -0.0027 -0.4075
   10MPD2    H713963   2.947   0.987  12.346 -0.5386  2.1201  1.5369
   11MPD2     C13964   3.984   0.083  13.741 -0.1023 -0.0536 -0.7256
   11MPD2    C113965   3.989   0.202  13.814 -0.4158 -0.0231  0.3309
   11MPD2    C213966   3.981   0.325  13.754 -0.2865 -0.0469 -0.5162
   11MPD2    C313967   3.968   0.330  13.618  0.6412  0.2447 -1.0544
   11MPD2    C413968   3.967   0.214  13.543 -0.3389 -0.6137  0.1056
   11MPD2    C513969   3.971   0.092  13.607 -0.4375 -0.8753  0.0066
   11MPD2     H13970   3.966   0.415  13.814 -1.4589  2.6746 -4.9409
   11MPD2    H113971   3.973   0.227  13.435  0.2552  0.9892  0.3302
   11MPD2    H213972   3.982   4.707  13.787  1.9869  0.1406 -0.1873
   11MPD2    H313973   3.953   0.005  13.545  2.3241  0.1323 -2.2148
   11MPD2     N13974   3.947   0.443  13.544  0.8122  0.0665 -0.3852
   11MPD2    H513975   3.925   0.426  13.447 -2.6063  1.2725  0.1659
   11MPD2    N113976   3.985   0.204  13.953 -0.3576 -0.6411  0.0615
   11MPD2    H713977   3.991   0.291  14.004  0.2127 -0.3195 -0.5468
    1MPD1     C13978   1.957   2.246  17.136  0.3096 -0.4947  0.3246
    1MPD1    C113979   1.923   2.357  17.058 -0.1736 -0.0250  0.9680
    1MPD1    C213980   1.916   2.325  16.925  0.0733 -1.0732  0.6463
    1MPD1    C313981   1.910   2.198  16.873  0.1771  0.2491  0.4727
    1MPD1    C413982   1.940   2.093  16.956  0.4571 -0.1361  0.4007
    1MPD1    C513983   1.952   2.118  17.088  0.0833 -0.5149  0.0293
    1MPD1     H13984   1.891   2.406  16.857  1.3289  0.5748  2.1198
    1MPD1    H113985   1.947   1.994  16.911  0.0803 -0.7371  1.6525
    1MPD1    H213986   1.970   2.253  17.244 -0.2908 -2.0632  0.5021
    1MPD1    H313987   1.977   2.036  17.153 -1.2234  0.0064  1.1848
    1MPD1     N13988   1.890   2.163  16.740 -0.4361 -0.1329  0.0213
    1MPD1    H513989   1.884   2.064  16.720  2.3423 -0.8190  2.5571
    1MPD1    N113990   1.944   2.484  17.113 -0.8214 -0.0042  0.7164
    1MPD1    H613991   1.924   2.486  17.213 -2.3036  1.6419  0.3862
    1MPD1    H713992   1.897   2.558  17.062 -0.7307 -0.6648 -0.3221
    2MPD1     C13993   2.005   2.685  15.914  0.5039  0.0491 -0.0996
    2MPD1    C113994   2.100   2.643  16.002  0.3332 -0.3992  0.1363
    2MPD1    C213995   2.078   2.530  16.074 -0.4019  0.0362  0.0769
    2MPD1    C313996   1.946   2.474  16.076 -0.4273 -0.2242 -0.1164
    2MPD1    C413997   1.850   2.521  15.988  0.1989 -0.3215  0.7540
    2MPD1    C513998   1.879   2.628  15.905  0.0541  0.0755  0.5280
    2MPD1     H13999   2.156   2.497  16.141 -0.8784 -1.0569  0.0914
    2MPD1    H114000   1.750   2.480  15.986 -0.0747  0.2885  2.2726
    2MPD1    H214001   2.034   2.771  15.854 -0.4178  1.4322  1.4253
    2MPD1    H314002   1.800   2.651  15.835  0.6653 -0.6594 -0.3971
    2MPD1     N14003   1.918   2.361  16.160  0.0738 -0.8866 -0.6408
    2MPD1    H514004   1.989   2.336  16.228  1.4295 -1.1381 -2.1598
    2MPD1    N114005   2.221   2.712  16.016 -0.2459 -1.0210 -0.2333
    2MPD1    H614006   2.277   2.681  16.096 -1.5331 -0.2982  0.9472
    2MPD1    H714007   2.223   2.814  16.006  0.6555 -0.8364  1.6436
    3TMC3    C114008   1.809   2.204  16.281 -0.1421 -0.2338  0.1957
    3TMC3    C214009   1.732   2.086  16.275 -0.0591  0.1239 -0.7338
    3TMC3    C314010   1.707   2.028  16.395  0.2112 -0.3049 -0.0808
    3TMC3    C414011   1.856   2.261  16.400 -0.0364 -0.5431 -0.2685
    3TMC3    C514012   1.819   2.190  16.515  0.6343  0.1632  0.4051
    3TMC3    C614013   1.745   2.074  16.518  0.1335 -0.4794 -0.0082
    3TMC3     C14014   1.798   2.294  16.168 -0.6579  0.8299  0.2638
    3TMC3     O14015   1.687   2.305  16.114 -0.2101  0.1590  0.4955
    3TMC3     H14016   1.693   2.054  16.179  0.0252  2.2474 -1.4959
    3TMC3    H114017   1.906   2.357  16.403  0.9836 -1.0802 -0.0211
    3TMC3    H214018   1.714   2.025  16.610 -0.5211  0.3364  0.2061
    3TMC3    C714019   1.867   2.250  16.637  0.5628  0.2181  0.7945
    3TMC3    C814020   1.604   1.935  16.402  0.2291 -0.0120  0.1684
    3TMC3    O114021   1.888   2.369  16.638 -0.0089 -0.8927  0.6851
    3TMC3    O214022   1.536   1.943  16.499  0.2328  0.1904 -0.2055
    4MPD1     C14023   1.254   1.637  16.153 -0.0882 -0.7450  0.4497
    4MPD1    C114024   1.369   1.642  16.075  0.5696 -0.2852  0.5360
    4MPD1    C214025   1.477   1.717  16.126 -0.1428  0.4065 -0.2261
    4MPD1    C314026   1.477   1.777  16.252  0.0916  0.2990 -0.5272
    4MPD1    C414027   1.367   1.762  16.334  0.4601 -0.2465 -0.6240
    4MPD1    C514028   1.256   1.697  16.284 -0.0220  0.2517 -0.0238
    4MPD1     H14029   1.566   1.727  16.065 -0.3095  0.7092 -0.4229
    4MPD1    H114030   1.357   1.810  16.431  0.2439  1.5087 -1.5047
    4MPD1    H214031   1.160   1.589  16.127 -0.9845  0.9548  0.5937
    4MPD1    H314032   1.160   1.698  16.334 -0.1703  1.4543 -0.3374
    4MPD1     N14033   1.586   1.859  16.288  0.5661 -0.3014 -0.4944
    4MPD1    H514034   1.670   1.858  16.231  1.2829 -1.1358  0.5737
    4MPD1    N114035   1.359   1.586  15.948 -0.4626  0.2257 -0.3588
    4MPD1    H614036   1.451   1.558  15.916 -1.5380 -2.3447 -1.2080
    4MPD1    H714037   1.311   1.497  15.954 -0.4279  0.2480  0.3232
    1TCq1    O114038   2.855   1.049  11.924  0.1472 -0.2263  0.0539
    1TCq1    C114039   2.769   1.102  12.014 -0.3675  0.3748  0.0681
    1TCq1    O214040   2.707   1.046  12.104  0.1172 -0.1528  0.0799
    1TCq1    C214041   2.722   1.231  11.945 -0.1523  0.0201  0.0677
    1TCq1    C314042   2.797   1.289  11.843  0.3185 -0.0681  0.7512
    1TCq1    C414043   2.736   1.377  11.758 -0.2017 -0.0457 -0.6133
    1TCq1    C514044   2.613   1.438  11.798  0.6073  0.0688 -0.3131
    1TCq1    C614045   2.542   1.379  11.901 -0.4108 -0.0881 -0.0169
    1TCq1    C714046   2.591   1.270  11.970 -0.2025 -0.3564 -0.1038
    1TCq1    C814047   2.454   1.461  11.986 -0.5644  0.6489 -0.3473
    1TCq1    O414048   2.424   1.422  12.095 -0.1639  0.1536  0.3688
    1TCq1    C914049   2.824   1.440  11.659  0.0899  0.3981 -0.1116
    1TCq1    O514050   2.780   1.541  11.602 -0.1073  0.1026 -0.3298
    1TCq1    O614051   2.947   1.409  11.655 -0.6674 -0.1500  0.3610
    1TCq1    H114052   2.863   1.087  11.834  0.3698  3.0981  1.4654
    1TCq1    H214053   2.904   1.278  11.837 -0.0053 -2.2006 -1.2862
    1TCq1    H314054   2.574   1.526  11.748  1.0529  0.9988  0.9757
    1TCq1    H414055   2.542   1.218  12.053 -0.9168 -2.3194 -1.7513
    2MPD1     C14056   2.296   1.939  12.084  0.4539 -0.3305  0.1256
    2MPD1    C114057   2.333   1.930  11.954 -0.7325  0.6766 -0.0686
    2MPD1    C214058   2.391   1.820  11.906 -0.3077 -1.0003 -0.2038
    2MPD1    C314059   2.395   1.706  11.980 -0.4610  0.3591 -0.1662
    2MPD1    C414060   2.355   1.706  12.104 -0.1935  0.3041 -0.3988
    2MPD1    C514061   2.311   1.830  12.163 -0.0509 -0.0406  1.0642
    2MPD1     H14062   2.405   1.810  11.799  0.7003  0.0816 -0.1581
    2MPD1    H114063   2.358   1.619  12.169  0.8571  0.7439  0.1421
    2MPD1    H214064   2.247   2.027  12.124  1.7461  0.4931 -0.1097
    2MPD1    H314065   2.295   1.843  12.269 -0.0759 -1.4895  1.2300
    2MPD1     N14066   2.434   1.587  11.926 -0.5742  0.4168 -0.0646
    2MPD1    H514067   2.467   1.584  11.830  1.8287 -0.7546  0.7912
    2MPD1    N114068   2.334   2.046  11.871 -0.0049 -0.0606 -0.7053
    2MPD1    H614069   2.304   2.029  11.775  0.9935  1.7975 -1.3510
    2MPD1    H714070   2.262   2.114  11.896  1.7531  1.1583  0.9844
    1TCq1    O114071   4.372   0.708   1.346 -0.3278 -0.5186 -0.1068
    1TCq1    C114072   4.460   0.691   1.450  0.4287  0.3051 -0.3349
    1TCq1    O214073   4.488   0.779   1.531 -0.0323  0.1697  0.1718
    1TCq1    C214074   4.512   0.557   1.454 -0.1118 -0.7769 -0.1515
    1TCq1    C314075   4.526   0.510   1.584 -0.7713  0.7486 -0.5430
    1TCq1    C414076   4.578   0.382   1.589 -0.3228 -0.5890 -0.5090
    1TCq1    C514077   4.607   0.308   1.469 -0.1989 -0.0209  0.2803
    1TCq1    C614078   4.605   0.375   1.344 -0.1843  0.2733 -0.0111
    1TCq1    C714079   4.552   0.500   1.342 -0.7543  0.4515  0.4058
    1TCq1    C814080   4.672   0.306   1.234 -0.1506  0.3029 -0.3204
    1TCq1    O414081   0.004   0.201   1.267 -0.1863 -0.0377  0.2115
    1TCq1    C914082   4.558   0.309   1.713  0.4837 -0.1221  0.5045
    1TCq1    O514083   4.517   0.380   1.807  0.5279  0.4623 -0.3324
    1TCq1    O614084   4.624   0.204   1.712  0.0733  0.1367  0.4003
    1TCq1    H114085   4.350   0.618   1.311 -1.0294 -0.8319  1.1492
    1TCq1    H214086   4.477   0.557   1.668  0.0062 -0.5213  0.6150
    1TCq1    H314087   4.635   0.206   1.488 -1.9359 -0.4720  0.4291
    1TCq1    H414088   4.551   0.557   1.250 -2.0864 -0.0001  0.1381
    2MPD1     C14089   0.112   0.265   0.749 -0.0408  0.3733 -0.2962
    2MPD1    C114090   0.018   0.366   0.762 -0.2757 -0.0546 -0.2472
    2MPD1    C214091   4.671   0.380   0.880 -0.2244  0.3764 -0.6254
    2MPD1    C314092   4.716   0.323   0.999 -0.8827 -0.5153 -1.2456
    2MPD1    C414093   0.095   0.232   0.995 -0.7368 -0.6823 -0.1554
    2MPD1    C514094   0.148   0.208   0.869  0.1479 -0.4080 -0.5658
    2MPD1     H14095   4.580   0.439   0.880 -0.6656 -0.3062  0.8360
    2MPD1    H114096   0.128   0.175   1.081 -1.6047 -0.1303  0.5353
    2MPD1    H214097   0.163   0.249   0.654  2.2302  2.6713  0.5461
    2MPD1    H314098   0.222   0.129   0.859  0.2057 -0.4331  0.0751
    2MPD1     N14099   4.642   0.359   1.115  0.1627  0.3859 -0.9637
    2MPD1    H514100   4.571   0.431   1.104  0.7877  0.9927 -1.0255
    2MPD1    N114101   4.690   0.416   0.645 -0.6981 -0.1073  0.3063
    2MPD1    H614102   0.041   0.445   0.582 -2.6186  1.3328 -1.2516
    2MPD1    H714103   4.638   0.503   0.649  0.1518  0.4372 -0.4740
    1MPD1     C14104   3.504   1.193  12.178 -0.8318  0.0962  0.1095
    1MPD1    C114105   3.599   1.127  12.253 -0.0959 -0.2280  0.5964
    1MPD1    C214106   3.723   1.175  12.248 -0.2921  0.7857 -0.3893
    1MPD1    C314107   3.766   1.275  12.157  0.0213  0.1402  0.0627
    1MPD1    C414108   3.674   1.326  12.075  0.0841 -0.5581 -0.9773
    1MPD1    C514109   3.541   1.286  12.085  0.2193 -0.2842 -0.1761
    1MPD1     H14110   3.797   1.129  12.312  1.1037  1.6373 -1.3886
    1MPD1    H114111   3.704   1.368  11.979 -0.0747  0.5083 -0.5636
    1MPD1    H214112   3.403   1.159  12.161 -1.1828  1.5094 -0.5945
    1MPD1    H314113   3.462   1.316  12.017  0.0278 -1.3596 -0.4275
    1MPD1     N14114   3.897   1.320  12.162 -0.0106 -0.5447  0.1200
    1MPD1    H514115   3.964   1.270  12.220 -0.4849 -1.3835 -0.0613
    1MPD1    N114116   3.552   1.034  12.352  0.4310  0.4035  0.3132
    1MPD1    H614117   3.610   0.961  12.392  0.3708 -0.0159 -0.3571
    1MPD1    H714118   3.458   0.995  12.351  1.1760 -1.3622 -0.8566
    2MPD1     C14119   3.874   1.921  11.706 -0.5748  0.1254  0.4514
    2MPD1    C114120   3.840   1.936  11.574 -0.2322 -0.4505 -0.1972
    2MPD1    C214121   3.901   1.849  11.483 -0.9170 -0.2954  0.1808
    2MPD1    C314122   4.004   1.757  11.522 -0.9904  0.0798 -0.2146
    2MPD1    C414123   4.042   1.753  11.650 -0.1191  0.2781 -0.2750
    2MPD1    C514124   3.973   1.833  11.742  0.5477 -0.0354  0.5721
    2MPD1     H14125   3.882   1.845  11.377 -0.3287  0.7415  0.0353
    2MPD1    H114126   4.115   1.681  11.685  0.2885 -0.7923 -3.3451
    2MPD1    H214127   3.816   1.969  11.784 -2.4105 -0.6946 -0.4036
    2MPD1    H314128   3.992   1.822  11.848  0.2090  0.5952  0.6990
    2MPD1     N14129   4.073   1.662  11.441  0.9093  1.2142 -0.0734
    2MPD1    H514130   4.137   1.598  11.488 -1.1693 -0.9615 -0.2493
    2MPD1    N114131   3.737   2.021  11.527  0.4840 -0.5671  0.1298
    2MPD1    H614132   3.736   2.046  11.428  1.4995 -1.0900 -0.0126
    2MPD1    H714133   3.723   2.104  11.584  0.6641 -1.2780  1.2121
    3MPD1     C14134   4.275   1.232  10.435 -0.5565 -0.3071 -0.5693
    3MPD1    C114135   4.350   1.341  10.471 -0.2396  0.1363  0.4804
    3MPD1    C214136   4.332   1.406  10.593  0.1644  0.4394 -0.2466
    3MPD1    C314137   4.253   1.354  10.688  0.0931 -1.1713  0.2069
    3MPD1    C414138   4.211   1.223  10.664 -0.2242  0.1266 -0.1820
    3MPD1    C514139   4.211   1.171  10.533 -0.1287 -0.3134 -0.4635
    3MPD1     H14140   4.384   1.500  10.606 -1.0943  1.1499 -0.4049
    3MPD1    H114141   4.169   1.163  10.744 -0.2732  1.2910  0.6622
    3MPD1    H214142   4.266   1.185  10.337  0.1095 -0.9460 -0.3259
    3MPD1    H314143   4.173   1.069  10.524 -0.6879 -0.0935 -0.5824
    3MPD1     N14144   4.255   1.407  10.824  0.2727 -0.5732  0.0813
    3MPD1    H514145   4.302   1.496  10.840 -0.6220 -0.0735 -0.1192
    3MPD1    N114146   4.426   1.403  10.370 -0.0209  0.3832  0.7518
    3MPD1    H614147   4.458   1.332  10.303 -0.7151 -0.5493  1.4088
    3MPD1    H714148   4.509   1.447  10.409  0.3970  0.6081 -0.3755
    4MPD2     C14149   4.507   1.924  12.013  0.6269  0.3927 -0.3058
    4MPD2    C114150   4.506   1.789  12.044  0.5315 -0.0281 -0.8381
    4MPD2    C214151   4.632   1.721  12.033 -0.1957  0.0618 -0.2243
    4MPD2    C314152   0.020   1.788  11.973 -0.7870 -0.6634 -0.3129
    4MPD2    C414153   0.013   1.921  11.947  1.0012 -0.0126 -0.2080
    4MPD2    C514154   4.618   1.990  11.969  0.0979  0.2523 -0.5032
    4MPD2     H14155   4.630   1.617  12.062  0.1552  0.4445  1.1781
    4MPD2    H114156   0.097   1.979  11.911  0.8342 -1.4327 -2.8176
    4MPD2    H214157   4.420   1.986  12.027  0.0211 -0.5912  0.3511
    4MPD2    H314158   4.628   2.094  11.944 -0.3218  0.5172  0.4216
    4MPD2     N14159   0.139   1.721  11.947 -0.6654  0.1380  0.0660
    4MPD2    H514160   0.224   1.772  11.925 -1.5699  1.0831 -1.2337
    4MPD2    N114161   4.402   1.723  12.112  0.6299  0.3659 -0.5814
    4MPD2    H714162   4.427   1.625  12.126  1.2452  0.4547 -1.0568
    5TMC3    C114163   4.215   1.649  12.215 -0.1312  0.3640 -0.3442
    5TMC3    C214164   4.093   1.608  12.162 -0.3938 -0.5160  0.1932
    5TMC3    C314165   4.074   1.478  12.159  0.3421  0.1329  0.6025
    5TMC3    C414166   4.303   1.567  12.276  0.1899 -0.1158 -0.1407
    5TMC3    C514167   4.280   1.434  12.272  0.6656  0.6232  0.4523
    5TMC3    C614168   4.164   1.387  12.211  0.4814 -0.0971  0.1292
    5TMC3     C14169   4.279   1.760  12.158  0.5353  0.4294  0.6798
    5TMC3     O14170   4.217   1.861  12.134 -0.1636 -0.3418  0.0970
    5TMC3     H14171   4.020   1.673  12.116  0.3101 -1.0699 -1.7141
    5TMC3    H114172   4.389   1.609  12.327  0.3438  1.5256 -1.7442
    5TMC3    H214173   4.168   1.284  12.178 -1.2968  0.4923 -1.9560
    5TMC3    C714174   4.404   1.382  12.212 -0.2890 -0.2190 -0.1377
    5TMC3    C814175   3.940   1.443  12.114  0.0437 -0.2747  0.8513
    5TMC3    O114176   4.486   1.468  12.184  0.7405  0.1717  0.3305
    5TMC3    O214177   3.876   1.521  12.050 -0.4931  0.0773  0.0609
    6TMC3    C114178   4.154   1.544  11.256 -0.1576 -0.4597  0.4051
    6TMC3    C214179   4.119   1.490  11.133  0.0619 -0.5349 -0.7144
    6TMC3    C314180   4.218   1.448  11.047  0.8319  0.4358 -1.2825
    6TMC3    C414181   4.288   1.568  11.286 -0.8227  0.4496  0.4386
    6TMC3    C514182   4.382   1.518  11.201  0.6886 -0.2103 -0.1398
    6TMC3    C614183   4.354   1.460  11.082 -0.9215 -0.1454  0.1973
    6TMC3     C14184   4.062   1.646  11.307 -0.1356 -0.3346  0.0284
    6TMC3     O14185   4.006   1.718  11.225  0.0400  0.0249 -0.3726
    6TMC3     H14186   4.020   1.493  11.090  0.2918  0.6330 -1.1594
    6TMC3    H114187   4.329   1.619  11.373  0.4422 -2.0581  1.2950
    6TMC3    H214188   4.427   1.424  11.010 -1.5952 -0.8118 -0.1553
    6TMC3    C714189   4.517   1.514  11.256 -0.5635 -0.2781  0.4005
    6TMC3    C814190   4.176   1.367  10.934  0.2193  0.1839  0.3597
    6TMC3    O114191   4.551   1.612  11.323 -0.4387  0.1158  0.3123
    6TMC3    O214192   4.087   1.285  10.951  0.1200  0.2164  0.6584
    7MPD2     C14193   0.006   1.025  12.024 -0.1587 -0.1282 -0.0444
    7MPD2    C114194   0.018   1.162  12.041  0.2866  0.3330  0.0549
    7MPD2    C214195   4.645   1.235  12.109 -0.2618  0.2767 -0.3580
    7MPD2    C314196   4.531   1.175  12.157 -0.2260  1.2572  0.7686
    7MPD2    C414197   4.518   1.039  12.141 -0.0537 -0.1744  0.6736
    7MPD2    C514198   4.616   0.970  12.078  0.1649  0.9203  0.5637
    7MPD2     H14199   4.654   1.342  12.117 -1.2227  0.4071 -1.0086
    7MPD2    H114200   4.423   0.989  12.159  0.7911 -1.8176  0.6152
    7MPD2    H214201   0.083   0.961  11.984  0.3821  0.1512  0.5483
    7MPD2    H314202   4.596   0.863  12.077 -3.4282  1.5905 -0.6728
    7MPD2     N14203   4.415   1.246  12.208  0.2515 -1.1819 -0.3995
    7MPD2    H514204   4.341   1.188  12.249 -1.2665 -1.0588 -2.9625
    7MPD2    N114205   0.131   1.238  12.000 -0.6849  0.3003 -0.0754
    7MPD2    H714206   0.127   1.338  12.015 -2.1856  0.0978  0.9666
    8TMC3    C114207   0.321   1.314  11.889 -0.4008  0.7103 -0.7872
    8TMC3    C214208   0.321   1.331  11.754 -0.4875 -0.0927  0.1330
    8TMC3    C314209   0.312   1.458  11.702 -0.5343 -0.2469 -0.2420
    8TMC3    C414210   0.304   1.415  11.974  1.1718 -0.1282 -0.3328
    8TMC3    C514211   0.289   1.544  11.930  0.8928 -0.0784 -0.6726
    8TMC3    C614212   0.304   1.567  11.790 -0.3503  0.3604 -0.0210
    8TMC3     C14213   0.246   1.195  11.931 -0.3032  0.2253 -0.2530
    8TMC3     O14214   0.244   1.092  11.864  1.2419  0.0163  0.0076
    8TMC3     H14215   0.314   1.244  11.690 -1.2588 -0.1745  0.3304
    8TMC3    H114216   0.297   1.383  12.077  2.6989  3.7997  0.9548
    8TMC3    H214217   0.272   1.661  11.746  0.1473 -0.1545 -1.4729
    8TMC3    C714218   0.165   1.593  11.974  0.0439 -0.0841 -0.5706
    8TMC3    C814219   0.243   1.474  11.576  0.1598  0.2912 -0.1039
    8TMC3    O114220   0.097   1.505  12.022  0.5413  0.6150 -0.1892
    8TMC3    O214221   0.175   1.578  11.560 -0.1014  0.3873  0.7445
    9MPD2     C14222   0.212   1.241  11.297 -0.0755  0.2285  0.1299
    9MPD2    C114223   0.170   1.337  11.383 -0.0559 -0.7005  0.0074
    9MPD2    C214224   0.049   1.402  11.357  0.4270 -0.4736  0.0237
    9MPD2    C314225   4.709   1.369  11.236 -0.6235  0.3946 -0.1284
    9MPD2    C414226   0.035   1.270  11.153  0.7168  0.4518  0.0732
    9MPD2    C514227   0.153   1.220  11.181  0.4413  0.2759  0.9597
    9MPD2     H14228   0.007   1.471  11.428  0.0725  0.4319 -1.0692
    9MPD2    H114229   4.706   1.243  11.061 -0.2344 -0.1914  0.7933
    9MPD2    H214230   0.317   1.219  11.311 -0.1651 -0.0560  0.3568
    9MPD2    H314231   0.211   1.171  11.104 -0.7356  0.9191 -0.3364
    9MPD2     N14232   4.580   1.412  11.196 -0.3889  0.6687  0.9803
    9MPD2    H514233   4.527   1.363  11.125 -0.0068  1.8684 -0.1310
    9MPD2    N114234   0.252   1.365  11.495  0.2891  0.5777  0.0651
    9MPD2    H714235   0.336   1.308  11.505  1.0044  1.8738  1.4619
    1MPD1     C14236   4.282   0.956  17.285 -0.1283  0.1680  0.7416
    1MPD1    C114237   4.281   1.081  17.344 -0.2454  0.6405 -0.3568
    1MPD1    C214238   4.224   1.191  17.278  0.0932  0.1843 -0.0787
    1MPD1    C314239   4.127   1.171  17.180 -0.5700 -0.2200 -0.4147
    1MPD1    C414240   4.110   1.043  17.131 -0.4417 -0.5654  0.0692
    1MPD1    C514241   4.186   0.937  17.180  0.2209  0.0578 -0.2064
    1MPD1     H14242   4.227   1.286  17.330  1.2726 -0.9686  1.9406
    1MPD1    H114243   4.036   1.014  17.057 -0.2523  2.8999 -1.5121
    1MPD1    H214244   4.352   0.877  17.307  1.2285  1.2547  0.3717
    1MPD1    H314245   4.178   0.841  17.129 -1.3422  0.3013 -0.4185
    1MPD1     N14246   4.061   1.276  17.115 -0.0575  0.2992  0.4545
    1MPD1    H514247   4.019   1.253  17.025  3.7589 -0.8976 -1.0032
    1MPD1    N114248   4.382   1.107  17.444  0.3727  0.2508 -0.5591
    1MPD1    H614249   4.396   1.019  17.492  0.5681  0.9581  0.6708
    1MPD1    H714250   4.361   1.177  17.515 -1.4563 -1.7866  0.9181
    2MPD1     C14251   3.585   1.533  16.277  0.2784 -0.0773  0.1127
    2MPD1    C114252   3.648   1.651  16.310  0.3818 -0.3052  0.5162
    2MPD1    C214253   3.718   1.650  16.433 -0.4136 -0.0993 -0.2489
    2MPD1    C314254   3.711   1.540  16.520  0.0808 -0.8139 -0.2770
    2MPD1    C414255   3.644   1.429  16.480 -0.3835  0.1112 -0.3126
    2MPD1    C514256   3.584   1.423  16.359 -0.6049 -0.5412  0.3368
    2MPD1     H14257   3.776   1.738  16.456  0.8068 -1.2593  1.0738
    2MPD1    H114258   3.646   1.337  16.537 -0.5930 -0.1591 -0.7453
    2MPD1    H214259   3.534   1.524  16.182  0.8362  0.6053 -0.2490
    2MPD1    H314260   3.530   1.331  16.340 -1.8850  0.0494  1.1389
    2MPD1     N14261   3.769   1.560  16.649 -0.7166 -0.3438 -0.1001
    2MPD1    H514262   3.813   1.651  16.660 -2.9176  0.7805 -0.6032
    2MPD1    N114263   3.666   1.753  16.215 -0.1723  0.4053 -0.0788
    2MPD1    H614264   3.706   1.841  16.248  0.6980  0.1210 -0.3751
    2MPD1    H714265   3.590   1.765  16.148 -0.4043 -0.2050  0.0805
    3TCq2    C114266   3.783   1.465  16.747 -0.0729  0.1585 -0.2285
    3TCq2    O214267   3.758   1.346  16.738 -0.3680 -0.5525 -0.0293
    3TCq2    C214268   3.841   1.522  16.865  0.1186 -0.0847  0.1082
    3TCq2    C314269   3.821   1.653  16.894 -0.4059  0.3287 -0.3459
    3TCq2    C414270   3.896   1.702  16.994  0.1465 -0.4898 -0.5862
    3TCq2    C514271   3.982   1.621  17.070  0.3384 -0.0467 -0.2980
    3TCq2    C614272   3.995   1.489  17.043  0.0526  1.0725 -0.1451
    3TCq2    C714273   3.915   1.440  16.947 -0.1962 -0.6612  0.7191
    3TCq2    C814274   4.071   1.409  17.134  0.9289  0.2142  0.1230
    3TCq2    O414275   4.121   1.466  17.227  0.6349 -0.1617 -0.4422
    3TCq2    C914276   3.890   1.840  17.032 -0.2519 -0.0781  0.4982
    3TCq2    O514277   3.995   1.884  17.090 -0.0529 -0.1403 -0.6087
    3TCq2    O614278   3.813   1.908  16.957 -0.6061  0.1813  0.0220
    3TCq2    H214279   3.759   1.719  16.834  0.5050 -0.0864 -1.7451
    3TCq2    H314280   4.041   1.660  17.152 -1.8242 -0.1669  1.3234
    3TCq2    H414281   3.906   1.334  16.925  0.4450 -0.8026  1.1134
    1TCq1    O114282   1.788   4.663  13.294 -0.3735  0.0973  0.3656
    1TCq1    C114283   1.920   4.703  13.276  0.4212 -0.1447  0.0945
    1TCq1    O214284   1.964   0.041  13.178  0.2071  0.1535 -0.0194
    1TCq1    C214285   2.009   4.625  13.363 -0.0059  0.3406  0.1153
    1TCq1    C314286   1.988   4.493  13.367 -0.0126  0.0571 -0.0495
    1TCq1    C414287   2.096   4.409  13.400 -0.3327 -0.0796  0.2689
    1TCq1    C514288   2.225   4.449  13.396 -0.2752 -0.5755 -0.4422
    1TCq1    C614289   2.244   4.587  13.376 -0.3342 -0.4551 -0.1488
    1TCq1    C714290   2.139   4.671  13.361 -0.0521  1.0334 -0.0331
    1TCq1    C814291   2.380   4.645  13.395 -0.4880  0.0555 -0.2906
    1TCq1    O414292   2.411   0.016  13.321 -0.6456  0.5788 -0.4107
    1TCq1    C914293   2.065   4.274  13.403  0.8451  0.3313  0.3768
    1TCq1    O514294   1.940   4.250  13.402  0.6887  0.0443  0.6760
    1TCq1    O614295   2.158   4.205  13.354 -0.1766 -0.1842 -0.2875
    1TCq1    H114296   1.763   4.615  13.375 -0.2421  0.2827  0.5164
    1TCq1    H214297   1.887   4.454  13.363 -0.4221  0.8445  2.8436
    1TCq1    H314298   2.301   4.374  13.412 -0.9355 -1.3518 -0.9124
    1TCq1    H414299   2.155   0.055  13.356  2.0452  0.8391  2.3736
    2MPD2     C14300   2.671   4.675  13.434 -0.3971  0.0112 -0.3863
    2MPD2    C114301   2.592   4.597  13.512  0.1838 -0.0905 -0.3218
    2MPD2    C214302   2.644   4.542  13.626 -0.5938  0.0276 -0.3000
    2MPD2    C314303   2.777   4.558  13.652 -0.3124  0.4362 -0.0534
    2MPD2    C414304   2.855   4.645  13.573  0.0655  0.4984  0.0638
    2MPD2    C514305   2.802   4.712  13.472  0.5951  0.0413 -0.6765
    2MPD2     H14306   2.590   4.476  13.693 -0.8452  2.5113  1.9669
    2MPD2    H114307   2.961   4.664  13.585  0.5191 -1.9313 -0.1281
    2MPD2    H214308   2.630   4.717  13.343 -0.8532 -1.0504 -0.6776
    2MPD2    H314309   2.861   0.063  13.420  0.2483  0.3087 -0.6906
    2MPD2     N14310   2.834   4.489  13.767  0.8400  0.0076 -0.9110
    2MPD2    H514311   2.780   4.414  13.809  3.1701 -1.3672 -0.3647
    2MPD2    N114312   2.456   4.574  13.486  0.1418  0.3047  0.3869
    2MPD2    H714313   2.418   4.494  13.534  1.5064  0.0678  1.0722
    3TCq1    O114314   3.086   4.695  14.260 -0.2234  0.6249 -0.2412
    3TCq1    C114315   3.160   4.571  14.263  0.9262  0.5918  1.0843
    3TCq1    O214316   3.238   4.540  14.350  0.3691  0.4577 -0.3896
    3TCq1    C214317   3.097   4.484  14.162 -0.4340  0.7193  0.4004
    3TCq1    C314318   3.081   4.353  14.178 -0.3167  0.6386  0.0603
    3TCq1    C414319   3.007   4.288  14.083  0.5917 -0.0033 -0.2283
    3TCq1    C514320   2.971   4.341  13.965 -0.3896  0.5900  0.1151
    3TCq1    C614321   2.999   4.469  13.945  0.8315 -0.1145  0.1023
    3TCq1    C714322   3.060   4.545  14.042 -0.9372 -0.2674 -0.0037
    3TCq1    C814323   2.948   4.546  13.828  0.3364 -0.6555 -0.5550
    3TCq1    O414324   2.995   4.658  13.814 -0.3199  0.4394 -0.3189
    3TCq1    C914325   2.995   4.144  14.106  0.4428  0.1823  0.2948
    3TCq1    O514326   2.955   4.079  14.008  0.5274  0.1783 -0.2101
    3TCq1    O614327   3.024   4.099  14.218  0.3580 -0.2275 -0.0518
    3TCq1    H114328   3.026   4.700  14.183 -1.6667 -3.0110  0.6423
    3TCq1    H214329   3.109   4.297  14.267  1.4701 -0.3063 -1.1266
    3TCq1    H314330   2.926   4.271  13.895  0.8455 -0.1741  0.0713
    3TCq1    H414331   3.082   4.649  14.021 -2.0328 -0.2317 -1.0139
    1MPD2     C14332   1.934   0.538  14.415  0.3432  0.4464  0.1143
    1MPD2    C114333   1.816   0.500  14.470  0.0783  0.2627  0.0938
    1MPD2    C214334   1.819   0.415  14.575 -0.3666 -0.1004  0.2688
    1MPD2    C314335   1.938   0.348  14.607  0.2101  0.1933  0.3107
    1MPD2    C414336   2.047   0.378  14.537 -0.2959  0.0286 -0.5795
    1MPD2    C514337   2.048   0.469  14.440  0.2776 -0.5051  0.1473
    1MPD2     H14338   1.729   0.382  14.625  0.6999 -1.9650  0.9281
    1MPD2    H114339   2.138   0.324  14.561 -0.3400  0.4104  0.4372
    1MPD2    H214340   1.939   0.621  14.346 -0.1610 -1.3118 -2.0162
    1MPD2    H314341   2.135   0.507  14.388 -1.1463  0.7451 -1.3323
    1MPD2     N14342   1.954   0.252  14.709  0.0279 -0.8609  0.6222
    1MPD2    H514343   2.045   0.209  14.722  0.3988 -0.1532  0.4094
    1MPD2    N114344   1.694   0.549  14.412  0.0825  1.0709  0.0668
    1MPD2    H714345   1.700   0.602  14.326 -0.7642  1.7625  0.4363
    2TMC3    C114346   1.458   0.571  14.386 -0.8078  0.5702  0.1776
    2TMC3    C214347   1.370   0.465  14.363 -0.2581 -0.3652 -0.2790
    2TMC3    C314348   1.238   0.482  14.394 -0.3809  0.0248  0.0992
    2TMC3    C414349   1.411   0.697  14.402 -0.2722 -0.0265 -0.4382
    2TMC3    C514350   1.272   0.714  14.415 -0.4329 -0.6646  0.2667
    2TMC3    C614351   1.192   0.605  14.428 -0.1337 -0.3944 -0.9412
    2TMC3     C14352   1.564   0.531  14.465 -0.3858  0.0105  0.2001
    2TMC3     O14353   1.533   0.454  14.557  0.6799  0.6099  0.2685
    2TMC3     H14354   1.410   0.369  14.336 -1.8312 -1.4463  1.1893
    2TMC3    H114355   1.484   0.777  14.412 -1.2354  0.9246 -0.9681
    2TMC3    H214356   1.086   0.622  14.442 -0.0177 -1.1036  0.7764
    2TMC3    C714357   1.214   0.839  14.367 -0.1307  0.3765 -0.5930
    2TMC3    C814358   1.181   0.390  14.481 -0.2384  0.7413 -0.4608
    2TMC3    O114359   1.095   0.842  14.326 -0.5201  0.8058 -0.3249
    2TMC3    O214360   1.071   0.414  14.527  0.5475 -0.2166 -0.1125
    3TCq1    O114361   1.902   1.648  13.859  0.5699  0.0428  0.0914
    3TCq1    C114362   1.967   1.586  13.956  0.0119  0.2852  0.2503
    3TCq1    O214363   2.090   1.578  13.962 -0.2962  0.2796 -0.0018
    3TCq1    C214364   1.882   1.574  14.068  0.2748  0.2201 -0.2390
    3TCq1    C314365   1.947   1.571  14.191  0.7169  0.0578 -0.5935
    3TCq1    C414366   1.875   1.530  14.300  0.4409  0.1913 -0.5385
    3TCq1    C514367   1.746   1.489  14.296 -0.0289  0.7470  0.4489
    3TCq1    C614368   1.690   1.504  14.174 -0.2088 -0.0358 -0.0871
    3TCq1    C714369   1.751   1.555  14.059  0.3297  0.2850 -0.2606
    3TCq1    C814370   1.559   1.455  14.154  1.0678 -0.6717 -0.7553
    3TCq1    O414371   1.502   1.499  14.058  0.4377 -0.0974  0.4225
    3TCq1    C914372   1.947   1.508  14.421  0.5583  0.5936 -0.3211
    3TCq1    O514373   2.070   1.497  14.421  0.0370  0.0033 -0.4461
    3TCq1    O614374   1.880   1.460  14.514 -0.2477 -0.3925 -0.5116
    3TCq1    H114375   1.807   1.663  13.877  0.4582 -0.5862  0.0258
    3TCq1    H214376   2.052   1.592  14.206  0.4868  2.0671 -1.8834
    3TCq1    H314377   1.691   1.457  14.385  0.8084 -1.0622  0.3246
    3TCq1    H414378   1.705   1.548  13.961 -0.0646 -1.1645  0.0283
    4MPD2     C14379   1.295   1.307  14.175  0.3297  0.1424  0.2146
    4MPD2    C114380   1.407   1.272  14.242 -0.0611 -0.5737 -0.2511
    4MPD2    C214381   1.406   1.154  14.315 -0.2643  0.4498  0.5911
    4MPD2    C314382   1.301   1.063  14.304 -0.2474 -0.8268  0.7465
    4MPD2    C414383   1.188   1.108  14.244  0.6385 -0.0176  0.2546
    4MPD2    C514384   1.184   1.227  14.181  0.2606  0.1228  0.6936
    4MPD2     H14385   1.495   1.122  14.369  0.6326  1.2446 -0.4323
    4MPD2    H114386   1.096   1.053  14.231  0.4986  0.2484  0.1318
    4MPD2    H214387   1.288   1.400  14.120 -2.0358 -0.1385  0.0333
    4MPD2    H314388   1.094   1.261  14.132  1.5852  0.3332 -1.6110
    4MPD2     N14389   1.308   0.939  14.375 -0.1793  0.4041  0.1749
    4MPD2    H514390   1.389   0.917  14.432  0.1890 -0.4897 -0.6948
    4MPD2    N114391   1.525   1.351  14.242 -0.0673  0.2626 -0.3092
    4MPD2    H714392   1.604   1.316  14.295  1.5629  1.5622 -1.8408
    5TMC2    C114393   1.704   4.681  14.952 -0.1363  0.0028 -0.2727
    5TMC2    C214394   1.764   4.568  14.903 -0.0524  0.2389 -0.3535
    5TMC2    C314395   1.880   4.592  14.833  0.1362  0.6191 -0.0766
    5TMC2    C414396   1.766   0.084  14.960  0.4793  0.2690 -0.4845
    5TMC2    C514397   1.880   0.103  14.885 -0.1154  0.0704 -0.1993
    5TMC2    C614398   1.946   4.713  14.836  0.2256 -0.5906 -0.2051
    5TMC2     C14399   1.562   4.683  14.926 -0.0966 -0.1274  0.2679
    5TMC2     O14400   1.502   4.580  14.956  0.1908  0.5641 -0.3522
    5TMC2     H14401   1.705   4.477  14.905 -0.4416  0.5002  0.1661
    5TMC2    H114402   1.709   0.162  15.008  0.5657 -0.4767  0.8413
    5TMC2    H214403   2.030   0.003  14.769 -0.4907 -0.1040 -1.0147
    5TMC2    C714404   1.851   0.217  14.796 -0.2160 -0.2117  0.2728
    5TMC2    C814405   1.949   4.492  14.752  0.1049 -0.5940  0.3296
    5TMC2    O114406   1.736   0.253  14.798 -0.0539 -0.6357  0.3641
    5TMC2    O214407   2.057   4.509  14.706 -0.7158  0.8472 -0.1209
    5TMC2    O514408   1.893   4.371  14.768 -0.2086  0.0136  0.4229
    5TMC2    H514409   1.796   4.370  14.753 -0.5372  0.4814  2.5801
    6MPD2     C14410   1.153   0.173  14.682 -0.3557  0.4871  0.3855
    6MPD2    C114411   1.271   0.231  14.649  0.6407  0.2256  0.4124
    6MPD2    C214412   1.395   0.194  14.713 -0.6236  0.1187 -0.5134
    6MPD2    C314413   1.390   0.110  14.820 -0.1995  0.2320 -0.4917
    6MPD2    C414414   1.275   0.037  14.848  0.0141  0.7675  0.2320
    6MPD2    C514415   1.158   0.069  14.778 -0.0313 -0.7402  0.3983
    6MPD2     H14416   1.489   0.228  14.673 -0.0595 -1.7808 -0.7851
    6MPD2    H114417   1.272   4.699  14.938  2.0831 -0.4323 -0.5171
    6MPD2    H214418   1.061   0.181  14.626 -0.5762  1.7616  0.9296
    6MPD2    H314419   1.066   0.021  14.812 -1.4916  2.1678  0.5025
    6MPD2     N14420   1.523   0.077  14.871  0.1789 -0.3010  0.1909
    6MPD2    H514421   1.597   0.139  14.839  0.0319  0.4793  1.3372
    6MPD2    N114422   1.281   0.316  14.533 -0.1211 -0.1696  0.0177
    6MPD2    H714423   1.375   0.352  14.521 -0.1791  0.0126  0.1079
  945NH3     N114424   1.838   2.923  10.720  0.2809  0.1267  0.3030
  945NH3     H214425   1.901   2.843  10.727 -1.4234 -1.3479 -1.4479
  945NH3     H314426   1.804   2.939  10.814 -0.8943 -0.8997  0.0504
  945NH3     H414427   1.751   2.889  10.682 -0.7261  2.7758  0.2080
  946SOD     NA14428   4.419   3.478  13.900  0.4010 -0.3443 -0.3411
  947SOD     NA14429   3.678   3.871  14.304 -0.3009  0.2881  0.1275
  948SOD     NA14430   4.621   2.716   1.728 -0.1705  0.1173 -0.9222
  949SOD     NA14431   2.544   4.575  12.312 -0.3837 -0.0886 -0.3204
  950SOD     NA14432   1.897   3.883  10.334  0.1766 -0.4998 -0.2461
  951SOD     NA14433   0.764   2.184   3.613 -0.1073  0.0444  0.0116
  952SOD     NA14434   3.220   3.995  10.730  0.6160 -0.8537 -0.0221
  953SOD     NA14435   1.859   0.675  10.220  0.1443  0.4852 -0.3161
  954SOD     NA14436   3.664   0.113  11.665 -0.1925  0.3380 -0.3438
  955SOD     NA14437   3.456   0.679  13.604 -0.0143  0.4536  0.3702
  956SOD     NA14438   4.208   1.868  17.131  0.1513  0.0645 -0.2434
  957SOD     NA14439   3.076   1.565  11.749 -0.1353 -0.3736 -0.2134
  958SOD     NA14440   2.690   0.797   0.762  0.6813  0.1792 -0.1995
  959SOD     NA14441   3.210   4.075  14.324  0.3109  0.0079  0.6415
  960SOD     NA14442   1.746   4.254  13.313 -0.0236  0.2839 -0.1139
  961SOD     NA14443   2.557   2.142  11.890  0.1814  0.2884 -0.0263
  962SOD     NA14444   0.519   3.287  12.626 -0.2742  0.1395 -0.2047
  963SOD     NA14445   3.133   3.075  16.905  0.2675 -0.0326  0.2409
  964SOD     NA14446   2.710   3.242  12.480  0.0116  0.0899  0.1722
  965SOD     NA14447   3.146   4.393   0.197  0.1405 -0.1352  0.6451
  966SOD     NA14448   1.402   0.568  14.952  0.0702  0.3811 -0.3373
  967SOD     NA14449   3.265   1.291   2.345  0.0052  0.0226  0.8218
  968SOD     NA14450   0.529   0.457   0.376 -0.3702  0.0237 -0.1049
  969SOD     NA14451   0.661   4.204  11.475 -0.2505  0.0057  0.1470
  970SOD     NA14452   3.598   3.582   9.732  0.1072 -0.2644 -0.1782
  971SOD     NA14453   0.010   4.282  11.307 -0.1480  0.1921  0.4927
  972SOD     NA14454   2.598   1.511  11.062 -0.6542  0.1946 -0.4563
  973SOD     NA14455   1.990   3.345  10.210  0.0840 -0.3514  0.3799
  974SOD     NA14456   2.852   0.155  14.637  0.4104 -0.6315 -0.4514
  975SOD     NA14457   3.369   4.218   5.023 -0.3397 -0.0170  0.2329
  976SOD     NA14458   2.347   3.390  10.177  0.1776  0.3660 -0.1026
  977SOD     NA14459   2.567   3.746   6.258  0.3403 -0.2513 -0.1324
  978SOD     NA14460   0.813   3.827  17.491  0.1594  0.1107  0.0830
  979SOD     NA14461   4.144   2.967  14.640 -0.4080 -0.4693 -0.1360
  980SOD     NA14462   4.302   3.697   2.672  0.1983  0.3105 -0.0096
  981SOD     NA14463   3.761   0.944   7.101 -0.0737  0.1718 -0.0348
  982SOD     NA14464   2.264   3.951  10.404  0.5530  0.3744  0.3426
  983SOD     NA14465   4.530   1.859  10.178 -0.1240 -0.0086  0.1128
  984SOD     NA14466   2.844   4.141   8.048 -0.0789  0.4115  0.1471
  985SOD     NA14467   2.837   3.220   0.505 -0.3188  0.2387  0.0204
  986SOD     NA14468   4.222   4.347   5.442  0.3056  0.1804 -0.1476
  987SOD     NA14469   0.787   2.292   9.398  0.3507 -0.1544  0.2694
  988SOD     NA14470   3.927   3.880   9.190 -0.1777  0.4384 -0.0813
  989SOD     NA14471   4.469   0.670  16.176  0.0385  0.3978 -0.1004
  990SOD     NA14472   1.768   4.504  11.048  0.1924  0.1148  0.0567
  991SOD     NA14473   2.015   1.317  14.600 -0.0862 -0.1984 -0.0792
  992SOD     NA14474   2.006   4.042  13.315  0.2816 -0.1138 -0.1682
  993SOD     NA14475   2.112   1.142   4.141  0.4372 -0.2959 -0.2607
  994SOD     NA14476   2.137   3.637  10.262  0.0671  0.2921 -0.1697
  995SOD     NA14477   4.209   0.199  14.816  0.4529  0.0232  0.2948
  996SOD     NA14478   1.628   2.638   9.265  0.0208 -0.2170 -0.4168
  997SOD     NA14479   4.263   4.384   1.020 -0.0876 -0.1122  0.2068
  998SOD     NA14480   0.876   1.054  11.478  0.3741  0.0922 -0.3992
  999SOD     NA14481   1.322   3.705  15.161 -0.3362 -0.2754 -0.2045
 1000SOD     NA14482   3.847   0.244   1.810 -0.5766 -0.1794 -0.0009
 1001SOD     NA14483   2.921   4.002  13.802 -0.1887 -0.7744  0.5117
 1002SOD     NA14484   4.653   0.034  12.593 -0.0476 -0.1119 -0.2018
 1003SOD     NA14485   3.888   1.075  13.884 -0.1670  0.1357  0.1668
 1004SOD     NA14486   3.065   1.248  11.595  0.1232  0.0907 -0.0523
 1005SOD     NA14487   4.722   2.893  14.818 -0.4885 -0.4039 -0.2018
 1006SOD     NA14488   2.433   4.480  11.994  0.2146 -0.0840  0.6604
 1007SOD     NA14489   2.280   4.272  11.835  0.3581  0.2272 -0.4012
 1008SOD     NA14490   0.051   1.334  14.024 -0.3058  0.3526  0.0321
 1009SOD     NA14491   0.595   4.067  16.610  0.1066 -0.3886  0.9262
 1010SOD     NA14492   4.121   0.343   2.018 -0.0391 -0.4461 -0.1442
 1011SOD     NA14493   4.468   2.576   1.407  0.1985  0.1401  0.6938
 1012SOL     OW14494   3.776   1.927   4.331  1.0131 -0.0741  0.1283
 1012SOL    HW114495   3.736   1.933   4.418  1.9894  1.1427  0.5023
 1012SOL    HW214496   3.836   2.002   4.332  0.2059  0.6013 -1.1712
 1013SOL     OW14497   0.655   4.209   8.809  0.1981 -0.1239  0.3556
 1013SOL    HW114498   0.637   4.141   8.874  0.7828  1.3794  2.0929
 1013SOL    HW214499   0.681   4.280   8.868  0.3486 -0.2426  0.4318
 1014SOL     OW14500   3.993   0.554  16.982  0.0312 -0.1557 -0.1367
 1014SOL    HW114501   4.081   0.544  16.946  0.8088  0.1666  1.6502
 1014SOL    HW214502   4.003   0.496  17.057 -0.6640  1.0640  0.8934
 1015SOL     OW14503   0.389   3.735   2.445 -0.5986  0.6431  0.4992
 1015SOL    HW114504   0.469   3.736   2.497  1.2309 -0.8118 -2.3259
 1015SOL    HW214505   0.325   3.714   2.514 -1.2788  1.0204 -0.0142
 1016SOL     OW14506   1.553   0.535   6.397  0.3780  0.0627 -0.0487
 1016SOL    HW114507   1.559   0.629   6.383  0.4681  0.0248 -0.2800
 1016SOL    HW214508   1.642   0.513   6.422  1.6074  1.7510 -2.9225
 1017SOL     OW14509   1.054   1.142   4.446 -0.2155 -0.0603  0.1567
 1017SOL    HW114510   1.140   1.138   4.404  0.4841 -1.7781  1.7612
 1017SOL    HW214511   1.039   1.049   4.463 -1.4817  0.0637 -0.3376
 1018SOL     OW14512   3.803   2.441   4.685 -0.1306 -0.0091  0.0865
 1018SOL    HW114513   3.718   2.432   4.641 -0.1992  2.2654 -0.2190
 1018SOL    HW214514   3.811   2.536   4.690  1.4831 -0.1384 -0.2198
 1019SOL     OW14515   1.803   3.674   3.312  0.3456  0.0664  0.2103
 1019SOL    HW114516   1.839   3.727   3.383  1.1310  1.3279 -1.1041
 1019SOL    HW214517   1.833   3.723   3.235  1.4529  0.5891  0.9842
 1020SOL     OW14518   0.865   0.557   3.223 -0.1600 -0.6335 -0.3360
 1020SOL    HW114519   0.838   0.535   3.134  0.4913  1.6482 -1.0916
 1020SOL    HW214520   0.787   0.522   3.265 -0.7305  0.4457 -0.5189
 1021SOL     OW14521   0.078   1.750   4.032  0.3575 -0.4735 -0.1266
 1021SOL    HW114522   0.150   1.696   4.001  0.6385  0.7534 -1.6090
 1021SOL    HW214523   0.126   1.822   4.074  1.5283 -1.2678 -0.1213
 1022SOL     OW14524   2.574   3.191   0.132  0.1970  0.0899 -0.3717
 1022SOL    HW114525   2.523   3.233   0.201  2.3806 -1.5652  2.2665
 1022SOL    HW214526   2.624   3.260   0.090 -0.1263  0.4621 -0.1481
 1023SOL     OW14527   4.373   0.743   9.381  0.5795 -0.4546  0.8632
 1023SOL    HW114528   4.394   0.674   9.317  1.6179 -0.1619  0.8839
 1023SOL    HW214529   4.353   0.688   9.457 -1.9757 -0.2735  0.3060
 1024SOL     OW14530   3.142   0.029   1.071  0.6198  0.1566  0.3648
 1024SOL    HW114531   3.119   0.066   1.156  0.6293 -0.1358  0.4966
 1024SOL    HW214532   3.090   4.672   1.062  0.3220  0.2078  1.5681
 1025SOL     OW14533   3.511   2.903  13.502 -0.0621 -0.8632 -0.2772
 1025SOL    HW114534   3.526   2.981  13.556 -4.7229  0.1585 -0.5312
 1025SOL    HW214535   3.564   2.838  13.550 -2.8735 -0.2988  3.5619
 1026SOL     OW14536   0.207   2.201  16.236  0.2192 -0.1055 -0.2484
 1026SOL    HW114537   0.221   2.261  16.310  2.0263  0.4403 -1.0439
 1026SOL    HW214538   0.290   2.218  16.191  0.2175  2.2994  0.6304
 1027SOL     OW14539   1.521   1.331   7.070  0.3438 -0.3750 -0.3990
 1027SOL    HW114540   1.517   1.407   7.012 -1.4571  0.5890  0.9834
 1027SOL    HW214541   1.568   1.267   7.016 -1.7869 -2.7933  0.6053
 1028SOL     OW14542   3.510   3.394   6.855 -0.0181  0.2306  0.5341
 1028SOL    HW114543   3.565   3.472   6.849  1.2095 -0.7202 -0.5488
 1028SOL    HW214544   3.444   3.410   6.788  0.5338 -0.2987 -0.1337
 1029SOL     OW14545   3.666   2.694  12.894  0.1991  0.5732 -0.5603
 1029SOL    HW114546   3.678   2.786  12.917 -1.0668  0.5491  0.1603
 1029SOL    HW214547   3.630   2.702  12.806  0.2068  2.0900 -0.4259
 1030SOL     OW14548   3.069   4.086   7.689 -0.4838  0.1984  0.6044
 1030SOL    HW114549   3.110   4.047   7.766  0.3909 -0.2210 -0.0670
 1030SOL    HW214550   3.101   4.177   7.689  0.7968 -0.2457  0.0751
 1031SOL     OW14551   1.105   1.320  16.819  0.0899  0.0963  0.0883
 1031SOL    HW114552   1.069   1.382  16.754 -0.0479  0.7913  0.8274
 1031SOL    HW214553   1.086   1.366  16.901  1.2963  1.5030 -0.4009
 1032SOL     OW14554   0.988   2.901   3.685 -0.0335  0.0581 -0.2188
 1032SOL    HW114555   0.970   2.950   3.604  2.7947  0.8979 -0.3413
 1032SOL    HW214556   0.957   2.969   3.745 -0.1138  1.9817 -2.4262
 1033SOL     OW14557   1.349   3.560   1.307  0.0024 -0.0230  0.1881
 1033SOL    HW114558   1.399   3.638   1.283  1.0086 -0.9468 -0.7228
 1033SOL    HW214559   1.257   3.585   1.299  0.0961 -0.6158 -2.5746
 1034SOL     OW14560   0.295   4.170   2.932  0.6707  0.1123 -0.0508
 1034SOL    HW114561   0.334   4.210   2.854 -1.2109  0.7515 -0.6572
 1034SOL    HW214562   0.205   4.167   2.901  0.4804 -0.5807  0.5697
 1035SOL     OW14563   0.033   1.713   7.943 -0.8845  0.1141  0.0109
 1035SOL    HW114564   0.024   1.709   8.038 -0.1755  1.9831  0.1529
 1035SOL    HW214565   0.125   1.697   7.919 -0.6527  1.0999  0.2533
 1036SOL     OW14566   2.371   1.709   0.883 -0.7649  0.7750  0.4540
 1036SOL    HW114567   2.286   1.713   0.841 -0.5420  3.1692  0.1973
 1036SOL    HW214568   2.371   1.649   0.957 -0.8939 -0.9467 -0.9628
 1037SOL     OW14569   0.584   1.281  17.487  0.1676 -0.0584 -0.7590
 1037SOL    HW114570   0.656   1.238  17.534 -0.8166 -0.3757  0.4481
 1037SOL    HW214571   0.528   1.298  17.562  1.4861 -1.1679  0.4735
 1038SOL     OW14572   0.142   3.282  14.688 -0.2691  0.8471  0.2973
 1038SOL    HW114573   0.213   3.271  14.625 -0.1179  0.1703  0.5949
 1038SOL    HW214574   0.191   3.328  14.756  0.5354  0.4516 -0.0115
 1039SOL     OW14575   3.903   2.201   4.377  0.2535 -0.3446  0.0385
 1039SOL    HW114576   3.918   2.239   4.464 -1.6408  0.2446  0.1064
 1039SOL    HW214577   3.989   2.162   4.363  0.1177 -0.6247 -0.0145
 1040SOL     OW14578   1.616   3.396  16.947 -0.5911  0.5571 -0.0116
 1040SOL    HW114579   1.615   3.362  16.857  0.2999  1.7609 -0.4901
 1040SOL    HW214580   1.523   3.400  16.968 -0.4084  0.6031  0.7974
 1041SOL     OW14581   2.704   1.502   3.131  0.1612 -0.4984  0.0516
 1041SOL    HW114582   2.748   1.519   3.048 -0.4386 -0.8216 -0.3286
 1041SOL    HW214583   2.627   1.553   3.105  0.5806  0.7086  1.1544
 1042SOL     OW14584   0.907   0.947   8.676  0.8245 -0.2085 -0.2322
 1042SOL    HW114585   0.903   1.042   8.687 -0.9789 -0.3408  0.2113
 1042SOL    HW214586   0.874   0.940   8.586  2.2514  0.4269 -0.8154
 1043SOL     OW14587   0.312   2.880   3.293 -0.4392 -0.0977 -0.2671
 1043SOL    HW114588   0.383   2.842   3.344 -1.0197  0.1495  0.7285
 1043SOL    HW214589   0.332   2.974   3.298  0.5995 -0.3118 -0.4282
 1044SOL     OW14590   0.986   1.969   7.945 -0.0597 -0.6363  0.2582
 1044SOL    HW114591   0.961   1.980   8.037 -1.2183  1.7395 -0.3531
 1044SOL    HW214592   1.082   1.970   7.944 -0.0890  0.1731 -1.3934
 1045SOL     OW14593   2.456   3.383  15.949  0.3143  0.7295 -0.2528
 1045SOL    HW114594   2.472   3.438  16.026 -0.5466  0.1974  0.3074
 1045SOL    HW214595   2.518   3.312  15.963  1.3648  1.7622  0.2956
 1046SOL     OW14596   1.724   0.409   9.083 -0.0090 -0.2540  0.0204
 1046SOL    HW114597   1.645   0.367   9.049  1.4320 -2.9415 -0.0721
 1046SOL    HW214598   1.782   0.403   9.007 -0.9222 -0.1328 -0.6832
 1047SOL     OW14599   3.934   1.551   5.105  0.1188 -0.3277 -0.1055
 1047SOL    HW114600   3.845   1.563   5.071 -0.6571 -1.0540  1.6675
 1047SOL    HW214601   3.937   1.584   5.194 -0.7622 -0.1804 -0.1306
 1048SOL     OW14602   3.896   3.821  15.756  0.1301 -0.0615 -0.0327
 1048SOL    HW114603   3.926   3.749  15.700  0.5513 -2.3036  3.0682
 1048SOL    HW214604   3.818   3.860  15.715  2.2827  2.7589 -1.3983
 1049SOL     OW14605   3.329   2.554  14.115  0.4810 -0.3715  0.1641
 1049SOL    HW114606   3.387   2.586  14.046 -1.7140 -0.2029 -1.6036
 1049SOL    HW214607   3.392   2.501  14.164  0.3925  0.6147  1.3246
 1050SOL     OW14608   3.073   0.241  14.008  0.0134 -0.6963  0.0419
 1050SOL    HW114609   3.007   0.311  14.011 -1.4206 -1.9070 -2.8031
 1050SOL    HW214610   3.119   0.258  14.090  0.7451  1.4101 -0.8044
 1051SOL     OW14611   3.072   2.383   0.012 -0.0605  0.1423  0.4997
 1051SOL    HW114612   3.074   2.478   0.001 -2.5721  0.1488  0.1269
 1051SOL    HW214613   3.097   2.362   0.102 -1.5040  3.6206  1.7199
 1052SOL     OW14614   4.403   2.355   8.062  1.1904  0.0790 -0.1079
 1052SOL    HW114615   4.435   2.303   8.135 -3.2878 -1.3125  0.8484
 1052SOL    HW214616   4.363   2.427   8.111  1.2804 -0.0592  0.1672
 1053SOL     OW14617   4.678   2.387  12.795  0.2648  0.4660 -0.0485
 1053SOL    HW114618   4.627   2.457  12.754 -1.3049  0.2942  1.6196
 1053SOL    HW214619   4.613   2.344  12.851  0.8177 -2.1424 -1.3961
 1054SOL     OW14620   1.778   1.562   7.527 -0.5418  0.5579  0.1610
 1054SOL    HW114621   1.762   1.586   7.436  0.8539 -1.1557 -0.5318
 1054SOL    HW214622   1.705   1.500   7.536 -1.6574  1.4986 -2.4906
 1055SOL     OW14623   2.937   3.909  11.394  0.1951 -0.0117  0.4748
 1055SOL    HW114624   3.026   3.898  11.362 -1.0067  0.7673 -3.1711
 1055SOL    HW214625   2.911   3.825  11.430 -1.5804  0.5712  0.5755
 1056SOL     OW14626   3.883   3.575   2.662 -0.0404  0.2453  0.1724
 1056SOL    HW114627   3.794   3.596   2.635 -0.7501 -2.2417  0.5644
 1056SOL    HW214628   3.882   3.479   2.657  0.2151  0.2628 -0.1963
 1057SOL     OW14629   2.660   1.313  14.679  0.3843  0.2287 -0.4089
 1057SOL    HW114630   2.687   1.221  14.678 -0.4524 -0.0047 -1.6437
 1057SOL    HW214631   2.665   1.339  14.587  3.2147 -1.8818 -0.8474
 1058SOL     OW14632   3.682   0.355   1.699 -0.2318  0.2098 -0.1112
 1058SOL    HW114633   3.592   0.322   1.708 -0.0841  0.0877  0.9466
 1058SOL    HW214634   3.687   0.366   1.604 -1.1510 -1.1003 -0.3103
 1059SOL     OW14635   2.181   3.842   4.987  0.1738 -0.0193  0.0703
 1059SOL    HW114636   2.171   3.924   4.939 -0.2686  0.8852  1.7163
 1059SOL    HW214637   2.242   3.880   5.050  1.4487 -0.5110 -0.8513
 1060SOL     OW14638   3.172   2.020   7.581 -0.1657  0.2742 -1.0830
 1060SOL    HW114639   3.216   1.988   7.502  0.9728  1.8203 -1.0944
 1060SOL    HW214640   3.121   2.094   7.548 -0.1250  0.2357 -1.2345
 1061SOL     OW14641   4.309   1.644   6.157 -0.0406  0.0593  0.6878
 1061SOL    HW114642   4.245   1.584   6.119  0.0043  2.0118 -2.4756
 1061SOL    HW214643   4.281   1.724   6.113 -3.6397 -2.3187 -1.3934
 1062SOL     OW14644   2.104   0.182  13.013  0.1422 -0.3183  0.3628
 1062SOL    HW114645   2.071   0.133  13.088 -0.7199  0.9853  0.8384
 1062SOL    HW214646   2.187   0.209  13.050  0.2232  0.6813 -0.5283
 1063SOL     OW14647   2.807   0.653   8.253 -0.3111  0.0730  0.5081
 1063SOL    HW114648   2.842   0.718   8.193  1.2628 -0.7856  0.4852
 1063SOL    HW214649   2.814   0.706   8.333 -0.6619  1.1246 -0.1585
 1064SOL     OW14650   0.727   3.238  10.190 -0.5671  0.2944  0.5089
 1064SOL    HW114651   0.709   3.144  10.178 -1.6646  0.6521 -0.6776
 1064SOL    HW214652   0.789   3.242  10.262  2.8812 -0.8796 -2.4143
 1065SOL     OW14653   0.574   0.406  16.159  0.5659 -0.6885  0.5524
 1065SOL    HW114654   0.583   0.501  16.168 -1.0315 -0.6298  1.5099
 1065SOL    HW214655   0.511   0.385  16.228  0.5262 -0.8752  0.4609
 1066SOL     OW14656   0.232   2.032   7.193  0.2259  0.0919 -0.0773
 1066SOL    HW114657   0.179   1.957   7.217  0.3516  0.5126  1.5129
 1066SOL    HW214658   0.178   2.088   7.137  0.1803  0.6272  0.5069
 1067SOL     OW14659   0.983   2.637  11.735 -0.1266 -0.1754 -0.4545
 1067SOL    HW114660   1.034   2.587  11.799 -1.5851 -1.5100 -0.3169
 1067SOL    HW214661   1.001   2.728  11.759  0.0939 -0.9772  2.5189
 1068SOL     OW14662   3.069   4.035  14.547  0.5065  0.2480 -0.2292
 1068SOL    HW114663   3.027   4.119  14.562  0.4782  0.2312 -0.2148
 1068SOL    HW214664   3.138   4.050  14.612  0.8042 -1.2672 -0.2062
 1069SOL     OW14665   3.168   2.126   3.618 -0.4471 -0.0296  0.7590
 1069SOL    HW114666   3.084   2.172   3.617 -1.3624 -1.6800  2.1736
 1069SOL    HW214667   3.145   2.065   3.548  1.2398 -0.1317  0.2791
 1070SOL     OW14668   4.102   3.798   7.617 -0.2081  0.9211  0.0174
 1070SOL    HW114669   4.173   3.760   7.669  0.3596  1.3319 -0.4589
 1070SOL    HW214670   4.133   3.886   7.597  1.7059  0.1020 -0.6148
 1071SOL     OW14671   1.144   2.003   0.291 -0.1257 -0.2573  0.2096
 1071SOL    HW114672   1.109   2.088   0.262 -0.5288  0.3977  2.6685
 1071SOL    HW214673   1.193   2.028   0.369  0.0635  2.5244 -0.8016
 1072SOL     OW14674   2.996   1.475   3.274  0.3979  0.1752 -0.4700
 1072SOL    HW114675   3.046   1.415   3.330 -0.0577  2.0051  1.9121
 1072SOL    HW214676   3.026   1.450   3.187 -0.5771  0.4994 -0.8939
 1073SOL     OW14677   4.186   4.553   2.269  0.4821 -0.1863 -0.8515
 1073SOL    HW114678   4.193   4.531   2.176 -0.1294  1.6513 -1.3287
 1073SOL    HW214679   4.238   4.633   2.268 -0.3053  0.3512  2.0485
 1074SOL     OW14680   3.326   4.285   2.073  0.4374  0.0108 -0.3197
 1074SOL    HW114681   3.334   4.196   2.039 -1.1493 -0.6414  1.0236
 1074SOL    HW214682   3.415   4.302   2.104  0.2008  0.6299  0.0239
 1075SOL     OW14683   3.623   2.998   2.363  0.5275 -0.0569 -0.1487
 1075SOL    HW114684   3.550   3.057   2.342 -1.6647 -1.6677  3.0211
 1075SOL    HW214685   3.630   2.944   2.283 -3.1041  1.3778 -1.4593
 1076SOL     OW14686   3.466   2.652  14.399  0.0231  0.0504  0.2411
 1076SOL    HW114687   3.444   2.581  14.339  1.4163  0.1893 -0.4251
 1076SOL    HW214688   3.553   2.674  14.367  0.4376  0.8191  1.8676
 1077SOL     OW14689   2.380   2.853  16.954  0.1005 -0.0716 -0.1927
 1077SOL    HW114690   2.434   2.931  16.953  1.9900 -1.3825 -0.1619
 1077SOL    HW214691   2.297   2.900  16.946 -0.4618 -0.9699  0.3427
 1078SOL     OW14692   4.231   2.224   5.340 -0.4193 -0.7986 -0.3896
 1078SOL    HW114693   4.191   2.142   5.370  0.5161 -0.2491  2.3550
 1078SOL    HW214694   4.295   2.183   5.282  1.7513 -0.9038  2.0432
 1079SOL     OW14695   4.039   3.416   4.323 -0.5920  0.0656  0.3117
 1079SOL    HW114696   3.967   3.475   4.299  1.7192  1.7013 -2.5150
 1079SOL    HW214697   4.053   3.360   4.247  0.2646 -0.0564  0.5627
 1080SOL     OW14698   1.592   3.040   3.600 -0.2005  0.0309  0.3802
 1080SOL    HW114699   1.594   2.951   3.635 -2.1226 -0.1048  0.1214
 1080SOL    HW214700   1.503   3.058   3.629 -0.1621  1.2053 -0.2533
 1081SOL     OW14701   3.860   4.165   6.705 -0.1603 -0.3756 -0.6726
 1081SOL    HW114702   3.884   4.254   6.731  0.7939 -0.8828  0.2070
 1081SOL    HW214703   3.888   4.115   6.782 -0.7952 -0.4301 -0.4780
 1082SOL     OW14704   3.728   4.301  14.881  0.9399  0.1567 -0.1247
 1082SOL    HW114705   3.741   4.375  14.822 -0.2011  1.6345  1.5085
 1082SOL    HW214706   3.637   4.308  14.908  0.6635 -0.5588 -0.8599
 1083SOL     OW14707   3.136   0.247   5.943  0.0174 -0.2227  0.5884
 1083SOL    HW114708   3.187   0.167   5.931  0.7779  0.3803 -0.2161
 1083SOL    HW214709   3.072   0.224   5.876 -0.5044  0.9333  0.7008
 1084SOL     OW14710   4.515   0.277   3.105  0.0755  0.0333  0.1200
 1084SOL    HW114711   4.532   0.193   3.149 -1.6080 -0.3599  0.0231
 1084SOL    HW214712   4.548   0.252   3.019  0.0641 -0.2412  0.1937
 1085SOL     OW14713   1.412   2.677   0.186  0.5269 -0.3139  0.0323
 1085SOL    HW114714   1.318   2.678   0.204  0.2943  0.0510 -1.2395
 1085SOL    HW214715   1.436   2.736   0.257  0.5782  0.8630 -0.9711
 1086SOL     OW14716   1.738   0.830   2.950  0.9335  0.2556 -0.1605
 1086SOL    HW114717   1.697   0.747   2.923  1.1924  0.6556 -1.7537
 1086SOL    HW214718   1.688   0.886   2.891 -1.8078 -0.1991  1.6903
 1087SOL     OW14719   0.081   0.439   4.774  0.4393  0.4111 -0.2479
 1087SOL    HW114720   0.160   0.486   4.748  0.5610  1.0867  1.3289
 1087SOL    HW214721   0.047   0.412   4.689 -1.3509  0.7788  0.3567
 1088SOL     OW14722   2.363   2.057   1.791 -0.4989 -0.0529  0.4457
 1088SOL    HW114723   2.298   2.081   1.857 -0.0004  1.1030  0.5249
 1088SOL    HW214724   2.313   1.999   1.735  1.2484 -0.0384 -1.1278
 1089SOL     OW14725   3.061   2.551   4.836 -0.3939  0.1784  0.3822
 1089SOL    HW114726   3.060   2.462   4.871 -0.0379  1.0368  2.5153
 1089SOL    HW214727   3.007   2.547   4.756 -0.8264  1.6854  0.5966
 1090SOL     OW14728   3.415   0.313   1.651  0.5282  0.1691  0.5276
 1090SOL    HW114729   3.399   0.358   1.568  0.6539  1.6832  1.3290
 1090SOL    HW214730   3.329   0.326   1.691  0.0887 -1.7156  0.2172
 1091SOL     OW14731   1.878   2.330   6.030  0.0780  0.3804  0.0637
 1091SOL    HW114732   1.883   2.291   6.117 -2.4132 -0.4180 -0.1554
 1091SOL    HW214733   1.813   2.398   6.044 -1.2203 -0.5470 -1.5405
 1092SOL     OW14734   1.528   4.139  10.677  0.3904  0.4446  0.8030
 1092SOL    HW114735   1.529   4.207  10.609  0.4035  0.0329  0.3890
 1092SOL    HW214736   1.533   4.198  10.752  0.5969 -0.4267  1.4689
 1093SOL     OW14737   3.105   1.995   6.377  0.4955 -0.0595  0.5132
 1093SOL    HW114738   3.058   2.078   6.376  0.0721 -0.2956  0.8581
 1093SOL    HW214739   3.122   1.980   6.284  0.2172  0.2276  0.4153
 1094SOL     OW14740   0.417   3.478   9.892  0.0503 -0.2516  0.5265
 1094SOL    HW114741   0.468   3.461   9.971  1.5327  0.4377 -0.2807
 1094SOL    HW214742   0.388   3.567   9.908  1.4159  0.1668  0.6269
 1095SOL     OW14743   2.881   4.276  15.204  0.2181 -0.1130  0.2979
 1095SOL    HW114744   2.813   4.209  15.195 -0.3928  0.6018 -0.3186
 1095SOL    HW214745   2.882   4.286  15.299 -1.7531  2.2884  0.0745
 1096SOL     OW14746   0.681   3.765   1.967  0.3497 -0.0476 -0.1990
 1096SOL    HW114747   0.606   3.785   1.909 -0.2021  0.0651  0.5569
 1096SOL    HW214748   0.744   3.827   1.930 -0.3446  0.1474 -1.0623
 1097SOL     OW14749   2.693   3.008   8.516  0.6242 -0.0469  0.2138
 1097SOL    HW114750   2.768   2.970   8.560  1.5788 -0.1829 -1.5083
 1097SOL    HW214751   2.666   3.077   8.576 -0.5171 -1.4538  1.3157
 1098SOL     OW14752   4.058   2.275   3.530  0.6093 -0.2873  0.0667
 1098SOL    HW114753   4.057   2.190   3.574  1.8098 -0.4683 -0.2689
 1098SOL    HW214754   4.081   2.327   3.606 -1.5855  2.1216 -0.9090
 1099SOL     OW14755   1.056   2.296   5.610 -0.2878 -0.0999  0.1523
 1099SOL    HW114756   1.116   2.232   5.571  1.1962  0.0809  2.1450
 1099SOL    HW214757   1.075   2.290   5.704 -1.4935  1.0171  0.4716
 1100SOL     OW14758   0.163   2.757   5.534  0.2296 -0.0998  0.2142
 1100SOL    HW114759   0.198   2.719   5.614  0.9470  0.6725  0.2637
 1100SOL    HW214760   0.197   2.844   5.553 -1.6212  0.4732  0.8749
 1101SOL     OW14761   0.982   3.033  15.818 -0.0941  0.2969 -0.7498
 1101SOL    HW114762   0.958   2.995  15.734 -1.2600  1.4226 -0.9313
 1101SOL    HW214763   1.073   3.002  15.821 -0.5383 -0.8865  0.3002
 1102SOL     OW14764   2.613   1.507   4.247 -0.2482 -0.9580 -0.3184
 1102SOL    HW114765   2.613   1.597   4.216  3.5692 -0.3201  1.5024
 1102SOL    HW214766   2.521   1.502   4.274 -1.0486  1.6824 -2.6329
 1103SOL     OW14767   4.126   0.881   4.294 -0.4347  0.3063  0.2029
 1103SOL    HW114768   4.084   0.967   4.288  1.0530  0.9873 -0.4260
 1103SOL    HW214769   4.217   0.909   4.303  0.1251 -2.0882  2.0797
 1104SOL     OW14770   2.877   3.484   1.218 -0.6536 -0.2112 -0.5175
 1104SOL    HW114771   2.954   3.480   1.276 -0.2690  1.1254 -0.9337
 1104SOL    HW214772   2.857   3.391   1.210  2.2427 -1.0612  1.6095
 1105SOL     OW14773   0.016   4.603  10.851 -0.0366 -0.3149  0.2833
 1105SOL    HW114774   4.677   4.626  10.781 -0.6221  1.6157  1.4482
 1105SOL    HW214775   0.024   4.508  10.836  0.7255 -0.3602  1.0115
 1106SOL     OW14776   4.434   2.549   2.595 -0.1517 -0.0564 -0.1667
 1106SOL    HW114777   4.496   2.614   2.627 -0.7104  0.3209  0.1451
 1106SOL    HW214778   4.492   2.473   2.586  0.3823  0.3842 -0.4425
 1107SOL     OW14779   0.062   3.048   3.417 -0.2630  0.3254  0.4792
 1107SOL    HW114780   0.068   2.954   3.433 -0.4275 -0.0250 -1.4833
 1107SOL    HW214781   0.156   3.059   3.401 -0.1957 -0.6833  0.2249
 1108SOL     OW14782   0.271   1.614   3.913  0.3100  0.5669 -0.4020
 1108SOL    HW114783   0.324   1.535   3.897  0.0855  0.6306 -1.4896
 1108SOL    HW214784   0.338   1.675   3.882 -0.8762  1.7535 -0.5762
 1109SOL     OW14785   2.251   1.682  10.388 -0.3243 -0.2529 -0.2628
 1109SOL    HW114786   2.292   1.729  10.461  1.2129 -1.0299 -0.6186
 1109SOL    HW214787   2.330   1.693  10.335  0.3318  1.9608  1.1839
 1110SOL     OW14788   0.099   0.367  16.371  0.0608 -0.1085  0.5910
 1110SOL    HW114789   0.100   0.334  16.462 -1.7540 -0.8451  0.3606
 1110SOL    HW214790   0.052   0.296  16.326  0.6865  0.0160 -0.2493
 1111SOL     OW14791   0.724   3.091  12.681  0.0844  0.2285  0.8855
 1111SOL    HW114792   0.795   3.028  12.696  0.7558  1.5625  3.2761
 1111SOL    HW214793   0.662   3.031  12.722 -1.4367  2.1066  1.2812
 1112SOL     OW14794   3.480   2.192   7.621  0.2453  0.3739 -0.4143
 1112SOL    HW114795   3.570   2.213   7.646 -0.0401 -0.2774  1.1535
 1112SOL    HW214796   3.471   2.214   7.528  1.1693 -1.4693 -0.9280
 1113SOL     OW14797   1.553   3.556  11.280 -0.3050 -0.2380 -0.3805
 1113SOL    HW114798   1.599   3.628  11.238  2.0325 -1.7008 -0.3164
 1113SOL    HW214799   1.626   3.496  11.297 -0.6489 -0.5610 -0.0443
 1114SOL     OW14800   2.437   4.036   3.138  0.3961  0.1277 -0.2853
 1114SOL    HW114801   2.508   3.993   3.185 -0.1786 -0.9367 -0.3893
 1114SOL    HW214802   2.360   3.984   3.161  1.4519 -0.9199  0.8736
 1115SOL     OW14803   1.013   4.429   6.586 -0.8312 -0.0517  0.1676
 1115SOL    HW114804   0.989   4.337   6.589  2.2259 -0.8959 -1.5099
 1115SOL    HW214805   1.009   4.461   6.677  0.4305  0.6679 -0.0243
 1116SOL     OW14806   3.724   4.599   0.691 -0.6222 -0.7140  0.4116
 1116SOL    HW114807   3.657   4.605   0.760 -0.2855  2.7622  0.3930
 1116SOL    HW214808   3.783   4.529   0.720 -0.4638 -1.1298 -0.9059
 1117SOL     OW14809   2.415   2.256   8.179 -0.7852  0.1148 -0.7004
 1117SOL    HW114810   2.433   2.261   8.273  0.9539 -1.4570 -0.9505
 1117SOL    HW214811   2.493   2.216   8.143 -0.8766 -1.4814  0.8807
 1118SOL     OW14812   1.885   0.291   4.660  0.0662  0.1431 -0.3912
 1118SOL    HW114813   1.935   0.211   4.671 -1.2440 -0.8795 -1.9170
 1118SOL    HW214814   1.858   0.291   4.569 -1.8238  0.0126  0.1749
 1119SOL     OW14815   4.554   3.404  10.557 -0.1496  0.0817  0.0698
 1119SOL    HW114816   4.586   3.362  10.476  0.7325 -0.0314  0.4693
 1119SOL    HW214817   4.531   3.325  10.605  1.3364 -0.2697  0.2224
 1120SOL     OW14818   3.160   0.396  15.555  0.0497  0.1874 -0.2402
 1120SOL    HW114819   3.246   0.357  15.536  0.0024 -0.2944  0.5064
 1120SOL    HW214820   3.125   0.406  15.467 -1.0847 -2.1115 -0.0652
 1121SOL     OW14821   2.073   0.341   3.843 -0.4984 -0.0617 -0.2233
 1121SOL    HW114822   2.132   0.402   3.799 -1.0062  1.1599  0.8188
 1121SOL    HW214823   1.988   0.378   3.823 -0.3821 -0.0753 -0.7298
 1122SOL     OW14824   4.504   3.557   2.041  0.3862  0.0101 -0.1227
 1122SOL    HW114825   4.419   3.537   2.002 -0.2169 -1.3146  1.8939
 1122SOL    HW214826   4.487   3.648   2.065 -1.7873 -0.2388 -0.7210
 1123SOL     OW14827   2.587   4.335   1.390 -0.8403  0.6288  0.8046
 1123SOL    HW114828   2.593   4.419   1.344  0.1735 -1.3765 -2.7500
 1123SOL    HW214829   2.582   4.270   1.319  0.2302  0.2608  1.0553
 1124SOL     OW14830   3.176   3.902   8.763  0.3702  0.2480 -0.6626
 1124SOL    HW114831   3.214   3.937   8.843  0.6463  1.5467 -1.3596
 1124SOL    HW214832   3.093   3.949   8.769  1.1294  1.4324  0.4784
 1125SOL     OW14833   2.244   2.216   7.510 -0.2919 -0.0694 -0.0795
 1125SOL    HW114834   2.216   2.169   7.431  0.1915  0.1030 -0.3540
 1125SOL    HW214835   2.250   2.150   7.578  0.7843 -1.6278 -1.6928
 1126SOL     OW14836   2.474   3.557   7.410  0.2128  0.2905  0.3847
 1126SOL    HW114837   2.543   3.620   7.389 -1.4153  1.9486 -0.0014
 1126SOL    HW214838   2.493   3.487   7.348 -0.9377  1.2103 -1.0154
 1127SOL     OW14839   4.407   1.999   7.110  0.0860 -0.0752  0.0361
 1127SOL    HW114840   4.491   1.972   7.073 -0.1910  0.4113 -0.9355
 1127SOL    HW214841   4.430   2.056   7.184  1.7688 -0.6631 -0.0302
 1128SOL     OW14842   2.400   2.374   5.762 -0.3193  0.0399 -0.2302
 1128SOL    HW114843   2.351   2.452   5.735  0.0830  0.7696  1.1200
 1128SOL    HW214844   2.354   2.349   5.843 -0.4296  0.7708 -0.0613
 1129SOL     OW14845   1.042   0.676  14.746 -0.1911 -0.4684  0.2967
 1129SOL    HW114846   1.087   0.606  14.698  1.2898  0.5033  0.2743
 1129SOL    HW214847   1.109   0.682  14.814  0.7065  1.9894 -0.7976
 1130SOL     OW14848   0.909   3.660   2.425  0.3141  0.6312 -0.3943
 1130SOL    HW114849   0.829   3.666   2.373 -0.6069  0.7832  1.0395
 1130SOL    HW214850   0.937   3.748   2.453 -0.2793  0.2241  1.4853
 1131SOL     OW14851   0.647   2.629   1.731  0.0053 -0.0778 -0.5954
 1131SOL    HW114852   0.710   2.700   1.740 -0.5998  0.4493 -0.5337
 1131SOL    HW214853   0.649   2.607   1.637 -0.1943  0.0419 -0.6291
 1132SOL     OW14854   3.201   0.194   6.678 -0.0901 -0.3307 -0.4303
 1132SOL    HW114855   3.121   0.244   6.692  1.7867  2.1026  1.5498
 1132SOL    HW214856   3.240   0.240   6.603  0.4968  0.0325  0.0956
 1133SOL     OW14857   2.881   1.599  15.312 -0.0799 -0.3765  0.4800
 1133SOL    HW114858   2.868   1.680  15.362 -0.1949 -0.3067  0.3350
 1133SOL    HW214859   2.791   1.569  15.299 -0.3648  1.2105 -1.2147
 1134SOL     OW14860   3.902   2.199   7.294 -0.0733 -0.0568  0.1417
 1134SOL    HW114861   3.864   2.282   7.321 -1.2636 -1.1001  1.7314
 1134SOL    HW214862   3.888   2.140   7.369  0.2276  0.1302  0.3418
 1135SOL     OW14863   2.249   1.724   1.940 -0.1641 -0.2917  0.1666
 1135SOL    HW114864   2.205   1.654   1.893  2.8883 -1.0235 -1.6191
 1135SOL    HW214865   2.181   1.736   2.006 -0.3823  0.3789 -0.1812
 1136SOL     OW14866   1.718   4.665   2.011 -0.6534  0.2588 -0.0575
 1136SOL    HW114867   1.653   4.656   2.081 -0.2896 -0.2232  0.2204
 1136SOL    HW214868   1.671   4.622   1.940  2.3473  1.3992 -2.7112
 1137SOL     OW14869   3.845   2.726  12.564  0.0411 -0.2809 -0.0088
 1137SOL    HW114870   3.757   2.715  12.598 -0.0621 -0.4290 -0.3216
 1137SOL    HW214871   3.852   2.821  12.554  2.4472 -0.1215  3.3256
 1138SOL     OW14872   3.803   0.969   3.533 -0.3618  0.2111 -0.2659
 1138SOL    HW114873   3.783   1.058   3.503  1.3099  0.3348 -1.0402
 1138SOL    HW214874   3.716   0.935   3.515  1.0503 -2.1144 -2.6630
 1139SOL     OW14875   2.020   4.588   8.384  0.6146 -0.1063 -0.3469
 1139SOL    HW114876   2.079   4.660   8.363  1.9068 -0.2738  2.6769
 1139SOL    HW214877   1.939   4.628   8.352  0.0962 -0.0806  0.9800
 1140SOL     OW14878   2.190   2.505   0.018  0.0768 -0.2660  0.5025
 1140SOL    HW114879   2.221   2.473   0.102  0.4014 -0.3871  0.3364
 1140SOL    HW214880   2.222   2.442  17.646 -0.1687  0.8804 -0.7264
 1141SOL     OW14881   4.583   3.498   0.416  0.4806  0.3697 -0.1240
 1141SOL    HW114882   4.594   3.554   0.493  1.1427 -0.8676  0.6805
 1141SOL    HW214883   4.616   3.554   0.346 -1.1889  1.1731 -0.2625
 1142SOL     OW14884   0.334   1.942   6.585 -0.3160 -0.5867  0.2619
 1142SOL    HW114885   0.384   1.862   6.569  0.2091  0.2517 -2.2398
 1142SOL    HW214886   0.247   1.910   6.612 -1.2022 -0.2168 -2.1915
 1143SOL     OW14887   3.669   2.802   7.786 -0.2441  0.3885 -0.2915
 1143SOL    HW114888   3.605   2.730   7.783 -2.0916  1.9707  1.5566
 1143SOL    HW214889   3.755   2.760   7.791 -0.2768  0.7029  2.7432
 1144SOL     OW14890   0.341   2.056  10.561  0.2718 -0.2048  0.0237
 1144SOL    HW114891   0.370   2.130  10.614 -0.2344  0.9157 -1.2597
 1144SOL    HW214892   0.394   2.077  10.485  0.2666  1.9147  0.6120
 1145SOL     OW14893   1.024   4.703   5.278 -0.0020  0.8265  0.0082
 1145SOL    HW114894   0.960   4.652   5.229 -0.5930  0.2836  1.3582
 1145SOL    HW214895   1.071   4.631   5.321 -1.5203 -1.7295 -2.6083
 1146SOL     OW14896   1.154   0.547   4.529 -0.0141  0.1586  0.2892
 1146SOL    HW114897   1.233   0.593   4.501 -1.3089  1.4375 -1.2587
 1146SOL    HW214898   1.163   0.471   4.472 -2.1101  0.9052 -1.0093
 1147SOL     OW14899   2.613   2.005   7.201  0.3106 -0.2105 -0.6094
 1147SOL    HW114900   2.607   1.922   7.154 -1.1650  0.5278 -1.7178
 1147SOL    HW214901   2.707   2.023   7.205  0.1599  0.7423 -1.2240
 1148SOL     OW14902   3.240   4.220  13.680 -0.2903 -0.6484 -0.0860
 1148SOL    HW114903   3.325   4.176  13.675 -0.1864 -0.2628 -1.5996
 1148SOL    HW214904   3.261   4.313  13.675 -0.9851 -0.3125  3.1539
 1149SOL     OW14905   3.994   2.102  10.831  0.7739 -0.8305 -0.6197
 1149SOL    HW114906   3.902   2.106  10.804  1.2005 -1.0918 -2.1015
 1149SOL    HW214907   3.999   2.180  10.886  1.3700 -1.1912 -0.1679
 1150SOL     OW14908   1.007   2.602   3.354  0.1167  0.1440  0.4848
 1150SOL    HW114909   0.913   2.612   3.370 -0.1250 -0.5151 -0.5161
 1150SOL    HW214910   1.015   2.643   3.268  2.5615  1.0549  1.1498
 1151SOL     OW14911   2.698   3.203   2.687 -0.2161  0.3639 -0.0345
 1151SOL    HW114912   2.730   3.114   2.674 -2.4706 -0.5398  0.5432
 1151SOL    HW214913   2.755   3.242   2.753  0.3752  3.4250 -2.3685
 1152SOL     OW14914   4.576   3.764   3.311 -0.4979  0.3699  0.0613
 1152SOL    HW114915   4.600   3.733   3.399 -1.3959  2.0158  0.9018
 1152SOL    HW214916   4.647   3.729   3.258 -0.8843 -1.5345  0.7808
 1153SOL     OW14917   3.237   3.534   4.579 -0.1288 -0.3355 -0.2132
 1153SOL    HW114918   3.190   3.581   4.647  1.2591 -3.0053  2.5674
 1153SOL    HW214919   3.221   3.590   4.502 -2.0581 -2.0961 -1.0883
 1154SOL     OW14920   3.227   0.118   7.012 -0.3819  0.6006 -0.0248
 1154SOL    HW114921   3.212   0.203   6.972 -2.4292 -0.2646 -1.1074
 1154SOL    HW214922   3.153   0.110   7.073 -0.4248 -1.6796 -0.3502
 1155SOL     OW14923   4.463   0.442  16.100 -0.0721 -0.3539  0.1839
 1155SOL    HW114924   4.553   0.456  16.072 -0.9496  2.8094 -1.1223
 1155SOL    HW214925   4.479   0.355  16.137 -0.9557 -0.8618 -0.6287
 1156SOL     OW14926   1.305   2.982  11.434 -0.0206  0.2589  0.0273
 1156SOL    HW114927   1.314   3.068  11.392 -0.6699  0.5339  0.4387
 1156SOL    HW214928   1.377   2.999  11.496 -1.5908 -1.5899  2.3191
 1157SOL     OW14929   4.339   2.789   8.237 -0.3245 -0.0028  0.4302
 1157SOL    HW114930   4.422   2.764   8.277  0.9468  0.3979 -1.9703
 1157SOL    HW214931   4.366   2.766   8.149  3.0944  3.1123  0.6828
 1158SOL     OW14932   4.237   3.990   0.551 -0.4791  0.2707  0.3771
 1158SOL    HW114933   4.288   3.921   0.592 -3.5118 -0.1355  3.5034
 1158SOL    HW214934   4.272   4.071   0.589  2.0522 -0.2060 -0.9784
 1159SOL     OW14935   1.146   3.041   2.235 -0.5119  0.3158 -0.3342
 1159SOL    HW114936   1.107   3.036   2.147  1.5317 -0.0612 -1.2326
 1159SOL    HW214937   1.182   3.129   2.247 -2.2757  0.9406  0.3481
 1160SOL     OW14938   0.154   0.606   8.172 -0.2729  0.2942  0.2815
 1160SOL    HW114939   0.216   0.534   8.161 -2.3044 -1.6656  1.5927
 1160SOL    HW214940   0.074   0.553   8.170  0.4239 -0.6146 -2.7819
 1161SOL     OW14941   0.963   0.155  13.346 -0.6303  0.4590 -0.4767
 1161SOL    HW114942   0.983   0.245  13.369  0.8606  0.3836 -1.3956
 1161SOL    HW214943   1.042   0.129  13.298  1.4438  0.3425  3.0209
 1162SOL     OW14944   4.594   2.141   5.903 -0.3633  0.2676  0.1652
 1162SOL    HW114945   4.591   2.233   5.880 -0.0960  0.7303  2.0018
 1162SOL    HW214946   4.682   2.114   5.878 -1.0363 -2.0738  0.2208
 1163SOL     OW14947   2.930   4.473   6.995  0.0241 -0.5029 -0.5013
 1163SOL    HW114948   2.946   4.567   7.003 -0.0008 -0.4259 -1.3046
 1163SOL    HW214949   2.836   4.466   6.976 -0.3577 -1.3705  1.8092
 1164SOL     OW14950   1.423   0.419   7.642  0.0049  0.1880  0.0660
 1164SOL    HW114951   1.488   0.375   7.696  0.0883 -1.9059 -1.7493
 1164SOL    HW214952   1.413   0.351   7.575 -0.7580 -1.0940  1.4902
 1165SOL     OW14953   0.325   3.189   5.127 -0.2365 -0.3387 -0.2227
 1165SOL    HW114954   0.354   3.105   5.092 -2.3529 -1.3566  0.4890
 1165SOL    HW214955   0.378   3.248   5.072  1.0617 -0.6106  0.7251
 1166SOL     OW14956   2.810   1.594   4.781  0.7374  0.2341  0.2710
 1166SOL    HW114957   2.781   1.551   4.701  1.3538 -0.1848  0.2798
 1166SOL    HW214958   2.822   1.680   4.740  0.8081 -1.3708 -3.0495
 1167SOL     OW14959   3.990   1.940  16.592 -0.1651 -0.4482  0.1683
 1167SOL    HW114960   3.909   1.919  16.638  0.6701 -0.5795  1.5832
 1167SOL    HW214961   4.005   2.034  16.578 -3.2520  0.0405  0.0867
 1168SOL     OW14962   4.349   3.697   7.726 -0.3669  0.1481  0.6013
 1168SOL    HW114963   4.339   3.603   7.707 -1.3411  0.6213 -1.1715
 1168SOL    HW214964   4.444   3.695   7.739 -0.1785  1.3273 -0.5752
 1169SOL     OW14965   3.803   1.101   1.314 -0.0646  0.0242  0.1478
 1169SOL    HW114966   3.833   1.065   1.398 -1.3444  1.2746  1.1491
 1169SOL    HW214967   3.869   1.082   1.248 -0.2935  0.2869 -0.1590
 1170SOL     OW14968   1.639   1.699   4.862 -0.1964  0.1574 -0.3643
 1170SOL    HW114969   1.620   1.713   4.955  2.0256  1.4561 -0.1089
 1170SOL    HW214970   1.662   1.607   4.868 -1.0242 -0.0990 -1.1434
 1171SOL     OW14971   4.412   4.149   2.902  0.0888 -0.3659 -0.0893
 1171SOL    HW114972   4.432   4.062   2.937 -1.0132 -0.7922 -0.5002
 1171SOL    HW214973   4.464   4.155   2.822 -0.8983 -0.3008 -0.7358
 1172SOL     OW14974   3.675   2.112   2.371 -0.3361  0.3330 -0.1694
 1172SOL    HW114975   3.732   2.160   2.312 -0.4024  0.8999  0.2311
 1172SOL    HW214976   3.684   2.167   2.448 -0.6421 -2.0423  1.5670
 1173SOL     OW14977   0.023   0.218   7.855  0.0877  0.8299  1.0156
 1173SOL    HW114978   4.662   0.239   7.815  0.0264 -2.0238 -0.3597
 1173SOL    HW214979   4.713   0.183   7.938  2.3446 -0.9405  1.1449
 1174SOL     OW14980   2.897   3.994  12.568 -0.4182  0.2933  0.1281
 1174SOL    HW114981   2.935   3.907  12.560  1.4389  1.2187 -1.2116
 1174SOL    HW214982   2.836   3.993  12.495 -0.7396  2.3911  0.3493
 1175SOL     OW14983   1.063   0.103  15.590 -1.0478  0.3510  0.3269
 1175SOL    HW114984   0.972   0.121  15.565 -1.4590 -0.7320  1.0069
 1175SOL    HW214985   1.066   0.015  15.551 -1.9344  0.2331  0.5237
 1176SOL     OW14986   3.828   1.650   4.751 -0.0245  0.0226  0.5693
 1176SOL    HW114987   3.744   1.611   4.729 -0.0778  0.8413 -0.6856
 1176SOL    HW214988   3.814   1.740   4.780  0.0350  1.1624 -2.8701
 1177SOL     OW14989   0.979   3.241  17.286 -0.1458 -0.1028  0.0016
 1177SOL    HW114990   0.990   3.253  17.192 -1.1096 -0.7090 -0.1936
 1177SOL    HW214991   0.938   3.322  17.316 -1.6046 -0.1624 -1.8113
 1178SOL     OW14992   1.394   2.874   4.057  0.4081 -0.8828 -0.2038
 1178SOL    HW114993   1.389   2.951   4.001 -0.6934 -1.2484 -0.6097
 1178SOL    HW214994   1.313   2.831   4.029 -0.0785  0.2114 -0.4596
 1179SOL     OW14995   3.811   3.352   6.914 -0.3568  0.4738  0.2081
 1179SOL    HW114996   3.769   3.360   7.000 -1.8356  2.1564 -0.6678
 1179SOL    HW214997   3.751   3.407   6.863 -1.6262 -1.0068  0.0871
 1180SOL     OW14998   2.636   0.721   1.306  0.1983  0.5224  0.4148
 1180SOL    HW114999   2.629   0.746   1.398 -0.0005 -1.0337  0.8214
 1180SOL    HW215000   2.622   0.806   1.263 -2.8650 -1.1227 -1.9125
 1181SOL     OW15001   0.117   3.343   0.251 -0.2684 -0.4960  0.1741
 1181SOL    HW115002   0.083   3.388   0.174  1.0722  0.1051 -0.0795
 1181SOL    HW215003   0.210   3.345   0.228 -0.6768  2.4642 -1.1886
 1182SOL     OW15004   0.874   3.670   4.091  0.1375  0.3922  0.6179
 1182SOL    HW115005   0.969   3.680   4.097 -0.1244  2.4530  1.1661
 1182SOL    HW215006   0.850   3.740   4.151  2.1181 -0.9434  2.9707
 1183SOL     OW15007   0.889   1.303  13.396 -0.0050  0.0299 -0.4066
 1183SOL    HW115008   0.856   1.249  13.324 -1.3738 -0.6330  0.7183
 1183SOL    HW215009   0.828   1.294  13.469  0.0721  0.4736 -0.2877
 1184SOL     OW15010   4.406   1.219   5.658 -0.5734  0.0790  0.1192
 1184SOL    HW115011   4.333   1.232   5.598  0.9790  1.2464 -1.5163
 1184SOL    HW215012   4.460   1.174   5.593  1.0646  0.1209  1.4540
 1185SOL     OW15013   3.618   4.005   0.665  0.2214  0.3919  0.0034
 1185SOL    HW115014   3.586   4.023   0.753 -0.7175 -0.2112 -0.2153
 1185SOL    HW215015   3.576   4.084   0.634 -1.8019 -0.2707  1.0529
 1186SOL     OW15016   0.278   1.513  15.884 -0.4021  0.3255  0.2614
 1186SOL    HW115017   0.347   1.463  15.842 -0.6266  0.0802  0.1885
 1186SOL    HW215018   0.294   1.598  15.843 -2.0087  0.8568  0.7501
 1187SOL     OW15019   2.674   2.506   4.904  0.2753 -0.2041  0.3386
 1187SOL    HW115020   2.590   2.545   4.882  0.3432 -0.8467 -1.0649
 1187SOL    HW215021   2.700   2.545   4.988  1.6185 -1.0338  0.3094
 1188SOL     OW15022   0.068   2.599   5.047  0.4659  0.4996  0.3572
 1188SOL    HW115023   0.102   2.662   4.983 -1.2570  0.4901 -0.5827
 1188SOL    HW215024   0.098   2.641   5.128  1.2567  1.3039 -0.3463
 1189SOL     OW15025   2.163   4.459  16.823  0.5087 -0.6868  0.5335
 1189SOL    HW115026   2.214   4.524  16.776  0.2429 -0.4443  0.5805
 1189SOL    HW215027   2.073   4.490  16.820 -0.0554 -2.4465 -0.6545
 1190SOL     OW15028   1.811   0.733   1.170  0.0642  0.0375 -0.1722
 1190SOL    HW115029   1.847   0.706   1.085 -0.1994  0.3005 -0.3683
 1190SOL    HW215030   1.894   0.760   1.209 -0.3159  0.8119  0.1100
 1191SOL     OW15031   0.323   0.602   4.724  0.3468  0.2024  0.3362
 1191SOL    HW115032   0.413   0.594   4.692 -0.2090 -0.3235 -1.0585
 1191SOL    HW215033   0.318   0.694   4.751  0.9566  0.5203 -0.6167
 1192SOL     OW15034   4.010   2.762  14.259  0.0552 -0.5181 -0.3516
 1192SOL    HW115035   3.986   2.674  14.288  1.9616 -0.4260  1.5044
 1192SOL    HW215036   4.102   2.744  14.239 -0.0459 -0.0245 -1.2376
 1193SOL     OW15037   3.539   3.247  10.449 -0.0441  0.4491  0.1531
 1193SOL    HW115038   3.541   3.323  10.391  0.2336  0.2213 -0.1329
 1193SOL    HW215039   3.449   3.219  10.437  0.6431 -2.5758  2.0372
 1194SOL     OW15040   4.479   1.423   6.635 -0.3009 -0.0249  0.1685
 1194SOL    HW115041   4.542   1.357   6.664 -0.2105  0.3820  0.9010
 1194SOL    HW215042   4.544   1.486   6.605 -0.3490  0.4929  1.1581
 1195SOL     OW15043   1.770   4.201  12.647  0.1115  0.1905 -0.9766
 1195SOL    HW115044   1.690   4.200  12.700 -1.2784  2.6547 -3.0515
 1195SOL    HW215045   1.778   4.295  12.635 -0.6445  0.4903  0.9900
 1196SOL     OW15046   2.763   2.848   0.312  0.7398  0.6084 -0.1042
 1196SOL    HW115047   2.762   2.880   0.221  1.6244  0.2265 -0.2554
 1196SOL    HW215048   2.788   2.756   0.302 -0.9627 -0.0226  1.6357
 1197SOL     OW15049   0.422   0.901  10.320 -0.4223  0.5500 -1.0035
 1197SOL    HW115050   0.391   0.983  10.359  0.0194  0.9256 -1.4411
 1197SOL    HW215051   0.451   0.847  10.393 -2.2510  0.0911 -0.6174
 1198SOL     OW15052   2.889   4.612  15.455  0.0536 -0.3134  0.7317
 1198SOL    HW115053   2.934   4.615  15.539 -0.7441 -0.1847  1.1547
 1198SOL    HW215054   2.949   4.587  15.385 -0.4551  1.7978 -0.4412
 1199SOL     OW15055   3.887   1.517   3.531  0.8949 -0.5630 -0.2651
 1199SOL    HW115056   3.976   1.522   3.495 -0.2363 -0.6958 -3.1012
 1199SOL    HW215057   3.857   1.605   3.509 -0.7621 -0.7704  1.1980
 1200SOL     OW15058   0.883   2.987  10.644  0.0747 -0.2945 -0.2462
 1200SOL    HW115059   0.854   3.049  10.711  0.1211  0.0871 -0.5808
 1200SOL    HW215060   0.977   3.003  10.651 -0.4740  2.1039  1.7852
 1201SOL     OW15061   1.349   4.716   2.953  0.6343  0.3290 -0.1376
 1201SOL    HW115062   1.431   4.678   2.984  0.4360  1.8305  2.2473
 1201SOL    HW215063   1.336   4.666   2.873 -0.3929  0.2740  0.0673
 1202SOL     OW15064   3.584   3.121   9.658  0.0684  0.7697  0.2865
 1202SOL    HW115065   3.581   3.026   9.656 -0.0557  0.8198 -1.7093
 1202SOL    HW215066   3.612   3.137   9.568 -1.0664  0.4679 -0.1109
 1203SOL     OW15067   1.731   1.859   3.256 -0.6519  0.0863 -0.2862
 1203SOL    HW115068   1.681   1.918   3.312  0.3039 -0.2413  0.9243
 1203SOL    HW215069   1.666   1.788   3.250 -2.2770  1.5267  0.3914
 1204SOL     OW15070   4.000   3.963   8.772 -0.1923  0.1570 -0.7033
 1204SOL    HW115071   3.923   3.996   8.726 -0.1180  2.4819  0.8758
 1204SOL    HW215072   4.052   3.943   8.694  0.2715  0.7891 -0.5535
 1205SOL     OW15073   4.582   4.227   2.300  0.3144  0.3636 -0.2876
 1205SOL    HW115074   4.649   4.160   2.288  0.9456  0.4333  2.7354
 1205SOL    HW215075   4.632   4.303   2.330  1.0594 -0.3302  0.2282
 1206SOL     OW15076   2.523   3.299   5.779 -0.4295 -0.2246 -0.4852
 1206SOL    HW115077   2.478   3.378   5.751  2.1947  0.5441 -2.5576
 1206SOL    HW215078   2.450   3.240   5.799 -0.9196  0.7677  0.6368
 1207SOL     OW15079   1.602   4.007   2.050 -0.1440 -0.5815 -0.2180
 1207SOL    HW115080   1.519   4.054   2.059 -0.1466 -0.7367  0.5515
 1207SOL    HW215081   1.566   3.919   2.035  0.4963 -0.6970 -1.0758
 1208SOL     OW15082   2.052   0.804   8.978 -0.3895  0.1917 -0.2628
 1208SOL    HW115083   1.962   0.780   8.998 -0.3964  0.9947  0.7370
 1208SOL    HW215084   2.103   0.769   9.051 -0.8841 -1.7845 -0.8903
 1209SOL     OW15085   0.219   0.241   5.147  0.0607 -0.4913  0.0717
 1209SOL    HW115086   0.148   0.184   5.118 -0.6252  0.5724 -0.3607
 1209SOL    HW215087   0.170   0.323   5.135 -1.8214 -1.9230 -2.0486
 1210SOL     OW15088   0.950   1.011   1.275  0.7550  0.3056 -0.1890
 1210SOL    HW115089   0.966   1.105   1.286  1.7199  0.0738  0.3903
 1210SOL    HW215090   0.900   1.020   1.194  2.1628  0.3190 -1.0625
 1211SOL     OW15091   1.842   2.110   2.099  0.0042  0.1863 -0.6663
 1211SOL    HW115092   1.760   2.097   2.145  0.9762  0.3093  1.1178
 1211SOL    HW215093   1.798   2.160   2.030 -0.3654 -0.1135 -0.6473
 1212SOL     OW15094   3.911   0.726   6.661  0.0066  0.3721  0.0599
 1212SOL    HW115095   3.822   0.706   6.633  0.3455  1.5114 -1.7760
 1212SOL    HW215096   3.923   0.798   6.599 -2.1014  1.2881  0.6939
 1213SOL     OW15097   2.596   0.380   5.101 -0.0213 -0.6261 -0.2214
 1213SOL    HW115098   2.516   0.348   5.142  0.3496  1.5672  2.2240
 1213SOL    HW215099   2.642   0.427   5.171 -1.1659 -0.5505  0.4913
 1214SOL     OW15100   0.438   4.556   6.859 -0.0027  0.2385  0.0780
 1214SOL    HW115101   0.478   4.518   6.781 -1.4230  0.1139 -0.5731
 1214SOL    HW215102   0.493   4.633   6.872 -0.5814  0.3982  1.6275
 1215SOL     OW15103   2.746   4.659   4.376  0.0962 -0.7402  0.7852
 1215SOL    HW115104   2.726   4.591   4.312 -0.6456  2.7532 -2.6462
 1215SOL    HW215105   2.760   0.016   4.324  0.9243  0.2498  2.5210
 1216SOL     OW15106   2.481   1.256   3.501 -0.2835  0.1069 -0.5135
 1216SOL    HW115107   2.464   1.337   3.549  0.8060  0.1732 -0.2257
 1216SOL    HW215108   2.510   1.293   3.418 -1.9368 -0.4281 -1.3181
 1217SOL     OW15109   4.563   3.279  10.019  0.5850 -0.0731 -0.2463
 1217SOL    HW115110   4.621   3.206   9.995  0.7233 -0.3995  1.0751
 1217SOL    HW215111   4.551   3.322   9.935 -0.3133  1.8207  0.8513
 1218SOL     OW15112   0.638   0.096   6.063  0.5133 -0.3509  0.2244
 1218SOL    HW115113   0.706   0.145   6.016  0.4526 -0.2329  0.2583
 1218SOL    HW215114   0.677   0.112   6.149 -0.5020  4.1042 -0.1013
 1219SOL     OW15115   4.165   0.397  14.711  0.8373  0.2165  0.1691
 1219SOL    HW115116   4.198   0.447  14.637  3.0704 -0.3099  0.8307
 1219SOL    HW215117   4.194   0.449  14.786  1.7516 -0.8760  0.5818
 1220SOL     OW15118   2.215   1.208  14.581  0.2623  0.1948  0.0271
 1220SOL    HW115119   2.284   1.260  14.623 -1.3948  3.5889 -1.4609
 1220SOL    HW215120   2.261   1.148  14.523 -1.9168 -1.2254 -0.2031
 1221SOL     OW15121   1.283   4.278  11.639  0.2006  0.0446 -0.0028
 1221SOL    HW115122   1.317   4.199  11.597 -0.5797 -1.0276  1.3684
 1221SOL    HW215123   1.191   4.271  11.613 -0.1022  0.3933  0.9599
 1222SOL     OW15124   1.178   4.166   3.108  0.2945 -0.1235  0.6135
 1222SOL    HW115125   1.155   4.125   3.192 -0.8322  3.3250  1.9709
 1222SOL    HW215126   1.221   4.249   3.127 -0.2414  0.7790 -2.0737
 1223SOL     OW15127   4.491   0.200   2.308 -0.3857  0.4414 -0.4023
 1223SOL    HW115128   4.480   0.228   2.217 -0.2096  0.8614 -0.2933
 1223SOL    HW215129   4.587   0.193   2.314 -0.6727 -1.0981  2.4810
 1224SOL     OW15130   2.093   2.023   5.194  0.0413  0.2694  0.1409
 1224SOL    HW115131   2.164   2.020   5.258  0.8477 -1.0162 -0.8094
 1224SOL    HW215132   2.105   2.111   5.157  0.8438 -1.0079 -2.6264
 1225SOL     OW15133   1.893   0.718   3.657 -1.4277 -0.4867  0.0939
 1225SOL    HW115134   1.809   0.676   3.637 -0.6048 -0.8792 -2.4932
 1225SOL    HW215135   1.904   0.697   3.750  1.4503 -1.5039 -0.4925
 1226SOL     OW15136   0.776   3.567   8.577 -0.0296 -0.6468  0.2157
 1226SOL    HW115137   0.837   3.572   8.503  0.1597  0.7834  0.4721
 1226SOL    HW215138   0.836   3.519   8.635 -0.2756 -0.3158  0.7383
 1227SOL     OW15139   1.242   4.625   5.868 -0.1875  0.2007 -1.0179
 1227SOL    HW115140   1.186   4.697   5.897 -1.1419 -0.7348 -0.5008
 1227SOL    HW215141   1.291   4.613   5.949 -1.6517 -0.1803 -0.1881
 1228SOL     OW15142   3.688   1.366   1.897  0.2252 -0.2877  0.1950
 1228SOL    HW115143   3.762   1.419   1.868  0.1582 -0.1214  0.3308
 1228SOL    HW215144   3.680   1.381   1.991  1.0039  0.9413  0.0619
 1229SOL     OW15145   4.257   2.532   1.500 -0.0226 -0.2970  0.1083
 1229SOL    HW115146   4.225   2.472   1.568  0.3249  1.3588  1.7242
 1229SOL    HW215147   4.192   2.598   1.523  1.6029  1.6623 -0.9464
 1230SOL     OW15148   0.793   3.937   3.420  0.5488  0.0483 -0.2988
 1230SOL    HW115149   0.776   3.902   3.333  0.2402 -0.5129 -0.0084
 1230SOL    HW215150   0.755   4.025   3.414 -1.9989 -1.0345 -0.1513
 1231SOL     OW15151   3.751   3.186   5.011  1.1860  0.6551  0.2470
 1231SOL    HW115152   3.773   3.264   4.960 -0.7443  0.7721 -0.4160
 1231SOL    HW215153   3.811   3.118   4.980  1.2342  0.9463 -0.3075
 1232SOL     OW15154   2.149   2.414   7.281 -0.1889  0.1258 -0.1643
 1232SOL    HW115155   2.082   2.455   7.336  0.1472 -0.0389  0.3669
 1232SOL    HW215156   2.095   2.337   7.262  1.7504 -1.4324  0.6007
 1233SOL     OW15157   2.898   0.940   5.844  0.0757 -0.6576  0.3434
 1233SOL    HW115158   2.872   1.006   5.780 -0.8066 -1.7480 -0.4393
 1233SOL    HW215159   2.880   0.990   5.924  0.8532 -0.2315  0.2552
 1234SOL     OW15160   1.342   0.967  14.689 -0.0520 -0.1909 -0.3993
 1234SOL    HW115161   1.329   0.947  14.781  1.2134 -0.7395 -0.3397
 1234SOL    HW215162   1.427   0.924  14.675  0.0620  0.1281 -0.6886
 1235SOL     OW15163   1.982   1.741   3.340 -0.1947  0.1323  0.3154
 1235SOL    HW115164   1.969   1.820   3.392  0.8781 -0.5402  1.6393
 1235SOL    HW215165   1.940   1.772   3.261  2.3077  0.0603 -1.0532
 1236SOL     OW15166   2.250   0.543   6.666 -0.5620 -0.8046  0.0349
 1236SOL    HW115167   2.193   0.484   6.617 -1.3090 -0.5640  0.5921
 1236SOL    HW215168   2.319   0.487   6.701  0.8189  0.6987 -0.3258
 1237SOL     OW15169   3.546   4.248   0.603 -0.2340 -0.0280 -0.5127
 1237SOL    HW115170   3.493   4.311   0.651  2.1820  1.5968  0.0056
 1237SOL    HW215171   3.632   4.270   0.638 -1.2010  0.9144  1.2345
 1238SOL     OW15172   3.726   0.372   7.302 -0.2788 -0.0370  0.1685
 1238SOL    HW115173   3.758   0.434   7.368 -0.9250  0.8651 -0.3682
 1238SOL    HW215174   3.777   0.291   7.301  0.8229  0.6381  1.5412
 1239SOL     OW15175   0.771   4.470   7.913  0.2004  0.2367  0.2075
 1239SOL    HW115176   0.691   4.482   7.964 -0.4478 -2.3525 -0.1856
 1239SOL    HW215177   0.733   4.455   7.826  2.3191 -0.8022 -0.5387
 1240SOL     OW15178   1.549   4.555  10.423 -0.0572 -0.0944  0.4411
 1240SOL    HW115179   1.596   4.563  10.340  0.5438 -2.0086  0.6129
 1240SOL    HW215180   1.511   4.468  10.413 -1.0908  0.4787 -0.6897
 1241SOL     OW15181   2.428   3.457   7.137  0.1228  0.3849  0.5039
 1241SOL    HW115182   2.454   3.375   7.095  0.8746  1.1141 -0.4598
 1241SOL    HW215183   2.333   3.458   7.126  0.1589 -2.2347 -0.0880
 1242SOL     OW15184   1.454   0.778  17.398 -0.4756  0.2551  0.8281
 1242SOL    HW115185   1.492   0.778  17.485 -0.5934  1.2747  0.8797
 1242SOL    HW215186   1.450   0.873  17.383  0.4819  0.4842  2.0985
 1243SOL     OW15187   0.071   3.757   6.339 -0.4049 -0.4734  0.0929
 1243SOL    HW115188   0.084   3.850   6.359 -0.4356  0.1685 -2.7920
 1243SOL    HW215189   4.720   3.737   6.396  0.4399 -1.4405  0.8575
 1244SOL     OW15190   2.501   0.475   6.185 -0.2885  0.0761 -0.4760
 1244SOL    HW115191   2.513   0.481   6.280  2.0252  0.6468 -0.7979
 1244SOL    HW215192   2.406   0.474   6.181 -0.2862 -3.0457  0.0460
 1245SOL     OW15193   0.067   2.515  10.539 -0.6615  0.4138  0.4874
 1245SOL    HW115194   4.696   2.506  10.521 -0.9041  2.6122  0.6950
 1245SOL    HW215195   0.063   2.476  10.627  1.8007  0.8575  0.7851
 1246SOL     OW15196   2.608   3.454   3.275 -0.2818 -0.3154  0.3130
 1246SOL    HW115197   2.527   3.490   3.311  0.2694  0.0763  1.1576
 1246SOL    HW215198   2.629   3.536   3.230 -0.5280 -0.2982  0.2327
 1247SOL     OW15199   4.216   1.817   3.381 -0.1920  0.2293  0.0711
 1247SOL    HW115200   4.273   1.894   3.374 -0.3261  0.2794 -0.4306
 1247SOL    HW215201   4.148   1.838   3.318 -1.3083 -2.3840  0.4032
 1248SOL     OW15202   2.438   0.051   4.245 -0.0792  0.6276 -0.6183
 1248SOL    HW115203   2.375   4.714   4.284  0.7023  0.9022  1.0684
 1248SOL    HW215204   2.462   0.089   4.330  3.0618 -2.6326 -0.0634
 1249SOL     OW15205   3.460   4.715   0.268 -0.9074 -0.0679 -0.5309
 1249SOL    HW115206   3.414   0.049   0.329 -1.7191 -1.1983 -0.0753
 1249SOL    HW215207   3.481   4.641   0.326 -0.9752  2.2011  2.3789
 1250SOL     OW15208   1.469   4.401  16.160  0.2311 -0.5378 -0.1117
 1250SOL    HW115209   1.468   4.395  16.065  0.1857 -0.7895 -0.0978
 1250SOL    HW215210   1.406   4.334  16.186 -0.5848  0.2059 -0.1749
 1251SOL     OW15211   3.762   4.583  16.359  0.1577  0.4651  0.0140
 1251SOL    HW115212   3.735   4.497  16.328  1.8958 -0.1556  0.2317
 1251SOL    HW215213   3.822   4.618  16.294  0.0594  0.7398  0.0716
 1252SOL     OW15214   2.310   3.970   2.819  0.2043  0.0122 -0.6066
 1252SOL    HW115215   2.275   3.969   2.908 -0.1557 -1.0357 -0.7574
 1252SOL    HW215216   2.226   3.951   2.776 -0.3983 -0.0576  0.6196
 1253SOL     OW15217   4.705   0.485   2.257  0.1966 -0.1718 -0.7682
 1253SOL    HW115218   4.623   0.532   2.268 -0.9015 -2.2746 -0.0043
 1253SOL    HW215219   4.685   0.439   2.176  1.5783  2.0823 -2.4099
 1254SOL     OW15220   0.056   2.084  10.502 -0.0087 -0.7574 -0.1906
 1254SOL    HW115221   0.150   2.082  10.519  0.2605 -1.7731 -1.8300
 1254SOL    HW215222   0.049   2.158  10.442  0.5876  1.1798  2.1176
 1255SOL     OW15223   0.185   1.337   6.462  0.1224  0.1332 -0.7788
 1255SOL    HW115224   0.121   1.389   6.415 -1.6078 -1.5355 -0.2586
 1255SOL    HW215225   0.201   1.396   6.536 -0.8269 -0.4770 -0.0887
 1256SOL     OW15226   4.171   1.225   7.328 -0.0202 -0.1905  0.4028
 1256SOL    HW115227   4.212   1.311   7.331  0.0480 -0.2716  1.8451
 1256SOL    HW215228   4.078   1.248   7.323  0.5912  2.6234  2.0359
 1257SOL     OW15229   3.486   0.583  17.620 -0.1426 -1.2074 -0.4160
 1257SOL    HW115230   3.401   0.617  17.590 -0.5432 -1.6795  0.1836
 1257SOL    HW215231   3.471   0.604   0.020 -3.0037  2.2143 -1.6411
 1258SOL     OW15232   4.486   2.471  10.585 -0.1748  0.5009 -0.5733
 1258SOL    HW115233   4.476   2.499  10.676 -1.5044  3.2690 -1.5872
 1258SOL    HW215234   4.412   2.508  10.538  0.7263 -0.6186 -2.8615
 1259SOL     OW15235   2.245   0.867   5.528  0.2955  0.7057 -0.2821
 1259SOL    HW115236   2.284   0.933   5.471  0.9423  1.0004  0.5054
 1259SOL    HW215237   2.299   0.870   5.606  1.0459 -1.5636 -0.7169
 1260SOL     OW15238   3.131   4.687   2.815 -0.1340  0.2104  0.6087
 1260SOL    HW115239   3.117   4.722   2.903  0.5436  0.8477  0.4602
 1260SOL    HW215240   3.174   4.606   2.841 -0.8608 -0.7930 -1.3054
 1261SOL     OW15241   2.211   3.158   8.497 -0.1797 -0.4670 -0.0806
 1261SOL    HW115242   2.161   3.136   8.576 -2.3508 -0.1269 -1.3702
 1261SOL    HW215243   2.147   3.123   8.435 -0.7246 -0.6927  0.6058
 1262SOL     OW15244   0.550   3.020   0.135 -0.2805 -0.2966  0.0801
 1262SOL    HW115245   0.501   3.101   0.120 -0.0436 -0.4152 -1.3347
 1262SOL    HW215246   0.480   2.960   0.109 -0.5187 -0.1933  0.4826
 1263SOL     OW15247   1.977   0.836   3.096 -0.6251  0.0936  0.3757
 1263SOL    HW115248   1.882   0.844   3.088 -0.6736 -0.9903 -0.0811
 1263SOL    HW215249   1.989   0.789   3.179  3.0161  0.2518 -0.0437
 1264SOL     OW15250   1.773   4.283   7.096 -0.2535 -0.6944 -0.1653
 1264SOL    HW115251   1.685   4.249   7.110 -1.1228  1.5506 -0.3265
 1264SOL    HW215252   1.830   4.206   7.105 -0.1825 -0.4663  1.2955
 1265SOL     OW15253   0.678   2.607   4.324 -0.2874 -0.1873  0.1134
 1265SOL    HW115254   0.608   2.576   4.382 -0.0952 -2.3954 -0.8085
 1265SOL    HW215255   0.651   2.691   4.287  2.0982  0.3392 -0.4145
 1266SOL     OW15256   1.166   3.614   6.187 -0.0742  0.0225 -0.1601
 1266SOL    HW115257   1.146   3.626   6.280 -1.3680 -1.6095 -0.2327
 1266SOL    HW215258   1.074   3.604   6.163 -0.8541  1.4678  2.2142
 1267SOL     OW15259   2.395   1.174   1.513 -0.4092  0.5593  0.2589
 1267SOL    HW115260   2.440   1.140   1.591 -1.2391  1.8094  1.2984
 1267SOL    HW215261   2.317   1.121   1.500  0.2763 -0.3271 -0.2317
 1268SOL     OW15262   4.371   4.717   7.300  1.0600  0.1852 -0.1914
 1268SOL    HW115263   4.339   4.629   7.320 -0.6534  0.8847  0.0797
 1268SOL    HW215264   4.336   4.718   7.210  0.9824 -1.7029 -0.1887
 1269SOL     OW15265   3.784   1.016   5.476  0.3461  0.5161  0.1036
 1269SOL    HW115266   3.749   1.032   5.564 -1.4524  1.6129 -0.8265
 1269SOL    HW215267   3.861   0.967   5.505  0.9436  1.5219  0.1951
 1270SOL     OW15268   3.625   2.387   3.091  0.2004  0.0119 -0.1541
 1270SOL    HW115269   3.640   2.388   2.996  0.9224 -2.0927 -0.0760
 1270SOL    HW215270   3.557   2.452   3.105  0.4464  0.4836 -1.1812
 1271SOL     OW15271   0.268   3.297   3.687 -0.0801 -0.2720 -0.1158
 1271SOL    HW115272   0.295   3.386   3.664  3.1986 -0.9512  1.0770
 1271SOL    HW215273   0.176   3.311   3.706  0.3487  1.8922  0.2818
 1272SOL     OW15274   0.812   3.993  16.577  0.9095 -0.3465  0.2956
 1272SOL    HW115275   0.780   3.903  16.585  0.6167 -0.1901  0.8091
 1272SOL    HW215276   0.904   3.981  16.602  1.0887  1.0968  0.3341
 1273SOL     OW15277   1.237   3.104   1.209  0.1683  0.0973 -0.0539
 1273SOL    HW115278   1.277   3.191   1.215  0.2796  0.0901 -0.7277
 1273SOL    HW215279   1.307   3.045   1.237 -0.3972 -0.2741  0.5627
 1274SOL     OW15280   4.154   1.567  14.358  0.3024  0.1374  0.2761
 1274SOL    HW115281   4.099   1.515  14.416 -1.3444  0.2163 -1.1921
 1274SOL    HW215282   4.085   1.591  14.295  0.4586  1.8946  0.7845
 1275SOL     OW15283   0.786   2.282   3.991 -0.2588 -0.4722 -0.4181
 1275SOL    HW115284   0.830   2.360   4.027  0.7569 -0.4743 -1.6491
 1275SOL    HW215285   0.743   2.241   4.066  1.9458  1.3439  1.8820
 1276SOL     OW15286   4.412   3.077   9.756  0.1917 -0.1338 -0.2755
 1276SOL    HW115287   4.398   3.011   9.688 -0.7273  0.5433 -0.7441
 1276SOL    HW215288   4.391   3.158   9.710  0.2983 -0.6285 -1.1863
 1277SOL     OW15289   4.300   3.326   9.561  0.1404  0.5409  0.2306
 1277SOL    HW115290   4.219   3.375   9.552  0.2055  0.9853  2.0648
 1277SOL    HW215291   4.274   3.254   9.503  0.1031  1.0707 -0.4143
 1278SOL     OW15292   2.775   1.981   5.637  0.3045 -0.2443 -0.6867
 1278SOL    HW115293   2.755   2.063   5.683  2.3756 -0.6879  1.0129
 1278SOL    HW215294   2.871   1.986   5.633  0.3308 -0.2784 -0.1393
 1279SOL     OW15295   1.317   4.548   3.418  0.8747 -0.8421 -0.1907
 1279SOL    HW115296   1.359   4.634   3.425 -0.7591 -0.1302  0.8582
 1279SOL    HW215297   1.230   4.586   3.404  0.4421 -1.0802  1.8859
 1280SOL     OW15298   0.527   2.747   2.721 -0.0044  0.2413  0.0801
 1280SOL    HW115299   0.541   2.839   2.695  1.6139 -0.7808 -2.6759
 1280SOL    HW215300   0.442   2.737   2.679  0.0794  0.4206 -0.1403
 1281SOL     OW15301   4.210   3.904   5.621  0.0826 -1.2013 -0.3324
 1281SOL    HW115302   4.236   3.924   5.530 -0.0379  1.7878  0.2807
 1281SOL    HW215303   4.131   3.957   5.615  0.0583 -1.0633  1.4042
 1282SOL     OW15304   4.117   0.048   3.563  0.4729  0.1018 -0.1870
 1282SOL    HW115305   4.149   0.016   3.479  2.6060  0.6509  0.4208
 1282SOL    HW215306   4.049   0.102   3.522  0.0425 -0.2708  0.0240
 1283SOL     OW15307   3.524   2.765   5.398 -0.0368  0.4229  0.1561
 1283SOL    HW115308   3.533   2.680   5.441  0.7089 -0.3921 -1.5967
 1283SOL    HW215309   3.431   2.771   5.377 -0.1678 -0.1075  0.5917
 1284SOL     OW15310   3.747   4.179   6.457  0.4751  0.7257  0.5361
 1284SOL    HW115311   3.817   4.237   6.426  1.1085  0.7774  2.0269
 1284SOL    HW215312   3.774   4.171   6.549 -2.1512 -1.4642  1.1166
 1285SOL     OW15313   0.627   0.796   6.563  0.2731 -0.1777  0.1234
 1285SOL    HW115314   0.691   0.849   6.610  2.9982 -3.1260 -0.2793
 1285SOL    HW215315   0.627   0.835   6.475  1.2000 -1.5628 -0.4918
 1286SOL     OW15316   4.069   4.238   3.849  0.8446 -0.2509  0.3540
 1286SOL    HW115317   3.985   4.265   3.811 -0.5752 -0.9365  3.0107
 1286SOL    HW215318   4.122   4.305   3.807 -0.9795  0.9835  0.0238
 1287SOL     OW15319   3.628   4.325  11.535  0.4975 -0.5546  0.0867
 1287SOL    HW115320   3.665   4.412  11.516  0.1211 -0.7403 -1.5047
 1287SOL    HW215321   3.614   4.294  11.445 -0.6842 -0.7409  0.3347
 1288SOL     OW15322   2.967   3.329  11.078 -0.3238  0.5622  0.3764
 1288SOL    HW115323   2.881   3.288  11.084 -0.0722 -0.2330 -1.3323
 1288SOL    HW215324   2.994   3.326  11.169  3.5312 -2.1512 -0.8244
 1289SOL     OW15325   3.894   2.471   6.642 -0.4305 -0.0549  0.5341
 1289SOL    HW115326   3.909   2.519   6.723  0.3832  2.6785 -1.2379
 1289SOL    HW215327   3.875   2.380   6.665  1.8199 -0.4954  0.5971
 1290SOL     OW15328   1.199   4.210   3.994  0.4665  0.2903 -0.5240
 1290SOL    HW115329   1.152   4.230   4.074  1.3297  1.4494 -0.2953
 1290SOL    HW215330   1.291   4.205   4.022  0.7847 -0.5862 -1.7017
 1291SOL     OW15331   0.506   0.119   6.585  0.0224 -0.8250 -0.0147
 1291SOL    HW115332   0.569   0.162   6.527  1.0897 -2.3414  0.0340
 1291SOL    HW215333   0.563   0.120   6.662 -0.1464  3.1552  0.0400
 1292SOL     OW15334   1.012   2.066   7.679  0.2336  0.1041 -0.5478
 1292SOL    HW115335   0.992   2.158   7.698  1.5740  0.1298  0.7216
 1292SOL    HW215336   1.014   2.027   7.766 -1.6380  4.7979  1.5676
 1293SOL     OW15337   1.110   0.547   0.537  0.3699 -0.1764 -0.1247
 1293SOL    HW115338   1.060   0.622   0.504 -1.4940 -0.4758  2.0463
 1293SOL    HW215339   1.194   0.564   0.494  0.0208 -1.1336 -1.2045
 1294SOL     OW15340   4.692   3.690   9.268  0.6949 -0.1720 -0.0229
 1294SOL    HW115341   4.696   3.622   9.201 -0.0861 -1.2515  1.0266
 1294SOL    HW215342   0.061   3.699   9.295 -0.0790  3.0702  1.4769
 1295SOL     OW15343   1.210   3.623  12.325  0.8883 -0.1622  0.5591
 1295SOL    HW115344   1.170   3.599  12.408  1.0831  0.2412  0.7728
 1295SOL    HW215345   1.226   3.538  12.284  2.0421  0.2202  0.2076
 1296SOL     OW15346   0.569   1.639   6.703 -0.2607  0.1114  0.1722
 1296SOL    HW115347   0.543   1.672   6.789 -0.5448  1.9128 -0.6047
 1296SOL    HW215348   0.488   1.663   6.659 -0.3576 -0.5866 -0.0315
 1297SOL     OW15349   2.555   4.540   9.243 -0.5000  0.0124 -0.2093
 1297SOL    HW115350   2.530   4.631   9.257  3.0536  1.1602 -1.3434
 1297SOL    HW215351   2.497   4.485   9.296 -0.0986  0.5965  0.8314
 1298SOL     OW15352   4.098   4.101  16.548  0.0144  0.3356 -0.4677
 1298SOL    HW115353   4.105   4.030  16.484 -0.8003 -2.0181  2.0391
 1298SOL    HW215354   4.109   4.050  16.629  0.0511  2.1115  0.6358
 1299SOL     OW15355   1.658   1.140   0.203  0.1023 -0.2105 -0.3957
 1299SOL    HW115356   1.569   1.147   0.239 -0.2686  0.7878 -1.5209
 1299SOL    HW215357   1.657   1.179   0.116  0.2466  1.0829  0.1750
 1300SOL     OW15358   2.618   3.180  16.000  0.2407 -0.1337  0.5903
 1300SOL    HW115359   2.594   3.092  15.970  0.2818 -0.6076  1.9575
 1300SOL    HW215360   2.677   3.152  16.069  2.8205  0.0513 -1.5572
 1301SOL     OW15361   4.388   3.567   8.377 -0.8965  0.1972  0.4344
 1301SOL    HW115362   4.392   3.490   8.432  0.9820 -1.0325 -1.4297
 1301SOL    HW215363   4.482   3.584   8.384 -0.9753  1.8566 -2.4701
 1302SOL     OW15364   3.607   0.804  15.028  0.3342 -0.2289  0.1146
 1302SOL    HW115365   3.527   0.855  15.047 -1.4034 -2.2083 -1.8588
 1302SOL    HW215366   3.647   0.797  15.114 -0.0077  1.2587  0.4003
 1303SOL     OW15367   4.575   0.481  13.665 -0.7033 -0.0624  0.3278
 1303SOL    HW115368   4.573   0.473  13.760  1.0743 -2.1175  0.2023
 1303SOL    HW215369   4.604   0.568  13.636  0.2068 -0.3366  0.4078
 1304SOL     OW15370   3.919   1.138   7.943 -0.2147 -0.2057  0.3807
 1304SOL    HW115371   3.832   1.164   7.912  0.0201  0.5723  0.3870
 1304SOL    HW215372   3.927   1.066   7.881 -1.6324  1.1857 -1.4305
 1305SOL     OW15373   4.667   4.018   3.272  0.3053 -0.2779  0.2423
 1305SOL    HW115374   4.626   3.931   3.275 -0.6997  0.2158  0.9100
 1305SOL    HW215375   0.026   3.990   3.313  0.3364 -0.4704  0.0514
 1306SOL     OW15376   1.416   1.980  12.052 -0.1427  0.2128  0.1089
 1306SOL    HW115377   1.458   2.056  12.011 -1.5345  0.9290  0.0299
 1306SOL    HW215378   1.431   2.000  12.144  1.6441  1.4978 -0.4574
 1307SOL     OW15379   0.575   4.388   6.341  0.0077 -0.4476 -0.7459
 1307SOL    HW115380   0.535   4.447   6.277  0.9585  0.9281 -0.0765
 1307SOL    HW215381   0.656   4.439   6.348  0.2266 -0.8734 -0.2411
 1308SOL     OW15382   0.316   1.772   1.976 -1.1496 -0.1657 -0.0988
 1308SOL    HW115383   0.363   1.709   2.030  2.1410 -0.4429 -3.2948
 1308SOL    HW215384   0.270   1.705   1.925 -0.8759  0.7449 -1.5549
 1309SOL     OW15385   1.230   1.017  16.442  0.4268 -0.9926  0.1971
 1309SOL    HW115386   1.179   1.025  16.362  0.6556 -0.1386  0.1366
 1309SOL    HW215387   1.178   1.058  16.511  0.3964  0.3955 -0.6558
 1310SOL     OW15388   1.549   2.428  13.932  0.0924 -0.3274 -0.0491
 1310SOL    HW115389   1.569   2.519  13.955  2.3200 -0.4183 -1.5980
 1310SOL    HW215390   1.503   2.437  13.848 -0.8449  1.2418  0.6318
 1311SOL     OW15391   3.935   0.499  14.061  0.2575  0.3143 -0.5013
 1311SOL    HW115392   3.885   0.573  14.025 -0.2607  0.3270  0.2402
 1311SOL    HW215393   3.904   0.502  14.151 -1.3135 -0.4774 -0.9966
 1312SOL     OW15394   2.802   0.914   7.282  0.2212 -0.3626 -0.1801
 1312SOL    HW115395   2.844   0.965   7.212  1.9981 -0.2161  0.9904
 1312SOL    HW215396   2.716   0.908   7.242 -0.7856  0.1678  1.9211
 1313SOL     OW15397   4.696   1.136   3.510 -0.0169 -0.0792  0.0996
 1313SOL    HW115398   4.672   1.197   3.441 -1.0072  0.7907  1.2020
 1313SOL    HW215399   4.681   1.189   3.589  0.3683  1.7154 -1.0307
 1314SOL     OW15400   1.866   4.036   9.819 -0.2054 -0.6497 -0.5967
 1314SOL    HW115401   1.954   4.003   9.798  1.1366  1.6287  1.4531
 1314SOL    HW215402   1.863   4.030   9.914 -2.9857 -1.1526 -0.7241
 1315SOL     OW15403   2.288   3.428   1.277  0.7143 -0.4773 -0.8664
 1315SOL    HW115404   2.287   3.448   1.184 -0.6956 -2.3042 -1.2388
 1315SOL    HW215405   2.261   3.336   1.272  0.5993 -0.4215 -1.2742
 1316SOL     OW15406   3.659   1.566   8.701  0.3546  0.0121  0.0436
 1316SOL    HW115407   3.610   1.648   8.709 -0.8942 -0.6707 -0.4838
 1316SOL    HW215408   3.656   1.547   8.607 -0.3758 -0.9554  0.2627
 1317SOL     OW15409   1.016   1.197  12.300 -0.2928 -0.4802  0.1833
 1317SOL    HW115410   1.053   1.114  12.332 -1.8218 -0.7508  1.2606
 1317SOL    HW215411   0.954   1.167  12.233 -1.4883  1.6076  0.3467
 1318SOL     OW15412   3.929   2.815   6.989 -0.1775 -0.0526  0.2448
 1318SOL    HW115413   3.997   2.771   6.939  1.1020  2.3342 -0.1086
 1318SOL    HW215414   3.976   2.830   7.071 -0.6269  2.2716  0.0649
 1319SOL     OW15415   3.491   2.259   4.758 -0.6425  0.0826 -0.2856
 1319SOL    HW115416   3.528   2.298   4.678 -0.1925  0.1481 -0.0439
 1319SOL    HW215417   3.410   2.217   4.731  0.1569 -1.2854 -0.5757
 1320SOL     OW15418   1.888   3.708   1.712  0.2873  0.0252 -0.3315
 1320SOL    HW115419   1.910   3.799   1.734 -1.6584  0.6997 -1.1577
 1320SOL    HW215420   1.974   3.666   1.705 -0.6083 -1.5305 -2.0030
 1321SOL     OW15421   1.258   4.576   7.059  0.1409 -0.0222  0.2100
 1321SOL    HW115422   1.169   4.607   7.079  0.4306 -0.9310  2.9028
 1321SOL    HW215423   1.290   4.646   7.002 -0.2134  0.4275  0.5639
 1322SOL     OW15424   3.589   3.362   7.968 -0.6243 -0.0136  0.7786
 1322SOL    HW115425   3.502   3.346   8.003 -0.6642  0.2631  0.8121
 1322SOL    HW215426   3.613   3.413   8.046 -0.9529  2.5062 -0.7718
 1323SOL     OW15427   1.972   3.139  14.011 -0.1062  0.0605  0.5600
 1323SOL    HW115428   1.948   3.186  14.091 -0.6632 -4.3070  2.9483
 1323SOL    HW215429   1.930   3.056  14.036  0.7320 -0.6041 -0.2265
 1324SOL     OW15430   1.360   3.927   4.560  0.2548  0.7082  0.2062
 1324SOL    HW115431   1.267   3.910   4.579  0.1751  1.0863  0.1541
 1324SOL    HW215432   1.402   3.841   4.567  1.2415  1.1100 -0.8712
 1325SOL     OW15433   4.100   0.643   0.939  0.2808  0.4229  0.1813
 1325SOL    HW115434   4.193   0.666   0.938  0.1381  0.9393 -1.0318
 1325SOL    HW215435   4.091   0.579   0.869  2.4594  0.8213 -0.4603
 1326SOL     OW15436   1.154   0.294   3.512  0.3206 -0.4585  0.2539
 1326SOL    HW115437   1.137   0.325   3.423 -0.1593  1.4834  1.0232
 1326SOL    HW215438   1.206   0.372   3.535 -2.3347  1.8906 -1.7610
 1327SOL     OW15439   4.302   3.746   3.233  0.3282 -0.1259 -0.1428
 1327SOL    HW115440   4.356   3.811   3.187  0.4711  1.4582  2.2704
 1327SOL    HW215441   4.367   3.708   3.293  0.1644  1.4065  0.9959
 1328SOL     OW15442   2.817   4.627   9.752 -0.2913 -0.1425 -0.5763
 1328SOL    HW115443   2.732   4.586   9.763 -0.3429  0.0039 -0.4354
 1328SOL    HW215444   2.802   4.690   9.682 -2.8884 -0.7807 -0.5851
 1329SOL     OW15445   4.419   3.507   7.463 -0.2004  0.2206  0.4100
 1329SOL    HW115446   4.397   3.473   7.376  0.4509 -0.4659  0.5174
 1329SOL    HW215447   4.475   3.433   7.489 -1.4609 -0.5600  0.8801
 1330SOL     OW15448   1.795   1.829   8.529  0.1900 -1.1091  0.2329
 1330SOL    HW115449   1.745   1.759   8.486 -0.5228 -1.0466  0.9576
 1330SOL    HW215450   1.789   1.807   8.622 -3.1201  4.2919  1.2749
 1331SOL     OW15451   0.909   4.209   8.997 -0.1230  0.0105  1.3114
 1331SOL    HW115452   0.997   4.202   8.962 -0.6116 -4.7706  0.9661
 1331SOL    HW215453   0.896   4.301   8.974 -1.6984 -0.7176 -0.7763
 1332SOL     OW15454   2.111   1.177  11.340 -0.4357 -0.0368 -0.4341
 1332SOL    HW115455   2.062   1.100  11.312 -1.5721 -0.4278  2.6018
 1332SOL    HW215456   2.178   1.180  11.272 -1.4717 -1.8365 -1.5415
 1333SOL     OW15457   2.582   3.615   0.024  0.0035 -0.3660 -0.1065
 1333SOL    HW115458   2.502   3.565   0.033 -0.5905  0.2677 -1.8146
 1333SOL    HW215459   2.556   3.705   0.002 -1.4513 -0.0511  2.9576
 1334SOL     OW15460   1.807   1.106   5.316 -0.0065  0.1269  0.4658
 1334SOL    HW115461   1.813   1.118   5.410  0.8144  2.9618  0.0459
 1334SOL    HW215462   1.764   1.021   5.313 -1.1710  0.7520 -0.4487
 1335SOL     OW15463   1.023   1.030   3.351  0.1655 -0.1211 -0.1436
 1335SOL    HW115464   1.018   0.935   3.338  1.6576 -0.2473  0.2105
 1335SOL    HW215465   1.099   1.044   3.408  1.7022 -0.3022 -2.1764
 1336SOL     OW15466   3.368   2.079   5.240 -0.0201  0.2587 -0.5960
 1336SOL    HW115467   3.422   2.146   5.197  1.7947 -2.9019 -3.2002
 1336SOL    HW215468   3.425   2.059   5.314 -2.0113  0.2123  0.9189
 1337SOL     OW15469   1.899   3.233   7.996 -0.4191 -0.3944  0.1040
 1337SOL    HW115470   1.940   3.252   7.911  0.4202 -0.1410  0.5680
 1337SOL    HW215471   1.962   3.262   8.062 -0.4010 -1.1904  0.4351
 1338SOL     OW15472   0.552   3.393   0.700 -0.0754 -0.1320 -0.2518
 1338SOL    HW115473   0.625   3.363   0.645 -0.9487 -2.2230 -0.2797
 1338SOL    HW215474   0.484   3.363   0.639  0.0171  0.9194 -0.8629
 1339SOL     OW15475   0.399   1.230   6.116  0.3108  0.5608 -1.0319
 1339SOL    HW115476   0.401   1.220   6.211  0.5721  1.1463 -0.9752
 1339SOL    HW215477   0.323   1.287   6.109 -0.3507  0.1090  2.6326
 1340SOL     OW15478   1.116   0.559   8.192 -0.0328  0.3024  0.1013
 1340SOL    HW115479   1.034   0.531   8.232 -1.5970  2.2398 -1.7566
 1340SOL    HW215480   1.093   0.631   8.133 -0.8072 -0.2443 -0.2503
 1341SOL     OW15481   3.036   2.246  10.414 -0.3511 -0.2341  0.2192
 1341SOL    HW115482   3.039   2.170  10.472 -1.2854 -1.2928 -1.1167
 1341SOL    HW215483   3.128   2.269  10.404 -0.3395 -1.6807 -2.8225
 1342SOL     OW15484   2.282   0.081  16.768 -0.6806 -0.0614  0.2560
 1342SOL    HW115485   2.241   0.137  16.834 -1.7651 -0.0034 -0.4633
 1342SOL    HW215486   2.255   0.135  16.693 -3.0579  0.4408  1.4639
 1343SOL     OW15487   4.575   3.060   4.122  0.2042 -0.6184 -0.3708
 1343SOL    HW115488   4.511   3.085   4.189  1.7391  1.0132  0.4737
 1343SOL    HW215489   4.550   2.968   4.110  1.4742 -1.1278  0.9232
 1344SOL     OW15490   3.679   2.082   9.747  0.0512 -0.2109 -0.5866
 1344SOL    HW115491   3.665   1.990   9.727 -1.2522  0.4856 -2.9526
 1344SOL    HW215492   3.600   2.107   9.796 -1.0002 -1.4342 -1.6513
 1345SOL     OW15493   0.291   0.814   2.042 -0.4259  0.5484  0.0864
 1345SOL    HW115494   0.321   0.855   2.123  0.0305  0.8766 -0.2422
 1345SOL    HW215495   0.264   0.724   2.061 -1.6790  0.3935 -2.4820
 1346SOL     OW15496   1.950   3.704   4.981 -0.2749 -0.0695 -0.4571
 1346SOL    HW115497   2.034   3.748   4.973 -1.0062  1.4671  0.3253
 1346SOL    HW215498   1.986   3.621   5.013 -1.5370 -1.2366 -1.9909
 1347SOL     OW15499   3.715   1.698   3.750 -0.7105  0.0498 -0.4086
 1347SOL    HW115500   3.755   1.784   3.739 -1.5696  0.2916 -1.6810
 1347SOL    HW215501   3.777   1.641   3.795 -0.6069 -0.1480 -0.7980
 1348SOL     OW15502   1.814   0.229   4.131 -0.4137  0.2304  0.2430
 1348SOL    HW115503   1.879   0.280   4.083  0.8841 -0.4274  1.2837
 1348SOL    HW215504   1.776   0.174   4.063 -0.3273  1.3294 -0.6860
 1349SOL     OW15505   1.684   1.159   6.943  0.1861 -0.6068 -0.5097
 1349SOL    HW115506   1.740   1.110   7.003  0.8885 -0.2046 -0.8422
 1349SOL    HW215507   1.739   1.235   6.923 -2.4682  1.5647  0.4760
 1350SOL     OW15508   1.665   1.440   5.455  0.0353 -0.3404 -0.7194
 1350SOL    HW115509   1.602   1.381   5.413 -0.3684  1.8506 -3.1678
 1350SOL    HW215510   1.653   1.424   5.549 -2.1200 -0.6568 -1.0657
 1351SOL     OW15511   0.416   1.047  17.111  0.6080 -0.4702  0.5284
 1351SOL    HW115512   0.410   1.127  17.164 -0.4212 -0.0570 -0.1966
 1351SOL    HW215513   0.328   1.044  17.072  1.3233 -0.4700 -1.0542
 1352SOL     OW15514   2.706   2.525   5.908  0.0008  0.4845  0.3907
 1352SOL    HW115515   2.633   2.551   5.853  0.4707  0.5758 -0.1891
 1352SOL    HW215516   2.707   2.602   5.964 -2.1484 -0.1297  1.2567
 1353SOL     OW15517   1.760   2.424   1.978 -0.2983  0.1181  0.5133
 1353SOL    HW115518   1.710   2.351   1.941 -0.0592  1.3646 -2.3314
 1353SOL    HW215519   1.705   2.492   1.937  1.6942  1.1199 -0.4945
 1354SOL     OW15520   1.077   3.368  12.785 -0.6633 -0.3907  0.4141
 1354SOL    HW115521   1.011   3.357  12.853 -2.3240  1.4545 -0.8973
 1354SOL    HW215522   1.159   3.371  12.833 -2.2897  1.7794  3.0330
 1355SOL     OW15523   1.440   0.646   4.030  0.1889 -0.3202 -0.9491
 1355SOL    HW115524   1.480   0.726   4.064 -0.2735  0.8368 -3.1136
 1355SOL    HW215525   1.438   0.600   4.113 -2.1610  0.2123 -0.7094
 1356SOL     OW15526   2.251   2.113   3.047  0.2926  0.2170 -0.4573
 1356SOL    HW115527   2.296   2.196   3.033 -0.5203  0.9190  1.0304
 1356SOL    HW215528   2.324   2.074   3.094 -1.5308  0.1252  2.3168
 1357SOL     OW15529   3.314   2.772   8.825 -0.8353  0.4299 -0.0439
 1357SOL    HW115530   3.382   2.729   8.773 -2.1006  0.2936 -1.5687
 1357SOL    HW215531   3.338   2.747   8.914  1.2962  0.2329 -0.6751
 1358SOL     OW15532   1.158   2.385   4.160 -0.0264  0.0830 -0.1010
 1358SOL    HW115533   1.121   2.296   4.157  0.5038 -0.1038 -1.3906
 1358SOL    HW215534   1.250   2.360   4.153 -0.1376 -0.7830  1.6132
 1359SOL     OW15535   1.256   4.234  16.205 -0.2782 -0.1418  0.4371
 1359SOL    HW115536   1.216   4.207  16.122 -1.3194 -0.9662  1.2144
 1359SOL    HW215537   1.295   4.149  16.227  1.4771  0.3446 -0.7652
 1360SOL     OW15538   3.739   4.697  17.168  0.3707  0.2460 -0.1705
 1360SOL    HW115539   3.821   4.658  17.138 -1.5972 -3.4281 -0.9209
 1360SOL    HW215540   3.742   0.050  17.110 -1.6874 -1.2275 -2.2738
 1361SOL     OW15541   0.033   4.179   4.548  0.4929  0.0173 -0.0867
 1361SOL    HW115542   4.679   4.219   4.589  0.9517  0.3987  0.3979
 1361SOL    HW215543   4.717   4.139   4.471  0.1542  1.2658 -0.5614
 1362SOL     OW15544   3.711   0.994   1.012  0.1846 -0.0432  0.1803
 1362SOL    HW115545   3.714   0.899   1.009 -3.4923 -0.0813 -1.8630
 1362SOL    HW215546   3.805   1.010   1.026 -0.1747 -0.3204  3.0047
 1363SOL     OW15547   2.722   2.913   9.690  0.1471 -0.1062  0.3237
 1363SOL    HW115548   2.636   2.883   9.659  0.7487 -1.2385 -0.2203
 1363SOL    HW215549   2.779   2.854   9.641 -0.0380  0.5767 -0.7074
 1364SOL     OW15550   0.709   1.415   3.938  0.4680  0.0992 -0.0382
 1364SOL    HW115551   0.770   1.489   3.943 -0.5861  0.9206  0.7383
 1364SOL    HW215552   0.721   1.382   3.849 -1.3470  0.5694 -0.4708
 1365SOL     OW15553   2.963   3.159   4.268 -0.4587  0.0445 -0.6509
 1365SOL    HW115554   3.000   3.207   4.342 -1.0692 -1.0280  0.3728
 1365SOL    HW215555   3.019   3.183   4.195  0.2193  2.4527  0.6866
 1366SOL     OW15556   1.268   4.110   7.093 -0.6861  0.8838 -0.1201
 1366SOL    HW115557   1.242   4.077   7.007 -0.7608  0.9211 -0.1117
 1366SOL    HW215558   1.177   4.132   7.116 -0.8310  1.6448 -1.4479
 1367SOL     OW15559   0.508   3.375  11.816  0.2544 -0.5598  0.4662
 1367SOL    HW115560   0.435   3.314  11.812  0.2192 -0.2386 -3.1146
 1367SOL    HW215561   0.577   3.319  11.853  0.9427  1.0716  1.6970
 1368SOL     OW15562   4.638   3.693  12.754  0.1391  0.0841  0.3423
 1368SOL    HW115563   4.709   3.657  12.701 -0.5085  2.3603 -2.1060
 1368SOL    HW215564   4.668   3.783  12.770  0.5489  0.0119 -0.0300
 1369SOL     OW15565   3.193   2.624   7.954 -0.5121 -0.4181 -0.2331
 1369SOL    HW115566   3.210   2.718   7.963 -0.2617 -0.4763 -0.1058
 1369SOL    HW215567   3.235   2.581   8.029 -2.7689 -0.5434  0.9672
 1370SOL     OW15568   4.011   3.223  15.007 -0.2588 -0.1120 -0.3364
 1370SOL    HW115569   3.982   3.138  15.038  0.7952  0.0285  1.0361
 1370SOL    HW215570   4.020   3.207  14.913  1.6585 -0.8889 -0.0233
 1371SOL     OW15571   3.113   4.199  13.303  0.1072 -0.1925  0.1293
 1371SOL    HW115572   3.076   4.114  13.323 -0.7972 -0.0385 -0.9181
 1371SOL    HW215573   3.058   4.259  13.353 -2.4261 -0.7012 -2.0534
 1372SOL     OW15574   3.900   3.910   7.291  0.3517 -0.2273  0.0922
 1372SOL    HW115575   3.901   3.950   7.204  1.1106 -3.4689 -1.3970
 1372SOL    HW215576   3.995   3.907   7.302  0.1352  0.0619  2.0647
 1373SOL     OW15577   4.592   4.174  15.270 -0.3983  0.0847  0.2263
 1373SOL    HW115578   4.606   4.153  15.178  0.5267 -1.0823  0.6318
 1373SOL    HW215579   4.515   4.118  15.278 -0.3272  0.4451  3.4206
 1374SOL     OW15580   2.452   0.624   2.862  0.5632  0.4014 -0.2787
 1374SOL    HW115581   2.402   0.654   2.939 -0.4529 -2.2471  0.0814
 1374SOL    HW215582   2.493   0.707   2.838 -1.6926  0.9712 -2.1614
 1375SOL     OW15583   4.448   3.204  16.036  0.3418 -0.2212  0.0068
 1375SOL    HW115584   4.467   3.218  16.129  0.0913 -0.6835  0.1235
 1375SOL    HW215585   4.538   3.212  16.002  0.2848 -1.9056 -0.5109
 1376SOL     OW15586   3.181   3.346   3.249  0.2750  0.3276  0.0755
 1376SOL    HW115587   3.276   3.345   3.254  0.4327  1.3403 -2.6511
 1376SOL    HW215588   3.168   3.252   3.246 -0.5502  0.3788  1.9214
 1377SOL     OW15589   1.283   3.149   7.656  0.1362  0.0946 -0.3762
 1377SOL    HW115590   1.341   3.074   7.640  0.2277 -0.3715  2.1795
 1377SOL    HW215591   1.253   3.180   7.570  1.3450 -0.7005 -1.0889
 1378SOL     OW15592   2.535   3.747  16.651  0.4407  0.0616  0.3654
 1378SOL    HW115593   2.533   3.841  16.668  2.4082  0.1365  0.1487
 1378SOL    HW215594   2.460   3.727  16.595  0.0125 -2.7132  1.9740
 1379SOL     OW15595   0.743   1.063   8.209 -0.2784  0.2654  0.0725
 1379SOL    HW115596   0.838   1.059   8.208 -0.3718 -1.5511 -1.6179
 1379SOL    HW215597   0.723   0.982   8.257 -0.3070  0.4751  0.4161
 1380SOL     OW15598   1.654   4.468   0.517 -0.4920  0.2065 -0.2131
 1380SOL    HW115599   1.634   4.497   0.606  3.0876  2.0574  0.0107
 1380SOL    HW215600   1.580   4.507   0.472 -0.7223  0.2280  0.1860
 1381SOL     OW15601   4.563   2.522   2.231 -0.2583 -0.2585 -0.2823
 1381SOL    HW115602   4.482   2.531   2.283 -0.3333  2.0182 -0.8039
 1381SOL    HW215603   4.622   2.581   2.277  1.4266 -0.4442 -2.2555
 1382SOL     OW15604   1.397   0.306  13.363  0.1001 -0.2671  0.5485
 1382SOL    HW115605   1.393   0.389  13.411 -0.4108  0.7391 -1.2574
 1382SOL    HW215606   1.361   0.331  13.278  2.2463  0.9569  0.0041
 1383SOL     OW15607   1.944   1.377   9.958 -0.1752  0.3585  0.4379
 1383SOL    HW115608   1.915   1.412   9.874  0.2993  1.4858  0.7383
 1383SOL    HW215609   1.935   1.455  10.012  1.0014 -1.0036  2.6012
 1384SOL     OW15610   2.719   4.316   8.816  0.0269  0.0004 -0.2359
 1384SOL    HW115611   2.661   4.251   8.854  0.7152  0.4424  1.6061
 1384SOL    HW215612   2.734   4.368   8.896  1.6932  0.7384 -1.0359
 1385SOL     OW15613   4.238   3.630  10.061  0.1312  0.3392  0.3153
 1385SOL    HW115614   4.217   3.699  10.123  0.4907  3.4542 -3.0065
 1385SOL    HW215615   4.211   3.555  10.113  0.0598 -0.5164 -0.9780
 1386SOL     OW15616   1.805   2.620   6.594  0.1548 -0.0517  0.2551
 1386SOL    HW115617   1.898   2.634   6.572 -0.1273  0.9056 -0.3415
 1386SOL    HW215618   1.760   2.673   6.528 -2.3684  0.0100  2.0182
 1387SOL     OW15619   3.402   3.436   5.333 -0.3708  0.3009 -0.4759
 1387SOL    HW115620   3.383   3.375   5.404 -1.9667  0.9479 -0.3522
 1387SOL    HW215621   3.456   3.383   5.273 -0.2931  2.5086 -2.3465
 1388SOL     OW15622   3.375   4.077   5.738 -0.2420  0.1071  0.3674
 1388SOL    HW115623   3.384   3.987   5.771 -1.2518 -0.1830 -0.1548
 1388SOL    HW215624   3.373   4.127   5.819 -2.1631  1.2913 -0.4061
 1389SOL     OW15625   2.151   0.400  11.184  0.1602 -0.1035 -0.3292
 1389SOL    HW115626   2.220   0.454  11.146  1.4406 -0.1618  1.8647
 1389SOL    HW215627   2.084   0.408  11.117 -1.4330  2.4488  1.5771
 1390SOL     OW15628   3.956   4.033   9.037  0.0442  0.9141 -0.2583
 1390SOL    HW115629   4.000   4.118   9.036  2.5599 -0.4074 -1.3146
 1390SOL    HW215630   3.990   3.993   8.957 -0.9077 -0.0119 -0.2098
 1391SOL     OW15631   4.207   4.305   7.791  0.0473  0.2395 -0.0640
 1391SOL    HW115632   4.247   4.239   7.735  0.6255  1.2971 -0.8838
 1391SOL    HW215633   4.199   4.268   7.879 -1.8162 -0.6156 -0.5891
 1392SOL     OW15634   0.231   1.952   5.633 -0.1834  0.5964  0.5121
 1392SOL    HW115635   0.283   2.002   5.569  1.1086 -0.7333  0.5386
 1392SOL    HW215636   0.290   1.883   5.665  0.4520  1.7597  1.8694
 1393SOL     OW15637   3.365   1.159   8.116 -0.4945  0.2593 -0.2496
 1393SOL    HW115638   3.283   1.155   8.165  0.6062  0.0134  1.5427
 1393SOL    HW215639   3.415   1.229   8.158 -1.5830  1.5080 -0.9905
 1394SOL     OW15640   0.867   2.827   4.549  0.0279  0.2574 -0.7799
 1394SOL    HW115641   0.923   2.897   4.516  1.6413 -1.1902 -1.1260
 1394SOL    HW215642   0.786   2.832   4.497 -0.9459 -0.2413  0.6889
 1395SOL     OW15643   0.753   3.983  11.928  0.5763 -0.0662 -0.0537
 1395SOL    HW115644   0.671   3.956  11.968  0.8805 -0.3790  0.3629
 1395SOL    HW215645   0.757   3.938  11.844 -1.2176 -0.5276  0.1190
 1396SOL     OW15646   4.234   3.030   2.708 -0.2203 -0.2398 -0.4023
 1396SOL    HW115647   4.191   2.957   2.663  1.8279 -0.8697 -1.3263
 1396SOL    HW215648   4.286   2.980   2.770 -2.0201 -0.0527  1.2669
 1397SOL     OW15649   4.239   1.537   4.093  0.1032 -0.4635  0.2323
 1397SOL    HW115650   4.320   1.553   4.141 -0.2348 -0.7551  0.8947
 1397SOL    HW215651   4.178   1.548   4.166 -0.4752  1.1613 -0.4829
 1398SOL     OW15652   0.124   4.239  14.800 -0.2560  0.3515  0.4929
 1398SOL    HW115653   0.163   4.285  14.874 -0.9307  1.2758  0.2690
 1398SOL    HW215654   0.155   4.291  14.726 -1.6534  3.6911  2.2842
 1399SOL     OW15655   2.492   0.445   6.454 -0.0848  0.0126 -0.7935
 1399SOL    HW115656   2.580   0.415   6.476  0.3583  1.1799 -1.0104
 1399SOL    HW215657   2.441   0.364   6.462 -1.8889  1.0391 -2.0050
 1400SOL     OW15658   4.669   2.512   8.161 -0.1702 -0.1928  0.2274
 1400SOL    HW115659   0.022   2.511   8.104  1.1897 -0.4747  2.0333
 1400SOL    HW215660   4.670   2.419   8.184  2.7753  0.1328  1.4496
 1401SOL     OW15661   4.518   4.603   5.068 -0.0012  0.1758  0.1948
 1401SOL    HW115662   4.570   4.528   5.096  0.9825  0.6595 -0.3463
 1401SOL    HW215663   4.482   4.566   4.987  0.4169 -0.6037  0.3582
 1402SOL     OW15664   1.914   2.161   3.397 -0.5671 -0.7164  0.2272
 1402SOL    HW115665   1.960   2.239   3.429 -2.1193  1.3578 -2.5356
 1402SOL    HW215666   1.925   2.158   3.302  0.8622  2.7962  0.2725
 1403SOL     OW15667   3.864   2.319   2.286 -0.2757 -0.1089  0.0650
 1403SOL    HW115668   3.866   2.391   2.348 -1.4139 -1.2378  1.4044
 1403SOL    HW215669   3.824   2.361   2.210  0.9835  0.8951 -0.0405
 1404SOL     OW15670   1.832   3.840  12.613 -0.1575  0.1449 -1.0493
 1404SOL    HW115671   1.742   3.844  12.580  0.2013 -0.2132 -2.0683
 1404SOL    HW215672   1.816   3.868  12.703 -0.4335  1.4348 -1.4949
 1405SOL     OW15673   0.365   0.122   6.231  0.3829 -0.1772 -0.0741
 1405SOL    HW115674   0.396   0.210   6.252  2.4862 -1.1204  0.8105
 1405SOL    HW215675   0.275   0.135   6.201  1.0775  0.5250 -1.8173
 1406SOL     OW15676   4.537   2.206   8.491 -1.1735  0.0316  0.4760
 1406SOL    HW115677   4.456   2.198   8.441 -0.9276 -0.2919  0.1279
 1406SOL    HW215678   4.598   2.258   8.439  0.6484 -1.7442  0.8311
 1407SOL     OW15679   0.332   2.773   0.344 -0.9437 -0.0746 -0.2661
 1407SOL    HW115680   0.399   2.768   0.412  1.0665  2.6226 -2.0994
 1407SOL    HW215681   0.253   2.775   0.399 -1.5008  1.9311 -1.1505
 1408SOL     OW15682   2.422   1.325   2.180  0.2852 -0.4092  0.6260
 1408SOL    HW115683   2.380   1.241   2.198 -0.8157  0.6326  2.8942
 1408SOL    HW215684   2.512   1.297   2.169 -0.1648 -1.4950 -0.2825
 1409SOL     OW15685   4.512   2.399   6.313 -0.4540  0.3377 -0.0780
 1409SOL    HW115686   4.511   2.438   6.226  0.9664  1.0459  0.2146
 1409SOL    HW215687   4.602   2.366   6.322  0.1155  2.5800  2.4649
 1410SOL     OW15688   1.575   0.250   1.750 -0.7282  0.4293  0.4640
 1410SOL    HW115689   1.576   0.335   1.706  3.0155 -0.2736 -0.8133
 1410SOL    HW215690   1.605   0.195   1.677  2.3998  0.0850  2.0039
 1411SOL     OW15691   2.995   1.039  17.499  0.0747 -0.1079 -0.6687
 1411SOL    HW115692   2.947   1.051  17.418 -0.8877 -2.0329 -0.3713
 1411SOL    HW215693   2.952   0.956  17.520  0.6397  0.0307  1.0754
 1412SOL     OW15694   2.704   4.701   5.922  0.3901  0.1898  0.3001
 1412SOL    HW115695   2.790   4.698   5.964  0.5904  0.7027 -0.0708
 1412SOL    HW215696   2.700   0.072   5.904  0.5109  0.2353  0.5114
 1413SOL     OW15697   1.164   3.436   2.171 -0.4666  0.3860 -0.1846
 1413SOL    HW115698   1.127   3.439   2.083  0.1969  0.9806 -0.4383
 1413SOL    HW215699   1.246   3.394   2.145 -1.8521 -1.8780 -0.9442
 1414SOL     OW15700   2.360   0.175   5.057  0.0769 -0.3001 -0.0450
 1414SOL    HW115701   2.272   0.139   5.049  1.0433 -2.3860 -1.4866
 1414SOL    HW215702   2.352   0.244   4.991 -2.2420 -1.5689 -1.0687
 1415SOL     OW15703   1.877   0.712   9.194 -0.0805 -0.3658  0.0546
 1415SOL    HW115704   1.801   0.726   9.250  2.6134 -0.8062  3.8085
 1415SOL    HW215705   1.850   0.630   9.152 -0.4312  0.0648 -0.5586
 1416SOL     OW15706   4.168   0.928   9.428 -0.4675 -0.6202  0.2880
 1416SOL    HW115707   4.249   0.880   9.413 -0.0880 -0.1439  0.8411
 1416SOL    HW215708   4.184   1.011   9.471 -2.1956 -0.0180 -0.2146
 1417SOL     OW15709   0.346   0.863   5.017 -0.5817  0.2315 -0.3203
 1417SOL    HW115710   0.362   0.797   5.085 -0.0594  0.0371 -0.6261
 1417SOL    HW215711   0.373   0.941   5.066 -0.3650  0.9509 -1.5705
 1418SOL     OW15712   1.791   0.842   2.588 -0.0662  0.2607  0.1665
 1418SOL    HW115713   1.728   0.784   2.631  0.0652  0.2306  0.3190
 1418SOL    HW215714   1.779   0.815   2.497  1.6565 -0.9419  0.2988
 1419SOL     OW15715   1.193   4.207   8.919  0.2821 -0.1010  0.7462
 1419SOL    HW115716   1.242   4.289   8.913 -1.0491  0.6957  0.4734
 1419SOL    HW215717   1.256   4.136   8.909 -0.9452 -1.1875  0.6432
 1420SOL     OW15718   4.574   2.217   9.547 -0.1235  0.0162  0.2994
 1420SOL    HW115719   4.562   2.128   9.513 -1.0150  0.2358  0.0471
 1420SOL    HW215720   4.488   2.252   9.524  0.6792  1.3492 -0.6677
 1421SOL     OW15721   4.431   1.310   3.757  0.2333 -0.3469  0.2374
 1421SOL    HW115722   4.360   1.276   3.812  1.3235 -1.0655  1.1731
 1421SOL    HW215723   4.408   1.261   3.678 -1.9004 -0.4716  0.9268
 1422SOL     OW15724   2.724   0.531  13.429 -0.4886  0.4348 -0.1659
 1422SOL    HW115725   2.698   0.463  13.492  4.4858  1.0795  2.5363
 1422SOL    HW215726   2.663   0.518  13.356 -2.0825  2.8623  0.7398
 1423SOL     OW15727   2.920   3.467   2.657  0.0723  0.0440 -0.0067
 1423SOL    HW115728   2.934   3.533   2.725  0.6553 -2.8504  2.6573
 1423SOL    HW215729   2.948   3.519   2.581  2.6067  0.6530  1.3517
 1424SOL     OW15730   0.855   2.743   6.601  0.3683  0.4803 -0.3646
 1424SOL    HW115731   0.794   2.682   6.642 -0.1690  0.2278 -1.5369
 1424SOL    HW215732   0.933   2.688   6.608 -0.1682 -0.0402  1.5848
 1425SOL     OW15733   2.680   2.566  14.228  0.1801  0.1549 -0.1061
 1425SOL    HW115734   2.691   2.506  14.153  1.2306  0.5143 -0.2506
 1425SOL    HW215735   2.603   2.616  14.201  0.0982 -1.1291 -2.2401
 1426SOL     OW15736   3.039   1.974   8.153  0.4921  0.1442  0.3079
 1426SOL    HW115737   2.959   1.935   8.118  0.8831  1.3649 -1.9987
 1426SOL    HW215738   2.999   2.061   8.161 -2.0132 -0.9424 -0.5521
 1427SOL     OW15739   0.974   3.331  10.322  0.3608 -0.3367  0.0005
 1427SOL    HW115740   0.966   3.388  10.245 -0.2079 -0.4047  0.0092
 1427SOL    HW215741   1.066   3.306  10.317  0.3618 -0.4946  0.9299
 1428SOL     OW15742   0.610   4.336  15.882 -0.2344  0.0407  0.1326
 1428SOL    HW115743   0.662   4.268  15.924 -0.7297  0.4751  1.4537
 1428SOL    HW215744   0.525   4.326  15.924  0.8928 -2.3678  1.8880
 1429SOL     OW15745   3.426   3.558   0.290 -0.0680  0.2547 -0.4730
 1429SOL    HW115746   3.353   3.545   0.351 -0.4875 -2.7129 -1.6518
 1429SOL    HW215747   3.444   3.646   0.326  1.6221 -0.8062  1.3128
 1430SOL     OW15748   1.149   1.677   2.267  0.4413  0.7372 -0.2546
 1430SOL    HW115749   1.125   1.585   2.279 -1.2270  1.0628 -1.1602
 1430SOL    HW215750   1.060   1.711   2.264  0.1348  0.1915  2.3662
 1431SOL     OW15751   1.272   1.288   7.664 -0.0743  0.1062  0.0440
 1431SOL    HW115752   1.222   1.296   7.582  0.5840  0.0286 -0.3609
 1431SOL    HW215753   1.340   1.354   7.652  2.5060 -2.8592 -1.3777
 1432SOL     OW15754   4.372   3.109   5.216  0.7127  0.3494  0.1239
 1432SOL    HW115755   4.283   3.146   5.221  0.6331  0.0829  0.6545
 1432SOL    HW215756   4.375   3.050   5.141 -2.2942 -0.6402  0.7681
 1433SOL     OW15757   4.062   3.538   0.469 -0.5855 -0.0276  0.0589
 1433SOL    HW115758   4.140   3.516   0.419  0.0723 -0.4459  1.2434
 1433SOL    HW215759   4.040   3.447   0.492 -0.8842 -0.1383 -0.6757
 1434SOL     OW15760   1.124   1.793  11.632 -0.8167 -0.4790  0.3172
 1434SOL    HW115761   1.197   1.818  11.575 -1.3458 -0.3641 -0.3097
 1434SOL    HW215762   1.162   1.813  11.718 -2.1954  0.0200  0.8124
 1435SOL     OW15763   4.709   4.416  11.109  0.0673  0.2854  0.6983
 1435SOL    HW115764   0.047   4.368  11.053 -2.4170 -0.7988 -1.0524
 1435SOL    HW215765   4.641   4.435  11.044 -0.2945  1.2261  1.3493
 1436SOL     OW15766   1.292   3.247   6.734  0.1292  0.0200  0.5349
 1436SOL    HW115767   1.222   3.186   6.709 -1.0028  1.6783 -0.3524
 1436SOL    HW215768   1.354   3.183   6.768  0.0178 -1.7890 -2.6419
 1437SOL     OW15769   3.895   4.273  16.386  0.3380  0.0719  0.1298
 1437SOL    HW115770   3.887   4.343  16.451  0.6970 -0.6337  0.9197
 1437SOL    HW215771   3.919   4.198  16.439 -0.7755 -0.5442 -0.2252
 1438SOL     OW15772   1.153   4.591  10.958 -0.2257 -0.5314 -0.0185
 1438SOL    HW115773   1.069   4.576  11.002 -0.1599 -0.9970 -0.0585
 1438SOL    HW215774   1.182   4.678  10.987 -1.0884 -0.0513 -0.5893
 1439SOL     OW15775   1.057   3.709  14.565 -0.1806  0.0084  0.1124
 1439SOL    HW115776   1.097   3.788  14.600  1.2833  0.3447 -2.3176
 1439SOL    HW215777   1.065   3.727  14.471  0.2395  0.1915  0.1864
 1440SOL     OW15778   0.511   4.287   3.598  0.3631  0.5223 -0.1714
 1440SOL    HW115779   0.472   4.350   3.658 -0.9847 -1.1793  0.7640
 1440SOL    HW215780   0.516   4.214   3.660 -1.0111  1.1357  0.6611
 1441SOL     OW15781   0.078   3.957  10.159 -0.3242  0.5307 -0.2656
 1441SOL    HW115782   0.097   4.033  10.104  3.7347  0.0756  0.4973
 1441SOL    HW215783   0.166   3.921  10.171 -1.1598 -0.6213  2.4192
 1442SOL     OW15784   3.636   2.935   4.272  0.2540 -0.4136 -0.0266
 1442SOL    HW115785   3.616   2.911   4.362  0.8146  1.0825  0.4918
 1442SOL    HW215786   3.723   2.970   4.290  0.0965  0.2281 -0.5073
 1443SOL     OW15787   2.478   4.387   2.503  0.1166  0.3480 -0.0194
 1443SOL    HW115788   2.408   4.322   2.500  1.9448 -1.6664  1.0789
 1443SOL    HW215789   2.452   4.441   2.578  1.3391  0.9738 -0.0538
 1444SOL     OW15790   3.931   2.710   7.657  0.0001 -0.0256 -0.5465
 1444SOL    HW115791   3.977   2.786   7.692 -0.8682 -0.4636  1.6039
 1444SOL    HW215792   3.987   2.671   7.590 -0.7174  0.5273 -1.4655
 1445SOL     OW15793   0.872   0.130  16.310  0.4485 -0.1960  0.0979
 1445SOL    HW115794   0.958   0.168  16.329  0.4428 -0.2874  0.3020
 1445SOL    HW215795   0.905   0.061  16.252  1.4982  1.1582 -0.9234
 1446SOL     OW15796   4.408   1.821  16.133  0.1523 -0.4207 -0.0936
 1446SOL    HW115797   4.462   1.900  16.129 -0.6578  0.1015 -0.7121
 1446SOL    HW215798   4.348   1.854  16.066 -0.1707 -0.3009  0.2571
 1447SOL     OW15799   0.376   0.001  16.581  0.0390  0.1478 -0.4350
 1447SOL    HW115800   0.398   0.033  16.493 -0.8419  1.0204 -0.3472
 1447SOL    HW215801   0.288   4.688  16.573  0.2121 -0.2790 -0.4025
 1448SOL     OW15802   2.210   3.745   7.726 -0.4957  0.1989  0.0899
 1448SOL    HW115803   2.199   3.668   7.670  1.0934  1.8417 -2.5387
 1448SOL    HW215804   2.214   3.707   7.813  0.0415 -0.1648 -0.0929
 1449SOL     OW15805   2.926   1.979  14.545  0.0025 -0.0327  0.2631
 1449SOL    HW115806   2.936   1.937  14.630  0.0862 -2.4282 -0.9317
 1449SOL    HW215807   2.905   1.902  14.492  0.5093  0.7771 -1.1186
 1450SOL     OW15808   3.655   3.637   8.813  0.0913 -0.2873 -0.1587
 1450SOL    HW115809   3.597   3.571   8.851  1.5802 -0.3665  1.9487
 1450SOL    HW215810   3.600   3.700   8.766  0.7088 -0.4919 -1.1594
 1451SOL     OW15811   3.383   3.323   7.698  0.3806 -0.6110 -0.1795
 1451SOL    HW115812   3.362   3.405   7.743 -1.6947 -0.9094 -0.6010
 1451SOL    HW215813   3.372   3.347   7.606 -0.2905 -0.8111 -0.1561
 1452SOL     OW15814   1.550   2.206   6.058 -0.0151 -0.4923  0.7014
 1452SOL    HW115815   1.532   2.241   6.145  0.7204 -1.2899  1.1720
 1452SOL    HW215816   1.463   2.203   6.017  0.5662 -1.4677 -0.4368
 1453SOL     OW15817   1.697   3.022   7.991  0.3454 -0.0310  0.0817
 1453SOL    HW115818   1.641   3.089   8.031 -1.2205  0.7027 -3.3663
 1453SOL    HW215819   1.785   3.060   8.003  0.3548  0.8423 -2.8682
 1454SOL     OW15820   1.707   4.106  14.790 -0.0587 -0.2295  0.0614
 1454SOL    HW115821   1.791   4.118  14.836 -0.7027 -0.7733  1.3633
 1454SOL    HW215822   1.745   4.099  14.703 -0.2945 -1.7744  0.0896
 1455SOL     OW15823   1.137   0.711   8.913 -0.1913  0.3031  0.3469
 1455SOL    HW115824   1.226   0.730   8.944 -0.3981  0.1105  1.0645
 1455SOL    HW215825   1.139   0.721   8.818  2.5710 -0.6224  0.3020
 1456SOL     OW15826   1.721   4.358   7.448  0.6248  0.8233 -0.1998
 1456SOL    HW115827   1.799   4.410   7.468 -0.2424  0.4766  4.0740
 1456SOL    HW215828   1.656   4.423   7.475 -0.3959 -0.1874 -0.2370
 1457SOL     OW15829   3.469   1.529  10.154  0.6173  0.1663 -0.1501
 1457SOL    HW115830   3.394   1.506  10.209  0.6624  0.0564 -0.1334
 1457SOL    HW215831   3.503   1.440  10.145  0.3924  0.1880 -1.2039
 1458SOL     OW15832   1.536   2.787   5.590 -0.1331  0.3052  0.1128
 1458SOL    HW115833   1.568   2.876   5.603  0.8169  0.1128 -0.8881
 1458SOL    HW215834   1.450   2.804   5.551  0.7834  2.9977 -0.7723
 1459SOL     OW15835   3.818   3.010  12.518 -0.3344  0.0469  0.1127
 1459SOL    HW115836   3.752   2.998  12.586  0.1247 -0.3501  0.4887
 1459SOL    HW215837   3.870   3.080  12.557  0.8622 -0.2604 -0.9274
 1460SOL     OW15838   3.757   2.597  14.590 -0.1072 -0.0862 -0.3144
 1460SOL    HW115839   3.775   2.633  14.503  0.1815 -0.5260 -0.4328
 1460SOL    HW215840   3.723   2.514  14.557 -2.2587  0.5235  0.3785
 1461SOL     OW15841   2.932   1.385  13.673  0.2501 -0.4793 -0.2128
 1461SOL    HW115842   2.884   1.355  13.596 -2.1695 -1.9433  1.8687
 1461SOL    HW215843   3.000   1.322  13.696  0.6569  0.3669  0.9078
 1462SOL     OW15844   0.338   1.418   7.762  0.4813  1.0211 -0.2832
 1462SOL    HW115845   0.245   1.429   7.781  0.6080  0.6728  0.5752
 1462SOL    HW215846   0.362   1.326   7.775  0.6530  1.5146  3.1069
 1463SOL     OW15847   2.349   2.917   3.537  0.5964 -0.3814  0.0062
 1463SOL    HW115848   2.330   2.962   3.619 -2.9560 -1.3249 -0.3311
 1463SOL    HW215849   2.294   2.974   3.483 -0.3011 -1.0746  0.1968
 1464SOL     OW15850   0.395   2.467   4.173  0.3445  0.5709  0.3677
 1464SOL    HW115851   0.464   2.491   4.111 -0.3454  2.4216  0.3367
 1464SOL    HW215852   0.411   2.372   4.174  0.8084  0.6522  0.6636
 1465SOL     OW15853   0.245   2.478   7.757  0.2582  0.3109  0.0658
 1465SOL    HW115854   0.248   2.429   7.839 -1.1271  0.2682  0.0961
 1465SOL    HW215855   0.244   2.412   7.688  3.1321 -0.0288  0.3436
 1466SOL     OW15856   3.669   0.728   2.841 -0.4078  0.1892 -0.7913
 1466SOL    HW115857   3.573   0.724   2.833 -0.4803  0.3715 -0.0416
 1466SOL    HW215858   3.680   0.812   2.885  1.6934 -0.1303 -0.7269
 1467SOL     OW15859   0.650   3.832   8.780  0.0394 -0.0853  0.2188
 1467SOL    HW115860   0.725   3.888   8.800  1.3686 -1.8684  0.1534
 1467SOL    HW215861   0.583   3.884   8.825  1.7328  2.5247 -0.2422
 1468SOL     OW15862   1.624   0.621   3.823  0.2657  0.4480 -0.4578
 1468SOL    HW115863   1.580   0.600   3.905 -1.3403  0.3259 -1.3653
 1468SOL    HW215864   1.554   0.601   3.761 -0.3623  0.5422  0.2213
 1469SOL     OW15865   3.057   4.193  14.954 -0.2287  0.0139 -0.5561
 1469SOL    HW115866   3.051   4.237  15.039 -2.5783 -1.3247 -0.0356
 1469SOL    HW215867   3.001   4.116  14.962 -1.2185  0.8239  0.3935
 1470SOL     OW15868   3.819   3.115   7.572 -0.1602  0.5161  0.3597
 1470SOL    HW115869   3.753   3.047   7.560  1.0232 -0.3925 -1.1169
 1470SOL    HW215870   3.761   3.190   7.581 -1.7473 -0.6524 -0.2106
 1471SOL     OW15871   3.967   3.546  13.087  0.3396  0.3461 -0.7757
 1471SOL    HW115872   4.039   3.498  13.128 -1.8369 -1.2782  1.1564
 1471SOL    HW215873   4.006   3.588  13.010  0.5727 -1.7421 -1.8050
 1472SOL     OW15874   0.681   4.417   7.092  0.1106  0.3214  0.4443
 1472SOL    HW115875   0.622   4.359   7.045 -0.8776  1.0098  0.8299
 1472SOL    HW215876   0.761   4.367   7.110  0.0203  0.4548  1.2394
 1473SOL     OW15877   4.166   0.525  12.049 -0.3319  0.5838  0.5464
 1473SOL    HW115878   4.254   0.563  12.060 -0.6733  1.3501  0.6469
 1473SOL    HW215879   4.168   0.460  12.119  1.1813 -0.8986 -0.8559
 1474SOL     OW15880   1.118   0.375  10.467  0.6069  0.0663 -0.0344
 1474SOL    HW115881   1.133   0.412  10.554  0.8525 -2.9222  1.1855
 1474SOL    HW215882   1.091   0.288  10.497 -0.7280 -0.5546 -3.0875
 1475SOL     OW15883   1.300   3.202   4.239 -0.7742  0.6906 -0.3179
 1475SOL    HW115884   1.389   3.230   4.260 -0.8633  1.1917 -0.6277
 1475SOL    HW215885   1.262   3.275   4.191  2.1889  2.4067 -0.0590
 1476SOL     OW15886   2.083   1.363  10.277  0.0558  0.1685 -0.2204
 1476SOL    HW115887   2.062   1.396  10.364  1.3571 -1.4254  0.6654
 1476SOL    HW215888   2.118   1.439  10.230 -0.6407  0.0667 -0.9088
 1477SOL     OW15889   0.302   2.657   6.560  0.4325  1.0326  0.4421
 1477SOL    HW115890   0.228   2.663   6.499  1.6432 -0.9839 -1.2177
 1477SOL    HW215891   0.257   2.648   6.644 -0.6595 -0.2855 -0.2710
 1478SOL     OW15892   1.337   1.030   5.765  0.4211  0.4150 -0.2015
 1478SOL    HW115893   1.278   0.961   5.733  1.7170 -1.4073  1.3534
 1478SOL    HW215894   1.393   0.977   5.821  1.4408  0.5337 -1.1297
 1479SOL     OW15895   2.757   3.625   6.251 -0.2503 -0.2986  0.4647
 1479SOL    HW115896   2.762   3.543   6.299  1.7590 -0.8301 -0.6676
 1479SOL    HW215897   2.834   3.639   6.195 -0.7157 -0.0638 -0.1238
 1480SOL     OW15898   3.687   1.653  11.916 -0.0112 -0.0109 -0.3789
 1480SOL    HW115899   3.741   1.592  11.965 -2.2443 -1.8833 -0.2481
 1480SOL    HW215900   3.694   1.733  11.968 -3.2382 -1.8076  2.8122
 1481SOL     OW15901   3.761   2.877   3.296  0.4187 -0.1339 -0.3847
 1481SOL    HW115902   3.778   2.971   3.294 -2.4970  0.3851 -1.4070
 1481SOL    HW215903   3.665   2.869   3.295  0.2707  1.4455  2.4393
 1482SOL     OW15904   1.850   4.604   1.391  0.1706  0.4392  0.2162
 1482SOL    HW115905   1.917   4.655   1.438  2.1738  0.3657 -2.5741
 1482SOL    HW215906   1.907   4.536   1.356  1.7557  1.9454 -0.1282
 1483SOL     OW15907   2.067   1.833   2.728 -0.2735  0.2802 -0.3382
 1483SOL    HW115908   2.108   1.835   2.641  1.2288  0.5054  0.3744
 1483SOL    HW215909   2.048   1.740   2.739  0.1740  0.2840  0.4496
 1484SOL     OW15910   3.522   1.603   7.523  0.4094  0.4689  0.3371
 1484SOL    HW115911   3.520   1.653   7.441 -1.6390 -0.0385  0.0930
 1484SOL    HW215912   3.548   1.668   7.589  0.7851  0.5860  0.0784
 1485SOL     OW15913   0.156   0.763  10.619  0.3788  0.5429  0.4522
 1485SOL    HW115914   0.247   0.793  10.621  0.0954  1.4035  0.1407
 1485SOL    HW215915   0.101   0.840  10.630  1.1654  0.9369  1.5698
 1486SOL     OW15916   0.257   4.225   2.214  0.0151  0.2509 -0.4499
 1486SOL    HW115917   0.295   4.168   2.280  0.2949 -0.5967 -1.3501
 1486SOL    HW215918   0.320   4.245   2.145  1.1275 -0.1343  0.4597
 1487SOL     OW15919   1.189   4.011   4.260  0.5812  0.0514 -0.6551
 1487SOL    HW115920   1.211   4.043   4.348 -0.1412  1.8965 -1.1400
 1487SOL    HW215921   1.098   3.989   4.276  0.0458  3.4925  0.9745
 1488SOL     OW15922   0.293   2.450  10.423  0.0424  0.6975  0.1363
 1488SOL    HW115923   0.208   2.469  10.463  0.2536  1.5938  0.1526
 1488SOL    HW215924   0.270   2.380  10.362  0.2820  0.3948  0.3879
 1489SOL     OW15925   1.598   1.746   7.683 -0.1672  0.6840  0.0904
 1489SOL    HW115926   1.624   1.673   7.628 -0.1373  0.5579  0.2737
 1489SOL    HW215927   1.565   1.795   7.608 -0.6105 -1.1977 -0.9187
 1490SOL     OW15928   3.336   3.546  11.454  0.5751 -0.2053 -0.4621
 1490SOL    HW115929   3.248   3.516  11.432  0.9705 -0.4676 -1.6484
 1490SOL    HW215930   3.319   3.582  11.542 -0.9918  2.5518 -1.8797
 1491SOL     OW15931   1.380   0.399   6.234 -0.8439 -0.6257 -0.4638
 1491SOL    HW115932   1.310   0.414   6.298 -0.7361  1.8024 -0.9109
 1491SOL    HW215933   1.459   0.420   6.283  0.5690 -1.0500 -2.5963
 1492SOL     OW15934   0.281   4.539  15.962 -0.1962  0.4621 -0.1472
 1492SOL    HW115935   0.336   4.616  15.950 -2.2101  1.7155 -1.1781
 1492SOL    HW215936   0.198   4.563  15.922  1.0611  2.1626 -1.6836
 1493SOL     OW15937   1.911   2.148  15.245  0.3076  0.2580  0.1717
 1493SOL    HW115938   1.954   2.067  15.273 -1.6569 -0.6685  0.4910
 1493SOL    HW215939   1.985   2.206  15.229  0.2498  0.0721 -0.7919
 1494SOL     OW15940   0.307   4.218   8.608  0.2813  0.2175 -0.0157
 1494SOL    HW115941   0.394   4.177   8.610 -0.6541 -1.8330 -1.1333
 1494SOL    HW215942   0.332   4.304   8.641  2.7487 -0.7225  0.5994
 1495SOL     OW15943   2.130   3.529   5.209 -0.2983 -0.0075 -0.2742
 1495SOL    HW115944   2.168   3.541   5.122 -0.3553 -0.6601 -0.3850
 1495SOL    HW215945   2.195   3.575   5.263  0.0703 -0.2621 -0.4954
 1496SOL     OW15946   3.468   2.218  13.399 -0.2575  0.7001 -0.3635
 1496SOL    HW115947   3.514   2.197  13.480 -0.2399  0.4185 -0.4456
 1496SOL    HW215948   3.400   2.151  13.406  0.3661  0.0973 -0.0781
 1497SOL     OW15949   4.306   1.076   6.774 -0.3179  0.0220 -0.6411
 1497SOL    HW115950   4.397   1.060   6.800 -1.1616 -1.7304  1.2454
 1497SOL    HW215951   4.308   1.029   6.691 -1.8199  0.1982 -0.7800
 1498SOL     OW15952   3.472   0.513   4.684  0.8823 -0.4960  0.0445
 1498SOL    HW115953   3.393   0.517   4.737 -0.0876 -0.2223 -1.4323
 1498SOL    HW215954   3.516   0.598   4.690  0.5126 -0.2579 -0.6313
 1499SOL     OW15955   1.286   1.314  15.955  0.1780 -0.3916 -0.9716
 1499SOL    HW115956   1.336   1.238  15.985 -3.0533 -3.3795 -3.1523
 1499SOL    HW215957   1.249   1.342  16.039 -1.3472  1.8957 -2.4316
 1500SOL     OW15958   2.008   2.610   6.265  0.0331  0.4846 -0.3729
 1500SOL    HW115959   1.997   2.703   6.246 -0.8044 -0.1006 -2.7635
 1500SOL    HW215960   1.930   2.577   6.220 -0.6760  0.2570  1.0112
 1501SOL     OW15961   1.254   2.629   5.127  0.3309  0.4541 -0.0341
 1501SOL    HW115962   1.265   2.724   5.132 -2.7753  0.6993  1.9797
 1501SOL    HW215963   1.173   2.600   5.169  1.0627 -1.8393 -0.2468
 1502SOL     OW15964   0.464   4.360   4.182 -0.1324  0.2275 -0.4888
 1502SOL    HW115965   0.494   4.383   4.270 -2.3463 -0.3587  0.4045
 1502SOL    HW215966   0.537   4.396   4.131 -0.2749 -0.5673 -1.2632
 1503SOL     OW15967   1.614   0.092   7.104  0.2942 -0.0490  0.5430
 1503SOL    HW115968   1.701   0.082   7.067 -0.4460  0.0239 -1.2043
 1503SOL    HW215969   1.610   0.014   7.160  0.7013 -0.5590 -0.1411
 1504SOL     OW15970   4.121   0.583   4.016 -0.4306  0.0376 -0.1502
 1504SOL    HW115971   4.190   0.523   3.987 -3.1113 -2.7607 -0.8582
 1504SOL    HW215972   4.124   0.653   3.951  2.6422 -0.3427 -0.4234
 1505SOL     OW15973   4.073   3.179   7.491 -0.2606  0.1354  0.3627
 1505SOL    HW115974   3.979   3.170   7.504 -0.2227 -2.2334 -0.8935
 1505SOL    HW215975   4.076   3.260   7.441  0.7214  1.0083  1.8209
 1506SOL     OW15976   0.698   4.717   7.133 -0.0782  0.6265 -0.1688
 1506SOL    HW115977   0.760   0.036   7.193  1.3851 -0.5069 -0.8905
 1506SOL    HW215978   0.740   4.631   7.138 -0.8937  0.2770  0.5198
 1507SOL     OW15979   3.266   3.713   6.815 -0.6039 -0.3457  0.3311
 1507SOL    HW115980   3.223   3.643   6.765  0.1320 -0.3277 -0.3286
 1507SOL    HW215981   3.221   3.791   6.784  0.6264  0.4208  0.4944
 1508SOL     OW15982   2.480   0.029  12.997 -0.5843  0.0137  0.2097
 1508SOL    HW115983   2.414   4.683  12.992 -0.8868  0.4975 -2.4736
 1508SOL    HW215984   2.549   4.687  13.013  0.4305  1.6349  2.4482
 1509SOL     OW15985   1.009   3.588  10.477  0.3481  0.0282  0.3732
 1509SOL    HW115986   0.928   3.633  10.502 -0.1066 -0.4472 -0.2563
 1509SOL    HW215987   1.071   3.655  10.507  0.4064  1.2367 -2.4896
 1510SOL     OW15988   3.824   0.384  15.006 -0.7274 -0.4966 -0.0584
 1510SOL    HW115989   3.732   0.410  15.012  0.0446  1.3499  4.2032
 1510SOL    HW215990   3.814   0.315  14.941  0.6432 -0.7918  0.0577
 1511SOL     OW15991   0.090   3.776   5.152  0.0167 -0.3465 -0.0879
 1511SOL    HW115992   0.076   3.845   5.086  0.3734  0.3416  0.5614
 1511SOL    HW215993   0.075   3.822   5.234 -3.5282  1.0592 -1.4807
 1512SOL     OW15994   4.309   3.467   3.196  0.1368  0.5295  0.2177
 1512SOL    HW115995   4.281   3.555   3.168 -1.9703 -1.0429 -2.5741
 1512SOL    HW215996   4.336   3.430   3.112  0.3335  1.0106  0.0624
 1513SOL     OW15997   2.586   4.010   5.284 -0.2312  0.1870 -0.2150
 1513SOL    HW115998   2.643   3.946   5.327 -1.4168 -1.3084 -0.8567
 1513SOL    HW215999   2.621   4.096   5.304 -1.0534 -0.2778  3.2631
 1514SOL     OW16000   0.310   2.625   4.498 -0.1917 -0.5215  0.1775
 1514SOL    HW116001   0.363   2.545   4.488  0.2253 -0.3974  1.3753
 1514SOL    HW216002   0.293   2.656   4.409  2.2894  1.9506  0.5567
 1515SOL     OW16003   4.313   0.578  14.579 -0.3100  0.4505  0.6466
 1515SOL    HW116004   4.346   0.598  14.667 -0.2994  0.7843  0.5664
 1515SOL    HW216005   4.277   0.663  14.553  1.2757  1.2563  1.0518
 1516SOL     OW16006   1.680   3.981   3.521 -0.3048  0.2678 -0.2575
 1516SOL    HW116007   1.736   4.004   3.447 -2.0348  2.3903 -0.9287
 1516SOL    HW216008   1.677   4.068   3.560 -1.4397  0.3208 -0.4529
 1517SOL     OW16009   2.273   0.922   1.365 -0.1022  0.1445  0.2080
 1517SOL    HW116010   2.307   0.838   1.395  0.9864  0.0537 -1.2430
 1517SOL    HW216011   2.345   0.962   1.315 -0.6003 -0.2427 -0.8276
 1518SOL     OW16012   3.697   1.618   9.579  0.4249  0.0222 -1.0613
 1518SOL    HW116013   3.663   1.653   9.662  0.7343  0.8682 -1.2877
 1518SOL    HW216014   3.619   1.581   9.538  0.2017  0.6492 -1.1983
 1519SOL     OW16015   1.463   2.623   3.247 -0.1498  0.0770  0.2419
 1519SOL    HW116016   1.535   2.671   3.207 -0.2214  0.0310  0.0593
 1519SOL    HW216017   1.402   2.605   3.175 -0.0052  0.9861 -0.1094
 1520SOL     OW16018   2.225   0.016   9.136 -1.1689 -0.4021  0.2390
 1520SOL    HW116019   2.218   4.672   9.204 -2.9572  1.1677  1.5945
 1520SOL    HW216020   2.264   0.091   9.180  0.5827 -1.1878  0.0031
 1521SOL     OW16021   2.402   2.069   0.956 -0.0726 -0.8422 -0.3716
 1521SOL    HW116022   2.400   1.977   0.929 -2.2645 -0.5199 -1.2541
 1521SOL    HW216023   2.487   2.098   0.923  0.0690 -0.5227  0.2593
 1522SOL     OW16024   2.072   0.036   1.505  0.1617  0.1548 -0.0591
 1522SOL    HW116025   2.149   0.004   1.550  0.1450 -0.3959 -0.4337
 1522SOL    HW216026   2.087   0.130   1.494  0.4832 -0.1538 -2.3781
 1523SOL     OW16027   2.212   3.872   9.082  0.6683 -0.6380  0.1122
 1523SOL    HW116028   2.228   3.848   9.174  0.3793  0.8120  0.5516
 1523SOL    HW216029   2.131   3.922   9.093  0.7807 -0.2249 -0.9564
 1524SOL     OW16030   2.300   0.539   5.599 -0.1400  0.1818  0.4376
 1524SOL    HW116031   2.264   0.611   5.547 -0.5958  0.3306  0.9597
 1524SOL    HW216032   2.219   0.492   5.619 -0.9721  1.6214  0.4656
 1525SOL     OW16033   1.030   2.141   8.436  0.2565  0.3697 -0.1677
 1525SOL    HW116034   1.032   2.237   8.436 -1.6178  0.4296  2.4164
 1525SOL    HW216035   1.113   2.115   8.474 -0.3635 -3.2263 -1.3305
 1526SOL     OW16036   3.611   1.974   0.193  0.0623  0.2100 -0.2904
 1526SOL    HW116037   3.632   2.009   0.107 -1.1324  1.7753  0.0620
 1526SOL    HW216038   3.698   1.936   0.201 -1.2567 -2.7236  0.2279
 1527SOL     OW16039   4.651   0.122   7.103  0.0091  0.4728  0.0933
 1527SOL    HW116040   4.703   0.072   7.039  1.2642  0.9428  0.7663
 1527SOL    HW216041   4.577   0.143   7.046  0.7403 -0.1266 -1.0944
 1528SOL     OW16042   0.940   2.782   4.034  0.4965  0.4855 -0.0975
 1528SOL    HW116043   0.928   2.716   4.102 -1.9440  1.5068  0.4649
 1528SOL    HW216044   0.863   2.836   4.052  0.0844  0.1681 -0.9037
 1529SOL     OW16045   0.581   4.024   8.999 -0.4757  0.1063  0.1965
 1529SOL    HW116046   0.606   3.968   9.073  1.3601 -0.6370 -1.0103
 1529SOL    HW216047   0.491   4.039   9.028 -0.2309 -0.4274  1.2258
 1530SOL     OW16048   1.559   1.884   2.875  0.3427  0.3348 -0.3856
 1530SOL    HW116049   1.492   1.817   2.863  0.1999  0.5453 -0.7838
 1530SOL    HW216050   1.637   1.839   2.844 -0.0009 -0.6406  0.1599
 1531SOL     OW16051   2.279   2.427   6.450  0.1022  0.4622  0.1537
 1531SOL    HW116052   2.201   2.482   6.451 -0.6122 -0.5758  0.4258
 1531SOL    HW216053   2.254   2.351   6.501  0.7703 -0.4068 -0.8181
 1532SOL     OW16054   3.064   1.658  12.833  0.0384  0.2786  0.8351
 1532SOL    HW116055   2.975   1.679  12.805 -0.4660  0.7296  2.7641
 1532SOL    HW216056   3.050   1.574  12.877 -2.0500 -0.1262 -0.5618
 1533SOL     OW16057   3.122   2.100  12.534  0.5642 -0.7376 -0.0469
 1533SOL    HW116058   3.173   2.107  12.453 -0.8792 -1.6941 -1.0527
 1533SOL    HW216059   3.082   2.186  12.546 -0.5437 -1.0599 -1.4956
 1534SOL     OW16060   2.709   0.356   0.442  0.2016  0.7974 -0.1318
 1534SOL    HW116061   2.789   0.317   0.476 -1.9123 -2.9305  0.5362
 1534SOL    HW216062   2.733   0.343   0.350  0.3830  2.5302 -0.3281
 1535SOL     OW16063   2.405   1.172   6.952 -0.0165 -0.0964  0.4844
 1535SOL    HW116064   2.431   1.256   6.992  1.8714 -0.2373 -0.4392
 1535SOL    HW216065   2.473   1.148   6.889  0.5144  0.6674  0.7559
 1536SOL     OW16066   0.471   3.248  17.350 -0.4218 -0.4152 -0.0104
 1536SOL    HW116067   0.511   3.322  17.305  1.5717 -2.0980 -0.9995
 1536SOL    HW216068   0.462   3.177  17.286 -2.7034  0.3090 -0.4988
 1537SOL     OW16069   2.001   1.081   8.246 -0.0148  0.2717 -0.2481
 1537SOL    HW116070   1.990   1.007   8.305  1.1221  0.1494 -0.2020
 1537SOL    HW216071   1.990   1.147   8.315  0.1333 -1.0183  1.0159
 1538SOL     OW16072   4.249   2.664   3.892  0.3963 -0.1267  0.4298
 1538SOL    HW116073   4.194   2.654   3.815  1.4547 -1.0308 -0.2122
 1538SOL    HW216074   4.299   2.582   3.894  0.8529  0.1425  0.0665
 1539SOL     OW16075   0.619   0.383  15.658 -0.1414 -0.1130 -0.0159
 1539SOL    HW116076   0.582   0.414  15.576  1.9432  0.4420 -0.7499
 1539SOL    HW216077   0.605   0.456  15.718  0.3687  2.4797 -3.0548
 1540SOL     OW16078   3.800   3.919   5.385 -0.2605 -0.5908  0.2711
 1540SOL    HW116079   3.796   3.968   5.468 -0.5440 -1.1454  0.5828
 1540SOL    HW216080   3.824   3.992   5.328 -0.2650 -0.9093 -0.1322
 1541SOL     OW16081   0.551   3.854   7.450 -0.1669  0.6852 -0.1667
 1541SOL    HW116082   0.582   3.768   7.476 -1.5589  0.0907 -0.4934
 1541SOL    HW216083   0.610   3.865   7.375 -0.5156 -0.1666 -0.5566
 1542SOL     OW16084   3.795   4.378   0.405  0.4304 -0.3369 -0.1121
 1542SOL    HW116085   3.794   4.292   0.362  1.2447 -0.7379  0.6754
 1542SOL    HW216086   3.887   4.401   0.417 -0.1938  1.4306  1.2707
 1543SOL     OW16087   3.605   0.920   6.454  0.1992 -0.8348  1.0306
 1543SOL    HW116088   3.587   0.827   6.471  1.4985 -1.5933 -1.6207
 1543SOL    HW216089   3.582   0.926   6.361  2.5488  2.5085  0.6752
 1544SOL     OW16090   2.533   2.167   3.492  0.4123 -0.3880 -0.4443
 1544SOL    HW116091   2.482   2.222   3.551 -0.3616 -0.9510 -0.5841
 1544SOL    HW216092   2.605   2.226   3.469 -0.3432  1.0683  0.9265
 1545SOL     OW16093   0.928   1.081   2.165  0.3770  0.2855 -0.0138
 1545SOL    HW116094   0.965   1.158   2.123 -1.3792 -0.6111 -3.2501
 1545SOL    HW216095   0.916   1.031   2.084 -0.1717  0.7563 -0.2198
 1546SOL     OW16096   0.836   3.581   5.800  0.5320 -0.0502 -0.1950
 1546SOL    HW116097   0.762   3.618   5.752  0.0140 -2.8739 -1.5829
 1546SOL    HW216098   0.867   3.660   5.844 -1.0625  0.4645 -0.0086
 1547SOL     OW16099   0.779   0.508   5.251 -0.0860  0.0033  0.1892
 1547SOL    HW116100   0.752   0.477   5.165 -1.5663 -0.0476  0.6728
 1547SOL    HW216101   0.795   0.600   5.231  1.2018 -0.5926 -1.5186
 1548SOL     OW16102   3.873   2.943   4.967  0.1893 -0.0025 -0.1066
 1548SOL    HW116103   3.805   2.881   4.992  1.8965 -0.5450  3.2037
 1548SOL    HW216104   3.926   2.889   4.909  1.0831 -0.8895  1.5118
 1549SOL     OW16105   1.192   0.319   8.568 -0.2046 -1.0146 -0.0838
 1549SOL    HW116106   1.213   0.242   8.514 -0.2512 -1.1769  0.1275
 1549SOL    HW216107   1.278   0.338   8.604 -0.1456 -1.1973 -0.1273
 1550SOL     OW16108   2.852   3.520   6.974 -0.3669 -0.0594  0.2766
 1550SOL    HW116109   2.823   3.486   7.058 -2.2280  1.8757  0.4185
 1550SOL    HW216110   2.788   3.473   6.919  1.2531 -0.3344 -1.3875
 1551SOL     OW16111   0.327   1.661   4.373 -0.3520 -0.3620 -0.7307
 1551SOL    HW116112   0.413   1.702   4.381 -0.4154 -0.5295  0.7329
 1551SOL    HW216113   0.339   1.627   4.284  1.4764 -1.0559 -0.2258
 1552SOL     OW16114   4.528   4.266   5.087  0.3422  0.3561  0.1884
 1552SOL    HW116115   4.493   4.187   5.046  0.0790  1.5397 -1.8889
 1552SOL    HW216116   4.517   4.325   5.012 -0.1167 -1.8411 -1.4725
 1553SOL     OW16117   3.120   2.970  10.716 -0.3032 -0.2509  0.2557
 1553SOL    HW116118   3.044   3.012  10.756 -0.3888 -0.0803 -0.0828
 1553SOL    HW216119   3.165   3.047  10.679 -0.7260  0.4630  1.2289
 1554SOL     OW16120   3.702   1.011   5.752  0.1748 -0.3856  0.2257
 1554SOL    HW116121   3.609   0.996   5.772 -0.5155  1.5079 -1.5474
 1554SOL    HW216122   3.738   0.938   5.803  1.0228 -0.8348 -1.0324
 1555SOL     OW16123   4.661   0.814   7.671  0.2432  0.4791  0.3316
 1555SOL    HW116124   4.721   0.760   7.722  0.0547  0.6392  0.7285
 1555SOL    HW216125   4.706   0.898   7.680  0.4005  0.6613 -2.1169
 1556SOL     OW16126   4.006   3.788   1.826 -0.1661  0.0201 -0.5276
 1556SOL    HW116127   3.997   3.707   1.777  0.8263  0.4137 -1.3745
 1556SOL    HW216128   3.956   3.847   1.770 -1.5052 -1.1589 -0.5832
 1557SOL     OW16129   4.566   1.081   6.171  0.3678  0.1163  0.1164
 1557SOL    HW116130   4.585   1.145   6.102 -0.5840  2.0978  1.7008
 1557SOL    HW216131   4.631   1.110   6.235  0.8321 -0.1304 -0.2388
 1558SOL     OW16132   1.270   0.091   3.370  0.1852 -0.0077  0.0260
 1558SOL    HW116133   1.243   0.170   3.417 -0.4689 -0.5112  0.4959
 1558SOL    HW216134   1.229   0.105   3.285  1.4522 -0.9041 -0.7402
 1559SOL     OW16135   3.536   3.502   9.527 -0.7607  0.0843 -0.3704
 1559SOL    HW116136   3.573   3.562   9.462  2.6273 -1.5297  0.0688
 1559SOL    HW216137   3.542   3.416   9.485 -2.1244 -0.0533 -0.2795
 1560SOL     OW16138   0.890   1.241   4.243 -0.0914 -0.3294 -0.1386
 1560SOL    HW116139   0.942   1.187   4.301  0.2754  2.1567  1.8577
 1560SOL    HW216140   0.884   1.183   4.167 -1.0006 -0.2385 -0.1425
 1561SOL     OW16141   1.365   3.683  11.552  0.1433 -0.4477 -0.5114
 1561SOL    HW116142   1.365   3.596  11.511 -0.6295 -0.8745  0.4058
 1561SOL    HW216143   1.453   3.707  11.523  0.4936 -2.0974 -0.8218
 1562SOL     OW16144   0.791   0.092   3.916  0.7719  0.1661 -0.2218
 1562SOL    HW116145   0.776   0.153   3.988 -1.2636  1.6498 -1.8929
 1562SOL    HW216146   0.807   0.147   3.840  0.6911 -0.2763 -0.5604
 1563SOL     OW16147   0.607   4.130   5.556 -0.0499  0.6743  0.0102
 1563SOL    HW116148   0.597   4.136   5.651 -0.3599  1.3198 -0.0591
 1563SOL    HW216149   0.702   4.127   5.546  0.0288 -0.8744  1.3744
 1564SOL     OW16150   3.022   1.052   7.953 -0.5721 -0.6645  0.5049
 1564SOL    HW116151   3.075   1.017   7.881 -0.9179  2.6618 -1.3526
 1564SOL    HW216152   3.017   1.147   7.943 -0.1519 -0.9534 -2.6171
 1565SOL     OW16153   0.376   0.985  12.551 -0.3572  0.0449 -0.5604
 1565SOL    HW116154   0.424   1.043  12.493  0.7135 -1.7945 -1.5330
 1565SOL    HW216155   0.395   0.902  12.507  1.4526  0.0541  0.2170
 1566SOL     OW16156   1.179   1.593   6.244 -0.5128 -0.6094  1.1239
 1566SOL    HW116157   1.267   1.631   6.239 -0.9976  0.4847  1.0058
 1566SOL    HW216158   1.191   1.498   6.249 -1.8437 -0.7352  1.9164
 1567SOL     OW16159   4.131   4.384   2.470 -0.4919  0.1738  0.0951
 1567SOL    HW116160   4.202   4.411   2.528 -0.6930  0.6087  0.1430
 1567SOL    HW216161   4.143   4.436   2.390 -0.7278 -1.4702 -1.0120
 1568SOL     OW16162   4.523   2.637   4.344 -0.0996  0.4373  0.4645
 1568SOL    HW116163   4.511   2.551   4.386 -0.0621 -0.1722 -0.7766
 1568SOL    HW216164   4.576   2.613   4.268 -1.7724  0.3792 -0.6848
 1569SOL     OW16165   2.894   4.075  17.270  0.5940  0.0208  0.3437
 1569SOL    HW116166   2.863   3.989  17.300  1.6729 -0.4723  0.0364
 1569SOL    HW216167   2.987   4.077  17.290  0.5327 -1.6492  0.8135
 1570SOL     OW16168   0.024   3.768   3.569 -0.0384 -0.4843  0.2519
 1570SOL    HW116169   0.072   3.792   3.489 -0.5480 -0.4610 -0.0433
 1570SOL    HW216170   0.038   3.846   3.623 -3.4890 -0.2950  0.8606
 1571SOL     OW16171   3.490   2.728   3.827  0.3480 -0.3145  0.2182
 1571SOL    HW116172   3.579   2.765   3.831  0.0779  0.3132  0.4756
 1571SOL    HW216173   3.440   2.766   3.899  0.5181 -1.7479  1.0731
 1572SOL     OW16174   1.002   1.169   6.389 -0.4791 -0.2009 -0.7552
 1572SOL    HW116175   1.041   1.128   6.311  2.2979  1.6659 -0.3415
 1572SOL    HW216176   1.050   1.116   6.453 -0.1751 -0.5293 -1.2482
 1573SOL     OW16177   1.723   0.046   1.056 -0.0479  0.3023 -0.1311
 1573SOL    HW116178   1.632   0.041   1.085  0.0526 -1.5204 -0.1154
 1573SOL    HW216179   1.725   0.137   1.026  1.2709  0.7929  1.4452
 1574SOL     OW16180   1.973   3.543   7.449  0.0293 -0.5806  0.2407
 1574SOL    HW116181   2.065   3.553   7.427 -0.1781  0.9782  0.0826
 1574SOL    HW216182   1.987   3.498   7.532  1.9459 -1.9545 -0.8413
 1575SOL     OW16183   0.524   2.705   5.240 -0.1367  0.2831 -0.4159
 1575SOL    HW116184   0.477   2.762   5.178  2.1922  1.0680 -1.4755
 1575SOL    HW216185   0.551   2.640   5.175  1.1160 -0.4445  0.8630
 1576SOL     OW16186   2.272   1.539   3.479 -0.3991  0.3746  0.5721
 1576SOL    HW116187   2.265   1.627   3.516  1.3404  0.4138  0.7854
 1576SOL    HW216188   2.332   1.497   3.541  1.0923  1.4597 -0.1328
 1577SOL     OW16189   0.748   3.809   7.966  0.0843  0.0925 -0.4523
 1577SOL    HW116190   0.763   3.902   7.951  1.5482 -0.1475 -0.5373
 1577SOL    HW216191   0.819   3.798   8.029  0.5270 -0.3958 -1.0241
 1578SOL     OW16192   2.158   0.834   0.894 -0.8078 -0.3572  0.3125
 1578SOL    HW116193   2.082   0.793   0.853 -0.5851  0.0330 -0.4978
 1578SOL    HW216194   2.110   0.864   0.971 -0.5480  0.2633  0.2352
 1579SOL     OW16195   0.010   2.443  16.922 -0.0396  0.0808 -0.3824
 1579SOL    HW116196   4.703   2.509  16.985 -2.6786 -3.3428  1.9325
 1579SOL    HW216197   0.047   2.379  16.982 -1.4500  0.3935  0.8311
 1580SOL     OW16198   0.268   2.551  13.734 -0.3143 -0.6701 -0.5886
 1580SOL    HW116199   0.241   2.463  13.761 -1.6268 -0.1451 -0.1424
 1580SOL    HW216200   0.202   2.599  13.785 -0.0494 -1.0657  0.1298
 1581SOL     OW16201   3.935   3.043  12.014 -0.3062  0.0997 -0.0063
 1581SOL    HW116202   3.916   2.960  11.969  0.0436 -0.6205  1.1720
 1581SOL    HW216203   3.901   3.033  12.103 -1.0923 -1.2710 -0.4420
 1582SOL     OW16204   0.585   0.722   7.450  0.1071 -0.2865  0.0326
 1582SOL    HW116205   0.638   0.671   7.389  0.5676 -1.5566  1.4788
 1582SOL    HW216206   0.639   0.754   7.522 -0.6081 -1.5602  1.1349
 1583SOL     OW16207   3.199   4.308  15.288 -0.4755  0.0235 -0.0716
 1583SOL    HW116208   3.165   4.221  15.311  1.8126 -0.3898  1.7439
 1583SOL    HW216209   3.241   4.341  15.367  0.0196 -2.2134  0.6147
 1584SOL     OW16210   2.635   2.194  17.077 -0.1765  0.3715 -0.9008
 1584SOL    HW116211   2.609   2.168  16.988  0.9685  0.4692 -1.2739
 1584SOL    HW216212   2.672   2.282  17.075  1.6444 -0.3607  0.7712
 1585SOL     OW16213   1.556   2.135   7.894  0.3428  0.1819 -0.2357
 1585SOL    HW116214   1.553   2.052   7.942 -0.5718 -0.0299 -0.6734
 1585SOL    HW216215   1.618   2.115   7.824 -1.0438  0.7041 -1.6073
 1586SOL     OW16216   3.457   4.139   6.556 -0.1304  0.6821  0.0246
 1586SOL    HW116217   3.547   4.153   6.527  0.0898  0.8748  0.8257
 1586SOL    HW216218   3.411   4.218   6.527  0.9672  2.6305  3.6280
 1587SOL     OW16219   4.529   0.940  13.113 -0.3072 -0.5044 -0.1811
 1587SOL    HW116220   4.471   0.931  13.188 -0.1771 -0.9689 -0.1358
 1587SOL    HW216221   4.534   1.036  13.115  0.1155 -0.5381  0.3009
 1588SOL     OW16222   1.702   4.664   2.789 -0.3072  0.3094  0.1488
 1588SOL    HW116223   1.674   0.026   2.755  3.3736  0.1944 -3.1406
 1588SOL    HW216224   1.659   4.610   2.722 -0.8403  1.4687 -0.4431
 1589SOL     OW16225   4.312   3.247   9.176 -0.3324 -0.1804  0.3553
 1589SOL    HW116226   4.335   3.205   9.258  1.1639  0.7871  0.4277
 1589SOL    HW216227   4.216   3.249   9.181 -0.4477 -0.9013 -1.5303
 1590SOL     OW16228   0.012   3.977  13.869  0.3472  0.5403  0.2128
 1590SOL    HW116229   4.693   4.055  13.833 -0.4643  0.2247  0.4591
 1590SOL    HW216230   4.657   3.937  13.908 -0.9380  1.6670 -1.2068
 1591SOL     OW16231   1.321   1.077   2.607  0.1294 -0.2234 -0.2879
 1591SOL    HW116232   1.258   1.112   2.545  0.2143  0.2812 -0.0887
 1591SOL    HW216233   1.287   1.119   2.686 -2.1573  0.8310 -1.8517
 1592SOL     OW16234   2.734   0.822  14.860 -0.2090  0.1915 -0.3574
 1592SOL    HW116235   2.694   0.905  14.887 -2.4376 -1.4818  1.4841
 1592SOL    HW216236   2.661   0.761  14.858  0.5468 -0.6485 -1.9875
 1593SOL     OW16237   1.644   4.358   5.432 -0.1837  0.0464 -0.6293
 1593SOL    HW116238   1.589   4.289   5.469  0.6542  1.1392  2.6359
 1593SOL    HW216239   1.722   4.351   5.487 -0.2355  1.4736 -0.3701
 1594SOL     OW16240   1.395   4.575   8.793 -0.0478  0.3273 -0.2313
 1594SOL    HW116241   1.385   4.482   8.774 -2.0804 -0.0975  3.0429
 1594SOL    HW216242   1.490   4.584   8.782 -0.0119 -0.1687 -0.3007
 1595SOL     OW16243   3.961   4.398   8.173 -0.3726 -0.3920  0.0226
 1595SOL    HW116244   4.016   4.423   8.246  0.6653 -0.7068 -0.6559
 1595SOL    HW216245   3.910   4.332   8.220 -0.4448  0.5006  1.1994
 1596SOL     OW16246   3.873   3.059   0.226  0.0335  0.3630 -0.4935
 1596SOL    HW116247   3.880   3.065   0.322  0.7621  0.5938 -0.5603
 1596SOL    HW216248   3.898   2.968   0.208  1.6228  1.2017 -2.4690
 1597SOL     OW16249   0.272   4.027   8.421  0.1005 -0.2729 -0.1374
 1597SOL    HW116250   0.259   4.113   8.462  0.6017 -0.3835  0.2571
 1597SOL    HW216251   0.219   4.038   8.342 -1.4956 -0.8037  0.8633
 1598SOL     OW16252   0.916   1.780  13.071  0.2093  0.2118  0.6459
 1598SOL    HW116253   0.868   1.863  13.073 -0.2091 -0.0484  1.3819
 1598SOL    HW216254   0.864   1.713  13.115  0.8990 -0.0195  1.1065
 1599SOL     OW16255   1.350   4.332   2.395 -0.0447 -0.4124 -0.2982
 1599SOL    HW116256   1.362   4.331   2.300 -1.0075  0.1875 -0.4278
 1599SOL    HW216257   1.441   4.319   2.420 -0.1655 -1.9408 -0.6546
 1600SOL     OW16258   1.539   0.074   3.884 -0.0707 -0.1543 -0.2995
 1600SOL    HW116259   1.507   0.132   3.815 -1.6883 -1.7431 -0.8774
 1600SOL    HW216260   1.509   4.713   3.849  1.0106 -0.8254  0.3488
 1601SOL     OW16261   0.957   3.411   3.170  0.6651  0.4055  0.0548
 1601SOL    HW116262   0.955   3.458   3.253  2.0761  0.6914 -0.0758
 1601SOL    HW216263   0.884   3.459   3.130 -0.7258  1.0794  3.4310
 1602SOL     OW16264   1.042   2.509   5.456 -0.4665  0.3838  0.2226
 1602SOL    HW116265   1.043   2.429   5.508  1.6613  0.4462  0.2904
 1602SOL    HW216266   1.136   2.505   5.440 -1.1759 -1.5380 -3.3539
 1603SOL     OW16267   2.824   4.103   9.057  0.0989  0.3035  0.0004
 1603SOL    HW116268   2.849   4.047   9.130 -2.9893  0.7593  1.3965
 1603SOL    HW216269   2.736   4.111   9.094 -0.9439  2.4647 -2.9169
 1604SOL     OW16270   3.402   3.049   6.084 -0.1657  0.1305 -0.3794
 1604SOL    HW116271   3.318   3.005   6.096  0.0101  0.1578  1.0010
 1604SOL    HW216272   3.427   3.049   6.177 -0.5462 -0.8279 -0.2750
 1605SOL     OW16273   1.228   0.425   9.995 -0.3416 -0.4288  0.1394
 1605SOL    HW116274   1.197   0.507   9.957  1.9455  1.3049  1.9628
 1605SOL    HW216275   1.170   0.418  10.071  1.4692 -1.3052  1.4522
 1606SOL     OW16276   4.251   1.091  13.422 -0.1196 -0.1158  0.2484
 1606SOL    HW116277   4.283   1.122  13.338  1.4739 -0.6759  0.6385
 1606SOL    HW216278   4.156   1.078  13.418 -0.2841  0.6149  1.5560
 1607SOL     OW16279   1.347   3.003   3.179  0.4374  0.0487  0.2695
 1607SOL    HW116280   1.411   3.062   3.218  2.6449 -1.6099 -0.8982
 1607SOL    HW216281   1.264   3.051   3.190  0.4055 -0.1482  0.9162
 1608SOL     OW16282   0.720   3.778  11.661  0.2408 -0.2267 -0.5498
 1608SOL    HW116283   0.716   3.744  11.571 -0.4954  0.6421 -0.8571
 1608SOL    HW216284   0.664   3.720  11.712 -0.7023  1.9404  0.8878
 1609SOL     OW16285   3.366   1.273  12.405 -0.1729 -0.2499  0.1547
 1609SOL    HW116286   3.328   1.187  12.387  0.6840 -0.5024 -0.4842
 1609SOL    HW216287   3.455   1.263  12.369  0.1831 -1.7001  1.4238
 1610SOL     OW16288   2.983   0.892  14.733 -0.4008 -0.9490 -0.5876
 1610SOL    HW116289   3.065   0.853  14.763 -0.6077 -0.7743  0.1931
 1610SOL    HW216290   2.921   0.840  14.784 -1.0003 -0.9872 -1.3543
 1611SOL     OW16291   4.043   2.996  16.040 -0.1111  0.1724  0.3216
 1611SOL    HW116292   4.079   3.003  15.951 -0.0912  2.2967  0.4959
 1611SOL    HW216293   4.083   2.914  16.068  1.9402  1.6179  1.7077
 1612SOL     OW16294   4.002   1.087  16.622 -0.4259 -0.3125 -0.1387
 1612SOL    HW116295   3.982   1.006  16.668 -1.5993  0.1001  0.0648
 1612SOL    HW216296   3.915   1.111  16.591 -0.1723 -0.4334 -0.9722
 1613SOL     OW16297   2.896   0.628   7.926 -0.2243 -0.6882 -0.1416
 1613SOL    HW116298   2.802   0.612   7.923 -0.3430  0.2737 -1.4186
 1613SOL    HW216299   2.904   0.698   7.992  2.4790 -2.4138  1.3385
 1614SOL     OW16300   2.345   2.184   9.423 -0.0780  0.0374 -0.2345
 1614SOL    HW116301   2.389   2.260   9.384  0.8552 -0.0565  0.6664
 1614SOL    HW216302   2.400   2.170   9.500 -2.2945 -2.1697  0.9529
 1615SOL     OW16303   3.579   0.537   1.238  0.1256  0.3121 -0.5757
 1615SOL    HW116304   3.575   0.518   1.144 -0.7992  1.0986 -0.6979
 1615SOL    HW216305   3.670   0.561   1.252  0.3388 -1.5067  1.0984
 1616SOL     OW16306   3.387   0.247   7.862 -0.6394  0.3371  0.7947
 1616SOL    HW116307   3.387   0.337   7.894  0.1336  0.1720  1.2469
 1616SOL    HW216308   3.343   0.251   7.777 -0.6789 -1.3192  0.7324
 1617SOL     OW16309   2.589   1.287   3.243 -0.1791  0.4331 -0.0140
 1617SOL    HW116310   2.671   1.272   3.291 -0.7511 -0.0122  0.8255
 1617SOL    HW216311   2.606   1.375   3.209  0.0210  0.7505  0.9019
 1618SOL     OW16312   0.055   1.324   5.142 -0.1203  0.1230  0.0692
 1618SOL    HW116313   0.092   1.239   5.164 -0.8056  0.1504  1.3306
 1618SOL    HW216314   4.699   1.342   5.194  0.3506 -1.1795  1.2101
 1619SOL     OW16315   2.533   3.437   1.406  0.6267 -0.7780  0.3087
 1619SOL    HW116316   2.449   3.423   1.362  0.4147  0.5741  0.2924
 1619SOL    HW216317   2.528   3.515   1.461 -1.1580  0.2868 -1.3624
 1620SOL     OW16318   2.883   4.149  11.266  1.1285  0.0310 -0.1435
 1620SOL    HW116319   2.788   4.143  11.266  1.1108  0.3119  0.1891
 1620SOL    HW216320   2.906   4.062  11.296 -1.1615 -0.2087  0.8825
 1621SOL     OW16321   1.460   1.906   5.644  0.3676 -0.3872 -0.2307
 1621SOL    HW116322   1.546   1.947   5.639  0.9963 -1.4787  1.7823
 1621SOL    HW216323   1.421   1.988   5.677  3.1506  0.7519  0.2690
 1622SOL     OW16324   0.883   3.793   9.422  0.0727  0.5907  0.1733
 1622SOL    HW116325   0.812   3.817   9.481 -1.4184 -2.3400 -0.4176
 1622SOL    HW216326   0.925   3.878   9.431 -1.2262  0.8818  3.5403
 1623SOL     OW16327   4.528   3.800  13.678  0.6394 -0.1693  0.3964
 1623SOL    HW116328   4.578   3.871  13.639 -0.5319  0.2052 -0.4434
 1623SOL    HW216329   4.468   3.826  13.748  1.6980  1.6411  0.6348
 1624SOL     OW16330   0.527   0.968   8.719 -0.0231 -0.1146 -0.1826
 1624SOL    HW116331   0.486   1.055   8.714  0.2184 -0.0690 -1.2101
 1624SOL    HW216332   0.451   0.912   8.700 -0.0775  0.2996 -1.1735
 1625SOL     OW16333   1.969   1.518   0.629  0.4882 -0.5218  0.1663
 1625SOL    HW116334   1.881   1.555   0.616  0.0212 -0.7290  2.6688
 1625SOL    HW216335   1.976   1.495   0.722 -1.1450  0.3051  0.5013
 1626SOL     OW16336   1.806   3.577   9.055 -0.2301 -0.1960  0.6385
 1626SOL    HW116337   1.840   3.493   9.027  0.8322  0.7171 -0.8413
 1626SOL    HW216338   1.782   3.559   9.146  0.1411  1.0680  0.9966
 1627SOL     OW16339   0.134   3.189   1.565 -0.3067 -0.3991  0.2697
 1627SOL    HW116340   0.191   3.239   1.507  0.5037 -0.7702  0.7361
 1627SOL    HW216341   0.198   3.125   1.597 -0.0814 -0.4025 -0.1793
 1628SOL     OW16342   2.468   1.054   3.690 -0.4903  0.3444 -0.1576
 1628SOL    HW116343   2.479   1.116   3.618 -1.3881  1.9930  1.1284
 1628SOL    HW216344   2.515   1.097   3.761 -0.4771 -0.3263  0.2407
 1629SOL     OW16345   3.079   1.704   1.697  0.0469 -0.1825 -0.2343
 1629SOL    HW116346   3.120   1.618   1.690 -2.4811 -1.4236  0.5399
 1629SOL    HW216347   2.995   1.678   1.733 -0.3619 -0.0608 -1.1088
 1630SOL     OW16348   0.912   0.067   7.301 -0.3331 -0.0650 -0.1127
 1630SOL    HW116349   0.884   0.079   7.392  0.9209 -0.3505  0.3049
 1630SOL    HW216350   0.979   0.134   7.287  0.1461 -0.2296  1.3579
 1631SOL     OW16351   2.383   0.641   7.408 -0.0454 -0.2967 -0.1807
 1631SOL    HW116352   2.348   0.698   7.339 -0.1144  0.5565  0.5578
 1631SOL    HW216353   2.476   0.661   7.405  0.0024 -0.4542  0.1698
 1632SOL     OW16354   2.614   2.802   0.528  0.4246  0.0846 -0.1210
 1632SOL    HW116355   2.671   2.828   0.600  0.6948 -0.1451 -0.2521
 1632SOL    HW216356   2.657   2.832   0.448 -1.2966 -0.3274 -1.2237
 1633SOL     OW16357   0.228   1.177  14.870 -0.3180  0.0307 -0.3652
 1633SOL    HW116358   0.310   1.192  14.822  1.1031  2.3598  2.8220
 1633SOL    HW216359   0.251   1.193  14.961  0.3303 -0.2401 -0.4822
 1634SOL     OW16360   1.525   4.154  16.405  0.0602 -0.1806 -0.0145
 1634SOL    HW116361   1.463   4.100  16.355  0.2742 -1.8017  1.4822
 1634SOL    HW216362   1.483   4.238  16.427  1.3246 -0.5604  3.7912
 1635SOL     OW16363   0.991   2.378   1.916  0.2764 -0.2180 -0.1455
 1635SOL    HW116364   1.023   2.338   1.997 -2.0418  0.6801  1.2022
 1635SOL    HW216365   0.930   2.309   1.889 -1.3448  1.4502 -0.6628
 1636SOL     OW16366   3.828   1.571   8.916  0.4073  0.0194 -0.9374
 1636SOL    HW116367   3.898   1.616   8.868  0.4085  1.4689  0.4513
 1636SOL    HW216368   3.758   1.586   8.852  0.3609  2.2032 -0.3749
 1637SOL     OW16369   3.811   0.610   1.514 -0.0041 -0.2629 -0.0623
 1637SOL    HW116370   3.789   0.644   1.428 -1.3821 -0.6971  0.1252
 1637SOL    HW216371   3.807   0.517   1.492  2.6760 -0.2633 -0.6163
 1638SOL     OW16372   4.145   0.662   3.514  0.0345  0.2873  0.4306
 1638SOL    HW116373   4.064   0.671   3.563  0.1532  1.1016  0.4837
 1638SOL    HW216374   4.121   0.632   3.427 -2.2918 -1.1100  1.5855
 1639SOL     OW16375   0.839   4.116   5.428 -0.1939 -0.1099  0.1446
 1639SOL    HW116376   0.929   4.148   5.430 -1.7084  4.2822 -1.0395
 1639SOL    HW216377   0.805   4.151   5.346  2.9846 -0.6625 -1.4009
 1640SOL     OW16378   2.098   2.420   2.810 -0.1662 -0.8311  0.0044
 1640SOL    HW116379   2.008   2.448   2.796  0.0770 -1.2716 -2.4228
 1640SOL    HW216380   2.102   2.341   2.757  1.5403 -0.5610 -0.2891
 1641SOL     OW16381   2.239   0.792  12.533 -0.0667  0.1691 -0.0999
 1641SOL    HW116382   2.281   0.707  12.545  2.3638  0.9322 -3.0751
 1641SOL    HW216383   2.285   0.856  12.587  1.2202  0.0782 -1.1009
 1642SOL     OW16384   0.488   2.879   8.955 -0.2865  0.4340 -0.1908
 1642SOL    HW116385   0.459   2.942   9.022  0.3812  2.3224 -1.6812
 1642SOL    HW216386   0.552   2.821   8.996 -1.2185 -1.9687 -2.1609
 1643SOL     OW16387   2.370   1.421   0.860 -0.2896  0.8510  0.6957
 1643SOL    HW116388   2.308   1.436   0.788  0.5831  1.2851  0.0329
 1643SOL    HW216389   2.449   1.442   0.810  0.0346  1.7507  1.6000
 1644SOL     OW16390   1.209   0.722   3.278 -0.4557 -0.3574 -0.0372
 1644SOL    HW116391   1.198   0.713   3.184 -0.5307  0.9023 -0.1514
 1644SOL    HW216392   1.304   0.730   3.284 -0.5328  0.0804  0.6188
 1645SOL     OW16393   4.109   0.172   5.239 -0.4483 -0.1491 -0.6926
 1645SOL    HW116394   4.204   0.167   5.226 -0.3346 -3.5718  1.4317
 1645SOL    HW216395   4.103   0.259   5.279  3.9227 -0.1942  0.1433
 1646SOL     OW16396   1.336   0.188   7.909  0.2931  0.4644 -0.1884
 1646SOL    HW116397   1.432   0.197   7.906  0.5219 -1.2347  2.2999
 1646SOL    HW216398   1.318   0.174   7.816  0.1589 -0.7007  0.0104
 1647SOL     OW16399   0.270   2.050  10.053  0.2404 -0.2811 -0.0095
 1647SOL    HW116400   0.222   2.125  10.018 -0.2754 -1.1232 -1.1169
 1647SOL    HW216401   0.355   2.069  10.013  0.0710  0.1844 -0.1446
 1648SOL     OW16402   0.160   1.022  12.692 -0.0120 -0.2119 -0.1794
 1648SOL    HW116403   0.115   1.095  12.648  0.9794  0.1847 -0.5225
 1648SOL    HW216404   0.232   1.001  12.633  1.2062 -0.2500  1.3369
 1649SOL     OW16405   1.391   1.720   9.490  0.4109 -0.1517 -0.1066
 1649SOL    HW116406   1.313   1.680   9.452  0.7600 -3.7540  3.0295
 1649SOL    HW216407   1.406   1.784   9.420  0.5843  0.1634  0.2167
 1650SOL     OW16408   3.365   4.671  16.401 -0.1841  0.1476 -0.6131
 1650SOL    HW116409   3.305   0.015  16.434  0.7097  0.2748  0.7676
 1650SOL    HW216410   3.430   4.720  16.351  0.5973  1.0622  1.2676
 1651SOL     OW16411   3.611   1.181   1.173 -0.1141  0.2327 -0.1456
 1651SOL    HW116412   3.677   1.155   1.237 -0.3885  1.5248  0.6766
 1651SOL    HW216413   3.631   1.121   1.101  0.0455 -0.4153  0.4414
 1652SOL     OW16414   0.259   2.197   8.967  0.1464 -0.1346  0.0633
 1652SOL    HW116415   0.180   2.163   8.925  0.2242  1.5940 -1.4933
 1652SOL    HW216416   0.311   2.121   8.943  0.8898 -0.1903  1.8446
 1653SOL     OW16417   4.331   2.860   9.100  0.1628  0.1573  0.1360
 1653SOL    HW116418   4.246   2.848   9.058  0.6389  0.3945 -0.8838
 1653SOL    HW216419   4.378   2.892   9.023  0.8340 -0.5370  0.2499
 1654SOL     OW16420   2.658   4.014   3.310  0.0989 -0.6888 -0.2151
 1654SOL    HW116421   2.668   3.989   3.402  0.7351  1.2633  0.2454
 1654SOL    HW216422   2.626   4.104   3.323 -1.8802 -1.6944  1.9258
 1655SOL     OW16423   0.200   0.978   0.217 -0.4300  0.0581 -0.6982
 1655SOL    HW116424   0.251   0.897   0.210 -0.0887  0.3254 -1.2759
 1655SOL    HW216425   0.117   0.937   0.240 -1.0037  0.9510 -1.1720
 1656SOL     OW16426   4.039   2.037   6.362 -0.1780 -0.4348  0.1714
 1656SOL    HW116427   4.065   2.109   6.419 -0.8721 -0.2253  0.2189
 1656SOL    HW216428   3.949   2.053   6.336  0.1926 -1.1895 -1.5798
 1657SOL     OW16429   3.593   0.189   5.988 -0.3276  0.1937  0.6758
 1657SOL    HW116430   3.650   0.209   5.913 -2.1055  0.6890 -0.5512
 1657SOL    HW216431   3.624   0.103   6.016 -3.0186  0.0495  3.2221
 1658SOL     OW16432   4.587   3.337  16.253  0.1280 -0.4072 -0.0150
 1658SOL    HW116433   4.659   3.399  16.240 -0.9173  0.3710 -2.0234
 1658SOL    HW216434   4.642   3.264  16.282  2.2173  0.8024 -0.8825
 1659SOL     OW16435   3.467   3.877   3.998 -0.6559 -0.1661 -0.2303
 1659SOL    HW116436   3.470   3.839   4.086 -0.7953 -1.3210 -0.7280
 1659SOL    HW216437   3.375   3.871   3.974 -0.5304  2.5302 -1.3240
 1660SOL     OW16438   0.981   3.120   3.840  0.0695  0.7399 -0.3801
 1660SOL    HW116439   0.990   3.201   3.791 -0.4144  0.1423 -1.4534
 1660SOL    HW216440   0.948   3.154   3.923 -2.5432 -0.2261 -1.0313
 1661SOL     OW16441   1.106   3.991   6.904 -0.1963  0.5221 -0.6762
 1661SOL    HW116442   1.011   3.981   6.904  0.1369 -2.5194  0.7930
 1661SOL    HW216443   1.127   3.900   6.927 -0.5915  0.4189 -0.7243
 1662SOL     OW16444   3.390   1.294   5.066 -0.3942  0.0889 -0.0642
 1662SOL    HW116445   3.324   1.338   5.012  0.9260  1.5896 -0.4687
 1662SOL    HW216446   3.399   1.363   5.131 -2.8281  0.1014  0.2656
 1663SOL     OW16447   1.883   3.004   5.527  0.4043 -0.2345  0.7475
 1663SOL    HW116448   1.837   2.934   5.574  1.1168 -1.6480 -0.6636
 1663SOL    HW216449   1.930   2.958   5.457 -0.2411 -0.8923  0.7480
 1664SOL     OW16450   0.037   3.306   9.370 -0.7251 -0.1506 -0.3206
 1664SOL    HW116451   4.702   3.318   9.446 -1.4480  0.2605 -0.9362
 1664SOL    HW216452   4.702   3.330   9.297  1.1525 -0.6095 -1.9651
 1665SOL     OW16453   2.382   2.645   4.127  0.2714  0.2363  0.0003
 1665SOL    HW116454   2.455   2.599   4.169  0.1039 -2.9548 -3.1995
 1665SOL    HW216455   2.408   2.734   4.148  0.0174  0.1651  0.6149
 1666SOL     OW16456   0.420   2.016   1.862  0.4683  0.0575 -0.2393
 1666SOL    HW116457   0.375   2.006   1.946  1.5044  1.8626  0.5496
 1666SOL    HW216458   0.391   1.933   1.825  0.3585 -0.3726  0.7882
 1667SOL     OW16459   3.720   0.461   8.701  0.6395 -0.1833 -0.3294
 1667SOL    HW116460   3.775   0.390   8.668  2.7825  0.5154  1.7252
 1667SOL    HW216461   3.776   0.538   8.686 -0.0106  0.1911 -0.8327
 1668SOL     OW16462   1.349   0.838  10.003  0.4985  0.1104 -0.2264
 1668SOL    HW116463   1.395   0.763  10.040  0.2827 -1.0309 -2.2469
 1668SOL    HW216464   1.267   0.804   9.969  1.6195 -1.9270 -0.8765
 1669SOL     OW16465   0.225   1.740  10.372 -0.0055  0.0216  0.3830
 1669SOL    HW116466   0.264   1.750  10.285 -0.3166  1.0669  0.3723
 1669SOL    HW216467   0.275   1.665  10.404 -0.1035 -0.1715  0.0927
 1670SOL     OW16468   3.064   3.807  11.767 -0.1293  0.1976 -1.1966
 1670SOL    HW116469   3.059   3.889  11.816 -0.9469 -0.0213 -0.9094
 1670SOL    HW216470   2.976   3.772  11.779  1.6371 -3.7648  0.1162
 1671SOL     OW16471   1.991   3.372   7.746 -0.0331 -0.0667 -0.2162
 1671SOL    HW116472   1.962   3.459   7.772 -1.0660 -1.1674  2.2982
 1671SOL    HW216473   1.914   3.327   7.710  0.9902 -1.3467 -0.8112
 1672SOL     OW16474   2.703   2.231  11.705 -0.1458 -0.6059 -0.2921
 1672SOL    HW116475   2.780   2.216  11.651  0.4012 -0.9502  0.5744
 1672SOL    HW216476   2.708   2.326  11.711 -0.0703 -0.6723  0.7742
 1673SOL     OW16477   3.446   3.562   9.001 -0.1325 -0.0071 -0.1972
 1673SOL    HW116478   3.476   3.649   9.029  1.0627 -0.5448  0.1805
 1673SOL    HW216479   3.356   3.559   9.032  0.0494  1.8118  0.5060
 1674SOL     OW16480   3.837   3.043   8.170  0.0033  0.0755  0.0887
 1674SOL    HW116481   3.785   2.996   8.104  1.2634  0.5862 -1.2899
 1674SOL    HW216482   3.866   3.118   8.118  1.5867 -0.4686  0.1819
 1675SOL     OW16483   0.516   1.257   9.309 -0.1009 -0.1844  0.1261
 1675SOL    HW116484   0.447   1.310   9.348  0.4970  0.7883 -0.1619
 1675SOL    HW216485   0.537   1.295   9.224 -0.9265 -1.1198 -0.5017
 1676SOL     OW16486   2.288   3.062   1.955  0.3694 -0.7666 -0.0882
 1676SOL    HW116487   2.282   3.122   1.881  3.7778 -2.6761 -1.8986
 1676SOL    HW216488   2.369   3.014   1.937  1.6515  1.0618  0.8082
 1677SOL     OW16489   2.918   4.591  13.147 -0.4146 -0.0603 -0.0337
 1677SOL    HW116490   2.936   4.685  13.150 -1.1586 -0.0239  2.6938
 1677SOL    HW216491   2.995   4.545  13.180  0.0891  1.0808  0.4034
 1678SOL     OW16492   2.527   1.556   1.969  0.3096 -0.7016  0.2275
 1678SOL    HW116493   2.604   1.514   1.932  0.2215 -0.8019  0.1604
 1678SOL    HW216494   2.547   1.649   1.961  0.6369 -0.8782 -0.8900
 1679SOL     OW16495   1.635   1.425   0.642  0.1168 -0.2210  0.0529
 1679SOL    HW116496   1.661   1.511   0.673 -0.4285 -0.5428  1.4133
 1679SOL    HW216497   1.604   1.400   0.730 -2.3110  0.7540 -0.5248
 1680SOL     OW16498   3.368   2.247   8.048  0.0374  0.7521  0.0397
 1680SOL    HW116499   3.281   2.260   8.085 -0.3762 -0.1911 -0.6073
 1680SOL    HW216500   3.390   2.176   8.108  1.0017  0.4843 -0.6230
 1681SOL     OW16501   1.672   3.469   7.634 -0.5889 -0.0868 -0.0180
 1681SOL    HW116502   1.639   3.379   7.641 -1.0622 -0.0271 -1.4403
 1681SOL    HW216503   1.723   3.479   7.715  0.8606 -2.3387 -0.6786
 1682SOL     OW16504   3.087   1.504   6.328  0.5992  0.0360  0.0749
 1682SOL    HW116505   3.139   1.571   6.285  0.9632  0.4369  1.1396
 1682SOL    HW216506   3.144   1.482   6.402  0.0537  1.5994  0.9495
 1683SOL     OW16507   1.951   4.160   9.544  0.2188  0.1634  0.0771
 1683SOL    HW116508   1.899   4.133   9.619  1.1058 -2.6599 -0.3205
 1683SOL    HW216509   1.924   4.104   9.472 -0.0795  0.2738  0.1027
 1684SOL     OW16510   2.342   0.252   5.590  0.1223  0.3616  0.4955
 1684SOL    HW116511   2.346   0.347   5.589  2.3989  0.2553  1.4159
 1684SOL    HW216512   2.247   0.240   5.594  0.3020 -1.3685 -0.3467
 1685SOL     OW16513   2.790   2.995  11.522 -0.0435 -0.2462 -0.4418
 1685SOL    HW116514   2.726   3.007  11.451 -1.3007 -2.5529  0.2759
 1685SOL    HW216515   2.817   2.903  11.516  0.1945 -0.1775 -0.3923
 1686SOL     OW16516   3.113   0.207   4.653  0.0434  0.1833  0.1892
 1686SOL    HW116517   3.101   0.262   4.576 -0.7765  1.3336  1.1134
 1686SOL    HW216518   3.033   0.155   4.647  0.1677 -0.2401  1.9824
 1687SOL     OW16519   2.739   0.253   9.158 -0.6637 -0.3100 -1.0441
 1687SOL    HW116520   2.815   0.214   9.115 -0.5761  0.2497 -1.3968
 1687SOL    HW216521   2.738   0.340   9.118 -0.9214 -0.7340 -1.9670
 1688SOL     OW16522   3.113   0.368  16.574  0.4082 -0.3673  0.4649
 1688SOL    HW116523   3.044   0.337  16.632  0.3392  0.0018  0.5842
 1688SOL    HW216524   3.169   0.412  16.638 -0.9560 -0.0958  1.4743
 1689SOL     OW16525   2.212   0.797   7.216 -0.5689 -0.4690 -0.0694
 1689SOL    HW116526   2.143   0.846   7.259 -0.5199  2.0164 -2.7975
 1689SOL    HW216527   2.228   0.833   7.129 -3.0590  0.4568 -0.1359
 1690SOL     OW16528   4.300   3.718   9.503 -0.8431  0.4541  0.0712
 1690SOL    HW116529   4.393   3.717   9.523 -1.1737 -0.0365  1.5907
 1690SOL    HW216530   4.266   3.642   9.550  0.5296  0.3348  0.8466
 1691SOL     OW16531   3.047   0.641   0.906  0.5653 -0.4209 -0.1223
 1691SOL    HW116532   3.124   0.695   0.885  0.6955 -0.8230 -0.6611
 1691SOL    HW216533   3.002   0.694   0.972 -0.9084 -0.0904 -1.4061
 1692SOL     OW16534   3.551   1.406  17.619 -0.0388 -0.5203  0.1199
 1692SOL    HW116535   3.589   1.486  17.583  1.7974  0.2045  3.6213
 1692SOL    HW216536   3.577   1.427   0.016 -1.1255  3.3828 -0.5018
 1693SOL     OW16537   0.502   3.611   1.742 -0.4868 -0.4504  0.3679
 1693SOL    HW116538   0.454   3.568   1.813  0.0212 -1.5800  0.0414
 1693SOL    HW216539   0.489   3.704   1.758 -0.8708 -0.5915  0.8802
 1694SOL     OW16540   3.750   4.160   3.487 -0.1881 -0.1169  0.0568
 1694SOL    HW116541   3.666   4.140   3.445  0.1382 -0.2080 -0.5419
 1694SOL    HW216542   3.810   4.095   3.451 -0.2546 -0.4815  0.5912
 1695SOL     OW16543   3.504   2.856   9.079 -0.3936 -0.4143  0.4160
 1695SOL    HW116544   3.437   2.906   9.032 -0.3456  0.7083  1.5312
 1695SOL    HW216545   3.566   2.850   9.006 -2.0070  2.1795 -1.1958
 1696SOL     OW16546   2.520   2.744   5.854  0.5160 -0.1601  0.0345
 1696SOL    HW116547   2.584   2.812   5.834 -0.4532  0.6164 -0.4241
 1696SOL    HW216548   2.495   2.782   5.938  0.7049  0.8675 -0.3817
 1697SOL     OW16549   2.559   1.054  10.721 -0.3551  0.0550 -0.0911
 1697SOL    HW116550   2.500   1.128  10.706 -1.9199 -0.9439  1.0529
 1697SOL    HW216551   2.618   1.085  10.789  1.5366  1.6002 -2.4254
 1698SOL     OW16552   1.054   0.777   1.407  0.0575  0.3561 -0.0966
 1698SOL    HW116553   1.130   0.768   1.350  0.9344 -0.8599  1.2752
 1698SOL    HW216554   1.024   0.863   1.377  0.1215  0.7156  0.8719
 1699SOL     OW16555   2.175   3.516  11.567  0.7064  0.3985  0.5639
 1699SOL    HW116556   2.238   3.586  11.549 -0.6505  1.2272 -0.8973
 1699SOL    HW216557   2.174   3.463  11.487 -0.2075  1.1328  0.0913
 1700SOL     OW16558   3.145   4.251  15.618 -0.1105  0.1226  0.2516
 1700SOL    HW116559   3.184   4.336  15.600 -0.2666 -0.5384 -3.1246
 1700SOL    HW216560   3.071   4.278  15.671 -1.7859 -1.8771 -1.0628
 1701SOL     OW16561   4.112   0.740   4.617  0.0966  0.1197 -0.4234
 1701SOL    HW116562   4.113   0.703   4.705  0.8874 -0.9598 -0.8815
 1701SOL    HW216563   4.057   0.817   4.625  0.8199  0.5646  0.2138
 1702SOL     OW16564   0.666   2.803   6.358  0.1073 -0.8610 -0.0594
 1702SOL    HW116565   0.654   2.873   6.422  0.7778  0.2493 -1.1291
 1702SOL    HW216566   0.696   2.849   6.279  0.9391 -1.6487 -0.1952
 1703SOL     OW16567   3.750   2.461   2.070  0.0955  0.0136 -0.3912
 1703SOL    HW116568   3.789   2.535   2.115 -0.9583  0.7469 -0.6813
 1703SOL    HW216569   3.697   2.511   2.008  0.5662  0.9920  0.0065
 1704SOL     OW16570   4.676   3.234   4.599  0.3323  0.2472 -0.5343
 1704SOL    HW116571   4.592   3.200   4.630  0.6982  0.2645  0.4999
 1704SOL    HW216572   0.019   3.182   4.647 -1.5065  0.1276  1.8646
 1705SOL     OW16573   4.027   3.843   5.241  0.4864 -0.0550 -0.2444
 1705SOL    HW116574   4.077   3.762   5.248 -0.5139 -0.7033 -0.5625
 1705SOL    HW216575   3.950   3.825   5.295 -0.4883  0.5488 -1.4373
 1706SOL     OW16576   3.556   2.944   7.577 -0.1092 -0.3757  0.1485
 1706SOL    HW116577   3.603   2.893   7.644  1.7790  1.9086  0.5655
 1706SOL    HW216578   3.465   2.931   7.602 -0.1506 -0.5010 -0.0682
 1707SOL     OW16579   1.272   0.153   9.775  0.6443  0.3974 -0.7732
 1707SOL    HW116580   1.198   0.211   9.758 -1.6015 -2.4778 -0.7452
 1707SOL    HW216581   1.239   0.069   9.743 -2.6208  1.6391 -0.6343
 1708SOL     OW16582   1.616   3.884   8.624  0.2387 -1.0031  0.2686
 1708SOL    HW116583   1.591   3.847   8.539 -1.2023  1.7518 -0.4991
 1708SOL    HW216584   1.656   3.809   8.667 -0.6414 -1.3496  0.4891
 1709SOL     OW16585   1.086   4.348   0.480 -0.0905 -0.0107 -0.0426
 1709SOL    HW116586   1.091   4.362   0.575  0.1805 -0.9099  0.0713
 1709SOL    HW216587   0.992   4.353   0.460  0.3917  0.7847 -2.1166
 1710SOL     OW16588   4.537   2.284   1.949  0.1027 -0.4538  0.5121
 1710SOL    HW116589   4.443   2.297   1.962  0.4618  2.1173  0.4263
 1710SOL    HW216590   4.546   2.213   2.013 -1.5317  0.9285  2.2788
 1711SOL     OW16591   1.359   3.988   7.323 -0.0956  0.1446  0.0509
 1711SOL    HW116592   1.326   4.004   7.235  0.9460 -0.6830 -0.4847
 1711SOL    HW216593   1.407   4.062   7.361 -0.7430 -0.3346  1.7984
 1712SOL     OW16594   3.097   4.676   5.254 -0.2501 -0.1506 -0.2038
 1712SOL    HW116595   3.063   4.615   5.189 -3.0065 -0.7700  1.8231
 1712SOL    HW216596   3.189   4.652   5.247 -0.6332 -1.5477 -0.5614
 1713SOL     OW16597   4.606   2.993   2.390 -0.0129 -0.3816 -0.2718
 1713SOL    HW116598   4.671   2.986   2.320 -0.3488 -1.3976 -0.4828
 1713SOL    HW216599   4.553   3.059   2.346  0.6928 -1.4598 -2.7215
 1714SOL     OW16600   2.676   0.822   5.306 -0.1853 -0.2172  0.4948
 1714SOL    HW116601   2.717   0.796   5.388  1.8947  0.7750 -0.2159
 1714SOL    HW216602   2.584   0.817   5.331 -0.2672 -2.0815 -0.2142
 1715SOL     OW16603   2.991   2.054   9.781  0.1938 -0.8446  0.2128
 1715SOL    HW116604   2.997   2.125   9.717  0.3164 -0.5474  0.5490
 1715SOL    HW216605   3.077   2.011   9.784 -0.0045 -1.4689 -2.9677
 1716SOL     OW16606   0.956   4.291   3.304 -0.4999  0.5160  0.0967
 1716SOL    HW116607   0.891   4.294   3.233  0.2810  1.2152 -0.5848
 1716SOL    HW216608   0.921   4.353   3.368  0.6611  0.4161  0.8059
 1717SOL     OW16609   3.166   2.771   6.617 -0.0793  0.6114 -0.4086
 1717SOL    HW116610   3.256   2.752   6.645 -1.4822 -1.2738  2.8820
 1717SOL    HW216611   3.176   2.860   6.584 -0.4986  0.5815 -0.6142
 1718SOL     OW16612   0.587   4.481   8.111 -0.1390  0.6776 -0.4772
 1718SOL    HW116613   0.606   4.546   8.179 -0.9599  1.1919 -0.7371
 1718SOL    HW216614   0.623   4.400   8.148 -2.6809 -0.3144 -0.1877
 1719SOL     OW16615   3.470   2.477   7.395 -0.2147 -0.4374 -0.0551
 1719SOL    HW116616   3.414   2.490   7.471  1.6508 -0.5940  1.3448
 1719SOL    HW216617   3.445   2.390   7.365  0.5480  0.0929 -2.2627
 1720SOL     OW16618   2.149   2.241  16.297 -0.1102 -0.4541  0.2426
 1720SOL    HW116619   2.208   2.196  16.357  0.8019 -0.2955 -0.5246
 1720SOL    HW216620   2.199   2.273  16.221  0.7509  0.5014  1.2161
 1721SOL     OW16621   2.184   2.761   4.291  0.3923 -0.2581 -0.1216
 1721SOL    HW116622   2.108   2.775   4.234  2.5076 -0.5935 -3.0478
 1721SOL    HW216623   2.233   2.691   4.248  1.7310  0.9630 -0.5862
 1722SOL     OW16624   3.101   0.931   9.408  0.0703  0.1834 -0.7242
 1722SOL    HW116625   3.172   0.871   9.431 -1.5080 -1.5922 -0.4859
 1722SOL    HW216626   3.130   0.971   9.326 -0.6660 -1.0159 -1.5713
 1723SOL     OW16627   0.294   4.128   4.444  0.2862 -0.4212  0.3267
 1723SOL    HW116628   0.292   4.045   4.491  2.3703 -0.0287  1.0927
 1723SOL    HW216629   0.232   4.178   4.497 -0.9224 -0.0666 -1.4146
 1724SOL     OW16630   4.458   3.040  13.503  0.2449  0.3509  0.7030
 1724SOL    HW116631   4.504   2.956  13.510 -0.3550  0.2058  2.6844
 1724SOL    HW216632   4.517   3.087  13.562  0.5922  3.0282 -1.7388
 1725SOL     OW16633   2.898   0.596   7.627  0.4443  0.7052 -0.2605
 1725SOL    HW116634   2.914   0.601   7.721  2.2486  1.1653 -0.5845
 1725SOL    HW216635   2.940   0.675   7.593 -0.8925  1.5867  0.1240
 1726SOL     OW16636   2.390   1.643  16.697 -0.1106 -0.1205 -0.0726
 1726SOL    HW116637   2.345   1.560  16.711  0.2961 -0.2618  0.3747
 1726SOL    HW216638   2.460   1.621  16.636 -0.1306 -1.4530  0.3935
 1727SOL     OW16639   2.688   3.375   3.011  0.2098  0.4813  0.7515
 1727SOL    HW116640   2.685   3.367   3.106 -1.6210 -1.4419  0.5108
 1727SOL    HW216641   2.778   3.348   2.993 -0.0421  0.4333 -0.4820
 1728SOL     OW16642   3.458   3.259  15.510  0.4277  0.7917  0.5375
 1728SOL    HW116643   3.523   3.312  15.556  1.3948 -0.5089  0.6632
 1728SOL    HW216644   3.512   3.181  15.495 -1.2782 -0.3414  0.3234
 1729SOL     OW16645   2.955   1.848  14.795 -0.3345  0.3363  0.2080
 1729SOL    HW116646   2.943   1.845  14.890 -1.9678  2.2052  0.0403
 1729SOL    HW216647   3.046   1.821  14.777 -1.5250 -2.9331 -0.8582
 1730SOL     OW16648   3.428   1.998  16.031  0.1041  0.5415 -0.3215
 1730SOL    HW116649   3.361   2.016  15.966  0.0462 -0.8471 -0.6597
 1730SOL    HW216650   3.415   1.905  16.051 -1.8219  0.9758  0.4711
 1731SOL     OW16651   1.062   2.359   7.335  0.3322 -0.3587  0.1646
 1731SOL    HW116652   0.984   2.336   7.385  0.1990 -0.4130 -0.0663
 1731SOL    HW216653   1.079   2.272   7.299  0.8119 -1.0859  2.1513
 1732SOL     OW16654   0.107   1.714  10.626 -0.1695  0.5121  0.1086
 1732SOL    HW116655   0.111   1.741  10.535  0.4384  1.4730  0.4181
 1732SOL    HW216656   0.192   1.738  10.664  1.0298  0.0406 -2.2588
 1733SOL     OW16657   1.813   3.718  14.208  0.3443  0.6167 -0.1109
 1733SOL    HW116658   1.897   3.698  14.167 -0.4056 -0.1212 -1.2817
 1733SOL    HW216659   1.783   3.784  14.146  0.4570 -1.1527 -2.0465
 1734SOL     OW16660   0.319   2.152  13.113  0.1433 -0.5937 -0.1577
 1734SOL    HW116661   0.286   2.165  13.024 -0.6444  2.3871  0.5607
 1734SOL    HW216662   0.292   2.061  13.125 -1.2116 -0.0772  0.7203
 1735SOL     OW16663   2.590   2.686   7.007  0.6777  0.4645 -0.6245
 1735SOL    HW116664   2.641   2.714   7.082  0.5499 -0.0587 -0.3457
 1735SOL    HW216665   2.564   2.596   7.029 -0.9395  0.5496 -2.1080
 1736SOL     OW16666   0.908   3.870   4.294 -0.2178 -0.3871  0.5390
 1736SOL    HW116667   0.949   3.875   4.381 -0.9544 -0.4428  0.8889
 1736SOL    HW216668   0.838   3.932   4.313 -0.0393 -0.2176  0.6469
 1737SOL     OW16669   2.368   0.692   4.826  0.3471 -0.2108 -0.2067
 1737SOL    HW116670   2.325   0.627   4.881 -1.6956  1.9115  0.7124
 1737SOL    HW216671   2.441   0.726   4.878  0.8671  0.6143 -1.4645
 1738SOL     OW16672   3.133   1.660   7.067  0.5037 -0.1325  0.3186
 1738SOL    HW116673   3.151   1.754   7.063 -2.5692  0.4401 -0.4942
 1738SOL    HW216674   3.197   1.623   7.008  2.0314 -0.2343  2.0336
 1739SOL     OW16675   3.242   0.447   6.471  0.0477 -0.2078 -0.3838
 1739SOL    HW116676   3.255   0.506   6.397 -2.9011 -0.2842 -0.9806
 1739SOL    HW216677   3.149   0.465   6.483  0.6464  2.2081  0.6065
 1740SOL     OW16678   2.663   0.710   4.904  0.8325 -0.4829  0.2347
 1740SOL    HW116679   2.672   0.615   4.900 -3.2290 -0.8915  0.9258
 1740SOL    HW216680   2.665   0.735   4.812 -1.7141 -1.7852 -0.1627
 1741SOL     OW16681   2.336   0.355   7.375 -0.0546 -0.0850  0.3438
 1741SOL    HW116682   2.358   0.443   7.404 -1.0620 -0.0551  1.0315
 1741SOL    HW216683   2.349   0.374   7.282 -2.5193 -0.1854 -0.0207
 1742SOL     OW16684   2.050   4.624   5.862 -0.5711  0.6895  0.0811
 1742SOL    HW116685   2.141   4.596   5.853 -0.5533  0.8658 -0.2615
 1742SOL    HW216686   2.025   4.591   5.776 -0.8966  0.2647  0.3391
 1743SOL     OW16687   0.814   4.710   9.643 -0.9061 -0.4223  0.6339
 1743SOL    HW116688   0.773   0.042   9.576 -2.9613 -2.0537  0.5554
 1743SOL    HW216689   0.785   4.621   9.622  2.1224 -1.2458  0.0173
 1744SOL     OW16690   3.426   0.933   7.938  0.2002  0.1416  0.2397
 1744SOL    HW116691   3.438   0.983   8.019  3.2306 -1.3645  0.7202
 1744SOL    HW216692   3.355   0.973   7.888  0.0604 -1.7788 -1.0899
 1745SOL     OW16693   4.455   3.283  14.457 -0.3350 -0.0278 -0.2610
 1745SOL    HW116694   4.519   3.310  14.391 -1.1706 -2.0977 -1.9031
 1745SOL    HW216695   4.491   3.338  14.527  0.3840  0.2958 -0.8831
 1746SOL     OW16696   1.256   3.847  11.771  0.5453  0.0563 -0.6193
 1746SOL    HW116697   1.264   3.777  11.706 -0.0637 -1.1673  0.6143
 1746SOL    HW216698   1.346   3.874  11.788 -0.0031 -0.3287  2.9260
 1747SOL     OW16699   2.378   2.001   6.709 -0.3352  0.1944 -0.4153
 1747SOL    HW116700   2.326   1.964   6.781 -0.1553 -0.2905 -0.5314
 1747SOL    HW216701   2.326   1.975   6.633  0.4983  0.4942 -1.0823
 1748SOL     OW16702   4.557   0.280   9.131  0.2270  0.1817  0.1692
 1748SOL    HW116703   4.565   0.358   9.187 -2.0731 -0.2505  1.1171
 1748SOL    HW216704   4.651   0.265   9.120  0.1404 -0.0804 -0.2101
 1749SOL     OW16705   1.085   3.064   4.975 -0.4509 -0.3005 -0.0086
 1749SOL    HW116706   1.139   3.003   5.024 -1.0510  0.0458  1.0850
 1749SOL    HW216707   1.100   3.035   4.885  0.3993  1.7057 -0.5105
 1750SOL     OW16708   4.175   4.310  10.045  0.4035 -0.0851  0.5029
 1750SOL    HW116709   4.126   4.274   9.970  0.7021  0.5855 -0.0182
 1750SOL    HW216710   4.264   4.276  10.039 -0.2269 -1.8798  1.2283
 1751SOL     OW16711   2.767   3.389   6.394  0.3004 -0.1579  0.1528
 1751SOL    HW116712   2.799   3.307   6.358  1.0210 -0.2759  1.0645
 1751SOL    HW216713   2.688   3.363   6.442  0.7284 -1.0404  0.3823
 1752SOL     OW16714   4.033   3.292   7.885 -0.7474 -0.9312 -0.0844
 1752SOL    HW116715   4.040   3.338   7.801 -2.1796 -1.7576 -0.6579
 1752SOL    HW216716   3.948   3.249   7.884 -1.4081  0.3518  1.4934
 1753SOL     OW16717   0.764   2.387   3.741  0.5347  0.0348  0.1124
 1753SOL    HW116718   0.794   2.472   3.774  0.2127  0.3100 -0.3131
 1753SOL    HW216719   0.779   2.332   3.818 -1.2401  1.1634  1.2425
 1754SOL     OW16720   4.138   0.579   6.195  0.1422 -0.2239  0.5194
 1754SOL    HW116721   4.141   0.559   6.288  3.0927 -0.3446  0.3893
 1754SOL    HW216722   4.176   0.666   6.187 -1.0685  0.0831 -1.9418
 1755SOL     OW16723   2.156   1.219   7.072  0.0662  0.2404  0.3856
 1755SOL    HW116724   2.167   1.214   7.167  0.4502 -2.7148  0.1703
 1755SOL    HW216725   2.245   1.222   7.037  0.0134 -1.0012  0.1729
 1756SOL     OW16726   4.451   2.443  11.080  0.1097 -0.3227 -0.4374
 1756SOL    HW116727   4.480   2.478  11.164  0.7841  1.8608 -1.6026
 1756SOL    HW216728   4.469   2.350  11.093 -0.5939 -0.8538 -3.1837
 1757SOL     OW16729   2.945   4.328   4.377 -0.4331  0.3185 -0.4681
 1757SOL    HW116730   2.958   4.244   4.421 -0.2123  0.7664  0.3256
 1757SOL    HW216731   3.034   4.329   4.340  0.4283  1.9808  1.6811
 1758SOL     OW16732   4.404   0.617  12.151 -0.0719 -0.2585  0.2599
 1758SOL    HW116733   4.484   0.632  12.101  1.0825 -3.8213  1.0446
 1758SOL    HW216734   4.443   0.580  12.230 -1.4889  0.9757  1.5470
 1759SOL     OW16735   0.833   4.133   7.921 -0.9408 -0.2681  0.0149
 1759SOL    HW116736   0.815   4.189   7.845  1.9588  0.3150 -0.2259
 1759SOL    HW216737   0.924   4.105   7.913 -0.6841  0.2034  1.2861
 1760SOL     OW16738   3.841   0.443   4.161 -0.4381 -0.1257 -0.0848
 1760SOL    HW116739   3.803   0.487   4.085  0.7594 -0.2622 -0.7756
 1760SOL    HW216740   3.881   0.517   4.206 -1.4621  1.2160 -1.3631
 1761SOL     OW16741   2.552   4.138  11.508 -0.1820  0.0319 -0.1900
 1761SOL    HW116742   2.626   4.098  11.553  0.4343 -0.3051 -1.5027
 1761SOL    HW216743   2.581   4.112  11.421  0.3010 -1.3041  0.3693
 1762SOL     OW16744   0.335   3.103   3.447 -0.3632  0.3103 -0.5408
 1762SOL    HW116745   0.355   3.061   3.531  0.0098 -2.2031 -1.8900
 1762SOL    HW216746   0.308   3.186   3.488  0.1412 -0.5021  1.3958
 1763SOL     OW16747   2.468   2.585   3.280 -0.1666 -0.0806 -0.4434
 1763SOL    HW116748   2.443   2.664   3.233 -0.1868  1.4805  2.1829
 1763SOL    HW216749   2.559   2.572   3.254  0.0535  1.3487 -0.3975
 1764SOL     OW16750   1.181   3.195  11.987  0.0638 -0.0086  0.5500
 1764SOL    HW116751   1.189   3.258  11.916  1.0919  0.8629  1.4321
 1764SOL    HW216752   1.101   3.229  12.029  1.2460 -0.4207  3.1496
 1765SOL     OW16753   2.986   4.525   1.078  0.0149  0.0677  0.7258
 1765SOL    HW116754   2.912   4.555   1.027 -0.1381 -1.4713  0.0535
 1765SOL    HW216755   2.949   4.442   1.108 -1.3730  1.1444  1.9357
 1766SOL     OW16756   1.630   0.190   2.709 -0.2353  0.4076  0.6172
 1766SOL    HW116757   1.561   0.184   2.643 -0.4278  2.0577  0.6604
 1766SOL    HW216758   1.694   0.251   2.671  1.9594 -1.6103  1.1126
 1767SOL     OW16759   0.336   0.155   8.932  0.2495 -0.3429 -0.5189
 1767SOL    HW116760   0.299   0.181   8.848 -0.1822  0.2778 -0.1357
 1767SOL    HW216761   0.323   0.238   8.978 -0.4707 -2.2145  2.7267
 1768SOL     OW16762   2.987   3.815  10.481  0.2738 -0.3479  0.2315
 1768SOL    HW116763   3.063   3.784  10.432  0.7627 -1.4022  1.6260
 1768SOL    HW216764   2.962   3.729  10.516 -1.1595 -0.1216 -0.2393
 1769SOL     OW16765   2.295   2.973   5.047 -0.3092  0.3067 -0.4572
 1769SOL    HW116766   2.304   3.069   5.047  1.8658  0.1085 -0.0906
 1769SOL    HW216767   2.301   2.964   4.952 -0.4178 -1.8651 -0.2599
 1770SOL     OW16768   4.569   0.905   3.406  0.4241  0.4963  0.3462
 1770SOL    HW116769   4.473   0.902   3.410  0.5018 -1.3047  0.7098
 1770SOL    HW216770   4.577   0.994   3.441  1.6853  1.0129 -1.2590
 1771SOL     OW16771   3.565   1.763   7.306 -0.2525 -0.4724  0.3906
 1771SOL    HW116772   3.657   1.770   7.283 -0.0392  2.2930  2.0664
 1771SOL    HW216773   3.527   1.711   7.235 -0.3966 -0.8402  0.7370
 1772SOL     OW16774   2.092   3.329   8.141 -0.1077 -0.1707 -0.2738
 1772SOL    HW116775   2.110   3.403   8.082 -1.0737  2.4589  2.6870
 1772SOL    HW216776   2.132   3.349   8.225  1.3517 -0.5753 -0.8682
 1773SOL     OW16777   0.356   3.581   1.049 -0.2785 -0.0215 -0.1787
 1773SOL    HW116778   0.377   3.653   1.109 -0.3922 -0.5749  0.5161
 1773SOL    HW216779   0.356   3.632   0.968  0.0988  0.0702 -0.1220
 1774SOL     OW16780   1.656   3.525   8.261 -0.4622 -0.2636 -0.4275
 1774SOL    HW116781   1.717   3.594   8.287 -1.3973  0.5715 -0.4315
 1774SOL    HW216782   1.659   3.537   8.166 -0.7430 -0.2858 -0.4389
 1775SOL     OW16783   0.313   2.470  16.801 -0.4006  0.6307  0.3726
 1775SOL    HW116784   0.308   2.449  16.894  0.1838  1.6812  0.6384
 1775SOL    HW216785   0.234   2.422  16.776 -1.7762  1.4438  3.2052
 1776SOL     OW16786   4.229   4.265   4.505  0.5148  0.5630 -0.6048
 1776SOL    HW116787   4.211   4.200   4.437  1.8932 -0.3835 -0.0601
 1776SOL    HW216788   4.138   4.279   4.532 -0.1532  0.1325 -2.6287
 1777SOL     OW16789   1.514   0.350   8.834  0.6430  0.2977 -0.0009
 1777SOL    HW116790   1.476   0.275   8.788  1.7634 -0.6147  0.5732
 1777SOL    HW216791   1.429   0.391   8.851 -0.0999 -1.6032  0.8985
 1778SOL     OW16792   4.141   0.899   7.965 -0.0965  0.2150  0.0726
 1778SOL    HW116793   4.152   0.963   8.036 -1.7265  0.6567 -0.0925
 1778SOL    HW216794   4.235   0.891   7.945 -0.3138 -0.9223 -0.4922
 1779SOL     OW16795   2.716   4.115   6.400 -0.8599 -0.4094 -0.1118
 1779SOL    HW116796   2.770   4.048   6.441 -0.7132  0.2727  0.8164
 1779SOL    HW216797   2.773   4.192   6.390 -0.1139 -1.0014 -0.4109
 1780SOL     OW16798   1.254   1.794   4.548  0.0259 -0.4378 -0.7985
 1780SOL    HW116799   1.204   1.712   4.548  0.4291 -0.6847  0.5874
 1780SOL    HW216800   1.343   1.763   4.564 -0.3604  0.3575  2.7530
 1781SOL     OW16801   4.212   4.621   3.052  0.0126 -0.3158 -0.1198
 1781SOL    HW116802   4.230   4.687   2.985  2.6390  1.3343  2.1951
 1781SOL    HW216803   4.249   4.538   3.023  0.8009  0.8828 -2.6055
 1782SOL     OW16804   1.225   0.740   1.209  0.6572 -0.0329 -0.1807
 1782SOL    HW116805   1.219   0.815   1.151 -1.4074  1.1307  1.5397
 1782SOL    HW216806   1.315   0.721   1.184 -0.1477 -0.7430 -2.5399
 1783SOL     OW16807   0.115   3.631  12.353 -0.6259  0.2198  0.0283
 1783SOL    HW116808   0.025   3.609  12.377 -0.9059  1.1499 -0.1734
 1783SOL    HW216809   0.149   3.621  12.441  0.5087 -1.8027 -0.6261
 1784SOL     OW16810   0.167   3.448   5.872  0.1423 -0.0312 -0.4042
 1784SOL    HW116811   0.103   3.511   5.837  1.5845  0.4726 -2.1394
 1784SOL    HW216812   0.110   3.385   5.917 -0.1363 -0.2065 -1.0021
 1785SOL     OW16813   2.535   3.338   8.317  0.1589  0.4116 -0.0179
 1785SOL    HW116814   2.580   3.261   8.354 -0.1850  0.5675  0.7212
 1785SOL    HW216815   2.596   3.361   8.247  2.6170  0.9813  2.2663
 1786SOL     OW16816   2.037   3.929   3.798 -0.0089  0.0916 -0.4203
 1786SOL    HW116817   2.085   3.997   3.752 -3.1479  1.8944 -1.0702
 1786SOL    HW216818   1.972   3.989   3.836  0.0983  1.4878 -2.4377
 1787SOL     OW16819   0.640   0.641  15.074 -0.0822  0.3494  0.2907
 1787SOL    HW116820   0.711   0.680  15.123  0.5797  1.9866 -1.9516
 1787SOL    HW216821   0.688   0.653  14.992  1.4214  0.2472  1.1636
 1788SOL     OW16822   0.141   3.494   0.719 -0.1044 -0.3034  0.3772
 1788SOL    HW116823   0.143   3.526   0.629 -1.2996 -0.5157  0.2726
 1788SOL    HW216824   0.227   3.508   0.757 -0.8402  3.6013  0.6062
 1789SOL     OW16825   3.932   0.310   8.059  0.1155 -0.0866 -0.0687
 1789SOL    HW116826   3.897   0.245   7.998  0.9813  0.1198 -0.7867
 1789SOL    HW216827   4.023   0.281   8.069  0.7117  1.6181 -0.6140
 1790SOL     OW16828   4.716   3.957  13.556  0.6277 -0.5046 -0.0017
 1790SOL    HW116829   0.077   3.924  13.522  1.3029  1.2909 -0.1330
 1790SOL    HW216830   0.027   4.010  13.628  0.6232  0.5172 -0.7428
 1791SOL     OW16831   0.771   2.855   7.562  0.1020  0.1917  0.4948
 1791SOL    HW116832   0.679   2.882   7.554  0.1133  0.0863  0.0131
 1791SOL    HW216833   0.807   2.927   7.614  3.2572 -1.2150  0.2378
 1792SOL     OW16834   2.763   1.659  11.148 -0.0444 -0.8240  0.3199
 1792SOL    HW116835   2.852   1.686  11.172  0.2138 -2.8059  1.6798
 1792SOL    HW216836   2.751   1.602  11.224  0.1067 -1.6500 -0.2781
 1793SOL     OW16837   3.493   1.116   7.476  0.1782 -0.1205  0.3122
 1793SOL    HW116838   3.452   1.150   7.397 -0.3383 -1.5569 -0.0345
 1793SOL    HW216839   3.569   1.077   7.432  0.2087  1.1486 -0.7396
 1794SOL     OW16840   4.317   3.966   6.054 -0.9235  0.2828  0.0693
 1794SOL    HW116841   4.348   3.901   5.990  1.2386  0.4356  0.9660
 1794SOL    HW216842   4.231   3.933   6.079  0.4148 -3.0185  0.4141
 1795SOL     OW16843   3.909   0.334   2.757  0.2578  0.1316  0.2816
 1795SOL    HW116844   3.917   0.426   2.780 -2.4045  0.4475 -0.0675
 1795SOL    HW216845   3.817   0.318   2.781 -0.0916  1.1671 -0.3684
 1796SOL     OW16846   1.237   1.506   6.990 -0.1296 -0.3097 -0.7555
 1796SOL    HW116847   1.152   1.463   6.980  0.1460 -1.2399  0.9384
 1796SOL    HW216848   1.262   1.522   6.899  0.9570 -0.2458 -0.4424
 1797SOL     OW16849   0.795   3.422   5.477 -0.1689  0.5736 -0.6847
 1797SOL    HW116850   0.791   3.517   5.467  1.0259  0.9208  2.0887
 1797SOL    HW216851   0.709   3.409   5.516  0.9681  0.8777  1.9797
 1798SOL     OW16852   4.433   3.740  17.485 -0.0073  0.0785 -0.7363
 1798SOL    HW116853   4.387   3.664  17.519  0.5259  0.7522  1.4865
 1798SOL    HW216854   4.364   3.790  17.441  1.0381  1.0479 -1.2693
 1799SOL     OW16855   4.550   1.093   2.203 -0.1782 -0.1305 -0.1718
 1799SOL    HW116856   4.622   1.054   2.153  0.4172 -0.6070  1.0631
 1799SOL    HW216857   4.496   1.017   2.224  2.0205 -1.8639 -0.7635
 1800SOL     OW16858   4.058   2.470   3.751 -0.4431 -0.3883  0.1309
 1800SOL    HW116859   4.029   2.543   3.696  0.1624 -0.9855 -0.9632
 1800SOL    HW216860   3.981   2.477   3.808 -1.1377  0.4093 -0.9124
 1801SOL     OW16861   0.640   2.372   7.734 -0.2656 -0.1489  0.2419
 1801SOL    HW116862   0.557   2.333   7.761  0.3216 -1.9300 -0.5210
 1801SOL    HW216863   0.655   2.412   7.820  0.1917 -0.7234  0.4310
 1802SOL     OW16864   0.188   0.926   5.720 -0.4890  0.5261 -0.5549
 1802SOL    HW116865   0.244   0.990   5.763  0.4608  0.8159 -2.2321
 1802SOL    HW216866   0.157   0.883   5.800  0.9791 -1.0382 -0.8335
 1803SOL     OW16867   3.663   4.334   6.109 -0.0134  0.2213 -0.4324
 1803SOL    HW116868   3.720   4.409   6.091 -0.8741  1.0362  0.1832
 1803SOL    HW216869   3.617   4.364   6.188 -2.7961 -1.2260 -1.4776
 1804SOL     OW16870   3.142   3.975   4.214 -0.4440  0.0175 -0.1441
 1804SOL    HW116871   3.158   3.917   4.140  2.1661  0.0101  0.4381
 1804SOL    HW216872   3.171   4.058   4.176  2.5116 -0.3977  1.2155
 1805SOL     OW16873   2.815   3.860  14.090  1.1276  0.4045  0.3593
 1805SOL    HW116874   2.867   3.940  14.086 -0.6800  1.5944  0.9760
 1805SOL    HW216875   2.770   3.858  14.006  2.0701 -0.5669 -0.1222
 1806SOL     OW16876   2.308   0.285   1.844 -0.0050 -0.5691  0.0400
 1806SOL    HW116877   2.397   0.299   1.875 -0.3272  0.3395  0.5659
 1806SOL    HW216878   2.308   0.338   1.764 -1.1025  1.1510  1.1548
 1807SOL     OW16879   0.004   3.350   5.544 -0.3568 -0.2152  0.3878
 1807SOL    HW116880   0.100   3.354   5.543 -0.3917  0.4101 -0.2725
 1807SOL    HW216881   4.699   3.434   5.507  0.5204 -0.7516 -1.4646
 1808SOL     OW16882   0.171   3.065  17.219 -0.2168 -0.0228  0.0053
 1808SOL    HW116883   0.131   3.149  17.196 -0.5508 -0.1980 -0.0517
 1808SOL    HW216884   0.114   3.046  17.294 -0.3386 -1.2526 -0.4011
 1809SOL     OW16885   3.351   1.329   2.123  0.6505 -0.3249 -0.0441
 1809SOL    HW116886   3.328   1.396   2.059  0.3275 -1.7055 -1.3716
 1809SOL    HW216887   3.447   1.325   2.116  0.8782 -0.6153  2.9788
 1810SOL     OW16888   3.001   2.574   5.587  0.3272 -0.2602  0.3856
 1810SOL    HW116889   2.939   2.501   5.596  1.8917 -1.8539 -1.6605
 1810SOL    HW216890   2.963   2.624   5.514  0.4671 -0.1843  0.3650
 1811SOL     OW16891   3.031   1.071  10.056 -0.7263 -0.1548  0.4750
 1811SOL    HW116892   2.999   1.076   9.966  0.6678 -0.8743 -0.0588
 1811SOL    HW216893   2.948   1.055  10.101 -0.3254  2.0355  2.0048
 1812SOL     OW16894   3.385   0.155   9.238  0.4080  0.2119  0.0134
 1812SOL    HW116895   3.369   0.232   9.292 -0.9207 -0.6323  0.8028
 1812SOL    HW216896   3.346   0.079   9.280 -2.1260  0.1313 -2.4929
 1813SOL     OW16897   4.656   0.484  12.874  0.4083 -0.1578 -0.3192
 1813SOL    HW116898   4.716   0.430  12.926  0.8069  0.0145 -0.5938
 1813SOL    HW216899   4.695   0.565  12.908 -0.5334 -0.7041  2.0141
 1814SOL     OW16900   2.633   0.998  14.125 -0.2247  0.8545  0.5607
 1814SOL    HW116901   2.668   1.070  14.071 -0.2041  0.1844 -0.3101
 1814SOL    HW216902   2.714   0.975  14.170  0.6173  0.4632 -1.1381
 1815SOL     OW16903   1.475   3.240   0.780 -0.0730 -0.8859  0.2035
 1815SOL    HW116904   1.420   3.309   0.816  1.7071  0.7659 -0.1947
 1815SOL    HW216905   1.562   3.276   0.798 -0.7369  1.0604 -0.5175
 1816SOL     OW16906   0.897   1.986  15.467  0.5267  0.9590 -0.1741
 1816SOL    HW116907   0.960   2.058  15.459 -0.8168  1.9775 -1.6980
 1816SOL    HW216908   0.955   1.913  15.489 -0.8388 -0.3329 -0.8276
 1817SOL     OW16909   4.123   1.258   3.210  0.2455  0.1539  0.4052
 1817SOL    HW116910   4.150   1.228   3.296  0.2073 -0.0205  0.3552
 1817SOL    HW216911   4.196   1.317   3.191  0.0802  0.4648  0.7201
 1818SOL     OW16912   0.070   1.705  15.481  0.2828  0.2667  0.2408
 1818SOL    HW116913   0.021   1.770  15.530 -0.3796  0.1551 -0.2755
 1818SOL    HW216914   0.001   1.662  15.431 -1.6965 -0.3953  3.5317
 1819SOL     OW16915   0.640   2.766   5.883  0.1551  0.1543 -0.2832
 1819SOL    HW116916   0.556   2.761   5.928  0.0265 -2.1542 -0.8360
 1819SOL    HW216917   0.619   2.813   5.802  1.0444 -0.5914 -0.9422
 1820SOL     OW16918   0.601   0.735   2.922 -0.3984  0.1800 -0.7842
 1820SOL    HW116919   0.543   0.765   2.992 -1.2593  0.6777 -1.7188
 1820SOL    HW216920   0.623   0.824   2.895 -3.7958  1.0578 -0.6832
 1821SOL     OW16921   2.362   2.000  13.554 -0.1863  0.5347  0.5584
 1821SOL    HW116922   2.435   1.941  13.571 -1.6695 -1.2755  0.6453
 1821SOL    HW216923   2.287   1.942  13.570 -0.6188  0.9983  0.1840
 1822SOL     OW16924   0.201   2.558   3.097  0.3017  1.1218  0.4262
 1822SOL    HW116925   0.171   2.619   3.030  3.0665  1.0563 -0.8747
 1822SOL    HW216926   0.150   2.480   3.077  0.0695  1.1220  1.0109
 1823SOL     OW16927   0.281   2.958   8.446 -0.1172  0.0611  0.4194
 1823SOL    HW116928   0.360   2.938   8.496  1.9201 -0.4384 -3.0236
 1823SOL    HW216929   0.247   3.040   8.483 -0.4593 -0.1293  0.5290
 1824SOL     OW16930   4.094   4.423   0.754  0.3928 -0.1979  0.3340
 1824SOL    HW116931   4.149   4.350   0.780  2.0549  1.4901  1.5334
 1824SOL    HW216932   4.108   4.413   0.660  0.0755  0.3249  0.2279
 1825SOL     OW16933   2.653   3.392   8.060  0.2759 -0.0028  0.6939
 1825SOL    HW116934   2.692   3.309   8.034 -2.3679 -1.5642  1.7448
 1825SOL    HW216935   2.614   3.419   7.977  0.0222  0.3113  0.9150
 1826SOL     OW16936   2.576   3.806   4.618 -0.3931 -0.2594 -0.0596
 1826SOL    HW116937   2.524   3.772   4.545  1.5344  0.2915 -1.6649
 1826SOL    HW216938   2.610   3.880   4.568 -1.3455  0.4502  0.3370
 1827SOL     OW16939   4.605   0.513   9.277  0.2273 -1.2015 -0.0585
 1827SOL    HW116940   4.651   0.544   9.355  3.1273  2.4603 -3.2148
 1827SOL    HW216941   4.616   0.591   9.223 -1.4679 -0.9270 -0.0076
 1828SOL     OW16942   3.637   4.032   3.141 -0.1827 -0.8971 -0.1870
 1828SOL    HW116943   3.684   3.976   3.079 -0.0528 -1.7965  0.7283
 1828SOL    HW216944   3.713   4.077   3.178 -0.5230 -0.6167  0.1714
 1829SOL     OW16945   0.884   4.447   7.432 -0.1616 -0.2160 -0.2077
 1829SOL    HW116946   0.856   4.373   7.486 -3.9180  1.9271  0.7489
 1829SOL    HW216947   0.801   4.475   7.395 -0.3366  1.0025  1.1333
 1830SOL     OW16948   1.928   1.192  14.240 -0.2706 -0.0397  0.0277
 1830SOL    HW116949   1.852   1.178  14.297 -0.5546 -2.0783 -0.8315
 1830SOL    HW216950   1.965   1.103  14.244  3.2461  1.4347  0.2779
 1831SOL     OW16951   2.660   2.745   1.953 -0.1123 -0.4140 -0.3231
 1831SOL    HW116952   2.751   2.723   1.931 -0.1412 -2.1892  1.4133
 1831SOL    HW216953   2.658   2.841   1.952 -0.5568 -0.4240 -0.1554
 1832SOL     OW16954   3.058   3.400  11.352 -0.3106  0.6619 -0.0570
 1832SOL    HW116955   3.031   3.482  11.395  2.5291  0.3467  2.2656
 1832SOL    HW216956   3.000   3.338  11.396  0.3858 -0.7779 -1.1668
 1833SOL     OW16957   4.555   2.241   6.589  0.3083 -0.0717 -0.2005
 1833SOL    HW116958   4.511   2.219   6.507  0.4720 -2.1862  0.2986
 1833SOL    HW216959   4.593   2.324   6.560  3.6318 -1.3355  0.5572
 1834SOL     OW16960   0.805   0.680   8.259 -0.0564 -0.1200  0.2533
 1834SOL    HW116961   0.728   0.627   8.237 -1.0497  1.4039  0.0473
 1834SOL    HW216962   0.849   0.689   8.175  1.2878 -1.8444  0.7637
 1835SOL     OW16963   1.358   0.301  15.271 -0.0506 -0.1254 -0.6243
 1835SOL    HW116964   1.304   0.327  15.346  0.5179 -2.2479  0.5200
 1835SOL    HW216965   1.385   0.214  15.301  1.1160  0.0325 -1.2204
 1836SOL     OW16966   0.487   3.615   9.145  0.5349 -0.2172  0.0201
 1836SOL    HW116967   0.551   3.596   9.077 -0.7407 -0.6288 -1.0805
 1836SOL    HW216968   0.466   3.708   9.133  0.5060 -0.3329 -0.8494
 1837SOL     OW16969   3.028   0.544   6.696  0.3192  0.8740  0.3646
 1837SOL    HW116970   3.002   0.472   6.638  0.4116  2.0555 -1.1475
 1837SOL    HW216971   2.966   0.542   6.768  2.5246  3.3792  2.3509
 1838SOL     OW16972   0.917   3.873   0.005 -0.1508  0.2611  0.3445
 1838SOL    HW116973   0.984   3.820   0.049  0.6172  2.2408  1.5852
 1838SOL    HW216974   0.904   3.939   0.074  0.1680  0.2208  0.4474
 1839SOL     OW16975   3.117   1.693   8.160 -0.3249 -0.1392  0.4770
 1839SOL    HW116976   3.127   1.672   8.067  1.1454  1.9479  0.1715
 1839SOL    HW216977   3.119   1.788   8.152  1.3620 -0.2230 -0.2497
 1840SOL     OW16978   2.099   3.520  10.024 -0.0503 -0.4803 -0.0020
 1840SOL    HW116979   2.184   3.508   9.982 -0.7805 -0.5553 -1.4599
 1840SOL    HW216980   2.049   3.583   9.973  1.1954 -0.8627 -1.6787
 1841SOL     OW16981   2.184   3.102   3.416  0.2475  0.2343 -0.2207
 1841SOL    HW116982   2.094   3.072   3.426  0.1282  0.8761  0.6166
 1841SOL    HW216983   2.184   3.113   3.321 -1.8878  1.7794 -0.0457
 1842SOL     OW16984   1.310   2.620   7.252  0.9013 -0.0840  0.4533
 1842SOL    HW116985   1.323   2.545   7.194 -0.9734 -0.7303  0.8592
 1842SOL    HW216986   1.245   2.672   7.204  1.9898 -0.4656 -1.4069
 1843SOL     OW16987   0.284   1.027   8.526  0.4192 -0.0819 -0.1520
 1843SOL    HW116988   0.263   0.946   8.573  0.5163  0.7121  1.2299
 1843SOL    HW216989   0.199   1.064   8.505  0.8933  1.1480  0.1325
 1844SOL     OW16990   2.178   2.921   2.265  0.5803 -0.6278 -0.4088
 1844SOL    HW116991   2.120   2.845   2.264  1.4784 -1.3885  2.5735
 1844SOL    HW216992   2.194   2.951   2.176  0.0550  0.0920 -0.2592
 1845SOL     OW16993   1.698   2.361   8.435 -0.6301 -0.2288  0.4788
 1845SOL    HW116994   1.743   2.351   8.519  3.6945  1.9520 -1.5805
 1845SOL    HW216995   1.609   2.353   8.471 -1.5592 -0.8215 -1.9762
 1846SOL     OW16996   0.044   4.120  10.729  0.4268  0.1630 -0.2945
 1846SOL    HW116997   0.079   4.115  10.640  2.7224  2.4131  0.4534
 1846SOL    HW216998   4.683   4.079  10.712  1.7582 -3.3712  1.5737
 1847SOL     OW16999   3.324   3.172   5.033  0.2234  0.1286 -0.0675
 1847SOL    HW117000   3.388   3.210   5.093  0.6254 -0.4767 -0.1112
 1847SOL    HW217001   3.380   3.127   4.970 -0.1022 -2.2579  1.3490
 1848SOL     OW17002   4.082   2.010   2.554  0.4464  0.1471  0.2740
 1848SOL    HW117003   4.067   2.019   2.460 -1.3118 -1.4215  0.4206
 1848SOL    HW217004   4.040   1.926   2.569  1.6941 -0.8695 -2.0020
 1849SOL     OW17005   2.860   1.626   7.715  0.0288 -0.5632 -0.0818
 1849SOL    HW117006   2.915   1.579   7.653  1.4506  1.2704 -0.2346
 1849SOL    HW217007   2.836   1.564   7.784  1.4547 -1.3069 -0.2607
 1850SOL     OW17008   3.408   0.157   2.682 -0.0560 -0.1618 -0.0239
 1850SOL    HW117009   3.345   0.133   2.750 -0.6923 -1.0644 -0.9291
 1850SOL    HW217010   3.408   0.075   2.631  0.8930  0.1921 -0.5966
 1851SOL     OW17011   3.665   3.833   6.954 -0.9724 -0.0805  0.2040
 1851SOL    HW117012   3.629   3.920   6.970 -0.0320  0.5392 -1.0653
 1851SOL    HW217013   3.756   3.845   6.925 -0.5059 -2.2408  0.7562
 1852SOL     OW17014   2.002   3.959   7.298  0.2529  0.3758 -0.1286
 1852SOL    HW117015   1.967   3.996   7.379  0.8889  2.3930 -0.7938
 1852SOL    HW217016   1.925   3.913   7.265  0.7674 -0.7571  0.2231
 1853SOL     OW17017   0.898   3.819   3.132  0.2383 -0.6438 -0.2022
 1853SOL    HW117018   0.969   3.858   3.183 -0.7777  0.3089  0.4933
 1853SOL    HW217019   0.901   3.872   3.052  0.1293 -0.5945 -0.1728
 1854SOL     OW17020   0.464   2.781  14.820 -0.1450  0.0767 -0.0773
 1854SOL    HW117021   0.429   2.779  14.731 -0.3690 -1.8971  0.0453
 1854SOL    HW217022   0.556   2.766  14.799  0.4088  0.5717  1.9151
 1855SOL     OW17023   0.038   1.981   1.933 -0.4094  0.4698  0.5138
 1855SOL    HW117024   0.083   1.896   1.930 -0.3767  0.5648 -1.7834
 1855SOL    HW217025   4.677   1.951   1.968 -0.9903 -0.5073 -1.7142
 1856SOL     OW17026   4.593   1.800   4.477 -0.0958 -0.4097 -0.6242
 1856SOL    HW117027   4.508   1.784   4.516 -0.6837 -0.5165 -1.9395
 1856SOL    HW217028   4.646   1.749   4.539  0.1532  0.8404  0.1808
 1857SOL     OW17029   0.821   4.261   3.895 -0.6195  0.6843 -0.0889
 1857SOL    HW117030   0.852   4.324   3.960 -0.7780  0.4886  0.1824
 1857SOL    HW217031   0.871   4.180   3.908 -0.0144  0.8381 -1.4781
 1858SOL     OW17032   4.663   1.992   6.536  0.3478 -0.3608  0.0773
 1858SOL    HW117033   4.609   2.071   6.547  0.7355 -0.5257  3.2056
 1858SOL    HW217034   0.006   2.022   6.473  0.7137 -0.6622  0.3157
 1859SOL     OW17035   0.504   3.795   8.253  0.1431  0.2607  0.2207
 1859SOL    HW117036   0.551   3.818   8.333  0.5883 -0.3727  0.1404
 1859SOL    HW217037   0.572   3.757   8.199 -0.8906 -2.0067  0.4755
 1860SOL     OW17038   2.277   3.392   3.640 -0.4372  0.6592 -0.0844
 1860SOL    HW117039   2.186   3.413   3.621  0.1021  1.8004 -1.3570
 1860SOL    HW217040   2.294   3.435   3.724 -1.3665  2.5219 -0.8517
 1861SOL     OW17041   3.330   0.327   7.344  0.6725 -0.0360 -0.2473
 1861SOL    HW117042   3.312   0.416   7.314  0.1630 -0.2623 -0.6182
 1861SOL    HW217043   3.393   0.301   7.276  0.6080  0.8451 -0.6403
 1862SOL     OW17044   3.187   0.844  15.167  0.4402  0.2904 -0.5436
 1862SOL    HW117045   3.096   0.858  15.193  0.5384  1.1327 -0.6762
 1862SOL    HW217046   3.233   0.927  15.167  1.8348 -0.4834  0.5775
 1863SOL     OW17047   4.593   4.002   6.099  0.8110  0.0308 -0.2823
 1863SOL    HW117048   4.616   4.014   6.007 -2.4551  1.3363 -0.9402
 1863SOL    HW217049   4.497   4.006   6.102  0.8648  1.1570 -0.2442
 1864SOL     OW17050   2.829   3.669   0.348  0.0764  0.8239 -1.0344
 1864SOL    HW117051   2.808   3.576   0.340 -0.3057  0.4969  3.7360
 1864SOL    HW217052   2.847   3.670   0.442  3.3322  3.0450 -1.6726
 1865SOL     OW17053   2.057   1.868   6.236  0.4802 -0.0839  0.2561
 1865SOL    HW117054   2.125   1.896   6.174  0.3631  0.5977  0.4339
 1865SOL    HW217055   1.993   1.831   6.174  2.6815 -0.0534 -2.0507
 1866SOL     OW17056   0.916   2.631   6.144 -0.4543 -0.2622  0.0542
 1866SOL    HW117057   1.005   2.617   6.176  0.8194  1.2472 -2.9105
 1866SOL    HW217058   0.933   2.637   6.050 -0.4004  0.4025  0.1054
 1867SOL     OW17059   2.662   1.419   9.182 -0.2787 -0.3792  0.2843
 1867SOL    HW117060   2.676   1.335   9.226 -1.8187 -1.0276 -0.4630
 1867SOL    HW217061   2.567   1.415   9.176 -0.3462  1.1895  0.4979
 1868SOL     OW17062   2.795   0.853   0.549 -0.4338 -0.3202 -0.4338
 1868SOL    HW117063   2.877   0.891   0.516 -0.7501 -1.1971 -2.2050
 1868SOL    HW217064   2.753   0.872   0.465 -0.8021 -0.6620 -0.3262
 1869SOL     OW17065   2.400   0.806   4.296 -0.0186  0.0611  0.1416
 1869SOL    HW117066   2.470   0.754   4.336 -0.4992 -0.6373  0.0790
 1869SOL    HW217067   2.333   0.738   4.306  0.0264  0.0333  0.2572
 1870SOL     OW17068   0.434   1.522   9.683 -0.6489  0.0576 -0.5276
 1870SOL    HW117069   0.527   1.508   9.665 -0.3285  1.3773  0.0874
 1870SOL    HW217070   0.431   1.531   9.779  2.9049  0.9132 -0.4974
 1871SOL     OW17071   3.200   1.147  15.208  0.2152 -0.3325 -0.4673
 1871SOL    HW117072   3.161   1.139  15.121 -1.4933 -1.2757  0.3997
 1871SOL    HW217073   3.141   1.214  15.242  1.9188  0.8911  0.0516
 1872SOL     OW17074   0.599   2.334   7.442  1.1475 -0.3713  0.4657
 1872SOL    HW117075   0.617   2.345   7.536  0.8073 -1.7983  0.6941
 1872SOL    HW217076   0.587   2.421   7.404 -0.3222 -0.6976  0.1700
 1873SOL     OW17077   2.117   0.707   8.689  0.1642  0.3009 -0.9387
 1873SOL    HW117078   2.093   0.756   8.767 -2.0313  1.9958 -2.6691
 1873SOL    HW217079   2.174   0.769   8.644  0.5484  1.9360  1.8091
 1874SOL     OW17080   1.466   3.066   5.020  0.0443 -0.3107  0.1471
 1874SOL    HW117081   1.552   3.047   5.059  0.0844  0.8451  0.6168
 1874SOL    HW217082   1.421   3.116   5.087  0.6198 -2.7957  2.3738
 1875SOL     OW17083   3.415   1.141   7.042  0.4884 -0.2020  0.4197
 1875SOL    HW117084   3.497   1.188   7.031  0.4034 -0.5700 -1.8690
 1875SOL    HW217085   3.447   1.053   7.021  0.3412 -0.4131  1.0832
 1876SOL     OW17086   1.788   3.693   7.059 -0.5153  0.0217 -0.8248
 1876SOL    HW117087   1.812   3.615   7.108  0.4377  0.6337 -0.3173
 1876SOL    HW217088   1.786   3.756   7.131  1.0398 -2.6145  1.4964
 1877SOL     OW17089   3.823   4.225   8.582 -0.3870  0.0506  0.0071
 1877SOL    HW117090   3.768   4.303   8.595 -0.0633  0.0799  1.3035
 1877SOL    HW217091   3.793   4.166   8.652  1.8710  0.9850  1.7761
 1878SOL     OW17092   2.878   0.802   1.644 -0.1914  0.0433 -0.4660
 1878SOL    HW117093   2.793   0.797   1.600  0.1726 -1.1274 -1.0408
 1878SOL    HW217094   2.849   0.848   1.723  1.8388  0.3838  0.0648
 1879SOL     OW17095   0.525   4.241   3.066 -0.1671  0.3706  0.4408
 1879SOL    HW117096   0.606   4.223   3.017 -1.3837  0.2121 -1.4969
 1879SOL    HW217097   0.459   4.208   3.006  0.3831 -1.3493  0.7842
 1880SOL     OW17098   3.347   0.303  14.618  0.6134 -0.3382 -0.0279
 1880SOL    HW117099   3.373   0.212  14.599  1.8147 -0.2313  1.1514
 1880SOL    HW217100   3.390   0.316  14.702  3.2931  1.3674 -1.6733
 1881SOL     OW17101   2.572   2.992   8.805  0.3655  0.2418 -0.9757
 1881SOL    HW117102   2.513   2.957   8.738 -0.6345 -1.9020  1.0330
 1881SOL    HW217103   2.582   2.916   8.862  0.0689  1.4179  0.6249
 1882SOL     OW17104   2.730   1.298   8.870  0.2814  0.2584  0.3494
 1882SOL    HW117105   2.656   1.359   8.878  1.7435  2.2379 -1.3913
 1882SOL    HW217106   2.685   1.219   8.839  1.0122 -0.7651  1.9121
 1883SOL     OW17107   2.424   1.985   7.711 -0.0356 -0.0784  0.1870
 1883SOL    HW117108   2.490   2.038   7.756 -0.6251  0.7517  0.0733
 1883SOL    HW217109   2.461   1.976   7.624 -0.7570 -0.3895 -0.0850
 1884SOL     OW17110   2.324   0.521  14.849  0.5633 -0.1281 -0.5160
 1884SOL    HW117111   2.348   0.448  14.792 -0.5252  0.3304 -1.5492
 1884SOL    HW217112   2.271   0.479  14.917  0.6121  1.5383  0.5497
 1885SOL     OW17113   1.756   0.803  10.971  0.9751  0.4999  0.0227
 1885SOL    HW117114   1.821   0.873  10.970  2.8933 -1.3065 -2.3476
 1885SOL    HW217115   1.765   0.776  10.880 -1.3415 -3.9454  1.1195
 1886SOL     OW17116   0.425   1.164   7.669 -0.3119  0.2037  0.3545
 1886SOL    HW117117   0.510   1.140   7.633 -0.4029 -1.1075  1.0504
 1886SOL    HW217118   0.416   1.087   7.724  0.4643  1.1930  1.8726
 1887SOL     OW17119   3.973   4.651   3.825 -0.8966  0.2214  0.1666
 1887SOL    HW117120   4.025   4.578   3.858 -0.3827 -0.0004 -1.1117
 1887SOL    HW217121   4.037   4.700   3.774 -0.0818 -1.0593 -0.0398
 1888SOL     OW17122   1.113   1.124   2.380  0.7946  0.3244 -0.2413
 1888SOL    HW117123   1.060   1.088   2.309  2.1256 -3.3700  0.6156
 1888SOL    HW217124   1.198   1.104   2.339  0.5049  2.0299 -1.6697
 1889SOL     OW17125   1.504   3.220   8.124  0.1200 -0.2238  0.4411
 1889SOL    HW117126   1.475   3.129   8.130  2.0895 -0.9441 -1.1248
 1889SOL    HW217127   1.501   3.247   8.216  1.2410  4.9891 -1.0379
 1890SOL     OW17128   2.828   4.017   4.750 -0.2685  0.2175 -0.3033
 1890SOL    HW117129   2.834   4.027   4.845 -3.0805  1.8570 -0.2995
 1890SOL    HW217130   2.842   3.924   4.732  1.7267  0.4148  0.2371
 1891SOL     OW17131   3.178   0.484   9.330 -0.2138 -0.6994  0.5201
 1891SOL    HW117132   3.188   0.442   9.244 -0.8312  1.0231 -0.4016
 1891SOL    HW217133   3.245   0.433   9.374 -0.5667 -1.6138 -0.0084
 1892SOL     OW17134   0.498   0.170   4.712  0.0434  0.4534 -0.5298
 1892SOL    HW117135   0.463   0.249   4.753 -1.3991 -0.5394  0.1458
 1892SOL    HW217136   0.465   0.095   4.762  0.0137  0.4532 -0.5496
 1893SOL     OW17137   1.300   2.636   8.313  0.1879  0.5692 -0.7043
 1893SOL    HW117138   1.293   2.642   8.218  1.7273 -0.9547 -0.9164
 1893SOL    HW217139   1.290   2.727   8.340 -1.7502 -0.1404  0.9284
 1894SOL     OW17140   4.349   4.023   7.394 -0.4833 -0.5954  0.4614
 1894SOL    HW117141   4.379   3.932   7.395 -0.7737 -0.6907  0.3591
 1894SOL    HW217142   4.272   4.019   7.337 -1.2154  1.7408  1.2510
 1895SOL     OW17143   3.327   0.821   1.276  0.0981 -0.0165 -0.8220
 1895SOL    HW117144   3.307   0.913   1.291  0.6663 -0.4993  2.7659
 1895SOL    HW217145   3.340   0.793   1.366 -2.1965 -1.2377 -0.8888
 1896SOL     OW17146   1.002   1.850   3.801 -0.4215 -0.1853  0.1976
 1896SOL    HW117147   1.013   1.766   3.845 -2.4428 -0.3636  0.3609
 1896SOL    HW217148   0.914   1.838   3.766 -0.7988 -0.3809  1.2074
 1897SOL     OW17149   2.425   4.448  10.876 -0.3320  0.6703 -0.3662
 1897SOL    HW117150   2.344   4.471  10.921 -0.2348 -0.1528  0.2338
 1897SOL    HW217151   2.465   4.534  10.866  2.3581 -0.5793 -0.4256
 1898SOL     OW17152   0.356   4.471   2.064 -0.2460  0.7379  0.3583
 1898SOL    HW117153   0.270   4.513   2.055 -1.0236 -0.6076  1.4628
 1898SOL    HW217154   0.379   4.530   2.137  0.1909 -0.9539  1.5827
 1899SOL     OW17155   4.397   2.275   7.265 -0.0839  0.3385  0.6000
 1899SOL    HW117156   4.338   2.229   7.323 -0.8112  0.9249  0.3272
 1899SOL    HW217157   4.375   2.364   7.292 -2.4713 -0.2887  0.6651
 1900SOL     OW17158   1.709   3.017   6.222 -0.0915  0.3212 -0.5170
 1900SOL    HW117159   1.694   3.065   6.304 -1.0309 -0.0669 -0.4573
 1900SOL    HW217160   1.701   3.086   6.156 -1.8122 -0.0900 -0.7301
 1901SOL     OW17161   1.730   0.632   1.413  0.0793 -0.2657  0.3115
 1901SOL    HW117162   1.767   0.654   1.328  0.4388  1.4457  0.9083
 1901SOL    HW217163   1.781   0.693   1.466  0.7050 -0.4465 -0.0800
 1902SOL     OW17164   2.374   3.694  17.392  0.0977  0.4295 -0.1140
 1902SOL    HW117165   2.426   3.639  17.334  1.1263  0.8120  0.4569
 1902SOL    HW217166   2.283   3.670  17.371  0.5330  0.1689 -1.6463
 1903SOL     OW17167   2.848   4.391   0.786  0.0208 -0.0031  0.4099
 1903SOL    HW117168   2.843   4.475   0.831 -1.6581 -0.0625  0.3484
 1903SOL    HW217169   2.934   4.384   0.743  0.3939 -2.3792  1.5575
 1904SOL     OW17170   2.047   1.754  10.996  0.4009  0.6703 -0.2642
 1904SOL    HW117171   1.972   1.764  10.937 -0.3806  0.1125  0.6338
 1904SOL    HW217172   2.043   1.837  11.045  0.4205  0.0812  0.7323
 1905SOL     OW17173   4.069   1.251   4.840  0.0575 -0.0259 -0.1579
 1905SOL    HW117174   4.084   1.341   4.866 -2.6494  0.3893 -0.0757
 1905SOL    HW217175   3.975   1.240   4.852  0.0938 -3.4661 -2.8910
 1906SOL     OW17176   0.424   2.920   5.044 -0.0323 -0.6568 -0.2061
 1906SOL    HW117177   0.498   2.976   5.071 -1.5952 -0.2413  3.3015
 1906SOL    HW217178   0.465   2.883   4.966 -0.5902 -2.6273  0.4327
 1907SOL     OW17179   4.687   2.784   4.814 -0.4868  0.5022  0.5675
 1907SOL    HW117180   4.691   2.797   4.719 -0.3761  2.3785  0.8399
 1907SOL    HW217181   0.057   2.769   4.832 -0.1942 -0.8826 -1.9602
 1908SOL     OW17182   0.321   2.008   3.059  0.9812  0.1566  0.1827
 1908SOL    HW117183   0.227   2.024   3.057  0.8871 -0.5551 -0.7924
 1908SOL    HW217184   0.359   2.094   3.076  0.4835  0.0875  1.6831
 1909SOL     OW17185   4.465   4.380   6.016 -0.0169 -0.9216 -0.2026
 1909SOL    HW117186   4.426   4.457   5.974 -0.5256 -1.0234  0.0868
 1909SOL    HW217187   4.554   4.387   5.982 -0.6783  1.0109 -1.5573
 1910SOL     OW17188   3.907   3.529   3.281  0.5454 -0.0191  0.3998
 1910SOL    HW117189   3.927   3.493   3.194  0.3541  1.5784 -0.2905
 1910SOL    HW217190   3.976   3.485   3.331  0.9620 -1.9250 -1.8110
 1911SOL     OW17191   0.886   2.113   5.392 -0.8870  0.2817 -0.4015
 1911SOL    HW117192   0.956   2.092   5.330  0.9388  0.9428  1.4510
 1911SOL    HW217193   0.936   2.155   5.462  1.1600 -0.1619 -1.5960
 1912SOL     OW17194   3.274   3.938   9.013 -0.3709 -0.2695  0.0833
 1912SOL    HW117195   3.361   3.899   9.020 -0.4509 -0.5323 -0.3804
 1912SOL    HW217196   3.239   3.886   9.085 -0.1262 -0.4190  0.0930
 1913SOL     OW17197   4.206   0.366  12.260 -0.4117  0.3545  0.6647
 1913SOL    HW117198   4.140   0.361  12.329  1.8142 -1.8783  2.6467
 1913SOL    HW217199   4.276   0.409  12.310  0.3128  0.2151 -0.2287
 1914SOL     OW17200   0.243   0.337  16.643  0.0493 -0.2956 -0.0646
 1914SOL    HW117201   0.185   0.266  16.672 -0.4141  0.2215  0.2917
 1914SOL    HW217202   0.170   0.398  16.627 -1.5115 -1.4001  2.8012
 1915SOL     OW17203   1.936   0.587   5.839 -0.2314 -0.6347  0.0641
 1915SOL    HW117204   1.938   0.647   5.914  2.8540 -1.5130  0.6576
 1915SOL    HW217205   2.027   0.558   5.839 -0.0150  0.0072 -0.8366
 1916SOL     OW17206   1.044   4.607   1.138  0.1363  0.1448 -0.2916
 1916SOL    HW117207   1.124   4.576   1.181 -0.7030 -1.8575 -0.2090
 1916SOL    HW217208   1.068   4.699   1.125  0.4017  0.1031 -0.1101
 1917SOL     OW17209   4.429   4.333   8.122  0.1868 -0.3761 -0.3488
 1917SOL    HW117210   4.485   4.403   8.157 -2.4730  0.6990  1.7310
 1917SOL    HW217211   4.472   4.298   8.044  0.8632 -2.0101  0.7516
 1918SOL     OW17212   2.537   0.688   0.639 -0.0094 -0.7127  0.3416
 1918SOL    HW117213   2.456   0.733   0.614  1.3022  0.9575 -0.9156
 1918SOL    HW217214   2.522   0.595   0.623 -2.0833 -0.2763 -0.2499
 1919SOL     OW17215   2.279   1.192   5.214  0.1780 -0.6814 -0.0569
 1919SOL    HW117216   2.258   1.210   5.306 -2.0686 -2.0632 -0.3120
 1919SOL    HW217217   2.307   1.281   5.191  0.6370 -0.9674 -0.6122
 1920SOL     OW17218   2.621   3.295   5.505 -0.2099  0.3110 -0.1604
 1920SOL    HW117219   2.550   3.255   5.454 -0.2324 -0.2352  0.3129
 1920SOL    HW217220   2.595   3.280   5.596  0.5109  0.8420  0.1388
 1921SOL     OW17221   2.424   2.880  13.520 -0.2303  0.5519  0.7632
 1921SOL    HW117222   2.416   2.829  13.601 -0.3771  0.9564  1.0006
 1921SOL    HW217223   2.390   2.817  13.456 -2.2029  2.4919 -0.0716
 1922SOL     OW17224   3.182   1.721   7.627  0.0115  0.2838  0.6733
 1922SOL    HW117225   3.269   1.715   7.590  0.0600  0.1760  0.8014
 1922SOL    HW217226   3.123   1.701   7.555  0.8685 -0.1764  0.1008
 1923SOL     OW17227   1.907   3.251   4.029 -0.1076 -0.0510  0.0498
 1923SOL    HW117228   1.990   3.213   4.000  0.3280  0.4760  0.6056
 1923SOL    HW217229   1.862   3.238   3.945  2.2671  2.1863 -1.5568
 1924SOL     OW17230   4.101   2.677   3.029  0.2938 -0.1387  0.7344
 1924SOL    HW117231   4.049   2.713   2.956 -1.0947  0.1456  1.8692
 1924SOL    HW217232   4.074   2.586   3.024  0.9132 -0.3574  1.4415
 1925SOL     OW17233   1.250   1.602  14.290 -0.5799 -0.8573 -0.2511
 1925SOL    HW117234   1.329   1.627  14.338 -0.8604 -0.0216 -0.2328
 1925SOL    HW217235   1.298   1.549  14.225 -1.6971  0.0590 -1.8362
 1926SOL     OW17236   1.813   0.047   6.298 -0.2264  0.5500  0.6659
 1926SOL    HW117237   1.859   0.087   6.224 -3.8585  2.2944 -0.6267
 1926SOL    HW217238   1.725   0.082   6.283  0.6849  2.2107 -0.8045
 1927SOL     OW17239   4.146   2.382  17.222  0.7389  0.0494  0.2017
 1927SOL    HW117240   4.134   2.295  17.185 -0.4859 -0.2100  1.1943
 1927SOL    HW217241   4.152   2.426  17.137  0.5137  0.6366  0.4896
 1928SOL     OW17242   4.092   1.057   8.408  0.4395 -0.4434  0.1278
 1928SOL    HW117243   4.026   1.020   8.466  1.5938 -0.1390  1.6456
 1928SOL    HW217244   4.121   1.128   8.466 -2.0835 -1.3674  2.5424
 1929SOL     OW17245   1.069   4.588   2.151  0.4085  0.2216  0.5330
 1929SOL    HW117246   0.996   4.621   2.100  2.3330  0.9649 -1.7316
 1929SOL    HW217247   1.021   4.521   2.199  1.7456 -1.2550 -0.2117
 1930SOL     OW17248   4.650   1.719   2.235  0.0402  0.0230  0.4139
 1930SOL    HW117249   4.580   1.656   2.253  0.6132 -1.0241 -1.0438
 1930SOL    HW217250   4.616   1.764   2.158  3.1572  1.2127 -0.2431
 1931SOL     OW17251   4.225   1.076   7.554 -0.0507  0.8506 -0.0836
 1931SOL    HW117252   4.319   1.096   7.563  0.6947 -0.5292 -4.6878
 1931SOL    HW217253   4.192   1.139   7.490 -1.0898  0.0327 -0.3468
 1932SOL     OW17254   3.772   4.143   1.995 -0.5483 -0.0502  0.1028
 1932SOL    HW117255   3.825   4.087   1.939 -0.6897  0.4633 -0.5408
 1932SOL    HW217256   3.711   4.182   1.933  0.1057  0.9694  0.1140
 1933SOL     OW17257   4.324   1.201   4.004 -0.0014 -0.0133  0.8429
 1933SOL    HW117258   4.345   1.279   4.056  3.5946  0.3940 -1.1508
 1933SOL    HW217259   4.373   1.141   4.061  1.2604  1.9850  1.8838
 1934SOL     OW17260   2.867   0.887   8.075  0.2921  0.7078 -0.6952
 1934SOL    HW117261   2.802   0.931   8.129  1.2783  1.1125  0.1477
 1934SOL    HW217262   2.911   0.957   8.027 -0.3424  2.0165  0.6252
 1935SOL     OW17263   1.767   4.088   1.311 -0.3526  0.3639 -0.1677
 1935SOL    HW117264   1.832   4.127   1.253 -0.3719 -0.0914 -0.4921
 1935SOL    HW217265   1.820   4.050   1.382  1.6984  0.9437 -1.3985
 1936SOL     OW17266   3.031   3.958   6.238 -1.3759 -0.4552  0.0735
 1936SOL    HW117267   3.115   3.974   6.280 -0.2638  1.3090 -2.8236
 1936SOL    HW217268   2.975   3.942   6.314  2.7396  0.1468  3.2115
 1937SOL     OW17269   1.709   0.603   0.216 -0.2008  0.2818  0.2907
 1937SOL    HW117270   1.775   0.535   0.211 -1.4977 -1.0912  1.8354
 1937SOL    HW217271   1.730   0.644   0.132  1.3187 -1.1228 -0.0132
 1938SOL     OW17272   3.138   3.796   0.357 -0.0171  0.2896  0.6500
 1938SOL    HW117273   3.053   3.803   0.401 -1.6756  0.3763 -2.5619
 1938SOL    HW217274   3.142   3.701   0.355  1.6102  0.3928 -0.2365
 1939SOL     OW17275   2.491   2.141   9.644 -1.2007  0.0215 -0.6795
 1939SOL    HW117276   2.455   2.218   9.687  0.0793 -0.8056  1.8959
 1939SOL    HW217277   2.516   2.095   9.724  0.9982  1.9260 -0.2836
 1940SOL     OW17278   3.811   3.452   3.664  1.0530 -0.1511 -0.1912
 1940SOL    HW117279   3.817   3.538   3.704 -0.3939 -0.3357  0.4357
 1940SOL    HW217280   3.854   3.402   3.734  1.9773  2.3521  1.0152
 1941SOL     OW17281   0.390   0.336   3.682  0.0862 -0.5568 -0.1980
 1941SOL    HW117282   0.356   0.258   3.638 -1.0117  0.2322 -0.7682
 1941SOL    HW217283   0.379   0.302   3.771  0.3882 -1.9283 -0.6952
 1942SOL     OW17284   0.456   3.508   0.402  0.3796  0.0483 -0.0841
 1942SOL    HW117285   0.440   3.494   0.309  0.5444 -1.1954  0.0690
 1942SOL    HW217286   0.535   3.454   0.405  1.0297  1.0908  1.5928
 1943SOL     OW17287   2.363   0.292   8.344  0.0843 -0.5141  0.8239
 1943SOL    HW117288   2.376   0.347   8.266 -1.2568 -1.3748 -0.0091
 1943SOL    HW217289   2.449   0.297   8.385  0.0048  0.0189  0.9398
 1944SOL     OW17290   1.658   0.106   0.673  0.1002  0.3516  0.2344
 1944SOL    HW117291   1.644   0.104   0.578 -1.6022 -1.0141  0.5066
 1944SOL    HW217292   1.585   0.166   0.688 -0.1791 -0.3114  1.4386
 1945SOL     OW17293   2.013   2.733  15.130 -0.0230  0.4095  0.4273
 1945SOL    HW117294   1.985   2.807  15.184  0.2712  0.7428  0.1212
 1945SOL    HW217295   1.996   2.662  15.192 -2.2049  0.0528 -0.6092
 1946SOL     OW17296   0.814   3.091   7.696 -0.1393 -0.5736 -0.4236
 1946SOL    HW117297   0.859   3.144   7.762 -1.1118 -0.8690  0.4720
 1946SOL    HW217298   0.738   3.065   7.748  1.6054  0.1813  2.4923
 1947SOL     OW17299   1.952   2.736   3.094 -0.5388 -0.2823 -0.3046
 1947SOL    HW117300   2.009   2.681   3.040  1.6320  2.5038 -0.8158
 1947SOL    HW217301   1.926   2.806   3.035 -1.1017 -0.0045  0.2647
 1948SOL     OW17302   2.810   4.541   7.295  0.2465  0.1723 -0.5364
 1948SOL    HW117303   2.755   4.614   7.268  3.3336  2.5073 -0.4797
 1948SOL    HW217304   2.743   4.477   7.319  1.6369 -1.4795 -1.0536
 1949SOL     OW17305   3.107   0.278   0.894 -0.7083 -0.1080 -0.3191
 1949SOL    HW117306   3.096   0.343   0.964  1.4172 -0.3340  0.2254
 1949SOL    HW217307   3.100   0.201   0.951 -0.4932 -0.2497 -0.4859
 1950SOL     OW17308   3.233   1.495   3.697 -0.5678 -0.1186  0.1222
 1950SOL    HW117309   3.258   1.566   3.756  0.9968  0.3757 -1.1301
 1950SOL    HW217310   3.233   1.548   3.617  1.3565  0.7522  0.6916
 1951SOL     OW17311   4.010   0.337   7.089  0.2776  0.0256 -0.9141
 1951SOL    HW117312   4.063   0.308   7.014 -0.0947  1.3705 -1.7054
 1951SOL    HW217313   4.025   0.431   7.099  1.7552 -0.6224  2.7958
 1952SOL     OW17314   1.973   0.234   6.143  0.1834  0.0944  0.4429
 1952SOL    HW117315   1.966   0.221   6.048 -1.0613 -1.7953  0.7872
 1952SOL    HW217316   1.924   0.315   6.152 -1.5715 -0.7775 -1.1296
 1953SOL     OW17317   4.109   4.659  17.435  0.1907  0.7709 -0.3304
 1953SOL    HW117318   4.187   4.607  17.457  0.2969 -0.0303 -2.6494
 1953SOL    HW217319   4.134   4.696  17.351 -1.4306  3.0883  0.2272
 1954SOL     OW17320   3.481   1.045   3.271 -0.1522  0.5252 -0.3184
 1954SOL    HW117321   3.512   1.117   3.326  1.8020  0.8656 -1.8894
 1954SOL    HW217322   3.499   0.980   3.339 -0.5028 -1.3158 -1.9824
 1955SOL     OW17323   4.612   4.673  11.665 -0.0869 -0.9669 -0.0335
 1955SOL    HW117324   4.539   4.686  11.605  1.7418 -1.7875 -2.4267
 1955SOL    HW217325   4.560   4.631  11.734 -0.9211 -0.2940 -0.2434
 1956SOL     OW17326   4.403   0.978   4.442  0.6128 -0.1171  0.2598
 1956SOL    HW117327   4.390   0.884   4.443 -1.8260  0.1793 -3.3030
 1956SOL    HW217328   4.494   0.979   4.412  0.5781 -0.9946  0.1461
 1957SOL     OW17329   0.714   2.279   3.425 -0.4743  0.3872  0.5527
 1957SOL    HW117330   0.653   2.248   3.358  2.6281 -1.7868 -1.2335
 1957SOL    HW217331   0.779   2.328   3.374 -1.0584  0.8509  0.2479
 1958SOL     OW17332   0.818   3.681   5.472 -0.1620  0.0737  0.7161
 1958SOL    HW117333   0.898   3.720   5.508 -0.2044 -0.5494  1.4837
 1958SOL    HW217334   0.751   3.734   5.516  0.9196  2.4162 -0.4224
 1959SOL     OW17335   3.689   0.193   7.846 -0.1359  0.2693 -0.2049
 1959SOL    HW117336   3.722   0.105   7.861 -1.1698  0.0534  0.8235
 1959SOL    HW217337   3.597   0.191   7.820 -0.0921  0.5708 -0.3840
 1960SOL     OW17338   1.981   3.651  11.986 -0.4270  0.2513 -0.0664
 1960SOL    HW117339   2.076   3.659  11.976 -0.3849 -1.4929 -1.0111
 1960SOL    HW217340   1.953   3.617  11.901  1.2020 -1.8236  0.2116
 1961SOL     OW17341   2.036   1.153   8.514  0.7184 -0.2735  0.0417
 1961SOL    HW117342   2.087   1.233   8.500 -1.7630  1.1129 -1.0311
 1961SOL    HW217343   1.957   1.170   8.565 -0.9689 -2.3830 -1.8917
 1962SOL     OW17344   2.240   3.000   8.144 -0.0767 -0.2723 -0.4399
 1962SOL    HW117345   2.291   3.080   8.133 -1.8539  1.1775  1.7245
 1962SOL    HW217346   2.305   2.936   8.174 -0.6532 -1.0524 -0.8560
 1963SOL     OW17347   3.367   2.837   8.057 -0.3791  0.1333  0.0798
 1963SOL    HW117348   3.310   2.910   8.080  1.7595  2.0410 -0.7070
 1963SOL    HW217349   3.348   2.770   8.123 -2.0691 -0.2227 -0.7625
 1964SOL     OW17350   3.046   4.491   8.273 -0.3566  0.3294  0.7512
 1964SOL    HW117351   3.051   4.585   8.257  0.3060  0.2990  0.7628
 1964SOL    HW217352   3.141   4.477   8.274 -0.7314 -2.4573 -0.1546
 1965SOL     OW17353   4.471   0.171  16.686  0.2470  0.1778 -0.2386
 1965SOL    HW117354   4.406   0.100  16.684 -0.5781  1.0356 -2.5766
 1965SOL    HW217355   4.441   0.239  16.627 -0.8182  0.2426  0.3818
 1966SOL     OW17356   3.630   0.646  17.372 -0.4375 -1.0429 -0.2912
 1966SOL    HW117357   3.567   0.679  17.437 -1.3409  1.2316 -2.3287
 1966SOL    HW217358   3.572   0.641  17.297  1.2293  0.8078 -1.7055
 1967SOL     OW17359   3.049   0.526  12.874  0.2331  0.7695 -0.1479
 1967SOL    HW117360   3.140   0.532  12.845  0.5162  2.4276  1.1469
 1967SOL    HW217361   3.061   0.465  12.947 -0.2843  0.7916 -0.0438
 1968SOL     OW17362   3.632   4.068   2.371 -0.1620 -0.2838  0.2505
 1968SOL    HW117363   3.712   4.038   2.327 -0.1304  0.9276 -0.5178
 1968SOL    HW217364   3.613   4.153   2.331  0.0979 -1.5621 -2.6119
 1969SOL     OW17365   2.684   2.457  15.153  0.3417 -0.1119 -0.4932
 1969SOL    HW117366   2.705   2.550  15.147 -1.4610  0.2452 -1.2290
 1969SOL    HW217367   2.602   2.453  15.105  1.5886 -0.7022 -2.5740
 1970SOL     OW17368   3.982   0.143  10.160 -0.0519 -0.2927 -0.2572
 1970SOL    HW117369   3.917   0.079  10.191 -0.3527  0.2074  0.1601
 1970SOL    HW217370   4.052   0.091  10.122  0.8149 -1.9225  3.4910
 1971SOL     OW17371   2.796   3.013   3.441 -0.4679  0.5182 -0.0118
 1971SOL    HW117372   2.705   2.991   3.423 -0.4420  0.8870 -0.5820
 1971SOL    HW217373   2.801   3.095   3.392  0.1635  1.0151  0.8721
 1972SOL     OW17374   4.074   0.261   5.610  0.4916 -0.2375 -0.4098
 1972SOL    HW117375   4.159   0.280   5.571 -0.0227  1.0869 -0.8784
 1972SOL    HW217376   4.048   0.184   5.559 -0.8537  0.1484 -0.3088
 1973SOL     OW17377   2.574   1.473  16.573  0.5602 -0.0649  0.8027
 1973SOL    HW117378   2.623   1.513  16.501 -0.6663 -0.1588 -0.0937
 1973SOL    HW217379   2.543   1.385  16.550 -1.9695  1.3875 -1.2809
 1974SOL     OW17380   4.353   2.445  17.394 -0.0181 -0.1045  0.1715
 1974SOL    HW117381   4.282   2.429  17.332  0.1634 -0.7428  0.1359
 1974SOL    HW217382   4.317   2.406  17.474 -1.5547  1.4388  0.2285
 1975SOL     OW17383   3.090   3.408   5.625 -0.0047 -0.0409  0.3453
 1975SOL    HW117384   3.180   3.441   5.629  0.1631 -0.1992 -2.0061
 1975SOL    HW217385   3.063   3.426   5.535 -1.0610  0.0236  0.6778
 1976SOL     OW17386   4.016   0.502  16.289  0.0758 -0.2182  0.6089
 1976SOL    HW117387   3.941   0.493  16.231 -0.5583  0.2099  1.3524
 1976SOL    HW217388   4.079   0.453  16.237 -0.8702  1.0063 -1.6698
 1977SOL     OW17389   3.216   3.948  15.061 -0.1131  0.0098 -0.0195
 1977SOL    HW117390   3.161   3.971  15.136 -1.2656 -1.3911 -0.4304
 1977SOL    HW217391   3.279   3.885  15.096  0.9916  1.8067  1.2560
 1978SOL     OW17392   4.170   2.538   2.246  0.1331  0.0472 -0.2357
 1978SOL    HW117393   4.239   2.592   2.285 -0.7145  0.3615  0.8507
 1978SOL    HW217394   4.222   2.458   2.232 -0.7864 -0.8629  1.4988
 1979SOL     OW17395   1.898   2.280   6.841  0.2682  0.0306  0.0134
 1979SOL    HW117396   1.843   2.331   6.781  0.6817  2.4284  1.6376
 1979SOL    HW217397   1.949   2.354   6.876  3.0117 -1.8947  0.0498
 1980SOL     OW17398   0.582   3.748   5.906 -0.3308 -0.1594 -0.2330
 1980SOL    HW117399   0.503   3.699   5.928  0.3964 -0.7044  1.2085
 1980SOL    HW217400   0.591   3.810   5.979 -1.2370  0.2910 -0.4990
 1981SOL     OW17401   2.103   2.886   9.752  0.3674  0.2088 -0.1075
 1981SOL    HW117402   2.162   2.961   9.760 -1.8097  1.8874  0.3231
 1981SOL    HW217403   2.066   2.880   9.841  0.6453 -0.0134 -0.0081
 1982SOL     OW17404   4.686   3.351   4.321 -0.3443  0.1153  0.2177
 1982SOL    HW117405   4.626   3.402   4.267 -0.3751 -1.7199 -1.4548
 1982SOL    HW217406   4.627   3.340   4.396  1.0297 -1.0060  1.1490
 1983SOL     OW17407   3.708   2.568   3.564  0.3579 -0.5802  0.2077
 1983SOL    HW117408   3.780   2.593   3.507  2.8167 -0.0269  3.5423
 1983SOL    HW217409   3.641   2.623   3.524  1.3809  0.0626 -0.6215
 1984SOL     OW17410   0.540   2.481   0.117  0.1141 -0.4600  0.0179
 1984SOL    HW117411   0.481   2.471   0.192  1.5836  0.9782  1.3348
 1984SOL    HW217412   0.570   2.568   0.141  0.7055 -0.6126 -0.1829
 1985SOL     OW17413   3.851   3.925  13.800  0.1284 -0.5796 -0.0218
 1985SOL    HW117414   3.877   3.882  13.881 -0.7253 -0.4280  0.3325
 1985SOL    HW217415   3.761   3.937  13.829 -0.2990 -0.6074 -1.3020
 1986SOL     OW17416   2.232   1.481   6.932  0.5015 -0.2248 -0.7780
 1986SOL    HW117417   2.316   1.465   6.975  0.8078  1.3541 -0.7816
 1986SOL    HW217418   2.171   1.427   6.983 -0.3634  0.3953 -1.1583
 1987SOL     OW17419   4.661   3.944   6.678 -0.3695  0.3277 -0.0622
 1987SOL    HW117420   4.660   3.941   6.583 -0.3725 -1.7897 -0.0044
 1987SOL    HW217421   4.574   3.906   6.692  1.1865 -3.2307  0.0069
 1988SOL     OW17422   1.750   3.299   5.077  0.1525  0.6731  0.4399
 1988SOL    HW117423   1.688   3.371   5.088 -0.7103 -0.0864  0.5493
 1988SOL    HW217424   1.759   3.280   5.170  1.9778 -1.5236 -0.1965
 1989SOL     OW17425   3.941   1.133  14.096  0.2208 -0.4289  0.1161
 1989SOL    HW117426   3.935   1.170  14.183  0.9122 -0.8233  0.3326
 1989SOL    HW217427   4.032   1.110  14.079  0.4082  1.2450 -1.1898
 1990SOL     OW17428   4.013   3.494   2.401  0.4660  0.4806 -0.3040
 1990SOL    HW117429   4.060   3.415   2.372 -2.1512 -0.9520 -0.6559
 1990SOL    HW217430   4.084   3.521   2.459 -2.0613  1.7484  2.1456
 1991SOL     OW17431   1.828   3.326   8.342  0.1837 -0.1548 -0.1052
 1991SOL    HW117432   1.895   3.366   8.287 -0.6289  1.5614  0.1784
 1991SOL    HW217433   1.755   3.387   8.343 -0.5864 -1.0566 -1.0625
 1992SOL     OW17434   1.448   1.665   6.174  0.3692  0.3999  0.1769
 1992SOL    HW117435   1.446   1.749   6.129 -3.0313 -0.6863 -1.6754
 1992SOL    HW217436   1.537   1.667   6.208 -0.4190  1.6038  2.2208
 1993SOL     OW17437   4.411   0.724   1.003 -0.0904  0.2861  0.5832
 1993SOL    HW117438   4.450   0.718   0.916 -0.3351  2.4546  0.3146
 1993SOL    HW217439   4.397   0.634   1.030  0.8082  0.0233  0.1601
 1994SOL     OW17440   3.327   2.846   7.702  0.3295  0.3763 -0.1503
 1994SOL    HW117441   3.352   2.921   7.755  0.1520  0.3437 -0.0219
 1994SOL    HW217442   3.404   2.792   7.720 -0.1223 -0.3096 -0.2452
 1995SOL     OW17443   1.997   1.420   7.957  0.7010  0.2654 -0.0442
 1995SOL    HW117444   1.956   1.438   8.042  1.1924 -1.1192  0.4871
 1995SOL    HW217445   1.963   1.331   7.949  0.8605  0.0103  2.1364
 1996SOL     OW17446   2.611   0.957   1.179  0.3293 -0.1290 -0.5912
 1996SOL    HW117447   2.675   1.027   1.171  0.5683 -0.3256 -0.4021
 1996SOL    HW217448   2.530   1.005   1.196 -0.4272 -1.9854  1.1690
 1997SOL     OW17449   2.066   3.495   6.100 -0.0767  0.0462  0.0337
 1997SOL    HW117450   2.105   3.574   6.062 -1.9266  0.4251 -1.0894
 1997SOL    HW217451   1.985   3.496   6.049 -0.1020  1.8558  0.1073
 1998SOL     OW17452   2.266   4.367   0.701 -0.2625 -0.0348  0.1279
 1998SOL    HW117453   2.196   4.307   0.675  1.3833 -2.2362  0.6871
 1998SOL    HW217454   2.347   4.319   0.681 -0.7942 -0.5768 -0.7045
 1999SOL     OW17455   2.022   3.602   4.389 -0.0230 -0.5461 -0.4794
 1999SOL    HW117456   2.093   3.548   4.424  2.1773  0.7556 -2.9246
 1999SOL    HW217457   1.977   3.539   4.334  1.0785 -0.9052 -0.9729
 2000SOL     OW17458   1.310   4.320  16.508 -0.4267  1.2200  0.2593
 2000SOL    HW117459   1.218   4.343  16.499 -1.2452 -1.0334  2.6974
 2000SOL    HW217460   1.342   4.408  16.493 -0.8206  0.8160 -2.8432
 2001SOL     OW17461   1.848   0.683   9.593 -0.2016 -0.9314 -0.3460
 2001SOL    HW117462   1.913   0.616   9.617 -0.8179 -1.3278  0.1980
 2001SOL    HW217463   1.855   0.759   9.650 -3.1699  0.5055 -1.9155
 2002SOL     OW17464   2.960   2.398   0.831  0.4468 -0.3735 -0.4241
 2002SOL    HW117465   3.011   2.429   0.906 -0.4435 -0.5787  0.2605
 2002SOL    HW217466   3.011   2.320   0.808  0.0842 -0.1475 -2.0068
 2003SOL     OW17467   4.503   1.529   7.329 -0.1951  0.2715  0.1333
 2003SOL    HW117468   4.498   1.614   7.373  0.3606  0.7325 -0.6887
 2003SOL    HW217469   4.411   1.506   7.319 -0.0102 -0.5807  0.3665
 2004SOL     OW17470   2.947   2.858  12.283 -0.0737  0.6518 -0.9367
 2004SOL    HW117471   3.031   2.888  12.319  0.0278 -1.3342  0.4904
 2004SOL    HW217472   2.969   2.787  12.224  0.5369 -2.3333  2.8583
 2005SOL     OW17473   3.478   2.474   1.137 -0.0435  0.4004 -0.2176
 2005SOL    HW117474   3.554   2.451   1.083 -1.0744 -0.8627 -1.1117
 2005SOL    HW217475   3.412   2.486   1.069 -1.0071 -1.3818  0.4166
 2006SOL     OW17476   1.987   0.329   1.791 -0.5377 -0.3459  0.4300
 2006SOL    HW117477   2.032   0.247   1.811 -0.7969 -0.7712 -0.7276
 2006SOL    HW217478   1.895   0.303   1.784 -1.3493  2.7027 -0.1604
 2007SOL     OW17479   3.013   2.253   6.446  0.6508 -0.3794  0.2364
 2007SOL    HW117480   2.920   2.264   6.424  1.1643  3.0345 -0.1312
 2007SOL    HW217481   3.052   2.336   6.419  1.8852 -1.1153 -0.2501
 2008SOL     OW17482   0.733   0.561   0.465  0.1579 -0.1868 -0.3955
 2008SOL    HW117483   0.763   0.564   0.556 -0.3235  0.3454 -0.2525
 2008SOL    HW217484   0.704   0.650   0.447 -1.1504 -0.9612 -2.1053
 2009SOL     OW17485   1.653   3.324  11.475 -0.1687 -0.4534  0.2727
 2009SOL    HW117486   1.579   3.361  11.523  0.0060  0.0310  0.1682
 2009SOL    HW217487   1.710   3.401  11.469 -0.1728 -0.7171 -3.4765
 2010SOL     OW17488   3.372   1.454  11.362 -0.6643 -0.5008 -0.2186
 2010SOL    HW117489   3.457   1.439  11.320  0.3390  0.5156  1.4422
 2010SOL    HW217490   3.335   1.505  11.290  1.3433 -0.2315 -1.0587
 2011SOL     OW17491   3.765   2.977   3.013  0.2164  0.5028 -0.1846
 2011SOL    HW117492   3.823   2.920   2.962  1.4286  0.5478  1.1454
 2011SOL    HW217493   3.815   2.989   3.094 -1.8813  0.5695  1.0995
 2012SOL     OW17494   4.015   0.438   5.814  0.2130 -0.0485 -0.8008
 2012SOL    HW117495   4.031   0.376   5.742  2.0202 -2.1831  1.4470
 2012SOL    HW217496   4.097   0.433   5.862 -0.9309  0.8958  1.2323
 2013SOL     OW17497   4.043   0.014   2.617 -0.4938  0.2833 -0.5514
 2013SOL    HW117498   3.994   0.003   2.698 -0.9701 -2.0174 -1.1574
 2013SOL    HW217499   4.118   4.682   2.638  1.0405  2.3593 -0.6895
 2014SOL     OW17500   0.684   4.349  10.807  0.1631 -0.1793 -0.6497
 2014SOL    HW117501   0.711   4.357  10.898 -1.4336 -1.2353 -0.0855
 2014SOL    HW217502   0.703   4.437  10.772 -1.8991  1.0866  1.4005
 2015SOL     OW17503   3.279   0.445  10.375  0.3914  0.0730 -0.0710
 2015SOL    HW117504   3.255   0.492  10.295 -1.7290  0.2989  0.6942
 2015SOL    HW217505   3.364   0.412  10.347  1.9332  0.8153  3.7552
 2016SOL     OW17506   3.462   3.622   6.321  0.7670  0.8665  0.0828
 2016SOL    HW117507   3.530   3.593   6.382  0.3068 -1.0540 -0.3431
 2016SOL    HW217508   3.405   3.545   6.320 -0.7699  1.9843  0.3056
 2017SOL     OW17509   1.473   0.593   7.370 -0.2216  0.2897  0.2857
 2017SOL    HW117510   1.510   0.661   7.427  0.0132  0.0171  0.4548
 2017SOL    HW217511   1.466   0.516   7.426  1.9653 -1.4024 -1.7726
 2018SOL     OW17512   4.397   2.540  15.674  0.4902  0.1962  0.3373
 2018SOL    HW117513   4.448   2.464  15.648  0.5117 -0.7007  2.9960
 2018SOL    HW217514   4.336   2.542  15.601  1.7323  0.7585 -0.6873
 2019SOL     OW17515   3.270   0.330  13.799 -0.8130 -0.0660  0.0181
 2019SOL    HW117516   3.195   0.282  13.836 -0.0328 -0.9474  0.4403
 2019SOL    HW217517   3.307   0.379  13.873 -0.2091  0.4534 -0.6297
 2020SOL     OW17518   2.717   0.719   3.534  0.5130 -0.2216 -0.1864
 2020SOL    HW117519   2.622   0.707   3.538  0.4719  0.4760  0.9235
 2020SOL    HW217520   2.726   0.793   3.474  0.9811  1.2340  1.6491
 2021SOL     OW17521   4.227   1.842   3.998 -0.5871 -0.0665  0.5083
 2021SOL    HW117522   4.228   1.818   3.906  0.2228 -1.5259  0.8946
 2021SOL    HW217523   4.158   1.781   4.024  0.9912 -1.8389  0.4798
 2022SOL     OW17524   0.007   4.414   5.619 -0.7988 -0.4548  0.2296
 2022SOL    HW117525   0.102   4.424   5.622 -0.7291 -0.8752 -0.5456
 2022SOL    HW217526   4.697   4.499   5.589 -1.0320 -0.5900  0.0940
 2023SOL     OW17527   1.681   2.871   4.047 -0.5089  0.3481  0.7345
 2023SOL    HW117528   1.718   2.958   4.039  1.0194 -0.8155 -4.7663
 2023SOL    HW217529   1.586   2.887   4.053 -0.3230  1.9502 -0.7140
 2024SOL     OW17530   1.683   4.516   3.617  0.0909 -0.4914 -0.0694
 2024SOL    HW117531   1.678   4.531   3.523 -1.4462  1.1499  0.2787
 2024SOL    HW217532   1.765   4.562   3.634 -0.5888  1.1614 -1.3705
 2025SOL     OW17533   1.182   0.563   3.515  0.2803  0.0686  0.4849
 2025SOL    HW117534   1.091   0.570   3.545  0.3414 -1.5125  1.0405
 2025SOL    HW217535   1.184   0.631   3.448 -0.4454 -0.2650  0.1295
 2026SOL     OW17536   3.024   3.469  15.799  0.3967 -0.1217  0.6277
 2026SOL    HW117537   2.941   3.452  15.843 -1.4866 -0.0559 -2.9161
 2026SOL    HW217538   3.070   3.404  15.853 -2.0302 -2.6733 -0.4225
 2027SOL     OW17539   1.132   3.094  10.666  0.5909  0.8290 -0.0648
 2027SOL    HW117540   1.222   3.072  10.640  0.1497  0.1803 -1.0391
 2027SOL    HW217541   1.118   3.188  10.655  0.6078  0.9672  1.0953
 2028SOL     OW17542   1.717   3.065   9.131 -0.2371 -0.5114  0.1850
 2028SOL    HW117543   1.800   3.068   9.178 -0.1584 -0.2792  0.0291
 2028SOL    HW217544   1.752   3.058   9.042 -0.0539  0.1789  0.2093
 2029SOL     OW17545   3.672   2.872   2.125 -0.2007  0.1154  0.6531
 2029SOL    HW117546   3.766   2.853   2.131  0.0622  0.6919 -1.5865
 2029SOL    HW217547   3.639   2.863   2.035 -1.5184 -0.6124  1.2096
 2030SOL     OW17548   4.008   2.888   2.203  0.5287  0.4938  0.0143
 2030SOL    HW117549   4.093   2.872   2.161  0.6627 -0.4531  0.6639
 2030SOL    HW217550   3.991   2.977   2.171 -0.5603 -0.5644 -2.3448
 2031SOL     OW17551   1.691   3.081   1.956  0.2488  0.1068 -0.3703
 2031SOL    HW117552   1.721   2.992   1.973 -0.9654  0.1177  1.8008
 2031SOL    HW217553   1.731   3.103   1.872  1.6633 -0.7637  0.0802
 2032SOL     OW17554   0.624   4.475   7.344 -0.4826  0.0552  0.1410
 2032SOL    HW117555   0.632   4.459   7.250  0.9657  1.3784  0.0365
 2032SOL    HW217556   0.551   4.414   7.358  1.3136 -2.1472 -0.0411
 2033SOL     OW17557   3.122   0.400   5.473 -0.3815 -0.7342  0.3755
 2033SOL    HW117558   3.089   0.311   5.460 -0.9625 -0.5339  0.4911
 2033SOL    HW217559   3.206   0.385   5.429 -0.4291  1.6927 -0.5423
 2034SOL     OW17560   0.404   3.346   7.761 -0.7463 -0.5213 -0.1058
 2034SOL    HW117561   0.326   3.398   7.776  0.6878  0.9270  2.3463
 2034SOL    HW217562   0.360   3.261   7.762 -0.7853 -0.5078 -0.6151
 2035SOL     OW17563   0.509   3.246  17.657  0.0396  0.2598 -0.3006
 2035SOL    HW117564   0.474   3.254  17.568 -0.5704 -3.7213 -0.4090
 2035SOL    HW217565   0.593   3.290  17.647 -0.1550  0.6575 -0.1898
 2036SOL     OW17566   4.094   1.814   4.534  0.7389 -0.1185 -0.2301
 2036SOL    HW117567   4.020   1.862   4.496 -1.3156 -2.0942  1.2383
 2036SOL    HW217568   4.123   1.873   4.603  0.7697 -1.4644  0.9172
 2037SOL     OW17569   1.050   4.589   1.846  0.1431  0.1861 -0.1340
 2037SOL    HW117570   1.016   4.635   1.769 -1.3349  1.1106  1.0730
 2037SOL    HW217571   1.026   4.650   1.916  0.8351  1.0020 -0.6085
 2038SOL     OW17572   0.608   1.913   5.321  0.0266  0.4732  0.0625
 2038SOL    HW117573   0.513   1.919   5.324 -0.0600 -0.4030 -1.2577
 2038SOL    HW217574   0.626   2.007   5.326  0.3498  0.4669 -1.0113
 2039SOL     OW17575   4.029   4.252   5.384  0.2466  0.1064 -0.1260
 2039SOL    HW117576   3.989   4.189   5.324  1.3074 -0.9624  0.2875
 2039SOL    HW217577   3.949   4.299   5.410  1.0278 -0.1711  2.8164
 2040SOL     OW17578   2.392   0.943   5.290 -0.2486  0.0303  0.1819
 2040SOL    HW117579   2.469   0.976   5.244  0.1929  0.3994  1.1976
 2040SOL    HW217580   2.326   1.007   5.262  2.0571  1.2521 -2.4450
 2041SOL     OW17581   3.786   4.306   7.844  0.3838 -0.1056 -0.6170
 2041SOL    HW117582   3.811   4.270   7.929  0.4393  0.3490 -0.4406
 2041SOL    HW217583   3.782   4.234   7.782 -0.5702 -0.7476  0.1905
 2042SOL     OW17584   2.791   4.516   2.533 -0.6471  0.5198 -0.0069
 2042SOL    HW117585   2.729   4.516   2.460 -0.3363  0.7194 -0.2719
 2042SOL    HW217586   2.803   4.607   2.560  2.1836 -0.0820  0.8318
 2043SOL     OW17587   0.300   1.706   7.814 -0.8368  0.5639  0.3197
 2043SOL    HW117588   0.326   1.614   7.812 -0.7926  0.5481  1.5899
 2043SOL    HW217589   0.356   1.735   7.743 -1.0788 -0.4416 -0.2820
 2044SOL     OW17590   0.061   0.842   2.369 -0.4752 -0.3557 -0.0404
 2044SOL    HW117591   4.691   0.862   2.383 -0.3672 -0.3608  0.7086
 2044SOL    HW217592   0.051   0.813   2.279  0.3418 -1.0297  0.0815
 2045SOL     OW17593   2.598   4.566   1.230  0.8806 -1.0772 -0.0586
 2045SOL    HW117594   2.662   4.623   1.273  0.8699 -1.5963  0.6440
 2045SOL    HW217595   2.599   4.605   1.143  1.3829 -0.7179  0.1065
 2046SOL     OW17596   1.218   2.594  17.253  0.0620  0.0566  0.2884
 2046SOL    HW117597   1.185   2.672  17.299  0.5023 -0.2393  1.1021
 2046SOL    HW217598   1.143   2.561  17.205  0.8551 -1.6002  0.2094
 2047SOL     OW17599   4.693   4.719   9.032  0.3988  0.8499  0.0515
 2047SOL    HW117600   0.010   0.081   9.053  0.5513  1.4662 -2.6336
 2047SOL    HW217601   0.038   4.652   9.044 -0.0045  0.4854  0.2919
 2048SOL     OW17602   2.340   3.330   7.965  0.4241  0.7602  0.2564
 2048SOL    HW117603   2.365   3.286   8.046  1.4154  2.4395  0.8488
 2048SOL    HW217604   2.423   3.369   7.935  0.9476 -2.3426 -2.3535
 2049SOL     OW17605   1.428   0.529   3.634 -0.6164  0.1742  0.1328
 2049SOL    HW117606   1.389   0.560   3.553 -1.6667 -0.6557  0.3264
 2049SOL    HW217607   1.364   0.566   3.695  0.7727  2.2951  0.2944
 2050SOL     OW17608   3.018   0.805   3.006  0.5048 -0.3766  0.2606
 2050SOL    HW117609   3.031   0.837   2.916 -1.8895  1.4719  0.5519
 2050SOL    HW217610   3.099   0.760   3.027  1.2191  1.2667  1.0344
 2051SOL     OW17611   1.413   2.789   6.035 -0.8132 -0.0319  0.1023
 2051SOL    HW117612   1.398   2.824   6.122  1.3235 -1.6994  1.1382
 2051SOL    HW217613   1.381   2.863   5.984 -2.6912 -2.0036 -1.5857
 2052SOL     OW17614   0.842   1.443   2.405 -0.0104  0.5950  0.0001
 2052SOL    HW117615   0.866   1.476   2.318 -2.3623 -0.2083 -0.9236
 2052SOL    HW217616   0.932   1.436   2.439 -0.5092  2.0429  1.6354
 2053SOL     OW17617   0.637   4.180   1.693  0.0178 -0.0371  0.6214
 2053SOL    HW117618   0.585   4.253   1.660 -2.0797 -1.2065  1.3633
 2053SOL    HW217619   0.607   4.097   1.656  3.1994 -0.3110 -1.3954
 2054SOL     OW17620   2.538   0.286   1.609  0.0647  0.2295 -0.0301
 2054SOL    HW117621   2.551   0.340   1.530  2.9247  1.5470  1.3353
 2054SOL    HW217622   2.560   0.351   1.676  0.7238  1.3467 -1.3213
 2055SOL     OW17623   2.823   1.344  10.754 -0.1488 -0.0843 -0.2746
 2055SOL    HW117624   2.860   1.319  10.670 -2.2233 -0.2194 -1.1478
 2055SOL    HW217625   2.737   1.371  10.720 -0.0825 -0.6523 -0.8796
 2056SOL     OW17626   3.230   4.201   5.220  0.5751 -0.2279  0.4579
 2056SOL    HW117627   3.137   4.179   5.231 -0.1239  0.7047 -3.7084
 2056SOL    HW217628   3.257   4.209   5.311 -1.8874 -2.3828  1.3917
 2057SOL     OW17629   1.483   3.612   9.184  0.3354  0.5777 -0.1235
 2057SOL    HW117630   1.561   3.583   9.231  1.3787  0.2315 -2.0885
 2057SOL    HW217631   1.419   3.615   9.255  1.8091 -0.8359  1.2449
 2058SOL     OW17632   1.780   3.698   6.306 -0.8250  0.5399  0.1833
 2058SOL    HW117633   1.818   3.611   6.323 -2.0124 -0.1145 -0.4637
 2058SOL    HW217634   1.804   3.754   6.380  2.2473 -2.4201  1.4410
 2059SOL     OW17635   0.648   0.195  15.989 -0.2588 -0.1698 -0.0802
 2059SOL    HW117636   0.621   0.265  16.048  1.5329 -0.5615  1.2123
 2059SOL    HW217637   0.735   0.172  16.023  0.4631  3.1041  0.3851
 2060SOL     OW17638   4.673   3.788   4.525 -0.0468 -0.1597 -0.5054
 2060SOL    HW117639   0.035   3.788   4.480 -0.2974 -1.0586 -0.9938
 2060SOL    HW217640   4.679   3.700   4.562  0.3900 -0.9752 -2.5108
 2061SOL     OW17641   4.083   2.882   9.769 -0.2249 -0.2711 -0.4357
 2061SOL    HW117642   4.072   2.840   9.855 -1.1023 -0.0959 -0.4594
 2061SOL    HW217643   4.164   2.932   9.779 -1.3660  1.4111  0.3726
 2062SOL     OW17644   4.380   3.623   4.090  0.1649  0.0803 -0.2488
 2062SOL    HW117645   4.377   3.532   4.117 -2.3579  0.5717  1.2076
 2062SOL    HW217646   4.397   3.621   3.996  1.9665  1.1750  0.0472
 2063SOL     OW17647   4.348   0.865  13.333  0.0805  0.1198  0.7103
 2063SOL    HW117648   4.363   0.806  13.407 -4.4874 -0.6897  1.0491
 2063SOL    HW217649   4.323   0.939  13.389 -3.6042  0.5932 -1.5424
 2064SOL     OW17650   3.361   4.647  15.341  0.2340 -0.1710  0.1363
 2064SOL    HW117651   3.323   4.659  15.254 -1.6448 -1.6689  0.7503
 2064SOL    HW217652   3.421   4.721  15.348  0.6689 -0.3764 -1.3160
 2065SOL     OW17653   2.413   3.779   5.343 -0.3566  0.1069 -0.1106
 2065SOL    HW117654   2.443   3.867   5.365 -0.7885  0.2054  0.0798
 2065SOL    HW217655   2.407   3.773   5.247 -0.4676  3.7680 -0.3345
 2066SOL     OW17656   4.301   3.142   7.866 -0.1123  0.3902 -0.5986
 2066SOL    HW117657   4.212   3.160   7.896  0.5775 -0.3286  1.8849
 2066SOL    HW217658   4.313   3.051   7.893  0.5757  0.9984  1.1761
 2067SOL     OW17659   4.541   0.934   2.436  0.7612  0.1108 -0.1564
 2067SOL    HW117660   4.540   1.029   2.451 -0.7561  0.0445  0.1418
 2067SOL    HW217661   4.513   0.909   2.524 -2.5514 -1.5756 -1.6937
 2068SOL     OW17662   2.972   0.577  12.112 -0.3260  0.3788 -0.2761
 2068SOL    HW117663   2.899   0.639  12.114  0.2123  0.9596  1.6869
 2068SOL    HW217664   2.962   0.544  12.201  0.5401 -1.5125 -0.8865
 2069SOL     OW17665   2.537   0.332   1.962 -0.2582  0.1142 -0.3910
 2069SOL    HW117666   2.506   0.349   2.051  3.3269  1.6814  0.5456
 2069SOL    HW217667   2.615   0.387   1.967 -0.0214 -0.2082 -0.5065
 2070SOL     OW17668   0.414   2.764   6.029  0.2803  0.4374 -0.8397
 2070SOL    HW117669   0.359   2.841   6.037  4.1618  3.1632 -0.3331
 2070SOL    HW217670   0.370   2.699   6.083 -0.0236  1.1146 -0.2801
 2071SOL     OW17671   3.061   4.498  11.234 -0.1805  0.4964 -0.0607
 2071SOL    HW117672   3.061   4.540  11.321 -2.0221 -4.3815  2.2713
 2071SOL    HW217673   3.040   4.561  11.165 -0.1680  1.7760  1.0843
 2072SOL     OW17674   2.952   1.105   6.756  0.1324 -0.2018  0.1518
 2072SOL    HW117675   3.045   1.111   6.736  0.2988 -0.6912  0.7845
 2072SOL    HW217676   2.928   1.192   6.725  1.1499  0.4062  1.0812
 2073SOL     OW17677   2.963   0.599   5.325 -0.9088  0.3942  0.4493
 2073SOL    HW117678   2.973   0.549   5.244 -1.0203 -0.4492  0.9631
 2073SOL    HW217679   2.999   0.527   5.377  0.6497  1.1022  0.3213
 2074SOL     OW17680   0.507   2.371   2.469 -0.9296  0.2209 -0.2386
 2074SOL    HW117681   0.480   2.298   2.526 -1.7936  0.2781 -0.5773
 2074SOL    HW217682   0.600   2.348   2.479 -1.0952  0.1683  1.1047
 2075SOL     OW17683   1.978   3.628   8.655 -0.3263  0.4492  0.3791
 2075SOL    HW117684   1.910   3.656   8.716 -0.2752 -0.3212  0.7871
 2075SOL    HW217685   1.967   3.533   8.659 -0.5990  0.5048  0.9715
 2076SOL     OW17686   2.492   3.673   3.145 -0.5071 -0.4319 -0.2787
 2076SOL    HW117687   2.458   3.734   3.211  0.6331 -0.0830  0.0002
 2076SOL    HW217688   2.436   3.691   3.069  2.1533  2.6972 -1.5213
 2077SOL     OW17689   3.972   2.268  17.669 -0.4699  0.4579 -0.3038
 2077SOL    HW117690   3.965   2.277   0.071  0.6757  0.8843 -0.2641
 2077SOL    HW217691   3.884   2.299  17.646 -0.4827 -0.4173 -1.4818
 2078SOL     OW17692   1.047   3.913  11.400  0.1008 -0.4716  0.6535
 2078SOL    HW117693   0.962   3.936  11.362 -0.4876 -2.4051  0.8311
 2078SOL    HW217694   1.094   3.994  11.380 -0.6520  0.6072  3.2665
 2079SOL     OW17695   1.132   1.518   4.594 -0.1246 -0.3002  0.1841
 2079SOL    HW117696   1.056   1.468   4.623  0.4664 -0.9077  0.6868
 2079SOL    HW217697   1.151   1.486   4.506  0.1037  0.6499 -0.1183
 2080SOL     OW17698   0.791   4.404   5.653 -0.3245 -0.4739 -0.1267
 2080SOL    HW117699   0.866   4.463   5.659 -0.2326 -0.5661 -0.3696
 2080SOL    HW217700   0.837   4.325   5.681 -1.5664 -0.5693  1.6700
 2081SOL     OW17701   1.416   3.095   5.308 -0.4135 -0.4016  0.3444
 2081SOL    HW117702   1.476   3.138   5.368 -2.2554  1.5981  0.7618
 2081SOL    HW217703   1.330   3.118   5.344 -0.5904  1.5602 -1.2605
 2082SOL     OW17704   0.570   3.317  14.994 -0.1476 -0.7442  0.3696
 2082SOL    HW117705   0.583   3.367  14.914  0.2032  0.5046  1.2010
 2082SOL    HW217706   0.478   3.290  14.983 -0.1588 -0.5719  0.0579
 2083SOL     OW17707   4.705   2.394   8.674  0.3470  0.4560 -0.0483
 2083SOL    HW117708   0.056   2.406   8.614  0.8782 -0.4633  0.4268
 2083SOL    HW217709   4.669   2.480   8.655 -1.6629 -0.5546 -0.9203
 2084SOL     OW17710   4.393   2.231   4.686 -0.2128 -0.6332  0.0190
 2084SOL    HW117711   4.404   2.324   4.705  0.1327 -0.3395 -1.7048
 2084SOL    HW217712   4.480   2.200   4.713  0.2746  0.2192 -0.5814
 2085SOL     OW17713   3.555   0.491  15.015  0.2152 -0.2201 -0.2129
 2085SOL    HW117714   3.565   0.586  15.019 -3.7158  0.2005 -0.4584
 2085SOL    HW217715   3.474   0.491  15.066 -0.1810 -0.2534 -0.8462
 2086SOL     OW17716   3.150   2.956  13.837 -0.4395 -0.8133 -0.1632
 2086SOL    HW117717   3.092   2.999  13.900  0.2774 -2.2033  1.4302
 2086SOL    HW217718   3.134   2.864  13.857 -1.1285 -0.4010  1.1457
 2087SOL     OW17719   3.446   2.457   6.994  0.4102  0.3856  0.7397
 2087SOL    HW117720   3.489   2.515   7.056 -0.7058  1.5658  0.4184
 2087SOL    HW217721   3.377   2.516   6.965  0.7759  0.0424 -0.8612
 2088SOL     OW17722   1.929   2.967  11.512 -0.1740 -0.3780 -0.3415
 2088SOL    HW117723   1.884   3.040  11.468  0.7983  0.7534  0.5415
 2088SOL    HW217724   1.978   2.935  11.436 -0.1376 -1.4044  0.1213
 2089SOL     OW17725   1.006   0.479   7.209  0.0667 -0.1181  0.5639
 2089SOL    HW117726   1.087   0.523   7.237 -0.1129  0.0685  0.7851
 2089SOL    HW217727   0.945   0.552   7.211  2.8556  2.2656 -2.0184
 2090SOL     OW17728   3.461   0.815   7.431 -0.0153 -0.5001 -0.4429
 2090SOL    HW117729   3.418   0.772   7.505 -1.5430  0.6717 -0.6480
 2090SOL    HW217730   3.426   0.902   7.449  0.8880 -0.0361 -0.9109
 2091SOL     OW17731   0.829   0.138  13.940  0.4037  0.4047  0.0999
 2091SOL    HW117732   0.754   0.085  13.910 -0.0878  1.0594  0.1880
 2091SOL    HW217733   0.882   0.068  13.978  0.9012  0.9316  0.3595
 2092SOL     OW17734   1.691   1.405   4.854 -0.4143  0.7899  0.0628
 2092SOL    HW117735   1.686   1.394   4.759  0.3083 -1.6689  0.3107
 2092SOL    HW217736   1.698   1.314   4.882  0.1021  0.7206 -0.2946
 2093SOL     OW17737   2.514   0.758  14.100  0.0082 -0.6481 -0.2496
 2093SOL    HW117738   2.543   0.847  14.123 -1.6594 -0.8061  2.4950
 2093SOL    HW217739   2.427   0.773  14.062 -0.6458  1.5089  2.0632
 2094SOL     OW17740   0.373   3.007   5.781 -0.1426 -0.0640 -0.1640
 2094SOL    HW117741   0.303   3.032   5.721  0.6971  0.2325 -1.0085
 2094SOL    HW217742   0.427   2.943   5.735  1.8812  0.4880  1.4485
 2095SOL     OW17743   0.251   2.339   1.463 -0.5196 -0.1327 -0.1671
 2095SOL    HW117744   0.235   2.378   1.548 -0.8061 -0.5985 -0.0122
 2095SOL    HW217745   0.167   2.311   1.427 -1.5633 -0.9510  2.9189
 2096SOL     OW17746   2.684   3.405   3.704  0.0447 -0.1342  0.0812
 2096SOL    HW117747   2.703   3.330   3.648 -2.0069 -0.2461 -0.4828
 2096SOL    HW217748   2.749   3.464   3.666  0.1118  0.9293  1.8683
 2097SOL     OW17749   4.695   3.058   5.468  0.2982 -0.2167  0.3245
 2097SOL    HW117750   4.607   3.023   5.476  0.2767 -0.4709 -1.0903
 2097SOL    HW217751   4.670   3.145   5.499  1.3188  0.5009 -0.8307
 2098SOL     OW17752   0.887   3.515   9.601  0.0851 -0.2596  0.2042
 2098SOL    HW117753   0.940   3.449   9.646 -2.7044 -0.9169  2.5676
 2098SOL    HW217754   0.903   3.489   9.510  0.4134 -0.3232  0.2830
 2099SOL     OW17755   1.634   2.306   6.417 -0.2983 -0.3881 -0.5774
 2099SOL    HW117756   1.562   2.339   6.362 -2.8349 -6.1173 -0.7287
 2099SOL    HW217757   1.606   2.214   6.420  0.1565 -0.5519 -1.4096
 2100SOL     OW17758   3.328   0.354   6.919 -0.1377 -0.6970  0.2129
 2100SOL    HW117759   3.287   0.440   6.932 -1.7570 -1.5309  0.5935
 2100SOL    HW217760   3.378   0.342   7.000  0.7222  1.3905 -0.0126
 2101SOL     OW17761   0.420   1.540   4.160 -0.3025  0.7669 -0.2297
 2101SOL    HW117762   0.356   1.538   4.089 -0.4750 -0.2002 -0.0444
 2101SOL    HW217763   0.462   1.454   4.162 -2.2457 -0.1717 -0.4923
 2102SOL     OW17764   3.832   2.196   8.669  0.0857 -0.1732  0.9490
 2102SOL    HW117765   3.788   2.280   8.654  1.1663  0.4331  1.2281
 2102SOL    HW217766   3.817   2.189   8.763  0.1395 -0.1834  0.9568
 2103SOL     OW17767   4.012   0.851   2.895 -0.3937  0.3061  0.3424
 2103SOL    HW117768   3.956   0.926   2.876  0.4808  0.1843 -2.7144
 2103SOL    HW217769   4.091   0.897   2.865  0.4334 -1.6208 -0.4526
 2104SOL     OW17770   2.469   4.603   5.531 -0.1100  0.1930 -0.5719
 2104SOL    HW117771   2.398   4.658   5.498 -0.0225  1.2067  0.9242
 2104SOL    HW217772   2.505   4.583   5.445 -0.0448  2.3080 -1.0508
 2105SOL     OW17773   4.449   4.496  11.834  0.0077 -0.1169 -0.0549
 2105SOL    HW117774   4.472   4.446  11.756 -0.5530 -1.6999  0.7786
 2105SOL    HW217775   4.498   4.444  11.898  1.5701  1.9756  0.4314
 2106SOL     OW17776   1.149   2.534   4.404  0.3514 -0.3492  0.3066
 2106SOL    HW117777   1.171   2.485   4.326  1.4936  0.5471  0.0713
 2106SOL    HW217778   1.227   2.534   4.459 -0.4102  1.6560  1.4094
 2107SOL     OW17779   0.075   0.425   4.478  0.3170  0.2432  0.8643
 2107SOL    HW117780   4.712   0.389   4.458 -0.5403  3.1502 -0.8251
 2107SOL    HW217781   0.087   0.492   4.410 -3.0562 -1.5212 -1.4736
 2108SOL     OW17782   1.192   2.513  11.503  0.7364 -0.1977 -0.5148
 2108SOL    HW117783   1.107   2.535  11.540  2.0319 -1.8439  3.3653
 2108SOL    HW217784   1.191   2.535  11.409 -1.0476 -1.2532 -0.7288
 2109SOL     OW17785   4.446   2.848  10.833 -0.5719  0.1774 -0.0341
 2109SOL    HW117786   4.386   2.886  10.770  1.4751 -0.5513 -2.3982
 2109SOL    HW217787   4.408   2.761  10.845 -2.4362  0.5510 -3.4905
 2110SOL     OW17788   0.023   4.401   6.943 -0.2440  0.1410  0.0931
 2110SOL    HW117789   0.114   4.430   6.933 -0.0890 -0.3209  0.1819
 2110SOL    HW217790   4.687   4.445   6.881  1.0194  3.5643  1.3106
 2111SOL     OW17791   1.822   2.933  14.140 -0.1904 -0.2550 -0.1335
 2111SOL    HW117792   1.728   2.918  14.135  0.0624 -1.6340 -0.8708
 2111SOL    HW217793   1.835   2.855  14.195  0.6328 -0.1828 -0.2276
 2112SOL     OW17794   3.107   1.778   0.207  0.2890 -0.4042 -1.1484
 2112SOL    HW117795   3.142   1.859   0.168  3.3492  0.1019  2.6603
 2112SOL    HW217796   3.109   1.720   0.131  2.1752  1.1181 -2.2813
 2113SOL     OW17797   4.372   3.596   9.234  0.1135  0.0128  1.0090
 2113SOL    HW117798   4.448   3.540   9.250  0.0786 -0.7634 -1.6255
 2113SOL    HW217799   4.335   3.591   9.322 -3.7423 -0.5824 -0.6534
 2114SOL     OW17800   0.524   4.682   7.494  0.5895  0.1110  0.1567
 2114SOL    HW117801   0.510   0.044   7.452 -0.3237 -0.1273 -0.0139
 2114SOL    HW217802   0.570   4.623   7.434  1.9858 -0.0723  1.3913
 2115SOL     OW17803   2.351   0.179   3.074  0.2717  0.2146 -0.7812
 2115SOL    HW117804   2.380   0.104   3.022 -0.5406  0.0064 -0.9364
 2115SOL    HW217805   2.397   0.249   3.029  1.0454  0.5803  0.5567
 2116SOL     OW17806   3.579   1.888   2.503 -0.5467  0.2341 -0.7089
 2116SOL    HW117807   3.612   1.969   2.464  0.4044  1.6529  3.0388
 2116SOL    HW217808   3.485   1.904   2.502 -0.6272 -0.1644  0.1460
 2117SOL     OW17809   3.263   1.780   3.843  0.0020 -0.0478  0.1639
 2117SOL    HW117810   3.196   1.804   3.907 -0.5628  0.3034 -0.5511
 2117SOL    HW217811   3.262   1.867   3.803  0.1378 -0.7102 -1.3012
 2118SOL     OW17812   2.604   2.664   5.147 -0.5975 -0.3175  0.3404
 2118SOL    HW117813   2.603   2.696   5.237 -1.3088  4.4232 -1.3498
 2118SOL    HW217814   2.628   2.737   5.090  0.8202  0.1384  1.5193
 2119SOL     OW17815   2.652   3.306   9.879 -0.3875 -0.5350  0.5052
 2119SOL    HW117816   2.687   3.220   9.902  1.5183 -0.2446 -1.2283
 2119SOL    HW217817   2.681   3.359   9.952 -0.2460  1.4762 -1.0024
 2120SOL     OW17818   3.472   1.197   5.413  0.7052 -0.1152  0.2461
 2120SOL    HW117819   3.514   1.219   5.496  2.7517 -2.6592 -0.1130
 2120SOL    HW217820   3.399   1.138   5.433 -1.4671  1.8560 -1.7044
 2121SOL     OW17821   1.733   0.132   4.965 -0.4870 -0.0093  0.1633
 2121SOL    HW117822   1.726   0.104   4.874  1.6791  1.7533 -0.5389
 2121SOL    HW217823   1.729   0.227   4.959 -1.2175  0.0689  2.0175
 2122SOL     OW17824   4.057   3.503   7.689  0.1362 -0.4370 -0.0805
 2122SOL    HW117825   4.068   3.455   7.607 -3.9867 -1.9613  0.2608
 2122SOL    HW217826   4.083   3.592   7.668  0.0369 -0.4396 -0.2104
 2123SOL     OW17827   4.404   3.577   3.826  0.2802  0.4643 -0.1411
 2123SOL    HW117828   4.384   3.635   3.753  0.4619  0.2505 -0.3594
 2123SOL    HW217829   4.498   3.594   3.833 -0.0400  1.5545  1.6006
 2124SOL     OW17830   0.609   0.799   0.398 -0.0841  0.3485  0.2754
 2124SOL    HW117831   0.563   0.883   0.394 -0.6997 -0.0123 -0.2705
 2124SOL    HW217832   0.669   0.810   0.325  0.2711  0.0367  0.5238
 2125SOL     OW17833   3.373   3.595  16.543  0.2333 -0.0788  0.1503
 2125SOL    HW117834   3.302   3.534  16.564  0.6837 -0.3495  0.8924
 2125SOL    HW217835   3.404   3.617  16.631 -0.1316  0.6286  0.1021
 2126SOL     OW17836   1.260   3.337  11.757  0.3703 -0.5584 -0.1164
 2126SOL    HW117837   1.204   3.356  11.682 -0.0802 -2.2521 -0.2109
 2126SOL    HW217838   1.336   3.381  11.719 -0.7948  2.3763  0.9502
 2127SOL     OW17839   4.041   1.084  13.698 -0.2425 -0.4067 -0.0969
 2127SOL    HW117840   4.020   1.083  13.605  0.6293 -2.9084 -0.2486
 2127SOL    HW217841   4.136   1.092  13.691 -0.3213  0.4163 -0.2524
 2128SOL     OW17842   0.928   3.664   7.245  0.0183 -0.4252  0.3581
 2128SOL    HW117843   0.998   3.607   7.214 -1.2452 -1.2611 -0.9402
 2128SOL    HW217844   0.965   3.678   7.333  1.2378  1.5892 -0.4823
 2129SOL     OW17845   4.159   4.236  10.905 -0.3152 -0.8560  0.4927
 2129SOL    HW117846   4.157   4.166  10.839 -2.3996  0.1730 -0.5198
 2129SOL    HW217847   4.089   4.199  10.959 -0.5793 -0.5207  0.3767
 2130SOL     OW17848   3.945   1.127   8.827  0.1219  0.2094  0.4906
 2130SOL    HW117849   3.891   1.069   8.880 -2.0139 -0.1740 -2.1244
 2130SOL    HW217850   3.887   1.203   8.832 -1.1706 -0.7514 -0.0518
 2131SOL     OW17851   0.937   2.237   9.227  0.0769 -0.5127 -0.6364
 2131SOL    HW117852   1.000   2.167   9.214  0.2603 -0.4162 -0.2626
 2131SOL    HW217853   0.896   2.230   9.140  1.3237 -3.3981 -0.9954
 2132SOL     OW17854   2.092   0.308   5.253  0.2220 -0.1300 -0.6392
 2132SOL    HW117855   2.034   0.385   5.257  0.3171 -0.0458 -0.8732
 2132SOL    HW217856   2.173   0.355   5.277 -1.0081 -0.3330  4.0503
 2133SOL     OW17857   3.719   1.657  12.478 -0.6898  0.1867 -0.2768
 2133SOL    HW117858   3.630   1.694  12.476 -0.9363 -0.3847  0.3996
 2133SOL    HW217859   3.771   1.737  12.478 -0.2267 -0.1112  1.2926
 2134SOL     OW17860   4.168   2.150   3.955 -0.2506 -0.0358 -0.6313
 2134SOL    HW117861   4.082   2.157   3.997  0.5209 -0.4132  1.0324
 2134SOL    HW217862   4.198   2.061   3.972  0.8425 -0.1054 -3.0242
 2135SOL     OW17863   0.813   3.199   8.362 -0.4948 -0.0187  0.4010
 2135SOL    HW117864   0.727   3.174   8.328 -0.9028 -0.8296  2.0263
 2135SOL    HW217865   0.856   3.154   8.289  2.3480  0.9705  1.4730
 2136SOL     OW17866   0.978   2.807  15.625 -0.2213  0.2284 -0.1938
 2136SOL    HW117867   0.940   2.778  15.542  1.1913 -0.2787 -0.6713
 2136SOL    HW217868   0.936   2.748  15.689 -0.0695 -0.4804 -0.7434
 2137SOL     OW17869   3.063   3.092  15.664  0.0236  0.5540  0.0981
 2137SOL    HW117870   3.142   3.137  15.694 -0.8270  1.7748  0.4846
 2137SOL    HW217871   3.046   3.032  15.736 -3.3800  1.3001 -0.0876
 2138SOL     OW17872   3.828   1.083  12.869  0.1746  0.1882  0.1818
 2138SOL    HW117873   3.743   1.042  12.852  0.0046  0.4678  0.3610
 2138SOL    HW217874   3.807   1.123  12.953  1.0374  1.6705 -0.3108
 2139SOL     OW17875   0.453   0.768   5.513 -0.1805  0.2495  0.4801
 2139SOL    HW117876   0.534   0.732   5.477 -0.7235  0.3508 -0.8382
 2139SOL    HW217877   0.388   0.705   5.482  1.7293 -1.1572 -0.6869
 2140SOL     OW17878   1.349   1.575  11.762 -0.0742  1.0243  0.6895
 2140SOL    HW117879   1.327   1.620  11.681  2.3715  0.1141 -0.4972
 2140SOL    HW217880   1.444   1.565  11.762  0.0012  1.7451 -0.2388
 2141SOL     OW17881   4.092   4.269   7.100  0.6612 -0.0227  0.1451
 2141SOL    HW117882   4.079   4.196   7.038  0.0312 -1.5014  2.0317
 2141SOL    HW217883   4.016   4.326   7.088  0.4708  0.3134  2.9569
 2142SOL     OW17884   0.400   1.844   8.406 -0.0620  0.4047  0.4709
 2142SOL    HW117885   0.371   1.753   8.408  1.4349 -0.0718  0.9842
 2142SOL    HW217886   0.351   1.885   8.335  2.0631  1.8029 -0.1841
 2143SOL     OW17887   2.274   0.522   9.278  0.6980  0.3712  0.0774
 2143SOL    HW117888   2.285   0.590   9.212  3.4023  0.1101  0.2529
 2143SOL    HW217889   2.194   0.553   9.320 -0.1019 -1.0987 -0.3537
 2144SOL     OW17890   0.960   1.600   6.429 -0.0154 -0.2742  0.1580
 2144SOL    HW117891   1.001   1.524   6.471 -0.7176 -0.6038  0.2402
 2144SOL    HW217892   1.023   1.613   6.357 -1.3957  1.5467 -0.7439
 2145SOL     OW17893   1.665   4.719   5.182 -0.3669  0.3815  0.2917
 2145SOL    HW117894   1.689   0.051   5.107  0.5939 -0.5683 -0.0958
 2145SOL    HW217895   1.699   4.632   5.156  0.4436  0.7722  0.0280
 2146SOL     OW17896   2.978   4.195   3.245  0.0665 -0.1761 -0.0805
 2146SOL    HW117897   2.941   4.118   3.202 -4.0492  1.5795  0.3704
 2146SOL    HW217898   2.912   4.262   3.226 -0.0767  0.2029  1.7398
 2147SOL     OW17899   3.585   0.663   6.602 -0.0136 -0.2738 -0.8611
 2147SOL    HW117900   3.536   0.584   6.627 -1.5376  0.8417 -0.3343
 2147SOL    HW217901   3.557   0.715   6.678  0.2934 -3.1285  1.2092
 2148SOL     OW17902   4.237   0.093   2.220 -0.0582 -0.2544  0.3495
 2148SOL    HW117903   4.258   0.116   2.130 -4.0855  0.1888 -0.4683
 2148SOL    HW217904   4.319   0.117   2.264 -1.0881 -0.6120  2.5056
 2149SOL     OW17905   4.331   4.039  17.097  0.0359 -0.4551  0.3064
 2149SOL    HW117906   4.247   4.079  17.119 -1.1314 -2.2508 -0.9186
 2149SOL    HW217907   4.377   4.111  17.141  0.5894 -1.0654  0.7391
 2150SOL     OW17908   4.091   3.532   3.594 -0.5020 -0.6530 -0.5312
 2150SOL    HW117909   4.096   3.466   3.525  1.7948  1.1911 -2.1190
 2150SOL    HW217910   4.006   3.509   3.633 -0.4026  0.7682  0.4965
 2151SOL     OW17911   0.090   3.158   2.640 -0.1737 -0.0631  0.3702
 2151SOL    HW117912   0.086   3.200   2.555  1.4652  1.6622  1.1454
 2151SOL    HW217913   0.172   3.204   2.661 -1.2310  2.2035 -0.5819
 2152SOL     OW17914   0.081   1.109   2.049  0.2429 -0.8295  0.6083
 2152SOL    HW117915   0.112   1.029   2.006 -0.4258 -0.8566  0.1834
 2152SOL    HW217916   0.021   1.146   1.984 -0.5092  0.8603  2.2678
 2153SOL     OW17917   3.490   0.918   4.055  0.5306 -0.5482  0.2344
 2153SOL    HW117918   3.540   0.869   4.121 -0.3408 -0.6764  0.8183
 2153SOL    HW217919   3.421   0.854   4.035  0.3931 -0.3097 -0.0417
 2154SOL     OW17920   2.754   4.321  17.461  0.3860  0.7813  0.8157
 2154SOL    HW117921   2.846   4.315  17.433 -0.0521 -0.6719 -0.3089
 2154SOL    HW217922   2.719   4.241  17.499  1.2107  0.9403  1.8879
 2155SOL     OW17923   3.474   2.550  14.661 -0.1293  0.1313  0.4888
 2155SOL    HW117924   3.566   2.568  14.680  0.0376  1.1212 -1.2606
 2155SOL    HW217925   3.454   2.625  14.605 -0.7233  0.1192  0.6809
 2156SOL     OW17926   2.433   0.375   0.575 -0.0191  1.1652  0.2413
 2156SOL    HW117927   2.529   0.374   0.569  0.1208  0.9150  2.5740
 2156SOL    HW217928   2.403   0.390   0.486 -1.3999 -3.5898 -0.1034
 2157SOL     OW17929   3.820   2.745   5.366  0.0284  0.2474 -0.1257
 2157SOL    HW117930   3.756   2.721   5.434 -0.0812  0.3884 -0.1806
 2157SOL    HW217931   3.757   2.752   5.294 -0.7677  0.7752  0.6172
 2158SOL     OW17932   3.545   2.230  10.485 -0.2752  0.2959 -0.1259
 2158SOL    HW117933   3.455   2.255  10.461 -0.7586  1.8468  3.2573
 2158SOL    HW217934   3.579   2.189  10.405 -1.3788 -1.3033  0.2067
 2159SOL     OW17935   1.352   0.715   4.450  0.1741  0.1229 -0.1524
 2159SOL    HW117936   1.395   0.758   4.376 -0.4951  1.9730  0.5207
 2159SOL    HW217937   1.332   0.784   4.513 -1.2920 -0.5895  0.1550
 2160SOL     OW17938   0.357   0.394   6.267  0.3256  0.1914  0.4930
 2160SOL    HW117939   0.268   0.389   6.300 -0.4059 -0.5479 -1.5672
 2160SOL    HW217940   0.403   0.429   6.343 -1.0763  1.5692  0.6880
 2161SOL     OW17941   2.116   0.110   1.849 -0.2944  0.2892  0.5410
 2161SOL    HW117942   2.147   0.021   1.833 -0.3497  0.3160  0.2889
 2161SOL    HW217943   2.189   0.168   1.832 -0.2116  0.1266  0.3424
 2162SOL     OW17944   0.750   0.763   7.660  0.6600  0.0009 -0.0194
 2162SOL    HW117945   0.778   0.672   7.655  2.3909  0.6166 -2.0439
 2162SOL    HW217946   0.828   0.799   7.703  0.8677 -0.0911 -0.3141
 2163SOL     OW17947   0.718   3.525   7.965  0.3877  0.3077 -0.4017
 2163SOL    HW117948   0.721   3.613   8.003  0.8111  0.6538 -1.2365
 2163SOL    HW217949   0.789   3.479   8.010  0.0790 -0.3430 -0.5817
 2164SOL     OW17950   2.639   3.125   2.311  0.1985 -0.3329 -0.4494
 2164SOL    HW117951   2.586   3.046   2.323  1.1778 -1.0585 -0.8381
 2164SOL    HW217952   2.598   3.181   2.377 -1.0816 -0.0617 -1.4688
 2165SOL     OW17953   3.748   0.971  11.589  0.1231 -0.2270  0.1123
 2165SOL    HW117954   3.699   0.897  11.625 -0.4551  0.5653  0.9707
 2165SOL    HW217955   3.796   0.925  11.521 -0.2940  0.2291 -0.4921
 2166SOL     OW17956   1.170   2.945   4.730 -0.1080  0.0953 -0.0428
 2166SOL    HW117957   1.165   2.850   4.726  1.1527  0.1198 -1.7242
 2166SOL    HW217958   1.199   2.975   4.644 -0.7492  1.0620  0.0667
 2167SOL     OW17959   1.627   0.081  10.155 -0.3735  0.0831  0.6241
 2167SOL    HW117960   1.567   0.155  10.146  1.4234  1.3284 -1.1127
 2167SOL    HW217961   1.571   0.005  10.171  0.4147 -1.0900 -2.1738
 2168SOL     OW17962   2.013   2.546   0.842 -0.4109  0.0183 -0.1170
 2168SOL    HW117963   2.066   2.510   0.912  0.4806 -0.0893 -0.8547
 2168SOL    HW217964   2.043   2.636   0.852 -1.7752  0.3628  0.9105
 2169SOL     OW17965   0.664   3.102   1.806  0.3588 -0.1187 -0.0078
 2169SOL    HW117966   0.682   3.195   1.789  2.1368 -0.9522 -2.5692
 2169SOL    HW217967   0.740   3.081   1.861  0.1196 -0.0985  0.3282
 2170SOL     OW17968   1.548   4.576   0.764  0.1573 -0.0903  0.4109
 2170SOL    HW117969   1.459   4.600   0.740  1.0458 -0.5397 -3.2597
 2170SOL    HW217970   1.586   4.664   0.766  0.7408 -0.3440  0.3597
 2171SOL     OW17971   3.791   0.778   6.897  0.5630 -0.3058  0.3884
 2171SOL    HW117972   3.775   0.687   6.921  2.1463 -1.0278 -1.3121
 2171SOL    HW217973   3.834   0.773   6.812 -0.6381 -0.4610 -0.2108
 2172SOL     OW17974   0.118   2.730  13.864 -0.4591  0.2370 -0.2297
 2172SOL    HW117975   0.031   2.762  13.840  0.6473  1.8031 -2.1629
 2172SOL    HW217976   0.143   2.794  13.931  1.0523 -0.6910  0.0995
 2173SOL     OW17977   3.799   4.053  12.291  0.8595  0.0703  0.2928
 2173SOL    HW117978   3.850   4.037  12.211  1.1523  0.9017  0.3189
 2173SOL    HW217979   3.762   3.965  12.301 -1.9358  1.3986  1.8148
 2174SOL     OW17980   4.615   4.100   4.328  0.4511  0.1688  0.0357
 2174SOL    HW117981   4.612   4.099   4.233  0.5029 -1.4285  0.0470
 2174SOL    HW217982   4.579   4.016   4.358 -0.9869  1.0611  0.7949
 2175SOL     OW17983   0.242   2.077   2.356  0.0746  0.3070  0.0812
 2175SOL    HW117984   0.169   2.028   2.394 -0.6615  0.9386 -0.5114
 2175SOL    HW217985   0.310   2.015   2.381 -1.7228 -1.5065  0.4622
 2176SOL     OW17986   1.735   3.704  15.586 -0.0674 -0.4417  0.6637
 2176SOL    HW117987   1.741   3.715  15.492 -0.5764 -0.6540  0.6034
 2176SOL    HW217988   1.828   3.717  15.603  0.3902 -1.4515 -1.0552
 2177SOL     OW17989   0.404   4.628   3.361 -0.4167  0.7928 -0.1890
 2177SOL    HW117990   0.474   4.564   3.354 -0.0712  1.1076  0.3455
 2177SOL    HW217991   0.422   4.678   3.282  3.3175  0.7158  0.6187
 2178SOL     OW17992   2.639   2.465  16.357 -0.4086 -0.1779 -0.8135
 2178SOL    HW117993   2.568   2.469  16.293 -1.8013  2.9312  0.9394
 2178SOL    HW217994   2.600   2.500  16.437  0.6436 -1.2810  0.1756
 2179SOL     OW17995   0.415   1.047   3.564 -0.2408  0.2048  0.2529
 2179SOL    HW117996   0.328   1.016   3.540 -0.2344  0.4018 -0.0186
 2179SOL    HW217997   0.391   1.099   3.641 -1.9850  1.2873 -1.0233
 2180SOL     OW17998   1.928   0.997  10.971  0.4336  0.3543  0.4755
 2180SOL    HW117999   1.969   1.071  11.016  0.4885 -0.6499  2.0483
 2180SOL    HW218000   1.948   1.018  10.880  1.7799 -0.4154  0.5923
 2181SOL     OW18001   4.652   4.491   2.337  0.0920 -1.0816 -0.2540
 2181SOL    HW118002   4.568   4.514   2.377  1.2895  2.1939  0.3726
 2181SOL    HW218003   4.641   4.503   2.242 -1.5079 -0.6018 -0.0074
 2182SOL     OW18004   4.092   2.416   3.079 -0.2335  0.2717  0.7720
 2182SOL    HW118005   4.123   2.329   3.057  2.8193  2.0007 -1.6368
 2182SOL    HW218006   4.110   2.428   3.172  1.1170  1.5027  0.3481
 2183SOL     OW18007   0.060   3.224   6.386 -0.2971 -0.1276 -0.6609
 2183SOL    HW118008   4.722   3.253   6.455  0.4768  0.5486 -0.2625
 2183SOL    HW218009   0.146   3.230   6.428 -0.8366  1.4508  0.2171
 2184SOL     OW18010   1.238   2.655   1.537  0.8900 -0.0090  0.0877
 2184SOL    HW118011   1.329   2.647   1.566  0.4219  2.3112  2.1368
 2184SOL    HW218012   1.187   2.638   1.616  2.1568 -2.1887  0.4368
 2185SOL     OW18013   2.466   2.349   0.833 -0.3246 -0.1925 -0.1776
 2185SOL    HW118014   2.540   2.292   0.855  0.7077  1.7337  1.3872
 2185SOL    HW218015   2.403   2.285   0.801 -0.5837  0.8020 -1.6358
 2186SOL     OW18016   0.469   2.204   4.135 -0.1053  0.6814  0.5024
 2186SOL    HW118017   0.551   2.162   4.109 -0.7440 -0.3601  0.1438
 2186SOL    HW218018   0.407   2.147   4.089 -0.6891  1.7482 -0.0176
 2187SOL     OW18019   0.134   2.719   5.272 -0.3584  0.8188 -0.0956
 2187SOL    HW118020   0.149   2.805   5.232 -1.4943  1.2388  0.3534
 2187SOL    HW218021   0.140   2.744   5.365 -2.9043 -0.4577  0.4032
 2188SOL     OW18022   1.430   3.525   2.437 -0.0344  0.4630 -0.1543
 2188SOL    HW118023   1.365   3.539   2.367 -0.6822 -0.8469  0.1907
 2188SOL    HW218024   1.511   3.498   2.395 -0.3202 -0.3033 -0.2039
 2189SOL     OW18025   0.837   3.303  10.567  0.3621  0.4012  0.3784
 2189SOL    HW118026   0.770   3.347  10.514 -1.0701 -1.9193  0.2549
 2189SOL    HW218027   0.911   3.312  10.507  0.7755 -1.1025  0.6513
 2190SOL     OW18028   4.581   2.650   8.633  0.3400 -0.8799 -0.1080
 2190SOL    HW118029   4.578   2.687   8.545 -1.1492  1.3981  0.9048
 2190SOL    HW218030   4.666   2.683   8.663 -0.4195  0.0219  1.0069
 2191SOL     OW18031   4.366   0.629   7.446 -0.1566  0.0595  0.6521
 2191SOL    HW118032   4.441   0.673   7.405  0.5488  0.0410  1.9344
 2191SOL    HW218033   4.380   0.664   7.534  0.7838  1.6462 -0.1121
 2192SOL     OW18034   2.854   0.633   0.275  0.4599 -0.9761 -0.3739
 2192SOL    HW118035   2.779   0.575   0.291 -0.4456  0.5714  0.9263
 2192SOL    HW218036   2.890   0.620   0.187  1.3034 -2.2910  0.1799
 2193SOL     OW18037   0.204   1.026   9.262 -0.0081  0.1626  0.6368
 2193SOL    HW118038   0.172   1.097   9.208  2.7816  0.3778 -0.7483
 2193SOL    HW218039   0.210   1.072   9.346  0.3171 -0.3263  0.8887
 2194SOL     OW18040   1.307   1.718   5.325 -0.6034 -0.1123 -0.4929
 2194SOL    HW118041   1.217   1.686   5.329 -1.0052  0.8316 -1.9208
 2194SOL    HW218042   1.316   1.739   5.418 -0.6436 -0.9642 -0.2972
 2195SOL     OW18043   2.564   4.032   8.507 -0.6220  0.5276  0.1043
 2195SOL    HW118044   2.618   4.108   8.489 -0.8072  0.7483  0.4771
 2195SOL    HW218045   2.479   4.072   8.525  0.4642  3.0236 -0.2990
 2196SOL     OW18046   3.966   4.513   5.186 -0.1367 -0.8395 -0.3161
 2196SOL    HW118047   3.892   4.461   5.154 -0.6389 -1.4405  1.8345
 2196SOL    HW218048   3.993   4.564   5.109  0.8459 -1.5319 -0.4375
 2197SOL     OW18049   1.053   1.985   5.192 -0.4632 -0.4399  0.4632
 2197SOL    HW118050   1.074   1.947   5.107 -1.1845 -0.3833  0.2639
 2197SOL    HW218051   0.972   1.935   5.205 -0.8168  0.1882  0.6726
 2198SOL     OW18052   1.703   2.039   5.563  0.1132 -0.5824  0.3764
 2198SOL    HW118053   1.724   2.102   5.494 -0.4572 -0.9847 -0.1679
 2198SOL    HW218054   1.752   1.964   5.529  1.1917 -1.1241  3.1189
 2199SOL     OW18055   3.000   0.990   8.739 -0.9484 -0.6792 -0.7089
 2199SOL    HW118056   3.064   1.061   8.751 -0.4416 -0.8280 -2.5454
 2199SOL    HW218057   3.040   0.935   8.672 -2.1607  1.8630 -3.5491
 2200SOL     OW18058   1.298   1.490  10.468 -0.1766  0.5071 -0.0071
 2200SOL    HW118059   1.312   1.571  10.515 -0.8648  0.1279  0.8578
 2200SOL    HW218060   1.246   1.440  10.531  0.0888  1.2102  0.7658
 2201SOL     OW18061   2.380   3.671  10.692 -1.1198 -0.4212 -0.0818
 2201SOL    HW118062   2.302   3.702  10.646  0.1197  0.9310 -1.2532
 2201SOL    HW218063   2.446   3.640  10.630  0.2234  0.7895  0.7530
 2202SOL     OW18064   4.280   1.736   0.482 -0.7105 -0.2442 -0.4820
 2202SOL    HW118065   4.361   1.688   0.462  0.1173  1.0523 -0.2894
 2202SOL    HW218066   4.303   1.767   0.569  1.5628 -0.0523 -1.1259
 2203SOL     OW18067   4.358   1.267   8.430 -0.4486 -0.0661 -0.2126
 2203SOL    HW118068   4.339   1.247   8.338  1.3270  3.4764 -1.3762
 2203SOL    HW218069   4.268   1.292   8.449 -0.5340 -1.3941  1.1419
 2204SOL     OW18070   3.199   4.314   7.746 -0.2307 -0.0478 -0.5051
 2204SOL    HW118071   3.258   4.332   7.819  0.2691 -2.0225 -0.4233
 2204SOL    HW218072   3.115   4.358   7.757 -0.3818 -0.6593  0.7944
 2205SOL     OW18073   2.253   3.608   8.620  0.0750  0.2578 -0.6391
 2205SOL    HW118074   2.292   3.695   8.619  1.9784 -0.5506  1.9321
 2205SOL    HW218075   2.162   3.630   8.638 -0.2840 -0.9531 -0.9439
 2206SOL     OW18076   1.738   2.086   4.912  0.1148 -0.0785 -0.1859
 2206SOL    HW118077   1.740   2.059   5.004  1.8299 -0.4597 -0.3422
 2206SOL    HW218078   1.643   2.079   4.897 -0.1943  2.8368  0.3284
 2207SOL     OW18079   1.949   4.218  16.767 -0.0735 -0.2536  0.1892
 2207SOL    HW118080   1.891   4.294  16.778 -0.1957 -0.4401  0.8255
 2207SOL    HW218081   1.937   4.172  16.849  0.8615  1.4180  1.2518
 2208SOL     OW18082   3.348   1.939   5.702  0.9099  0.7050 -0.2374
 2208SOL    HW118083   3.383   1.903   5.784 -1.4675  0.4464  0.6475
 2208SOL    HW218084   3.323   2.023   5.741 -0.4494  0.6629 -1.0204
 2209SOL     OW18085   1.912   2.705   2.618  0.4421  0.7510  0.1923
 2209SOL    HW118086   1.891   2.652   2.695 -1.3284  0.6961 -0.3247
 2209SOL    HW218087   1.879   2.637   2.560 -2.2333  1.0192  1.4221
 2210SOL     OW18088   2.753   2.037   6.388  0.5840  0.3716 -0.8375
 2210SOL    HW118089   2.719   2.072   6.470 -0.6812 -1.4067 -0.6226
 2210SOL    HW218090   2.676   1.993   6.352  0.8495 -0.1531 -0.7532
 2211SOL     OW18091   4.720   4.263   7.434 -0.2443  0.9158 -0.2507
 2211SOL    HW118092   4.701   4.169   7.435 -0.3874  0.9705  1.7295
 2211SOL    HW218093   0.007   4.289   7.343  2.3779  0.1467 -0.1739
 2212SOL     OW18094   1.714   0.609   5.464  0.0049 -0.1266  0.5279
 2212SOL    HW118095   1.734   0.561   5.545 -1.0623  0.4493  1.1322
 2212SOL    HW218096   1.624   0.634   5.485 -0.5379 -1.1818 -0.5665
 2213SOL     OW18097   0.032   0.581   5.611 -0.2920  0.1814  0.1574
 2213SOL    HW118098   4.720   0.496   5.639  0.1560 -0.5417 -1.4560
 2213SOL    HW218099   0.071   0.612   5.693  1.6682  1.7495 -1.3771
 2214SOL     OW18100   0.530   2.816   1.942 -0.1808  0.6421  0.0397
 2214SOL    HW118101   0.556   2.768   1.863 -1.6834 -0.7288  0.3930
 2214SOL    HW218102   0.602   2.794   2.001 -1.4278 -0.6180  1.0663
 2215SOL     OW18103   4.640   3.356  15.049 -0.4187  0.3624  0.1028
 2215SOL    HW118104   4.699   3.431  15.053  0.6392 -0.4684 -0.2823
 2215SOL    HW218105   4.556   3.400  15.035  0.3242  1.9477  0.6040
 2216SOL     OW18106   0.733   3.063  13.503  0.9546  0.2753 -0.1338
 2216SOL    HW118107   0.795   3.040  13.572  1.1231 -2.3202 -1.1682
 2216SOL    HW218108   0.673   3.121  13.550 -0.6537 -2.8091  1.6070
 2217SOL     OW18109   3.927   1.760   1.320 -0.4883  0.2947 -0.1677
 2217SOL    HW118110   4.001   1.723   1.273 -0.9217 -0.2618 -0.4197
 2217SOL    HW218111   3.908   1.839   1.270  0.6965  0.5563 -0.2024
 2218SOL     OW18112   4.370   0.174  17.592 -0.0319 -0.2721  0.0407
 2218SOL    HW118113   4.351   0.175  17.685  0.9567 -0.2139  0.2410
 2218SOL    HW218114   4.281   0.152  17.563 -0.3907  1.4319 -0.1836
 2219SOL     OW18115   2.718   3.088   7.393  0.2474  0.1677  0.6053
 2219SOL    HW118116   2.781   3.159   7.406  0.7760 -0.7925  3.3435
 2219SOL    HW218117   2.722   3.032   7.470  2.1655 -0.5056  0.0231
 2220SOL     OW18118   2.790   1.333   7.981  0.5542  0.0943  0.1465
 2220SOL    HW118119   2.725   1.390   7.941 -1.2362 -0.7970  1.7654
 2220SOL    HW218120   2.726   1.266   8.005  2.0234 -0.7736  1.6468
 2221SOL     OW18121   1.395   4.070   8.616  0.6153 -0.0889 -0.0993
 2221SOL    HW118122   1.480   4.037   8.587  0.1792 -0.3542 -1.0515
 2221SOL    HW218123   1.346   3.989   8.630  0.5469  0.1228  0.9170
 2222SOL     OW18124   4.672   3.060   6.184 -0.1447 -0.4441  0.3099
 2222SOL    HW118125   4.671   3.132   6.121 -0.2559 -2.0622 -1.5285
 2222SOL    HW218126   4.696   3.093   6.271  0.8193  2.1675 -0.9604
 2223SOL     OW18127   3.170   3.552   0.459  0.3195 -0.7871  0.3510
 2223SOL    HW118128   3.212   3.501   0.528  0.4054 -0.1204  0.7858
 2223SOL    HW218129   3.158   3.480   0.397  0.8560  0.8091 -1.5864
 2224SOL     OW18130   0.626   3.092  10.433 -0.3211  1.1478 -0.1902
 2224SOL    HW118131   0.695   3.070  10.495  0.0372  0.5519 -0.7974
 2224SOL    HW218132   0.575   3.011  10.430  0.8412  0.5213 -3.2730
 2225SOL     OW18133   3.436   4.542   4.750  0.1236 -0.1660 -0.2085
 2225SOL    HW118134   3.528   4.562   4.733 -0.6417  2.8829 -0.6823
 2225SOL    HW218135   3.398   4.628   4.764 -1.4919 -1.0197  0.7292
 2226SOL     OW18136   4.525   2.616   5.835  0.8457 -0.0413 -0.1059
 2226SOL    HW118137   4.566   2.643   5.753  0.1742 -0.5165 -0.5938
 2226SOL    HW218138   4.448   2.672   5.834 -0.0067 -1.2989 -3.3822
 2227SOL     OW18139   0.708   2.095   7.637 -0.4531  0.1975 -0.2823
 2227SOL    HW118140   0.704   2.032   7.709 -1.0017  1.9181  1.1913
 2227SOL    HW218141   0.637   2.152   7.663  0.2784  2.4801 -3.2861
 2228SOL     OW18142   2.701   1.707   3.378 -0.1549  0.3442  0.1857
 2228SOL    HW118143   2.692   1.618   3.344 -1.3158 -0.1912  1.9149
 2228SOL    HW218144   2.707   1.700   3.473 -1.7570 -0.0711  0.2657
 2229SOL     OW18145   0.978   0.189   8.688 -0.4939 -0.0891  0.9561
 2229SOL    HW118146   1.019   0.273   8.666 -0.7089 -1.2233 -3.8478
 2229SOL    HW218147   1.046   0.126   8.665 -1.9692 -0.7193 -1.7519
 2230SOL     OW18148   1.055   0.262  11.153  0.0176  0.4392 -0.4237
 2230SOL    HW118149   0.984   0.293  11.210  0.6539  0.7521  0.1874
 2230SOL    HW218150   1.133   0.306  11.186  0.1360 -0.8249  0.9658
 2231SOL     OW18151   3.291   4.250  14.434  0.7953 -0.0624  0.0003
 2231SOL    HW118152   3.276   4.344  14.442 -0.6057 -0.4942  2.2890
 2231SOL    HW218153   3.378   4.242  14.474  0.7008 -2.1990 -0.2009
 2232SOL     OW18154   3.104   4.065  11.612  0.1866  0.7032  0.2399
 2232SOL    HW118155   3.120   3.978  11.647 -0.5644  0.0658 -1.0394
 2232SOL    HW218156   3.199   4.079  11.613  0.1746  0.9139 -1.8989
 2233SOL     OW18157   3.055   2.942   8.391 -0.2729  0.4488  0.0701
 2233SOL    HW118158   3.013   2.892   8.461 -1.0947  0.0913 -0.6849
 2233SOL    HW218159   3.049   2.879   8.319  1.9187 -0.0485  0.3142
 2234SOL     OW18160   3.850   1.990   3.700 -0.1276  0.1694 -0.4970
 2234SOL    HW118161   3.881   1.931   3.631 -0.2190 -1.6571  1.0372
 2234SOL    HW218162   3.929   2.015   3.747 -0.3395  0.0518 -0.0811
 2235SOL     OW18163   3.815   0.562   7.473  0.5004  0.4703  0.2606
 2235SOL    HW118164   3.791   0.519   7.555 -0.7889  0.1612 -0.2776
 2235SOL    HW218165   3.820   0.654   7.502 -0.2098  0.7429 -0.4758
 2236SOL     OW18166   1.151   1.002   6.586  0.1654 -0.0728 -0.7508
 2236SOL    HW118167   1.159   1.044   6.672  1.3894  1.4477 -1.6121
 2236SOL    HW218168   1.213   0.929   6.589 -0.4437 -0.6070 -1.2558
 2237SOL     OW18169   2.668   1.728  14.724  0.9151 -0.5593  0.4681
 2237SOL    HW118170   2.599   1.786  14.693  2.2769  0.9339  0.2083
 2237SOL    HW218171   2.730   1.791  14.762  1.9287 -0.5200 -1.2486
 2238SOL     OW18172   3.902   3.825   3.594 -0.9161 -0.3413  0.2893
 2238SOL    HW118173   3.992   3.834   3.562 -0.9095  0.4889  0.5462
 2238SOL    HW218174   3.921   3.862   3.680  1.7767 -0.1538 -0.4007
 2239SOL     OW18175   4.663   1.583   0.910 -0.4309  0.2112  0.2731
 2239SOL    HW118176   4.688   1.503   0.863 -0.2240  0.8690 -0.7491
 2239SOL    HW218177   4.571   1.583   0.881 -0.5031  0.0165  0.5035
 2240SOL     OW18178   0.252   0.150   8.402  0.0397 -0.2381  0.3484
 2240SOL    HW118179   0.214   0.074   8.446 -1.8300  0.2629 -0.4045
 2240SOL    HW218180   0.220   0.138   8.313 -1.3607 -0.2629  0.8550
 2241SOL     OW18181   2.341   1.695   6.810  0.5704 -0.3689 -0.4593
 2241SOL    HW118182   2.305   1.614   6.847 -2.4290  1.2576  0.2544
 2241SOL    HW218183   2.277   1.766   6.815  0.0373 -0.8841  0.0424
 2242SOL     OW18184   4.224   2.975  16.310 -0.0868 -0.3133 -0.9416
 2242SOL    HW118185   4.285   2.946  16.378 -0.3784  0.5145 -0.3181
 2242SOL    HW218186   4.258   2.935  16.231  1.4782 -0.4244 -0.2147
 2243SOL     OW18187   0.151   0.179  11.584  0.1111 -0.1079 -0.1080
 2243SOL    HW118188   0.077   0.238  11.601 -0.0965 -0.3844 -0.0373
 2243SOL    HW218189   0.217   0.248  11.586 -1.4220  1.3618  0.3049
 2244SOL     OW18190   3.353   4.602   5.195  0.3482 -0.0842  0.1355
 2244SOL    HW118191   3.328   4.557   5.114 -0.2084  1.6031 -0.6294
 2244SOL    HW218192   3.400   4.530   5.239 -0.9522 -0.1708  1.3974
 2245SOL     OW18193   2.570   2.675   4.480  0.1043 -0.5185 -0.2626
 2245SOL    HW118194   2.637   2.714   4.423 -0.6180  1.9423  0.5716
 2245SOL    HW218195   2.491   2.697   4.431 -0.5691  0.5765  1.3314
 2246SOL     OW18196   2.243   3.526   4.957  0.2852 -0.1660  0.0550
 2246SOL    HW118197   2.189   3.550   4.882  0.7731 -1.9781 -0.8800
 2246SOL    HW218198   2.324   3.568   4.927 -1.1276  1.4180 -1.4723
 2247SOL     OW18199   3.594   2.582   6.508 -0.0181 -0.2210  0.2111
 2247SOL    HW118200   3.500   2.564   6.502  0.0509 -0.5069 -0.0046
 2247SOL    HW218201   3.589   2.611   6.599  2.9307  3.2634 -0.7316
 2248SOL     OW18202   0.291   4.515  16.247  0.5006  0.7113  0.2036
 2248SOL    HW118203   0.196   4.515  16.258  0.4186 -0.7994 -0.5752
 2248SOL    HW218204   0.299   4.546  16.157 -2.6308  2.4269  0.4915
 2249SOL     OW18205   0.149   1.968   7.946 -0.0794 -0.3493 -0.1293
 2249SOL    HW118206   0.160   1.995   7.855  1.3448  2.7922  0.9838
 2249SOL    HW218207   0.095   1.890   7.936 -0.8707  0.6362 -3.6050
 2250SOL     OW18208   0.126   3.700   3.145  0.2711  0.5091  0.7374
 2250SOL    HW118209   0.167   3.747   3.072 -0.7733  0.6888  0.2618
 2250SOL    HW218210   0.114   3.619   3.095 -1.2085  0.0511  1.8637
 2251SOL     OW18211   0.586   3.454  10.131  0.4363  0.5455 -0.7944
 2251SOL    HW118212   0.643   3.527  10.155 -1.2469  1.5068  0.3482
 2251SOL    HW218213   0.645   3.381  10.147 -2.5185 -1.9850 -1.4377
 2252SOL     OW18214   2.175   0.824  16.102  0.1908  0.8017 -0.2358
 2252SOL    HW118215   2.148   0.810  16.011  0.5719  0.3979 -0.2863
 2252SOL    HW218216   2.257   0.872  16.115  1.5719 -1.5658 -0.2274
 2253SOL     OW18217   2.234   1.278   4.752  0.1045  0.5049 -0.0827
 2253SOL    HW118218   2.217   1.196   4.798 -1.0781  0.3043 -0.8531
 2253SOL    HW218219   2.173   1.277   4.678 -0.3758 -1.4609  0.3343
 2254SOL     OW18220   0.466   4.464   8.597 -0.2526  0.0262 -0.0819
 2254SOL    HW118221   0.409   4.536   8.567 -0.1947  0.6503  1.3289
 2254SOL    HW218222   0.497   4.441   8.509 -2.8613 -0.9359 -0.7574
 2255SOL     OW18223   2.949   1.555   5.885  0.3707 -0.5104 -0.0911
 2255SOL    HW118224   2.930   1.611   5.960 -1.9283 -0.2812 -0.8549
 2255SOL    HW218225   2.904   1.473   5.903 -0.3839  0.1888  1.1970
 2256SOL     OW18226   3.426   1.297   3.395  0.0450 -0.4849 -0.3697
 2256SOL    HW118227   3.440   1.259   3.482 -2.0846  1.7679  0.9589
 2256SOL    HW218228   3.495   1.363   3.399 -2.8364  2.4889 -0.7976
 2257SOL     OW18229   2.706   0.777   6.569  0.9794 -0.1206 -0.8955
 2257SOL    HW118230   2.617   0.810   6.554  0.7417 -0.5214 -0.3723
 2257SOL    HW218231   2.689   0.714   6.639  1.7704  0.6682  0.0035
 2258SOL     OW18232   1.298   1.807   2.757 -0.0429 -0.2899  0.6907
 2258SOL    HW118233   1.295   1.714   2.732 -0.1225 -0.0562 -0.1468
 2258SOL    HW218234   1.239   1.834   2.688  1.8557  1.4387 -0.2614
 2259SOL     OW18235   4.346   2.360   3.465  0.0343  0.5429 -0.1243
 2259SOL    HW118236   4.421   2.411   3.432  1.1229 -2.0079 -1.5285
 2259SOL    HW218237   4.382   2.344   3.552  0.1675  1.6514  0.0266
 2260SOL     OW18238   1.020   2.490   3.954 -0.3198 -0.1540 -0.2154
 2260SOL    HW118239   1.068   2.431   4.013 -1.4224 -0.1892  0.6360
 2260SOL    HW218240   1.046   2.572   3.997  1.7256 -1.3621  0.8803
 2261SOL     OW18241   2.076   0.472   8.242 -0.4641 -0.3787 -0.0562
 2261SOL    HW118242   2.148   0.450   8.301 -1.5896 -2.7202  0.4619
 2261SOL    HW218243   2.012   0.499   8.308  0.5857 -0.0424  0.8241
 2262SOL     OW18244   2.102   1.752   8.447  0.0105 -0.4354 -0.0872
 2262SOL    HW118245   2.146   1.746   8.531  1.2778 -0.2202 -0.7351
 2262SOL    HW218246   2.016   1.790   8.468  1.2294  1.3677  1.5868
 2263SOL     OW18247   3.393   1.085   2.341  0.1611 -0.2239  0.1765
 2263SOL    HW118248   3.472   1.101   2.290 -0.6364  1.4557 -0.5167
 2263SOL    HW218249   3.367   0.996   2.316  1.9041 -0.7573  0.2901
 2264SOL     OW18250   4.264   3.907  17.338 -0.1684 -0.1860  0.6163
 2264SOL    HW118251   4.202   3.980  17.331 -1.0381 -1.0676 -0.8444
 2264SOL    HW218252   4.312   3.913  17.255 -2.6878 -0.4805 -0.8796
 2265SOL     OW18253   2.508   3.339   2.032 -0.1745 -0.4253 -0.0088
 2265SOL    HW118254   2.473   3.293   2.108  1.6564 -0.7052  0.6671
 2265SOL    HW218255   2.478   3.428   2.053 -1.3356 -0.9298  0.4493
 2266SOL     OW18256   2.005   0.004   8.991  0.1894  0.2862  0.4130
 2266SOL    HW118257   1.940   4.696   9.055  0.4958  0.6484  0.8976
 2266SOL    HW218258   2.089   4.713   9.035  0.7850  0.3565 -0.7093
 2267SOL     OW18259   4.433   4.430   4.633 -0.3007  0.8620 -0.7067
 2267SOL    HW118260   4.344   4.411   4.602 -0.8630 -0.8233  1.9692
 2267SOL    HW218261   4.458   4.511   4.589  1.8847  0.3398 -0.3796
 2268SOL     OW18262   1.288   4.685  10.693 -0.4592 -0.7541 -0.0291
 2268SOL    HW118263   1.246   4.645  10.769 -0.2758  0.2580  0.6094
 2268SOL    HW218264   1.250   4.625  10.628 -1.8502  0.0641  0.0167
 2269SOL     OW18265   3.442   0.057   8.811  0.4150  0.0348  0.2792
 2269SOL    HW118266   3.509   0.110   8.855  0.8726  1.1802 -1.7987
 2269SOL    HW218267   3.395   0.012   8.881  0.4135 -2.1742 -1.1324
 2270SOL     OW18268   1.610   2.607  14.127 -0.0593 -0.0086  0.3726
 2270SOL    HW118269   1.575   2.533  14.177  0.1989 -0.2514  0.1926
 2270SOL    HW218270   1.643   2.668  14.192  0.8944 -0.8857  0.7045
 2271SOL     OW18271   1.531   0.068  16.021 -0.2046 -0.0856  0.7005
 2271SOL    HW118272   1.608   0.090  15.968  1.0179 -1.8934  1.7124
 2271SOL    HW218273   1.502   0.152  16.055  0.2641  0.6022 -0.5716
 2272SOL     OW18274   0.111   2.790   8.788  0.2177  0.1213 -0.4080
 2272SOL    HW118275   0.200   2.754   8.790 -0.2548 -1.0654 -0.4088
 2272SOL    HW218276   0.079   2.778   8.877 -0.8074  1.5587 -0.5768
 2273SOL     OW18277   1.597   0.953  14.525  0.5662 -0.2787  0.1571
 2273SOL    HW118278   1.670   0.915  14.475 -0.6094 -1.7801 -0.4157
 2273SOL    HW218279   1.603   0.880  14.586 -0.7442 -0.1257  0.4611
 2274SOL     OW18280   0.762   2.005   3.064 -0.4504  0.1272 -0.1436
 2274SOL    HW118281   0.761   1.937   2.997  1.2415  0.5667 -0.6075
 2274SOL    HW218282   0.833   1.971   3.119 -0.8849 -0.6641 -0.0673
 2275SOL     OW18283   1.359   3.156   1.607 -0.0601  0.1569 -0.4762
 2275SOL    HW118284   1.284   3.106   1.575 -1.0746  1.5849 -0.3608
 2275SOL    HW218285   1.359   3.242   1.565 -0.0229  0.0660 -0.6621
 2276SOL     OW18286   3.814   2.463   8.696 -0.3257 -0.7786  0.3249
 2276SOL    HW118287   3.770   2.487   8.778 -3.1182 -2.6160 -0.6140
 2276SOL    HW218288   3.897   2.506   8.715  0.7133 -3.2231  1.2332
 2277SOL     OW18289   0.386   4.303   8.920 -0.2660 -0.1060  0.5945
 2277SOL    HW118290   0.417   4.265   8.838 -0.2426  0.4447  0.3523
 2277SOL    HW218291   0.464   4.335   8.966  0.5463  0.8975 -1.4680
 2278SOL     OW18292   3.324   1.203   4.517  0.5871  0.0458 -0.1508
 2278SOL    HW118293   3.356   1.221   4.428 -2.0539  0.2313 -1.0743
 2278SOL    HW218294   3.387   1.133   4.534  1.3452  1.1535  1.5962
 2279SOL     OW18295   1.553   2.365   7.529 -0.1551  0.2566 -0.6973
 2279SOL    HW118296   1.481   2.330   7.581 -0.7813  2.2812 -0.2150
 2279SOL    HW218297   1.629   2.333   7.578 -0.1178 -1.0758 -1.6245
 2280SOL     OW18298   1.458   4.359   7.678  0.0306 -0.0159  0.7492
 2280SOL    HW118299   1.487   4.422   7.612  1.9048 -1.1961  0.4413
 2280SOL    HW218300   1.420   4.413   7.748 -1.7777 -1.8105  1.1661
 2281SOL     OW18301   2.612   1.767   5.655  0.3493 -0.2041  0.0457
 2281SOL    HW118302   2.643   1.850   5.619  2.0547 -0.3154  1.2579
 2281SOL    HW218303   2.688   1.711   5.639 -0.4556 -0.9868 -1.0094
 2282SOL     OW18304   3.682   0.987   8.800  0.4438 -0.2598 -1.4512
 2282SOL    HW118305   3.700   0.951   8.887 -2.1508  0.6584 -0.5508
 2282SOL    HW218306   3.612   1.047   8.825  1.4558 -0.5256  2.1018
 2283SOL     OW18307   0.837   0.079   5.853 -0.2777  0.1072 -0.2016
 2283SOL    HW118308   0.818   0.124   5.770 -0.6046  1.2431  0.4894
 2283SOL    HW218309   0.910   0.136   5.875 -0.3015 -0.2415  0.7870
 2284SOL     OW18310   0.271   4.179  11.693  0.2207  0.4939  0.3631
 2284SOL    HW118311   0.309   4.106  11.743 -1.0936  0.0445  0.6986
 2284SOL    HW218312   0.349   4.215  11.650  1.2959 -2.5312 -0.1949
 2285SOL     OW18313   4.503   1.172   7.593  0.4589  0.4246  0.1242
 2285SOL    HW118314   4.525   1.241   7.531 -0.1152  0.6513  0.1692
 2285SOL    HW218315   4.587   1.126   7.590 -0.6413 -1.4297 -2.5062
 2286SOL     OW18316   0.935   0.103   5.505  0.4626  0.5079  0.2741
 2286SOL    HW118317   1.004   0.086   5.441 -0.2960  1.7518 -0.8835
 2286SOL    HW218318   0.939   0.025   5.560  0.0487 -0.9268 -1.7516
 2287SOL     OW18319   4.333   3.358   4.115  0.1208  0.4731 -0.4843
 2287SOL    HW118320   4.366   3.307   4.040  0.0984 -0.8204  0.3791
 2287SOL    HW218321   4.359   3.308   4.192 -0.6338  2.9666  1.3587
 2288SOL     OW18322   1.030   3.896   3.618 -0.6488  0.2489  0.4940
 2288SOL    HW118323   1.060   3.984   3.595 -2.2810  0.9047  0.8688
 2288SOL    HW218324   0.954   3.896   3.559  0.2215  0.7192 -0.6300
 2289SOL     OW18325   1.855   2.424  10.444 -0.7689  0.0669 -0.1824
 2289SOL    HW118326   1.802   2.501  10.426  0.3174  0.4593 -1.7692
 2289SOL    HW218327   1.786   2.361  10.465  0.0678 -1.1294 -0.9981
 2290SOL     OW18328   1.528   1.643   8.743 -0.0899 -0.2829 -0.1067
 2290SOL    HW118329   1.610   1.692   8.739  0.5518 -1.3573 -0.1981
 2290SOL    HW218330   1.552   1.551   8.753  1.1241  0.1006  0.4150
 2291SOL     OW18331   1.305   1.273  10.047 -0.5348  0.1796  0.0011
 2291SOL    HW118332   1.273   1.354  10.006 -0.5352 -0.3162 -0.9824
 2291SOL    HW218333   1.392   1.274  10.006  0.0100 -0.3810  1.1530
 2292SOL     OW18334   0.171   4.388   9.290 -0.1615  0.0132  0.4754
 2292SOL    HW118335   0.219   4.317   9.333 -0.2050 -0.4611 -0.2562
 2292SOL    HW218336   0.084   4.362   9.321 -0.5360  0.8861  0.1300
 2293SOL     OW18337   2.107   2.689   6.781 -0.0025  0.5132  0.2992
 2293SOL    HW118338   2.186   2.740   6.794  0.3429  0.1053 -0.1963
 2293SOL    HW218339   2.116   2.658   6.690  3.8667  0.6855  0.6455
 2294SOL     OW18340   2.931   1.144  16.706  0.8320 -0.8332  0.1851
 2294SOL    HW118341   2.981   1.076  16.752 -0.4109 -0.7264  1.7042
 2294SOL    HW218342   2.895   1.181  16.787 -1.0533 -1.3522 -0.4189
 2295SOL     OW18343   3.623   4.341  16.662 -0.4745  0.0476 -0.2567
 2295SOL    HW118344   3.710   4.380  16.648 -0.4633  0.1339  0.0764
 2295SOL    HW218345   3.569   4.390  16.601  0.0386  1.1603  0.1803
 2296SOL     OW18346   4.111   3.996  13.761  0.2439  0.3511  0.5110
 2296SOL    HW118347   4.028   3.950  13.756  0.4376  0.1478 -0.6976
 2296SOL    HW218348   4.070   4.078  13.733  2.6138  0.2733 -3.1332
 2297SOL     OW18349   3.831   0.075  15.459 -0.5002  0.1599  0.1886
 2297SOL    HW118350   3.891   0.057  15.531 -1.4229 -1.0297  0.6592
 2297SOL    HW218351   3.789   4.711  15.453 -0.4889  0.1959 -0.4280
 2298SOL     OW18352   0.341   0.573   2.884  0.3194  0.8595 -0.3067
 2298SOL    HW118353   0.292   0.647   2.848 -1.2533 -0.0011  0.0945
 2298SOL    HW218354   0.432   0.600   2.867  0.7220  0.6271  1.5362
 2299SOL     OW18355   1.149   3.601   9.002  0.6528  0.2214  0.0495
 2299SOL    HW118356   1.214   3.671   9.010  1.6787 -0.4484 -2.2484
 2299SOL    HW218357   1.091   3.638   9.069 -1.3714 -3.1630  0.1588
 2300SOL     OW18358   0.904   0.991   1.919  0.3951  0.8395 -0.5743
 2300SOL    HW118359   0.969   0.978   1.849  0.7338  1.9890 -0.4698
 2300SOL    HW218360   0.825   0.983   1.866  0.3233 -0.7428 -0.2147
 2301SOL     OW18361   2.141   4.482   8.611  0.0418 -0.3623  0.3845
 2301SOL    HW118362   2.109   4.392   8.607 -0.2858 -0.3959  3.6870
 2301SOL    HW218363   2.094   4.517   8.535  2.4192  0.1061 -0.8680
 2302SOL     OW18364   2.138   3.824  11.676 -0.5497 -0.2596 -0.2727
 2302SOL    HW118365   2.230   3.810  11.702 -0.8251  1.2154  1.5157
 2302SOL    HW218366   2.150   3.861  11.588  0.5954  0.5799  0.2297
 2303SOL     OW18367   2.953   0.359   7.463 -0.3043  0.3070 -0.3638
 2303SOL    HW118368   2.931   0.424   7.530  2.0908  0.9096 -0.1629
 2303SOL    HW218369   2.898   0.288   7.497  3.1463 -1.5749  1.3009
 2304SOL     OW18370   0.892   3.973   8.395  0.1046  0.2545 -0.7147
 2304SOL    HW118371   0.909   4.046   8.336 -0.9686  2.2579  1.4721
 2304SOL    HW218372   0.796   3.976   8.394  0.1035  0.1483 -1.1542
 2305SOL     OW18373   3.565   3.318   2.619 -0.5288 -0.5730  0.4840
 2305SOL    HW118374   3.641   3.296   2.564 -1.4298 -0.9689 -0.6021
 2305SOL    HW218375   3.575   3.267   2.699  0.9105  0.3888  0.9216
 2306SOL     OW18376   2.997   0.370   3.425  0.4460  0.1349 -0.6965
 2306SOL    HW118377   2.903   0.362   3.406 -0.0905  2.6398  0.8147
 2306SOL    HW218378   3.017   0.448   3.373 -0.4665  0.2639 -0.8606
 2307SOL     OW18379   4.427   3.478   5.555 -0.0191  0.0471  0.5651
 2307SOL    HW118380   4.521   3.500   5.559 -0.0352  0.0988  0.6854
 2307SOL    HW218381   4.431   3.404   5.496 -5.2027 -1.3181  1.9473
 2308SOL     OW18382   0.069   2.861   3.140  0.3833 -0.2830 -0.2952
 2308SOL    HW118383   0.102   2.851   3.051  0.3409  0.0546 -0.3514
 2308SOL    HW218384   0.150   2.848   3.190  0.9053 -1.2923 -1.4135
 2309SOL     OW18385   4.671   1.504   6.968 -0.1245 -0.7782 -0.1858
 2309SOL    HW118386   4.704   1.481   7.055 -0.3674  0.6312  0.2810
 2309SOL    HW218387   0.013   1.472   6.905  0.8214 -0.9946  0.8960
 2310SOL     OW18388   3.758   0.637   5.000 -0.1783  0.1800  0.4440
 2310SOL    HW118389   3.697   0.674   5.063 -1.9394  0.9169 -1.6772
 2310SOL    HW218390   3.828   0.702   5.012  0.8522 -0.8668  0.0931
 2311SOL     OW18391   4.510   3.595   6.853 -0.3458 -0.5095  0.2674
 2311SOL    HW118392   4.534   3.657   6.922 -0.7042 -1.0332  0.8569
 2311SOL    HW218393   4.514   3.506   6.886 -1.1272 -0.2310  1.1334
 2312SOL     OW18394   3.307   2.668  13.623 -0.0709 -0.1839 -0.1345
 2312SOL    HW118395   3.335   2.750  13.665 -1.4694 -0.2356  0.9035
 2312SOL    HW218396   3.230   2.694  13.573 -1.8373 -1.3960  1.9688
 2313SOL     OW18397   4.413   0.573   6.603  0.2597  0.2672 -0.6636
 2313SOL    HW118398   4.350   0.513   6.642  1.1497 -0.2967 -0.0774
 2313SOL    HW218399   4.492   0.519   6.613  1.2883  2.0842  1.2297
 2314SOL     OW18400   3.476   1.449   6.275 -0.2797  0.1909 -0.4983
 2314SOL    HW118401   3.458   1.419   6.364 -0.5760  0.8177 -0.3467
 2314SOL    HW218402   3.521   1.370   6.243 -0.6187 -0.7927  1.4447
 2315SOL     OW18403   0.963   1.752   5.525  0.3096  0.3386  0.4311
 2315SOL    HW118404   0.920   1.835   5.543 -0.7453  0.1641 -1.2843
 2315SOL    HW218405   1.054   1.779   5.538  0.0807  2.5134 -2.3059
 2316SOL     OW18406   3.485   4.313   9.160 -0.2216  0.6632  0.5417
 2316SOL    HW118407   3.409   4.370   9.148  0.8024  2.0447  0.6443
 2316SOL    HW218408   3.449   4.233   9.122  1.2012  0.4197 -0.2857
 2317SOL     OW18409   1.960   0.422   4.909  0.0615  0.0277  0.2249
 2317SOL    HW118410   1.916   0.378   4.835 -1.5100  0.7127  0.7624
 2317SOL    HW218411   1.886   0.458   4.957  0.3046  3.2897 -1.8763
 2318SOL     OW18412   1.797   1.155   9.538  0.2630  0.1947 -0.1244
 2318SOL    HW118413   1.834   1.113   9.615 -1.5871 -0.5612  0.3547
 2318SOL    HW218414   1.843   1.237   9.521  1.6770 -0.6291 -0.2344
 2319SOL     OW18415   2.227   1.152   2.262 -0.2427  0.3802 -0.0112
 2319SOL    HW118416   2.159   1.218   2.261 -0.3837  0.2388  0.3163
 2319SOL    HW218417   2.245   1.122   2.351 -0.7713 -0.7085 -0.2755
 2320SOL     OW18418   4.605   2.619   4.050 -0.7842  0.6723  0.0929
 2320SOL    HW118419   4.669   2.564   4.003  0.5749  0.5736  2.0851
 2320SOL    HW218420   4.650   2.703   4.044 -0.4551  0.4179 -1.0057
 2321SOL     OW18421   1.680   3.000  16.946 -0.2649 -0.0924 -0.0215
 2321SOL    HW118422   1.666   2.934  16.878  0.9017  1.4412 -1.7600
 2321SOL    HW218423   1.596   3.042  16.964 -0.3260 -0.7102  1.1033
 2322SOL     OW18424   2.334   1.247  10.784 -0.3651 -0.1315 -0.4603
 2322SOL    HW118425   2.296   1.178  10.729  0.8479 -1.3840  0.2637
 2322SOL    HW218426   2.291   1.325  10.748 -1.8704  0.3526  2.4124
 2323SOL     OW18427   2.595   2.264   2.361  0.4627 -0.2016  0.3216
 2323SOL    HW118428   2.573   2.353   2.386  1.7041  0.9160 -2.5158
 2323SOL    HW218429   2.618   2.276   2.268  1.2446  1.2959  0.7200
 2324SOL     OW18430   0.572   3.490   7.223  0.3531 -1.0249  0.0847
 2324SOL    HW118431   0.628   3.418   7.251 -1.3850 -1.8801  1.3702
 2324SOL    HW218432   0.578   3.552   7.295  2.6864 -1.0080 -0.1197
 2325SOL     OW18433   2.454   4.513   3.167 -0.0469  0.7242  0.1902
 2325SOL    HW118434   2.483   4.584   3.110  2.0821 -0.2880  0.0064
 2325SOL    HW218435   2.418   4.567   3.237  0.4066 -0.7527  1.5836
 2326SOL     OW18436   2.856   0.270   6.081 -0.0951  0.0680  0.1821
 2326SOL    HW118437   2.781   0.270   6.022  0.4432  0.7366 -0.4963
 2326SOL    HW218438   2.927   0.280   6.017  1.0357 -0.2342  1.3719
 2327SOL     OW18439   2.733   0.512   2.073 -0.4448  0.4625 -0.4858
 2327SOL    HW118440   2.800   0.536   2.010 -1.8761  0.1147 -2.1322
 2327SOL    HW218441   2.773   0.476   2.153 -0.1476 -1.3318 -1.4472
 2328SOL     OW18442   2.845   3.563  10.562  0.6239  0.7512 -0.0807
 2328SOL    HW118443   2.773   3.588  10.619  0.3905 -2.3184  0.9563
 2328SOL    HW218444   2.819   3.478  10.529 -2.4740  1.5089  0.3958
 2329SOL     OW18445   0.809   1.555   8.861  0.6746  0.3386 -0.3779
 2329SOL    HW118446   0.904   1.568   8.867  0.8966 -1.6512  0.2148
 2329SOL    HW218447   0.768   1.614   8.925  1.4278  0.7902 -0.3026
 2330SOL     OW18448   1.357   1.607   4.060 -0.3850 -0.0262  0.3837
 2330SOL    HW118449   1.373   1.564   3.976  2.1067  3.1035 -0.7617
 2330SOL    HW218450   1.430   1.569   4.109 -0.9338 -0.5252  0.8120
 2331SOL     OW18451   1.348   1.162   2.857  0.6022 -0.1175 -0.1464
 2331SOL    HW118452   1.353   1.082   2.910  0.1510 -0.1063 -0.0864
 2331SOL    HW218453   1.291   1.216   2.912  1.2897 -1.7266  2.1665
 2332SOL     OW18454   1.872   0.369   2.738 -0.6222 -0.3361  0.6811
 2332SOL    HW118455   1.904   0.456   2.713  0.1613 -0.4205  1.3614
 2332SOL    HW218456   1.876   0.377   2.833  0.1215  0.5815  0.5735
 2333SOL     OW18457   3.868   3.962   2.231 -0.4750  0.2583 -0.3308
 2333SOL    HW118458   3.911   4.011   2.161 -0.9621  0.9789 -0.1177
 2333SOL    HW218459   3.903   3.874   2.218 -2.9189 -1.3274  3.8605
 2334SOL     OW18460   3.874   3.412   9.297  0.1591  0.4406 -0.1656
 2334SOL    HW118461   3.803   3.401   9.235 -2.2712  0.5206  2.5930
 2334SOL    HW218462   3.938   3.350   9.262  2.2746  0.8948  2.8856
 2335SOL     OW18463   0.921   4.426   2.299  0.0076 -0.1748  0.4322
 2335SOL    HW118464   0.863   4.461   2.366  1.1554  1.1576  0.7427
 2335SOL    HW218465   0.902   4.333   2.288  1.5263 -0.4654  0.2440
 2336SOL     OW18466   0.710   1.739   9.027  0.0497  0.2604 -0.5120
 2336SOL    HW118467   0.635   1.791   8.997 -1.1453 -0.8328  0.5446
 2336SOL    HW218468   0.780   1.802   9.012 -1.0534  1.3373 -1.1356
 2337SOL     OW18469   0.031   3.949   2.518  0.5891 -0.2667  0.7012
 2337SOL    HW118470   0.045   3.856   2.499 -0.4080 -0.1089 -0.7235
 2337SOL    HW218471   0.086   3.982   2.447 -0.1912  1.2765  0.8288
 2338SOL     OW18472   0.871   3.512   2.764 -0.8457 -0.0606  0.0965
 2338SOL    HW118473   0.937   3.570   2.801 -1.7260  1.1839 -0.2272
 2338SOL    HW218474   0.919   3.430   2.769  1.4240  1.1697 -1.7192
 2339SOL     OW18475   4.181   1.143   4.457 -0.2589 -0.3110 -0.3148
 2339SOL    HW118476   4.202   1.236   4.463  1.0306 -0.5181 -1.7050
 2339SOL    HW218477   4.264   1.097   4.470 -0.0998 -0.0740 -0.5132
 2340SOL     OW18478   0.933   3.547   4.938 -0.0264  0.0078  0.4805
 2340SOL    HW118479   1.006   3.580   4.885 -1.2842  0.2994 -1.0847
 2340SOL    HW218480   0.941   3.604   5.015  2.0565  0.5834 -0.1541
 2341SOL     OW18481   1.447   1.120   6.797 -0.0693 -0.5029  0.0572
 2341SOL    HW118482   1.446   1.041   6.743 -0.3255 -0.7455  0.4119
 2341SOL    HW218483   1.508   1.091   6.864  0.9442 -2.1909 -1.6234
 2342SOL     OW18484   1.376   2.282   3.466  0.0023  0.5064  0.2735
 2342SOL    HW118485   1.297   2.331   3.487  0.4669 -0.2923  3.9769
 2342SOL    HW218486   1.370   2.286   3.371  0.6277  0.8400  0.2445
 2343SOL     OW18487   2.434   3.831  17.632 -0.2499 -0.7775  0.5747
 2343SOL    HW118488   2.366   3.805   0.001  0.1036  0.5258  1.5062
 2343SOL    HW218489   2.405   3.782  17.555  1.8394  0.9355 -1.3317
 2344SOL     OW18490   1.951   1.120   3.988  0.5034  0.3060  0.3336
 2344SOL    HW118491   1.887   1.075   3.932 -0.6472  1.7067  0.5325
 2344SOL    HW218492   1.911   1.206   3.999 -0.3823  0.0435 -0.7874
 2345SOL     OW18493   2.358   1.986   5.349  0.1056 -0.5582 -0.1729
 2345SOL    HW118494   2.355   2.078   5.322  0.8788 -0.2193  0.8644
 2345SOL    HW218495   2.400   2.004   5.433  0.1104  2.6576 -0.8319
 2346SOL     OW18496   2.909   0.078  14.865  0.6135  0.3427  0.1774
 2346SOL    HW118497   2.996   0.043  14.879  0.6348  1.1454  2.0546
 2346SOL    HW218498   2.904   0.117  14.953 -0.7213 -0.3730  0.4297
 2347SOL     OW18499   1.496   0.747   3.377 -0.5368  0.1214  0.5874
 2347SOL    HW118500   1.525   0.772   3.464  1.6582 -1.3309  0.2666
 2347SOL    HW218501   1.548   0.804   3.321  1.6034 -0.3466  2.1205
 2348SOL     OW18502   1.247   3.010   4.471  0.1358 -0.4805 -0.5651
 2348SOL    HW118503   1.251   3.092   4.421 -2.4057  1.0348  1.7119
 2348SOL    HW218504   1.174   2.966   4.427  0.7336 -1.5326 -0.4967
 2349SOL     OW18505   4.143   1.229   6.913  0.0879  0.3111  0.2903
 2349SOL    HW118506   4.185   1.306   6.875  1.4508 -1.2267 -1.3505
 2349SOL    HW218507   4.181   1.159   6.860  1.0947 -0.9813  2.7020
 2350SOL     OW18508   1.556   1.399   8.208 -0.3121 -0.2050  1.1014
 2350SOL    HW118509   1.519   1.337   8.146  1.7210 -2.5923  2.2607
 2350SOL    HW218510   1.514   1.373   8.290 -0.9109 -2.0233  0.2122
 2351SOL     OW18511   3.352   3.965  11.575  0.3486  0.1615 -0.3253
 2351SOL    HW118512   3.441   3.989  11.601  0.4804  1.1828 -1.7173
 2351SOL    HW218513   3.337   4.023  11.501 -1.1049  0.6792  0.3860
 2352SOL     OW18514   2.377   0.508  10.928  0.9105 -0.0978  0.1016
 2352SOL    HW118515   2.460   0.464  10.906  0.7190  0.3495 -1.5453
 2352SOL    HW218516   2.320   0.451  10.876 -2.1901  2.2689  0.9264
 2353SOL     OW18517   0.553   4.200  14.519  0.6456  0.1668  0.2388
 2353SOL    HW118518   0.575   4.291  14.502  0.4103 -0.3265 -2.6695
 2353SOL    HW218519   0.554   4.204  14.615 -0.3232 -0.8573  0.3002
 2354SOL     OW18520   0.351   2.789   0.032 -0.3186 -0.1807 -0.2873
 2354SOL    HW118521   0.388   2.754   0.114 -0.1272  1.4571  0.3327
 2354SOL    HW218522   0.290   2.720   0.008  0.0482 -0.9554  0.9877
 2355SOL     OW18523   1.394   2.936  15.384  0.4891 -0.0997 -0.6496
 2355SOL    HW118524   1.331   3.004  15.410  1.8186  1.8718 -2.5345
 2355SOL    HW218525   1.474   2.985  15.400  0.1827  0.0063  0.5495
 2356SOL     OW18526   3.444   3.007  12.280 -0.0926 -0.2030 -0.1379
 2356SOL    HW118527   3.471   2.948  12.209 -0.3185  0.2766 -0.6240
 2356SOL    HW218528   3.513   3.073  12.289 -1.6555  1.9882 -4.3760
 2357SOL     OW18529   3.225   0.806  11.700 -0.5045 -0.3407  0.5895
 2357SOL    HW118530   3.295   0.865  11.726  0.0778 -0.6122 -0.3701
 2357SOL    HW218531   3.204   0.775  11.789 -0.0634 -0.4000  0.6736
 2358SOL     OW18532   2.948   2.447  15.242  0.0180  0.2230 -0.8007
 2358SOL    HW118533   2.941   2.451  15.337 -0.4138  1.4810 -0.8808
 2358SOL    HW218534   2.856   2.428  15.221  0.1018  0.1582 -1.1033
 2359SOL     OW18535   4.718   0.449   3.204  0.2610 -0.1896 -0.0017
 2359SOL    HW118536   0.004   0.441   3.109  0.2789  0.6974 -0.0789
 2359SOL    HW218537   4.650   0.389   3.234  0.3219  0.9086  2.3343
 2360SOL     OW18538   4.450   1.303   2.878  0.1404  0.1777 -0.4612
 2360SOL    HW118539   4.377   1.269   2.826  0.0845  1.6459 -1.3373
 2360SOL    HW218540   4.520   1.324   2.816  1.2978  1.0271  1.1353
 2361SOL     OW18541   1.675   4.335   2.130 -0.4323 -0.1600 -0.8785
 2361SOL    HW118542   1.581   4.340   2.112  0.0300  0.0381 -3.2518
 2361SOL    HW218543   1.706   4.270   2.067 -1.6792 -0.8233 -0.8049
 2362SOL     OW18544   0.089   3.444   7.910  0.1460  0.4234  0.0566
 2362SOL    HW118545   0.037   3.401   7.978  0.2955  0.0444 -0.0654
 2362SOL    HW218546   0.142   3.502   7.964  1.0267 -0.5197  0.2207
 2363SOL     OW18547   3.686   2.101   7.957  0.2115 -0.6604  0.4791
 2363SOL    HW118548   3.607   2.060   7.923  0.9790 -1.4536 -0.3635
 2363SOL    HW218549   3.676   2.078   8.049 -2.4916 -2.1045 -0.1863
 2364SOL     OW18550   1.538   1.445   0.897  0.3034 -0.1187 -0.2688
 2364SOL    HW118551   1.496   1.377   0.950  0.1818 -0.1545 -0.4114
 2364SOL    HW218552   1.610   1.466   0.956 -0.1057 -1.0308  0.5459
 2365SOL     OW18553   1.108   4.698   9.675 -0.6233  0.3631  0.1801
 2365SOL    HW118554   1.121   4.716   9.582 -1.1697  2.8217  0.5852
 2365SOL    HW218555   1.019   0.009   9.686 -0.6702 -0.1873  1.5268
 2366SOL     OW18556   1.425   3.375   6.084  0.3272 -0.2792 -0.1099
 2366SOL    HW118557   1.408   3.292   6.129  1.6126  1.2610  3.1832
 2366SOL    HW218558   1.434   3.433   6.159  0.3530 -1.9371  1.1842
 2367SOL     OW18559   1.438   3.076  11.737 -0.2461  0.0444  0.2680
 2367SOL    HW118560   1.389   3.007  11.782 -0.0443 -0.3169 -0.0590
 2367SOL    HW218561   1.376   3.145  11.762 -1.5178 -0.8761 -0.2843
 2368SOL     OW18562   4.381   1.196  13.197 -0.2758 -0.6374 -0.5674
 2368SOL    HW118563   4.333   1.241  13.128  1.2510 -0.5802 -1.5864
 2368SOL    HW218564   4.385   1.275  13.252  1.7411 -1.3715  0.3443
 2369SOL     OW18565   3.662   3.094  12.751  0.4891 -0.1041  0.0476
 2369SOL    HW118566   3.649   3.038  12.828  1.8163  1.3254  1.2933
 2369SOL    HW218567   3.733   3.150  12.781  1.5719  1.1664 -4.8245
 2370SOL     OW18568   0.622   1.723   6.090 -0.1120  0.3177 -0.3275
 2370SOL    HW118569   0.640   1.680   6.006 -1.4045  0.9756 -0.9222
 2370SOL    HW218570   0.657   1.667   6.160  1.4601 -0.2475 -1.5450
 2371SOL     OW18571   3.021   1.281   3.746  0.5006  0.5048  0.5054
 2371SOL    HW118572   3.091   1.344   3.729 -0.6187  1.3886 -0.7278
 2371SOL    HW218573   3.032   1.255   3.838  0.0662 -2.7132 -0.3414
 2372SOL     OW18574   1.155   4.498   2.443 -0.2142 -0.1880 -0.5080
 2372SOL    HW118575   1.226   4.440   2.416  1.2552  1.2361  0.3209
 2372SOL    HW218576   1.085   4.471   2.383 -0.6776  1.3420 -0.6599
 2373SOL     OW18577   3.263   1.562   5.920 -0.3848  0.5507  1.1785
 2373SOL    HW118578   3.262   1.618   5.842 -2.7612 -0.1368  0.7135
 2373SOL    HW218579   3.236   1.481   5.876  2.4475  1.7913 -2.8785
 2374SOL     OW18580   3.118   3.484   8.472  0.1391 -0.0823 -0.5516
 2374SOL    HW118581   3.101   3.403   8.522 -1.0168  1.3481  1.3875
 2374SOL    HW218582   3.038   3.536   8.477  1.8676  2.4368  0.9160
 2375SOL     OW18583   3.073   4.284   4.728 -0.1704 -0.1481 -0.2238
 2375SOL    HW118584   3.037   4.235   4.654  0.5078 -1.5583  0.3726
 2375SOL    HW218585   3.109   4.361   4.684 -1.3534  0.4847 -0.0672
 2376SOL     OW18586   2.805   2.829   0.724 -0.3913  0.2039  0.5211
 2376SOL    HW118587   2.863   2.766   0.682  0.0336 -0.1307  1.5962
 2376SOL    HW218588   2.811   2.827   0.820 -3.3980 -0.2222  0.7161
 2377SOL     OW18589   1.157   3.667  16.878 -0.3762 -0.1924 -0.1528
 2377SOL    HW118590   1.157   3.737  16.944  3.6160 -0.9271  0.6118
 2377SOL    HW218591   1.222   3.711  16.824  0.3081  0.2930  1.0554
 2378SOL     OW18592   1.687   3.287   1.707 -0.2173 -0.5660 -0.0602
 2378SOL    HW118593   1.753   3.280   1.637 -0.3816 -0.0565 -0.2634
 2378SOL    HW218594   1.700   3.380   1.725  0.2402 -0.8596  1.0970
 2379SOL     OW18595   3.767   1.315   8.780 -0.1251 -0.0544 -0.1871
 2379SOL    HW118596   3.760   1.403   8.816 -0.7619 -0.6840  1.2292
 2379SOL    HW218597   3.693   1.310   8.719 -0.0512 -1.3073 -0.1802
 2380SOL     OW18598   3.744   4.517  14.715 -0.4122 -0.1708  0.1299
 2380SOL    HW118599   3.694   4.595  14.739  0.1032 -0.1012  0.9780
 2380SOL    HW218600   3.776   4.527  14.625 -2.0032  2.5155 -0.1637
 2381SOL     OW18601   1.193   3.878  13.426 -0.5222  0.0381 -0.1129
 2381SOL    HW118602   1.167   3.788  13.441  0.6882 -0.2622  0.1512
 2381SOL    HW218603   1.191   3.884  13.330 -0.3924 -1.2769 -0.1903
 2382SOL     OW18604   2.728   2.944  14.394 -0.9191 -0.1761  0.1723
 2382SOL    HW118605   2.706   3.013  14.332  1.5479  0.3823 -0.0865
 2382SOL    HW218606   2.789   2.890  14.344 -0.4327  1.7679 -1.3205
 2383SOL     OW18607   0.823   1.334  10.548 -0.1205 -0.3818  0.0100
 2383SOL    HW118608   0.872   1.351  10.628  0.4381  1.9297 -0.8287
 2383SOL    HW218609   0.905   1.320  10.501  0.9246  0.5901  1.5526
 2384SOL     OW18610   4.581   3.469  13.720  0.0089 -0.6029  0.1949
 2384SOL    HW118611   4.654   3.531  13.719 -2.1644  1.9539  0.8033
 2384SOL    HW218612   4.550   3.465  13.630 -2.4001 -2.1610  1.0687
 2385SOL     OW18613   2.934   3.391  16.136  0.1726  0.3663  0.2170
 2385SOL    HW118614   2.883   3.424  16.062 -1.4553 -0.1156  1.1371
 2385SOL    HW218615   2.935   3.466  16.194 -0.6326 -0.4806  1.3158
 2386SOL     OW18616   0.479   0.065   7.875 -0.3486 -0.1695  0.1189
 2386SOL    HW118617   0.518   4.706   7.845  2.0696  0.8493  0.4805
 2386SOL    HW218618   0.417   0.030   7.939  0.5586 -2.2346 -0.1377
 2387SOL     OW18619   1.609   4.544   9.013  0.2353 -0.0805 -0.2715
 2387SOL    HW118620   1.652   4.627   8.988  0.5725 -0.5692 -1.3410
 2387SOL    HW218621   1.655   4.480   8.959 -0.8211 -0.6381 -0.4887
 2388SOL     OW18622   3.143   4.432   3.894 -0.3494  0.1171  0.2143
 2388SOL    HW118623   3.115   4.510   3.847 -0.9717 -0.0702  0.2816
 2388SOL    HW218624   3.148   4.373   3.819 -0.2457  1.1756 -0.5991
 2389SOL     OW18625   2.460   0.474   5.852 -0.6037 -0.6490 -0.1430
 2389SOL    HW118626   2.366   0.494   5.854 -0.2982  0.8602 -0.6072
 2389SOL    HW218627   2.501   0.557   5.877 -1.6751 -0.0691 -0.2640
 2390SOL     OW18628   4.227   1.449  11.566 -0.2315 -0.0257  0.0019
 2390SOL    HW118629   4.311   1.402  11.567 -0.6099 -0.7035 -0.0460
 2390SOL    HW218630   4.162   1.379  11.573  2.0660 -2.2072 -0.3543
 2391SOL     OW18631   2.210   2.509   1.837  0.0155  0.0116 -0.5357
 2391SOL    HW118632   2.253   2.581   1.791 -0.6721 -1.2251 -3.1512
 2391SOL    HW218633   2.228   2.436   1.777 -2.4404  1.0932 -2.5988
 2392SOL     OW18634   0.223   4.228   4.071  0.2020 -0.5291 -0.2502
 2392SOL    HW118635   0.309   4.265   4.092  0.6615 -0.7505 -1.7089
 2392SOL    HW218636   0.195   4.306   4.024 -0.9245  0.5347  2.2170
 2393SOL     OW18637   3.104   0.895   0.709  0.3515 -0.3828 -0.1794
 2393SOL    HW118638   3.191   0.924   0.681  0.0512  1.5230  0.8503
 2393SOL    HW218639   3.092   0.818   0.654 -0.5768 -0.6483  0.3962
 2394SOL     OW18640   4.694   0.847   7.015  0.2853 -0.2171  0.5276
 2394SOL    HW118641   4.694   0.771   7.073  1.3740 -2.0496 -1.8976
 2394SOL    HW218642   4.661   0.919   7.070 -1.0097 -0.5237  0.1363
 2395SOL     OW18643   0.983   1.230   5.934  0.5364  0.3782 -0.3067
 2395SOL    HW118644   0.967   1.150   5.884  1.8909 -0.7503  1.0373
 2395SOL    HW218645   1.073   1.248   5.907  1.0543 -2.4259 -0.4173
 2396SOL     OW18646   4.105   3.369   3.380 -0.2524 -0.7677 -0.0230
 2396SOL    HW118647   4.162   3.366   3.303  2.6861  0.0720  2.1381
 2396SOL    HW218648   4.109   3.275   3.392  2.7269 -0.8142 -1.3961
 2397SOL     OW18649   0.011   3.454   2.682 -0.4398  0.4376  0.1753
 2397SOL    HW118650   0.085   3.402   2.713 -0.5713  1.0064  1.4457
 2397SOL    HW218651   4.685   3.386   2.635  3.0093  0.0340 -2.8287
 2398SOL     OW18652   4.662   1.748  10.018 -0.0639  0.1723 -0.3365
 2398SOL    HW118653   4.681   1.761   9.925 -0.7958  0.5586 -0.4327
 2398SOL    HW218654   0.028   1.773  10.045 -0.4798  0.3507  0.8406
 2399SOL     OW18655   1.584   0.829   9.714  0.4672  0.7993 -0.0169
 2399SOL    HW118656   1.489   0.836   9.727  0.8273  1.7269  2.0751
 2399SOL    HW218657   1.591   0.738   9.685  1.3171  0.9275 -0.2233
 2400SOL     OW18658   3.082   4.463   8.746 -0.2051  0.3519 -0.0523
 2400SOL    HW118659   3.048   4.500   8.827 -0.2909  1.6519 -0.6797
 2400SOL    HW218660   3.124   4.540   8.708 -0.0023  0.6670  0.7996
 2401SOL     OW18661   3.080   1.287  16.001  0.1825 -0.3044  0.2830
 2401SOL    HW118662   3.100   1.338  16.079 -0.7496  2.2929 -1.1792
 2401SOL    HW218663   3.145   1.217  16.008 -0.0835 -0.5677  0.1215
 2402SOL     OW18664   4.584   4.067   3.669  0.5351 -0.3631 -0.2495
 2402SOL    HW118665   4.599   4.108   3.583 -1.9961  0.8621 -0.1058
 2402SOL    HW218666   4.663   4.016   3.684  0.9555 -0.0324 -1.3211
 2403SOL     OW18667   1.702   2.771  11.924  0.3871 -0.1434 -0.0560
 2403SOL    HW118668   1.736   2.830  11.857  2.1710  1.3065  2.1486
 2403SOL    HW218669   1.612   2.764  11.892  0.4020  1.6027 -0.5091
 2404SOL     OW18670   2.947   1.723   2.493  0.0158  0.4193  0.3992
 2404SOL    HW118671   2.872   1.761   2.447  0.5093  0.8319 -0.0639
 2404SOL    HW218672   2.926   1.638   2.532 -0.8450  0.7154  0.5802
 2405SOL     OW18673   3.221   0.468   2.528 -0.2532  0.0301 -0.3938
 2405SOL    HW118674   3.217   0.560   2.554 -0.6812  0.0682 -0.5867
 2405SOL    HW218675   3.148   0.433   2.579  1.0721 -1.2711  0.5956
 2406SOL     OW18676   0.011   2.101  11.519 -0.0332 -0.3127 -0.8126
 2406SOL    HW118677   4.654   2.076  11.566  0.4452  1.4107  0.9145
 2406SOL    HW218678   0.052   2.015  11.515 -0.6004 -0.5628 -1.2501
 2407SOL     OW18679   3.653   0.822   4.250  0.1363 -0.6973  0.5028
 2407SOL    HW118680   3.630   0.804   4.341  0.6282 -1.4445  0.4813
 2407SOL    HW218681   3.737   0.777   4.243  1.0666  1.1965 -0.4009
 2408SOL     OW18682   4.072   3.546   7.038 -0.1862 -0.2912  0.4256
 2408SOL    HW118683   3.989   3.523   7.081 -0.8438 -3.6389 -2.6364
 2408SOL    HW218684   4.063   3.503   6.953 -0.7026  1.1358 -0.2495
 2409SOL     OW18685   1.553   4.006   6.861  0.0407 -0.1246 -0.1340
 2409SOL    HW118686   1.539   3.911   6.856 -0.6754 -0.0023 -0.3320
 2409SOL    HW218687   1.469   4.037   6.828  1.3120 -0.7239 -3.9903
 2410SOL     OW18688   2.664   3.523   2.767  0.4336 -0.3065  0.1937
 2410SOL    HW118689   2.659   3.469   2.845  1.8841  0.0740  0.5593
 2410SOL    HW218690   2.739   3.482   2.723  1.1920  0.0960  1.1106
 2411SOL     OW18691   0.916   2.391   6.627 -0.0764 -0.4063 -0.2484
 2411SOL    HW118692   0.903   2.456   6.558  0.5402  0.3507  0.3480
 2411SOL    HW218693   0.905   2.306   6.584  0.5366 -0.2151 -0.7819
 2412SOL     OW18694   3.646   1.815   4.972 -0.7648  0.1976 -0.3609
 2412SOL    HW118695   3.638   1.767   5.054  0.2831  1.9619  0.7510
 2412SOL    HW218696   3.709   1.886   4.985  0.2174 -1.0489  1.6143
 2413SOL     OW18697   4.696   2.008  16.128  0.4864 -0.2598  0.3306
 2413SOL    HW118698   4.706   2.103  16.127  1.9409 -0.4088  1.7445
 2413SOL    HW218699   4.667   2.008  16.219 -0.4169  1.0945  0.0445
 2414SOL     OW18700   1.452   3.276   1.838 -0.1733 -1.2040  0.0766
 2414SOL    HW118701   1.399   3.241   1.767  2.5272 -0.0653 -2.4959
 2414SOL    HW218702   1.533   3.289   1.790 -0.2030  0.5620  0.4893
 2415SOL     OW18703   3.691   1.134   7.251 -0.2297 -0.5638  0.8751
 2415SOL    HW118704   3.666   1.203   7.189  0.6616 -1.5128 -0.5645
 2415SOL    HW218705   3.745   1.188   7.309 -0.2262 -0.8155  1.1069
 2416SOL     OW18706   3.574   2.985   6.633 -0.0251 -0.0128  0.4354
 2416SOL    HW118707   3.551   2.896   6.662 -1.9493  0.7780  1.3615
 2416SOL    HW218708   3.598   3.040   6.708 -1.9848 -0.3458  1.3013
 2417SOL     OW18709   1.831   2.943   1.545  0.2872  0.2291  0.2370
 2417SOL    HW118710   1.891   3.002   1.589  0.8595  1.2891 -1.9840
 2417SOL    HW218711   1.752   2.961   1.596  1.1624  0.1708  1.6181
 2418SOL     OW18712   1.074   3.140   6.555  0.6284  0.2205  0.1057
 2418SOL    HW118713   1.085   3.211   6.492  0.9148  1.1496  1.2092
 2418SOL    HW218714   1.015   3.074   6.517  0.8952  0.1315 -0.1523
 2419SOL     OW18715   2.877   3.195   6.709  0.1045 -0.3197 -0.1508
 2419SOL    HW118716   2.804   3.247   6.743  1.5891  1.0617  0.8927
 2419SOL    HW218717   2.865   3.121   6.768 -1.3194  1.3394  1.6194
 2420SOL     OW18718   3.384   2.048   6.204 -0.0994 -0.3097 -0.2412
 2420SOL    HW118719   3.412   2.100   6.129 -0.4419  1.4146  0.8224
 2420SOL    HW218720   3.294   2.034   6.174 -1.3393  0.5451  3.0435
 2421SOL     OW18721   0.283   4.611   0.541 -0.5426  0.5917 -0.3846
 2421SOL    HW118722   0.208   4.600   0.482 -1.0142  2.0392 -0.0647
 2421SOL    HW218723   0.242   4.569   0.616  0.9508 -2.4465 -1.2914
 2422SOL     OW18724   3.519   2.697   4.188  0.1597  0.1770  0.0052
 2422SOL    HW118725   3.561   2.782   4.203 -1.3174  0.0238  4.8733
 2422SOL    HW218726   3.431   2.726   4.163  0.8770  0.9915 -1.6403
 2423SOL     OW18727   4.460   3.499   8.749 -0.0705  0.1707  0.1366
 2423SOL    HW118728   4.381   3.488   8.802  0.5339  0.9835  1.2101
 2423SOL    HW218729   4.505   3.578   8.780  2.4577 -1.1875 -0.0890
 2424SOL     OW18730   3.354   4.322   7.986  0.1136  0.0765 -0.0541
 2424SOL    HW118731   3.357   4.335   8.081 -1.2451  0.2582 -0.0341
 2424SOL    HW218732   3.397   4.237   7.985 -0.4731 -0.2177 -0.1032
 2425SOL     OW18733   3.825   4.168  13.479 -0.4576  0.6021 -0.0813
 2425SOL    HW118734   3.827   4.246  13.423 -0.4696 -0.8513 -2.0890
 2425SOL    HW218735   3.752   4.125  13.434 -0.1908  0.6630 -0.5807
 2426SOL     OW18736   0.743   1.540   3.284 -0.1379  0.4109 -0.3048
 2426SOL    HW118737   0.816   1.552   3.223  0.3031  2.4280  0.6161
 2426SOL    HW218738   0.669   1.590   3.249 -0.5174 -0.0382 -0.1417
 2427SOL     OW18739   3.178   2.421   0.496 -0.3760  0.2980 -0.1041
 2427SOL    HW118740   3.160   2.336   0.536 -2.5369 -0.5665 -2.9167
 2427SOL    HW218741   3.240   2.459   0.558 -1.5604  2.1790 -0.0684
 2428SOL     OW18742   2.892   4.366   3.691  0.1697 -0.2721 -0.2063
 2428SOL    HW118743   2.865   4.428   3.759  0.5061  0.1951 -0.4918
 2428SOL    HW218744   2.985   4.349   3.707 -0.4108 -0.1681  3.3288
 2429SOL     OW18745   4.460   2.497  16.794 -0.6316 -0.0089  0.3410
 2429SOL    HW118746   4.430   2.428  16.735  1.0822 -0.9075  0.5314
 2429SOL    HW218747   4.536   2.459  16.836  0.0122  1.4918  0.5491
 2430SOL     OW18748   4.707   4.633  13.108  0.3579  0.2796 -0.8100
 2430SOL    HW118749   0.050   4.684  13.156  2.2898 -2.9843 -0.0543
 2430SOL    HW218750   4.654   4.703  13.069 -0.9756 -0.9191 -1.1423
 2431SOL     OW18751   1.980   3.157   6.344 -0.1734 -0.5344  0.1503
 2431SOL    HW118752   2.017   3.212   6.413 -0.4759  0.5369 -0.5556
 2431SOL    HW218753   1.904   3.124   6.393 -2.0486  0.0935 -2.3161
 2432SOL     OW18754   0.318   2.370  17.087 -0.6195 -0.2094 -0.3344
 2432SOL    HW118755   0.327   2.353  17.180  0.5559  1.8948 -0.0503
 2432SOL    HW218756   0.292   2.284  17.056 -1.9817 -0.0671  0.4413
 2433SOL     OW18757   2.164   2.228   8.084  0.0837 -0.4993 -0.2109
 2433SOL    HW118758   2.249   2.251   8.121  0.5753 -1.0756 -0.9949
 2433SOL    HW218759   2.116   2.229   8.167 -0.6566  2.3357 -0.6725
 2434SOL     OW18760   4.185   3.810  13.556  0.2178  0.0934 -0.3420
 2434SOL    HW118761   4.130   3.877  13.514 -0.7270 -0.8498 -0.6157
 2434SOL    HW218762   4.265   3.861  13.543  1.6767 -2.4611 -1.1444
 2435SOL     OW18763   1.312   4.435  12.493  0.8212  0.4298  0.8382
 2435SOL    HW118764   1.262   4.394  12.422  0.8525 -0.4730  1.3292
 2435SOL    HW218765   1.242   4.489  12.528 -1.0043 -0.0070 -2.1671
 2436SOL     OW18766   2.259   3.670   5.539  0.6497  0.0088  0.4342
 2436SOL    HW118767   2.308   3.713   5.469 -0.7339  2.2269  0.8164
 2436SOL    HW218768   2.172   3.709   5.536  1.2995  1.3476 -1.0431
 2437SOL     OW18769   3.266   4.201   9.015 -0.1274  0.6241  0.3438
 2437SOL    HW118770   3.177   4.229   9.034 -0.4784  0.8741 -1.6478
 2437SOL    HW218771   3.256   4.106   9.016  1.0227  0.5153  1.2461
 2438SOL     OW18772   3.222   0.197  16.412  0.3355 -0.1455  0.0174
 2438SOL    HW118773   3.313   0.227  16.410  0.1327  0.7208  2.8188
 2438SOL    HW218774   3.178   0.261  16.468  1.0149  1.8043 -1.6633
 2439SOL     OW18775   2.329   1.155   9.320  0.4260  0.8915  0.7513
 2439SOL    HW118776   2.353   1.065   9.299 -0.4871  0.6206  0.8478
 2439SOL    HW218777   2.239   1.135   9.347 -0.3563  0.5952 -2.0504
 2440SOL     OW18778   1.957   2.818   7.338  0.3455 -0.2673  0.4921
 2440SOL    HW118779   1.989   2.756   7.404 -1.0810 -0.7920  0.6700
 2440SOL    HW218780   2.007   2.782   7.264  2.2243  0.9341  1.1647
 2441SOL     OW18781   4.248   4.051   6.408  0.1913  0.0218  0.1225
 2441SOL    HW118782   4.323   4.088   6.361  0.2342 -0.5332 -0.2457
 2441SOL    HW218783   4.204   4.132   6.436  0.5830  0.3681 -0.2595
 2442SOL     OW18784   1.504   1.993   4.813  0.5064  0.3761  0.1013
 2442SOL    HW118785   1.424   2.008   4.863 -1.3404  0.4389 -2.9225
 2442SOL    HW218786   1.515   1.900   4.830 -0.7359  0.2144 -0.0183
 2443SOL     OW18787   1.498   3.738   4.005  0.1604 -0.0916 -0.4796
 2443SOL    HW118788   1.408   3.769   4.017  0.9379  1.2958  1.8504
 2443SOL    HW218789   1.533   3.761   4.090 -0.1632  1.0906 -0.6552
 2444SOL     OW18790   4.336   2.617   7.576  0.8524 -0.0008  0.1662
 2444SOL    HW118791   4.358   2.610   7.669 -2.9930  0.2459  1.1202
 2444SOL    HW218792   4.418   2.653   7.543  0.6984  0.4685  0.3003
 2445SOL     OW18793   2.901   3.206   5.771  0.0540  0.5109  0.0845
 2445SOL    HW118794   2.943   3.289   5.753 -1.2881  1.7715  2.7893
 2445SOL    HW218795   2.936   3.153   5.700  0.8218 -1.8133  2.1923
 2446SOL     OW18796   1.411   3.011   2.918 -0.5057  0.2418 -0.5030
 2446SOL    HW118797   1.324   3.000   2.881 -1.3313  1.0191  1.2275
 2446SOL    HW218798   1.389   3.017   3.011 -1.3487  0.1881 -0.7038
 2447SOL     OW18799   2.988   0.914   3.295  0.2571 -0.1868  0.6547
 2447SOL    HW118800   3.011   0.872   3.212 -0.0786  2.2751 -0.7060
 2447SOL    HW218801   3.071   0.951   3.326 -0.0714  0.1317  1.1610
 2448SOL     OW18802   3.489   2.485   5.407  0.3534 -0.4789 -0.0856
 2448SOL    HW118803   3.530   2.409   5.366  1.8504 -0.4967  1.4016
 2448SOL    HW218804   3.398   2.464   5.387  0.6859 -1.7178 -0.3518
 2449SOL     OW18805   3.090   0.047   3.054  0.4578  0.1778 -0.2293
 2449SOL    HW118806   3.121   0.097   3.129  1.4378 -0.2748 -0.3387
 2449SOL    HW218807   3.031   4.705   3.091 -0.8830  0.5381 -1.7138
 2450SOL     OW18808   2.027   4.038   4.295  0.0170  0.4938 -0.3682
 2450SOL    HW118809   1.953   4.024   4.235 -0.6888 -0.4336  0.7194
 2450SOL    HW218810   2.003   4.123   4.331  1.8928  1.4496 -1.3629
 2451SOL     OW18811   1.560   0.942   3.609  0.4021 -0.2421 -0.4624
 2451SOL    HW118812   1.578   1.033   3.583 -2.9401  0.3328 -0.8945
 2451SOL    HW218813   1.516   0.937   3.694 -3.4836  0.6367 -2.3807
 2452SOL     OW18814   2.862   2.186   6.182 -0.1252 -0.2146  0.2072
 2452SOL    HW118815   2.851   2.113   6.243 -2.4298 -0.0344  0.0057
 2452SOL    HW218816   2.781   2.176   6.132  0.1939 -1.2177 -0.1182
 2453SOL     OW18817   3.828   4.372  13.264 -0.2551  0.1247 -0.0341
 2453SOL    HW118818   3.853   4.336  13.179 -0.4205 -0.2307  0.0673
 2453SOL    HW218819   3.736   4.388  13.245 -0.5183 -1.6624 -0.3294
 2454SOL     OW18820   2.174   1.136  13.543 -0.0843  0.9111  0.0621
 2454SOL    HW118821   2.126   1.150  13.624 -2.4924 -0.6071 -1.0981
 2454SOL    HW218822   2.138   1.215  13.502 -1.5168  0.8893  1.2916
 2455SOL     OW18823   2.150   0.379  15.025 -0.8489  0.0312  0.1315
 2455SOL    HW118824   2.108   0.310  15.075  0.8415 -1.2236 -0.2035
 2455SOL    HW218825   2.130   0.458  15.075  0.3732  2.0345 -2.4827
 2456SOL     OW18826   0.205   4.044   6.680 -0.0130 -0.2033 -0.8148
 2456SOL    HW118827   0.224   4.025   6.588 -0.2795 -0.1581 -0.8775
 2456SOL    HW218828   0.135   3.980   6.692 -0.8600  0.7709 -0.6577
 2457SOL     OW18829   0.006   0.804   3.917 -0.0106 -0.2604  0.0714
 2457SOL    HW118830   4.687   0.879   3.874 -2.2578 -1.7647 -0.3926
 2457SOL    HW218831   0.098   0.823   3.903  0.2966 -0.0358  2.3146
 2458SOL     OW18832   0.382   2.378   3.461 -0.0559  0.1492 -0.5971
 2458SOL    HW118833   0.352   2.311   3.522 -2.2370  3.1053  1.5469
 2458SOL    HW218834   0.466   2.339   3.436  0.2506  0.0296  0.6547
 2459SOL     OW18835   4.007   2.906   8.695  0.4943  0.1967 -0.7668
 2459SOL    HW118836   4.081   2.966   8.698  0.3442  0.3238  0.4514
 2459SOL    HW218837   4.026   2.854   8.616  0.8372  0.2567 -0.7217
 2460SOL     OW18838   0.614   1.324   5.189  0.1434 -0.5135 -0.1722
 2460SOL    HW118839   0.665   1.317   5.270  1.6575 -0.9402 -1.1908
 2460SOL    HW218840   0.635   1.412   5.159 -1.4615  0.2998  1.0378
 2461SOL     OW18841   4.526   0.349   6.000  0.1075  0.4094 -0.2549
 2461SOL    HW118842   4.544   0.439   5.975 -0.6145  0.7533  0.5023
 2461SOL    HW218843   4.433   0.341   5.979  0.2644 -0.6917 -0.5339
 2462SOL     OW18844   4.643   0.624   8.980 -0.1482  0.4105 -0.1858
 2462SOL    HW118845   4.611   0.612   8.891 -1.9185  1.4240  0.3101
 2462SOL    HW218846   0.013   0.609   8.965 -0.1437  1.6242 -1.3318
 2463SOL     OW18847   1.503   1.008   8.711  0.1851 -0.0225 -0.3387
 2463SOL    HW118848   1.433   1.058   8.669  0.4770  0.7449  0.1049
 2463SOL    HW218849   1.467   1.024   8.798  3.0084 -1.7290  1.1417
 2464SOL     OW18850   2.036   1.517   6.617  0.4887 -0.1105 -0.1943
 2464SOL    HW118851   2.003   1.596   6.574  1.9339  0.5793 -0.0315
 2464SOL    HW218852   2.130   1.522   6.597  0.4852 -0.6417 -0.3458
 2465SOL     OW18853   1.184   0.373   5.832  0.3943  0.2514  1.0754
 2465SOL    HW118854   1.114   0.438   5.822 -1.3581 -1.5761  1.5185
 2465SOL    HW218855   1.232   0.390   5.751 -1.9452 -0.7054 -0.5014
 2466SOL     OW18856   3.103   3.066   6.618  0.3181  0.3470 -0.1968
 2466SOL    HW118857   3.015   3.061   6.654 -0.1742  3.6296 -0.9911
 2466SOL    HW218858   3.144   3.084   6.702  0.0419 -0.2063  0.0552
 2467SOL     OW18859   3.976   2.539  13.488 -0.3398 -0.0810  0.1496
 2467SOL    HW118860   3.935   2.612  13.441  0.7345 -0.2332 -1.0129
 2467SOL    HW218861   3.955   2.464  13.433  0.9366 -1.0910  1.0588
 2468SOL     OW18862   1.597   1.535   2.765  0.0122 -0.1119 -0.0899
 2468SOL    HW118863   1.683   1.533   2.722  0.4267  0.8008  0.6821
 2468SOL    HW218864   1.543   1.500   2.695 -0.1025  0.6861 -0.4072
 2469SOL     OW18865   2.477   2.359   9.837  0.2531  0.0343 -0.2628
 2469SOL    HW118866   2.541   2.335   9.905 -0.2343 -1.2562 -0.2625
 2469SOL    HW218867   2.395   2.341   9.882  1.0617 -1.3020  0.7146
 2470SOL     OW18868   3.856   3.037   6.498  0.2796 -0.6314 -0.2240
 2470SOL    HW118869   3.942   3.034   6.457  0.7149 -0.5064  0.6815
 2470SOL    HW218870   3.813   2.956   6.470  1.9211 -1.9181  0.9813
 2471SOL     OW18871   2.954   0.803   6.451 -0.4611 -0.2907  0.9652
 2471SOL    HW118872   2.867   0.819   6.486 -0.6791  0.1858  0.1977
 2471SOL    HW218873   2.972   0.731   6.511  0.1774 -0.0271  1.0918
 2472SOL     OW18874   4.644   4.050  14.808  0.2876 -0.0715 -0.1539
 2472SOL    HW118875   0.004   4.092  14.830  0.2448 -0.7270  1.2725
 2472SOL    HW218876   4.619   4.101  14.731  1.5452  1.3510  0.3772
 2473SOL     OW18877   0.180   4.207   4.903  0.5055  0.0789 -0.4314
 2473SOL    HW118878   0.135   4.288   4.875 -0.3662 -0.2402  0.0385
 2473SOL    HW218879   0.253   4.203   4.842  0.9992 -1.5316  0.2822
 2474SOL     OW18880   0.472   0.160   3.891 -0.0289  0.1188  0.1155
 2474SOL    HW118881   0.468   0.097   3.818  4.3095 -1.3631  1.2072
 2474SOL    HW218882   0.564   0.175   3.911  0.1080  1.3577 -1.4004
 2475SOL     OW18883   3.488   1.579   4.327 -0.6555  0.9274  0.6388
 2475SOL    HW118884   3.399   1.553   4.303 -0.1622  0.3420 -0.5531
 2475SOL    HW218885   3.501   1.654   4.269 -2.3671  0.0426 -0.8581
 2476SOL     OW18886   3.713   2.309  17.522 -0.5897  0.5668 -0.3555
 2476SOL    HW118887   3.649   2.378  17.509 -1.0571 -0.3575 -2.9751
 2476SOL    HW218888   3.785   2.343  17.469 -0.3098 -1.8805 -1.5599
 2477SOL     OW18889   0.294   3.134   3.987 -0.1329 -0.6079  0.1445
 2477SOL    HW118890   0.248   3.115   4.069 -1.0532 -3.8471 -1.1106
 2477SOL    HW218891   0.289   3.229   3.989  1.0130 -0.5069 -2.2058
 2478SOL     OW18892   3.608   2.268  13.629 -0.3351  0.4979 -0.0579
 2478SOL    HW118893   3.602   2.363  13.624 -0.2870  0.4542 -0.9353
 2478SOL    HW218894   3.693   2.243  13.591 -0.5890  0.6051 -0.6886
 2479SOL     OW18895   2.368   4.704   3.323 -0.1986 -0.2262 -0.5035
 2479SOL    HW118896   2.326   0.054   3.278 -2.1961 -0.1409  1.4867
 2479SOL    HW218897   2.372   0.012   3.414  0.5340 -0.8883 -0.3114
 2480SOL     OW18898   4.652   3.616   2.892  0.0490  0.5972 -0.3598
 2480SOL    HW118899   4.630   3.547   2.955 -0.6809 -1.4010 -2.7950
 2480SOL    HW218900   4.679   3.558   2.820  1.4561  0.2636  0.4216
 2481SOL     OW18901   0.328   4.207   6.353 -0.4321 -0.4635 -0.0502
 2481SOL    HW118902   0.415   4.207   6.394 -0.1605 -0.7557 -0.6205
 2481SOL    HW218903   0.307   4.300   6.367  0.5417 -0.0441 -1.3819
 2482SOL     OW18904   3.387   2.262   0.851  0.0920  0.2470 -0.2199
 2482SOL    HW118905   3.475   2.289   0.877 -0.8351  3.2747 -0.2591
 2482SOL    HW218906   3.352   2.334   0.797  0.3326 -0.8303 -1.8244
 2483SOL     OW18907   1.896   2.884   6.794  0.1290 -0.0224 -0.5307
 2483SOL    HW118908   1.961   2.826   6.755  1.2000  1.9559 -1.7053
 2483SOL    HW218909   1.902   2.959   6.734 -2.0890  0.6418  0.1063
 2484SOL     OW18910   1.729   2.741  11.140  0.3074  0.1599 -0.3232
 2484SOL    HW118911   1.796   2.732  11.208 -0.8721  0.3809  0.8602
 2484SOL    HW218912   1.659   2.766  11.200 -0.5854 -1.1778 -0.7955
 2485SOL     OW18913   1.963   2.949   3.554  0.2836  0.0851  0.5730
 2485SOL    HW118914   2.021   2.915   3.623  1.2397 -0.9539 -0.7396
 2485SOL    HW218915   1.956   2.872   3.497  0.0423  1.1919 -0.8757
 2486SOL     OW18916   1.750   0.171  10.779  0.0008 -0.4951 -0.3769
 2486SOL    HW118917   1.663   0.136  10.763 -0.4463  1.0542 -1.3904
 2486SOL    HW218918   1.779   0.177  10.688  0.0616  0.6950 -0.2797
 2487SOL     OW18919   0.618   1.417   5.464  0.3036  0.1436  0.0542
 2487SOL    HW118920   0.704   1.394   5.498  0.5744  1.0341 -0.0299
 2487SOL    HW218921   0.635   1.510   5.446  0.0281  0.2260  0.2218
 2488SOL     OW18922   2.562   3.250   1.754  0.4466  0.6891 -0.1108
 2488SOL    HW118923   2.590   3.172   1.800 -0.2326  0.6157  0.1756
 2488SOL    HW218924   2.533   3.292   1.835  0.2582 -0.2086  0.2809
 2489SOL     OW18925   3.716   4.303  12.832  0.0613 -0.3711 -0.1407
 2489SOL    HW118926   3.787   4.314  12.896 -0.6875  3.8689 -0.0632
 2489SOL    HW218927   3.705   4.396  12.811 -1.0893 -0.1452  1.4886
 2490SOL     OW18928   1.260   2.741   1.273  0.3240 -0.1547  0.1944
 2490SOL    HW118929   1.243   2.740   1.367  0.3606 -0.0654  0.2024
 2490SOL    HW218930   1.339   2.688   1.278  0.4747  0.0360 -0.1363
 2491SOL     OW18931   0.364   0.603   7.326 -0.2737  0.3096 -0.3181
 2491SOL    HW118932   0.452   0.626   7.357 -0.1219  0.2442 -0.7098
 2491SOL    HW218933   0.366   0.656   7.247  0.3832 -0.3297 -0.7303
 2492SOL     OW18934   2.315   0.867  10.938  0.4377  0.4467  0.0852
 2492SOL    HW118935   2.385   0.924  10.906  1.1377 -0.3324  0.2356
 2492SOL    HW218936   2.285   0.920  11.012 -2.0001  0.3269 -0.8226
 2493SOL     OW18937   2.837   2.421   8.615 -0.0550 -0.0625  0.2187
 2493SOL    HW118938   2.776   2.352   8.640 -1.0704  0.7119 -0.1214
 2493SOL    HW218939   2.916   2.369   8.596  0.4045  0.7184 -0.0461
 2494SOL     OW18940   2.976   1.327   8.491  0.9373  0.2720 -0.2650
 2494SOL    HW118941   2.887   1.322   8.528  1.3698  0.5531  0.8271
 2494SOL    HW218942   2.967   1.378   8.411 -1.7172 -1.1823 -0.8769
 2495SOL     OW18943   3.169   3.508   3.985  0.0012  0.7727  0.0375
 2495SOL    HW118944   3.211   3.456   3.916 -0.6049  0.0671  0.2077
 2495SOL    HW218945   3.077   3.493   3.963  0.6875  0.3949 -2.5355
 2496SOL     OW18946   1.544   3.140   7.095 -0.3930 -0.9387  0.6249
 2496SOL    HW118947   1.562   3.048   7.115 -1.5776 -1.4287 -0.5790
 2496SOL    HW218948   1.516   3.177   7.179 -2.3121 -3.5861  1.1613
 2497SOL     OW18949   4.241   0.396   1.836 -0.2536  0.1002  0.7510
 2497SOL    HW118950   4.223   0.440   1.753  0.4442 -0.8250  0.1105
 2497SOL    HW218951   4.336   0.386   1.843  0.0607  1.8508 -1.0778
 2498SOL     OW18952   0.907   2.631  15.015  0.7262 -0.0040  0.7171
 2498SOL    HW118953   0.945   2.564  15.071 -0.0239  0.0089  1.2420
 2498SOL    HW218954   0.855   2.568  14.964  0.3418  0.2430  0.8006
 2499SOL     OW18955   0.064   3.089  12.559  0.2887  0.2677 -0.1143
 2499SOL    HW118956   4.697   3.082  12.526  0.2669 -0.3375  0.0771
 2499SOL    HW218957   0.115   3.056  12.486 -1.1049 -1.6795 -0.1890
 2500SOL     OW18958   1.613   2.475   9.094 -0.3711  0.0949  0.4411
 2500SOL    HW118959   1.699   2.466   9.052 -0.6902 -1.4760  0.0865
 2500SOL    HW218960   1.583   2.384   9.095  0.9321 -0.3618 -0.7403
 2501SOL     OW18961   4.412   0.908   5.521 -0.4745  0.5174 -0.2350
 2501SOL    HW118962   4.329   0.920   5.475 -0.4383  1.7626  0.0037
 2501SOL    HW218963   4.480   0.916   5.455 -0.2122  0.5195  0.0360
 2502SOL     OW18964   2.820   2.968   2.671 -0.0848 -0.0960  0.0137
 2502SOL    HW118965   2.914   2.982   2.683 -0.3333  0.8838  0.8025
 2502SOL    HW218966   2.816   2.896   2.607 -2.9534 -0.3916  0.4938
 2503SOL     OW18967   1.558   4.513   2.456  0.1585 -0.1000 -0.0648
 2503SOL    HW118968   1.636   4.492   2.404  2.4735  2.4099  2.3608
 2503SOL    HW218969   1.526   4.566   2.384  0.2688  0.8117  0.5540
 2504SOL     OW18970   2.596   3.906  15.843  0.7503 -0.2851 -0.0275
 2504SOL    HW118971   2.598   3.937  15.933  1.2953 -1.0585  0.2199
 2504SOL    HW218972   2.503   3.892  15.824  0.6133  0.7048 -0.1109
 2505SOL     OW18973   3.372   3.581   1.925  0.4871  0.3430 -0.3306
 2505SOL    HW118974   3.283   3.614   1.915  0.5989  0.4704 -0.9198
 2505SOL    HW218975   3.388   3.608   2.015 -2.9272 -0.6981  0.6131
 2506SOL     OW18976   2.629   1.591   2.641 -0.1148  0.1801  0.2527
 2506SOL    HW118977   2.630   1.589   2.545  0.2793  0.8929  0.2458
 2506SOL    HW218978   2.571   1.665   2.655  1.4284  1.6455 -1.2093
 2507SOL     OW18979   3.664   3.491   5.649 -0.0879  0.0717  0.4068
 2507SOL    HW118980   3.689   3.582   5.632 -1.4935  0.4521  0.3952
 2507SOL    HW218981   3.712   3.435   5.588 -0.5235 -0.6718  0.7564
 2508SOL     OW18982   1.926   3.013   0.058  0.3268  0.1860 -0.3360
 2508SOL    HW118983   1.993   2.945   0.052  1.3458  1.4190 -2.7286
 2508SOL    HW218984   1.846   2.960   0.056  0.3684 -0.0252  2.9769
 2509SOL     OW18985   2.368   0.332   7.070  0.3592  0.1163  0.4574
 2509SOL    HW118986   2.288   0.282   7.053  0.0872  0.7550 -0.1473
 2509SOL    HW218987   2.416   0.279   7.006 -0.1727  0.9012 -0.5931
 2510SOL     OW18988   3.992   4.631   0.253  0.4095  0.0858 -0.3009
 2510SOL    HW118989   3.897   4.617   0.246  0.5582 -2.3443  2.1959
 2510SOL    HW218990   4.003   4.560   0.189  0.6703  0.6566 -0.8776
 2511SOL     OW18991   1.459   3.768   2.004  0.1390  0.0542 -0.3933
 2511SOL    HW118992   1.428   3.709   1.935  0.1031 -1.7016  1.1217
 2511SOL    HW218993   1.509   3.705   2.057 -1.3720 -0.0509  0.8960
 2512SOL     OW18994   2.972   0.233   9.619 -0.1714 -0.5061  0.0696
 2512SOL    HW118995   2.952   0.266   9.532  0.4425  3.9747  1.6163
 2512SOL    HW218996   3.018   0.309   9.655  0.2931 -0.0125 -1.5869
 2513SOL     OW18997   3.118   1.151   8.223  0.6859  0.0986 -0.2524
 2513SOL    HW118998   3.077   1.214   8.164  1.2681 -0.0445 -0.8106
 2513SOL    HW218999   3.068   1.073   8.197  2.1832 -0.9826  0.1179
 2514SOL     OW19000   1.104   0.999   0.159 -0.1586  0.3864  0.0860
 2514SOL    HW119001   1.187   0.975   0.201 -0.3694 -1.0207 -0.2989
 2514SOL    HW219002   1.095   1.093   0.171 -1.0500  0.3964 -0.6783
 2515SOL     OW19003   4.586   2.808  13.521  0.0748 -0.0193  0.6383
 2515SOL    HW119004   4.676   2.794  13.548 -0.0933  0.3942  1.4033
 2515SOL    HW219005   4.590   2.777  13.430 -0.9856  0.3072  0.4807
 2516SOL     OW19006   3.496   2.057   8.201  0.5288 -0.0287  0.5462
 2516SOL    HW119007   3.509   1.963   8.213 -0.0058 -0.2686 -0.7492
 2516SOL    HW219008   3.529   2.104   8.277 -2.1929 -0.3252  1.9001
 2517SOL     OW19009   0.120   0.077  17.271  0.6888 -0.1365 -0.0516
 2517SOL    HW119010   0.099   0.155  17.323  1.1425 -0.5839  0.8008
 2517SOL    HW219011   0.213   0.084  17.246  0.7360 -0.4903  0.0341
 2518SOL     OW19012   2.672   0.301  14.214 -0.0948 -0.0939 -0.2542
 2518SOL    HW119013   2.603   0.361  14.190 -0.8061 -0.3190  1.2409
 2518SOL    HW219014   2.746   0.348  14.176  0.1562  0.7709  1.3106
 2519SOL     OW19015   0.965   1.546   3.749  0.1113 -0.4155 -0.2220
 2519SOL    HW119016   1.017   1.535   3.669  1.3828 -0.1220  0.5652
 2519SOL    HW219017   1.019   1.486   3.799  2.3179  0.5925 -1.4146
 2520SOL     OW19018   4.552   1.174   5.438 -0.1084 -0.2509 -0.7576
 2520SOL    HW119019   4.533   1.265   5.415  3.2540  0.3566 -1.1079
 2520SOL    HW219020   4.565   1.129   5.355 -0.3142 -0.1616 -0.8397
 2521SOL     OW19021   0.241   4.167   7.204 -0.2091  0.1014  0.3145
 2521SOL    HW119022   0.234   4.086   7.254  0.3508 -0.8061 -1.0684
 2521SOL    HW219023   0.228   4.127   7.118 -0.6247  0.4358  0.2279
 2522SOL     OW19024   1.002   4.606   8.022 -0.1007 -0.3413  0.1665
 2522SOL    HW119025   1.037   4.550   7.953  0.9260 -0.0553  0.4431
 2522SOL    HW219026   0.912   4.582   7.999  1.1798 -1.9407 -3.1532
 2523SOL     OW19027   3.313   2.267   0.168 -0.1064 -0.0218 -0.1495
 2523SOL    HW119028   3.355   2.244   0.086 -0.5084  0.1437 -0.4003
 2523SOL    HW219029   3.329   2.192   0.226  0.3110  0.1655 -0.0197
 2524SOL     OW19030   3.924   4.252  15.084  0.3706 -0.6467 -0.2074
 2524SOL    HW119031   3.871   4.247  15.004 -0.4231 -0.4835  0.3109
 2524SOL    HW219032   3.890   4.326  15.134  0.9814 -0.7544  0.3623
 2525SOL     OW19033   4.482   0.438   7.261 -0.4231  0.0675 -0.5530
 2525SOL    HW119034   4.437   0.356   7.239 -0.5194 -0.0142 -0.0599
 2525SOL    HW219035   4.435   0.473   7.337 -1.5591  3.5197 -2.8715
 2526SOL     OW19036   0.713   0.775   5.887  0.2130 -0.4478  0.7389
 2526SOL    HW119037   0.723   0.796   5.794  0.9602  2.4837  1.4989
 2526SOL    HW219038   0.724   0.854   5.939  1.2943 -0.6722  0.8615
 2527SOL     OW19039   1.249   3.682   5.757  0.2135 -0.1773 -0.1285
 2527SOL    HW119040   1.221   3.770   5.779 -0.9052 -0.5749  0.0588
 2527SOL    HW219041   1.229   3.626   5.832 -0.7460 -0.7091 -0.7767
 2528SOL     OW19042   3.035   1.999   5.624  0.3006 -0.0126 -0.2423
 2528SOL    HW119043   3.044   1.989   5.529 -0.8143 -1.4830 -0.1999
 2528SOL    HW219044   3.075   2.085   5.636  0.9795 -0.1208 -1.7194
 2529SOL     OW19045   3.303   3.924   2.639 -0.1177 -0.3717  0.2810
 2529SOL    HW119046   3.388   3.887   2.662 -0.3865 -0.8464  0.5183
 2529SOL    HW219047   3.299   4.004   2.692  0.3324  0.5779 -1.1327
 2530SOL     OW19048   4.651   3.198   6.656  0.5945  0.2574 -0.0607
 2530SOL    HW119049   0.020   3.206   6.682  0.3873 -0.3198  0.8409
 2530SOL    HW219050   4.602   3.224   6.733  0.0631 -0.2685 -0.2200
 2531SOL     OW19051   2.265   1.275   4.038  0.2994 -0.0936  0.1477
 2531SOL    HW119052   2.246   1.307   3.950 -1.0276 -2.2704 -0.3428
 2531SOL    HW219053   2.354   1.242   4.032  0.2336 -0.5986  1.9124
 2532SOL     OW19054   2.397   2.961   8.590  0.1282  0.2573  0.5203
 2532SOL    HW119055   2.361   2.888   8.539  0.8674  1.1755 -1.3162
 2532SOL    HW219056   2.356   3.038   8.549  0.5192  0.8567  1.2621
 2533SOL     OW19057   0.763   1.657   8.252 -0.7284 -0.0972 -0.5845
 2533SOL    HW119058   0.835   1.640   8.191  0.4874 -0.0183  0.8133
 2533SOL    HW219059   0.800   1.722   8.312 -2.4277 -2.6699  3.2846
 2534SOL     OW19060   0.216   4.442   7.489 -0.1282 -0.2839  0.6516
 2534SOL    HW119061   0.155   4.373   7.463 -0.7387  0.5119 -0.0340
 2534SOL    HW219062   0.206   4.498   7.412 -1.1269 -0.7253  0.4591
 2535SOL     OW19063   2.897   4.635   3.152  0.7831 -0.0333 -0.4606
 2535SOL    HW119064   2.852   4.631   3.067  0.4186 -0.5852 -0.2386
 2535SOL    HW219065   2.868   4.555   3.197 -2.2741  1.1502 -0.3135
 2536SOL     OW19066   3.522   3.870   6.475  0.1401 -0.5912  0.1058
 2536SOL    HW119067   3.493   3.934   6.540 -1.7946 -1.2074 -0.1587
 2536SOL    HW219068   3.523   3.790   6.528 -1.0506  1.2023  2.8643
 2537SOL     OW19069   2.803   2.628   7.899  0.5878  0.5173  0.0544
 2537SOL    HW119070   2.726   2.672   7.862  0.7303 -0.1146 -0.9704
 2537SOL    HW219071   2.878   2.680   7.872  0.5967  0.4787  0.0052
 2538SOL     OW19072   2.468   4.663  10.397  0.3090  0.3189 -0.4254
 2538SOL    HW119073   2.420   4.698  10.472 -0.7151  1.1165 -1.4627
 2538SOL    HW219074   2.471   0.016  10.339  0.3607 -0.1979 -1.1046
 2539SOL     OW19075   1.336   3.961  13.181  0.5937 -0.8091  0.3639
 2539SOL    HW119076   1.365   4.031  13.239  0.3535 -1.0493  0.7727
 2539SOL    HW219077   1.241   3.965  13.174  0.6363 -1.5942 -0.7266
 2540SOL     OW19078   3.047   1.342   8.049  0.3204 -0.2599 -0.5289
 2540SOL    HW119079   2.957   1.343   8.016  0.4526  3.0649 -0.7450
 2540SOL    HW219080   3.085   1.382   7.970 -1.0467  0.6383 -0.7391
 2541SOL     OW19081   0.660   1.371   7.504  0.2941 -0.2634  0.0538
 2541SOL    HW119082   0.577   1.416   7.487  0.7122 -0.2465 -1.9502
 2541SOL    HW219083   0.677   1.389   7.596 -0.6637  0.5122  0.0776
 2542SOL     OW19084   1.095   4.509   4.920  0.1061 -0.0428 -0.3370
 2542SOL    HW119085   1.022   4.500   4.981 -1.5234  1.2786 -2.1123
 2542SOL    HW219086   1.118   4.602   4.932  0.5920 -0.0061 -1.5948
 2543SOL     OW19087   1.189   2.196   8.109  0.0714 -0.2834  0.0582
 2543SOL    HW119088   1.264   2.239   8.150  1.4319  0.4743 -3.2649
 2543SOL    HW219089   1.201   2.106   8.139 -0.0743 -0.3610 -0.1164
 2544SOL     OW19090   0.655   2.763  11.209  0.1616  0.1856 -0.9677
 2544SOL    HW119091   0.570   2.722  11.195 -0.7824  1.5020  0.9335
 2544SOL    HW219092   0.714   2.711  11.154 -0.0538 -0.2914 -0.7465
 2545SOL     OW19093   4.102   0.534   6.464  0.5460 -0.5299 -0.2416
 2545SOL    HW119094   4.033   0.550   6.528 -1.0184  1.7401 -2.5337
 2545SOL    HW219095   4.166   0.485   6.516  0.9977  0.0266 -0.2666
 2546SOL     OW19096   0.999   4.273   6.927  0.0043  0.5563  0.7145
 2546SOL    HW119097   0.959   4.190   6.901 -0.5226  0.5223  1.6051
 2546SOL    HW219098   0.998   4.270   7.023  0.5546  0.6527  0.7190
 2547SOL     OW19099   0.727   4.543  16.518  0.4522 -0.2107 -0.9965
 2547SOL    HW119100   0.823   4.543  16.518  0.4581 -1.2862 -0.0117
 2547SOL    HW219101   0.715   4.597  16.597  3.0549  0.5365 -1.1103
 2548SOL     OW19102   3.998   3.311   2.636 -0.4326  0.1981 -0.4613
 2548SOL    HW119103   3.992   3.261   2.718  0.3734 -0.8067 -1.0247
 2548SOL    HW219104   3.922   3.274   2.590 -0.8764 -0.8345  1.0623
 2549SOL     OW19105   1.685   3.566   2.073 -0.0706 -0.3116  0.4214
 2549SOL    HW119106   1.735   3.609   2.143  1.0625 -1.8971  0.5997
 2549SOL    HW219107   1.675   3.475   2.102  0.3362 -1.0912 -1.9642
 2550SOL     OW19108   1.490   2.558   4.957  0.0379  0.1732 -0.3625
 2550SOL    HW119109   1.417   2.591   5.010 -0.7851  0.7961 -1.8960
 2550SOL    HW219110   1.525   2.486   5.009 -0.3227  0.7174  0.6458
 2551SOL     OW19111   4.154   4.398  15.083 -0.1297  0.3322 -0.0931
 2551SOL    HW119112   4.080   4.338  15.080  1.1510 -1.3330  2.1234
 2551SOL    HW219113   4.156   4.414  15.177 -1.7064  1.9540 -0.3378
 2552SOL     OW19114   2.081   4.669   5.122 -0.2802 -0.2585 -0.1828
 2552SOL    HW119115   2.050   4.680   5.212  0.7132  0.4435  0.0673
 2552SOL    HW219116   2.146   4.599   5.133  1.0278  1.3012  2.0083
 2553SOL     OW19117   3.892   4.433   7.420  0.0123  0.0521 -0.8105
 2553SOL    HW119118   3.813   4.455   7.470  1.9269  0.9071  1.8266
 2553SOL    HW219119   3.853   4.401   7.338  0.3964  0.3608 -1.1159
 2554SOL     OW19120   3.193   4.023  13.935  0.4119 -0.0159  0.3228
 2554SOL    HW119121   3.124   4.075  13.977 -0.6597 -0.5244 -0.7996
 2554SOL    HW219122   3.255   4.022  14.009  0.5693 -3.0171  0.1661
 2555SOL     OW19123   4.538   0.264   4.938  0.2837 -0.2487  0.0654
 2555SOL    HW119124   4.543   0.241   4.845  0.1951  0.2446 -0.0598
 2555SOL    HW219125   4.446   0.290   4.941  0.9806  2.1793  0.0622
 2556SOL     OW19126   2.113   0.681   2.513 -0.1046  0.0809 -0.4185
 2556SOL    HW119127   2.162   0.741   2.456 -1.0550 -0.2063 -1.5480
 2556SOL    HW219128   2.077   0.625   2.444 -1.4251 -1.4626  1.5565
 2557SOL     OW19129   2.565   2.432   7.755  0.5901  0.1893  0.0561
 2557SOL    HW119130   2.513   2.447   7.835  0.5761 -0.1028  0.1008
 2557SOL    HW219131   2.525   2.493   7.694 -0.1941  0.4570  0.8301
 2558SOL     OW19132   0.310   4.188   6.070 -0.3226 -0.5020 -0.0381
 2558SOL    HW119133   0.310   4.207   6.164 -1.9477 -1.1586  0.0946
 2558SOL    HW219134   0.360   4.265   6.044  0.6680 -1.3993 -0.7965
 2559SOL     OW19135   1.356   3.790  15.373  0.0982  0.6662  0.2369
 2559SOL    HW119136   1.405   3.870  15.355 -0.4231  1.1187  0.8220
 2559SOL    HW219137   1.386   3.767  15.461  1.9366  1.3079 -0.2277
 2560SOL     OW19138   1.182   0.596   2.518 -0.5224 -0.0040 -0.3598
 2560SOL    HW119139   1.103   0.547   2.495 -0.0946 -1.0038  0.3158
 2560SOL    HW219140   1.153   0.684   2.494 -1.6203 -0.8725 -2.1935
 2561SOL     OW19141   0.975   2.010   7.047  0.5136 -0.1145 -0.4668
 2561SOL    HW119142   0.946   1.931   7.001 -1.0240  0.3546 -0.2769
 2561SOL    HW219143   0.926   2.074   6.997 -0.7913 -0.0802  0.8584
 2562SOL     OW19144   1.932   4.510   7.164  0.0505 -0.1112 -0.1324
 2562SOL    HW119145   1.903   4.585   7.216  3.4090 -1.1894  3.3101
 2562SOL    HW219146   1.856   4.456   7.144  0.8487 -0.9283 -0.9628
 2563SOL     OW19147   1.385   4.191   5.268 -0.3552 -0.2062  0.4067
 2563SOL    HW119148   1.387   4.180   5.363 -2.1689 -1.8002  0.2711
 2563SOL    HW219149   1.303   4.242   5.264  0.2400  0.7230  0.1415
 2564SOL     OW19150   1.360   0.344  14.047  0.3890 -0.2679  0.9399
 2564SOL    HW119151   1.451   0.373  14.043  1.0196 -2.0951  2.1857
 2564SOL    HW219152   1.304   0.421  14.054 -0.7103 -1.1159  1.4022
 2565SOL     OW19153   0.178   2.860   5.000 -0.3223 -0.2768  0.9512
 2565SOL    HW119154   0.151   2.932   5.056 -1.0095 -0.9574  1.4838
 2565SOL    HW219155   0.272   2.879   5.005 -0.7867  2.2494  0.0626
 2566SOL     OW19156   0.567   4.150  16.412 -0.4482  0.1397  0.2008
 2566SOL    HW119157   0.593   4.225  16.358  1.1037 -0.1199  0.6011
 2566SOL    HW219158   0.487   4.118  16.370 -0.3541 -0.0958  0.2009
 2567SOL     OW19159   3.307   1.946   7.352 -0.5613 -0.2351 -0.5392
 2567SOL    HW119160   3.284   1.925   7.262 -0.1559 -0.3348 -0.6212
 2567SOL    HW219161   3.390   1.897   7.356  0.7948  2.4338  3.3391
 2568SOL     OW19162   2.906   3.494   2.251 -0.3104 -0.1139  0.4346
 2568SOL    HW119163   2.956   3.433   2.305 -0.3219 -0.5391 -0.0461
 2568SOL    HW219164   2.903   3.455   2.164 -1.6417 -0.1407  0.5000
 2569SOL     OW19165   2.735   2.913   7.600  0.6877  0.3280 -0.1677
 2569SOL    HW119166   2.818   2.938   7.641 -0.4882  1.4424  1.4937
 2569SOL    HW219167   2.754   2.829   7.558 -0.5032  0.4381 -0.9341
 2570SOL     OW19168   4.205   2.371   4.939  0.6754  0.1796  0.2028
 2570SOL    HW119169   4.254   2.423   4.876  2.1534 -1.0586  0.3140
 2570SOL    HW219170   4.196   2.435   5.010 -0.6162  1.5755 -1.2259
 2571SOL     OW19171   1.348   2.301   2.631  0.5501  0.4198 -0.7011
 2571SOL    HW119172   1.433   2.328   2.665  1.0956 -1.5222 -0.5227
 2571SOL    HW219173   1.289   2.348   2.690 -0.4149 -0.9154 -0.6107
 2572SOL     OW19174   2.114   4.504   1.212 -0.2803  0.6832  0.5335
 2572SOL    HW119175   2.168   4.558   1.270  0.1061  2.0826 -1.1333
 2572SOL    HW219176   2.167   4.510   1.132 -1.5730  0.5707 -0.3190
 2573SOL     OW19177   3.320   2.743   4.796  0.2298 -0.2934 -0.9219
 2573SOL    HW119178   3.400   2.691   4.791  0.2957 -0.3333  0.5749
 2573SOL    HW219179   3.251   2.676   4.792 -1.1312  1.1868 -2.3110
 2574SOL     OW19180   2.116   4.068   6.962 -0.2534  0.1028 -0.3008
 2574SOL    HW119181   2.124   4.136   7.029 -1.6997 -1.2288  1.2427
 2574SOL    HW219182   2.026   4.081   6.933 -0.6145 -1.0722  0.2818
 2575SOL     OW19183   1.064   1.398   6.577 -0.2032  0.3907  0.0632
 2575SOL    HW119184   0.970   1.414   6.588 -0.2576  0.9565 -1.2239
 2575SOL    HW219185   1.060   1.323   6.517 -1.9937  0.0891  0.5658
 2576SOL     OW19186   0.491   1.323   0.052 -0.1149 -0.5235  0.4124
 2576SOL    HW119187   0.439   1.289   0.126 -1.4014  0.9031  0.1792
 2576SOL    HW219188   0.537   1.397   0.092  1.0078 -1.8754  1.6197
 2577SOL     OW19189   0.731   1.671   3.787 -0.0048  0.3994  0.1985
 2577SOL    HW119190   0.806   1.613   3.795  0.3828  0.7865 -0.5266
 2577SOL    HW219191   0.739   1.682   3.692  0.7096 -0.7503  0.1295
 2578SOL     OW19192   2.910   1.343   6.057  0.2698 -0.2352 -0.0212
 2578SOL    HW119193   2.933   1.251   6.047 -0.8691 -0.4835 -0.3647
 2578SOL    HW219194   2.984   1.365   6.113  0.0402  1.0149 -0.2076
 2579SOL     OW19195   3.201   1.352   0.569  0.0122  1.1246 -0.4712
 2579SOL    HW119196   3.289   1.320   0.589 -0.8846 -0.5401  0.7657
 2579SOL    HW219197   3.148   1.332   0.646  2.6760 -2.0635  0.5493
 2580SOL     OW19198   4.604   2.323   2.494 -0.0536  0.2569 -0.0208
 2580SOL    HW119199   4.677   2.346   2.437 -0.6060 -0.2065 -0.9121
 2580SOL    HW219200   4.636   2.240   2.528  0.2717  0.1076 -0.7035
 2581SOL     OW19201   0.894   3.305   4.654 -0.2209 -0.3156  0.1610
 2581SOL    HW119202   0.853   3.391   4.656 -0.0254 -0.1249 -2.9534
 2581SOL    HW219203   0.895   3.269   4.565 -0.5782 -2.5639  1.0686
 2582SOL     OW19204   3.130   1.996   6.104 -0.2208  0.1939 -0.9933
 2582SOL    HW119205   3.051   2.048   6.091 -1.2082 -0.9850  0.3007
 2582SOL    HW219206   3.117   1.928   6.038 -0.5036  0.0331 -0.7676
 2583SOL     OW19207   0.922   3.826   6.610  0.2015  0.1909 -0.2275
 2583SOL    HW119208   0.928   3.832   6.705 -0.5198  0.4089 -0.1975
 2583SOL    HW219209   0.837   3.869   6.610 -0.0651 -0.3225  1.8603
 2584SOL     OW19210   1.840   4.517  17.087  0.0619 -0.0889  0.3529
 2584SOL    HW119211   1.867   4.538  16.998  2.2463 -1.3891  0.7257
 2584SOL    HW219212   1.845   4.421  17.086  1.3536 -0.0445  2.8093
 2585SOL     OW19213   2.462   0.833   3.149  0.0534 -0.2841 -0.3082
 2585SOL    HW119214   2.529   0.850   3.215 -0.9309 -1.7883  1.0928
 2585SOL    HW219215   2.456   0.923   3.117 -0.2467 -0.7254 -1.4843
 2586SOL     OW19216   4.222   3.018   8.176 -0.3915 -0.1672 -0.0747
 2586SOL    HW119217   4.157   2.947   8.176  1.5101 -1.9248 -1.2362
 2586SOL    HW219218   4.299   2.968   8.205 -0.6427 -1.0979 -0.9832
 2587SOL     OW19219   2.741   3.381   1.617  0.6177 -0.9808 -0.6796
 2587SOL    HW119220   2.669   3.431   1.579  1.4723 -1.0276 -2.3554
 2587SOL    HW219221   2.691   3.315   1.665  1.4575 -0.0582  1.4757
 2588SOL     OW19222   1.226   3.892   2.060  0.0217  0.4567  0.0545
 2588SOL    HW119223   1.207   3.839   1.982 -0.0954  0.3708  0.1416
 2588SOL    HW219224   1.317   3.871   2.084  0.4697  1.1550 -1.0289
 2589SOL     OW19225   1.050   2.994   6.931  0.0468 -0.0127 -0.1933
 2589SOL    HW119226   1.043   3.015   7.024 -2.0247 -0.3153 -0.2913
 2589SOL    HW219227   1.144   2.978   6.924 -0.4162 -1.7524 -2.2260
 2590SOL     OW19228   3.340   2.518   8.162  0.6579  0.1646  0.1348
 2590SOL    HW119229   3.354   2.575   8.237  0.0503 -2.2700  2.0999
 2590SOL    HW219230   3.366   2.434   8.199  0.5915 -0.3590 -0.9957
 2591SOL     OW19231   4.049   0.570   6.829 -0.2946 -0.1851  0.1218
 2591SOL    HW119232   4.014   0.644   6.781  0.4195  1.5520  2.2737
 2591SOL    HW219233   4.120   0.616   6.875  1.2356 -2.3396 -0.0709
 2592SOL     OW19234   3.380   0.435   4.145  0.3008 -0.1766  0.1982
 2592SOL    HW119235   3.464   0.404   4.178 -0.3953 -1.0246  1.1342
 2592SOL    HW219236   3.360   0.505   4.206 -0.6201 -0.3433  0.0758
 2593SOL     OW19237   0.836   4.005  17.317  0.0642  0.7359  0.2077
 2593SOL    HW119238   0.754   4.050  17.336  0.0551  1.2553 -1.0746
 2593SOL    HW219239   0.902   4.074  17.311  0.8442  0.0466  0.8370
 2594SOL     OW19240   0.935   0.753   7.397 -0.2308  0.6046  0.3820
 2594SOL    HW119241   1.031   0.755   7.395 -0.2457 -0.2237 -1.8655
 2594SOL    HW219242   0.926   0.797   7.481  0.1704 -0.1770  0.8445
 2595SOL     OW19243   2.751   0.494   5.633 -0.1914  0.0315 -0.4426
 2595SOL    HW119244   2.772   0.548   5.709  0.2085  0.1914 -0.6686
 2595SOL    HW219245   2.714   0.422   5.683 -0.7481 -0.5215 -1.6299
 2596SOL     OW19246   1.894   0.168   6.544  0.0661  0.1499 -0.0357
 2596SOL    HW119247   1.870   0.119   6.465  0.1237  0.5094 -0.2771
 2596SOL    HW219248   1.964   0.112   6.576 -0.7338 -1.2472 -0.7130
 2597SOL     OW19249   3.168   2.486  11.324 -0.2926  0.3237 -0.1975
 2597SOL    HW119250   3.178   2.566  11.375 -0.5039  0.9173 -1.0790
 2597SOL    HW219251   3.082   2.488  11.283 -0.6348  0.8612  0.5524
 2598SOL     OW19252   4.594   1.361   8.176  0.5263  0.7003 -0.2819
 2598SOL    HW119253   4.550   1.437   8.139  1.0519  0.7084 -0.8825
 2598SOL    HW219254   4.517   1.303   8.177 -0.0915  1.5443  1.0125
 2599SOL     OW19255   4.105   4.587  10.120  0.0901 -0.2660 -0.2027
 2599SOL    HW119256   4.077   4.611  10.032  0.3895 -0.4170 -0.3410
 2599SOL    HW219257   4.135   4.498  10.099  0.7034 -0.3125  0.8310
 2600SOL     OW19258   3.525   0.401   2.560 -0.1102  0.2054  0.3661
 2600SOL    HW119259   3.606   0.372   2.601 -0.9951 -0.3405  1.7450
 2600SOL    HW219260   3.480   0.322   2.529  0.0835  0.0260  0.5452
 2601SOL     OW19261   3.494   2.701   2.564  0.1565  0.1853  0.5085
 2601SOL    HW119262   3.558   2.661   2.622  0.6000  0.9605  0.5515
 2601SOL    HW219263   3.524   2.664   2.481 -1.3938  0.1174 -0.0265
 2602SOL     OW19264   0.243   0.549  16.240 -0.1567 -0.2274  0.1219
 2602SOL    HW119265   0.176   0.488  16.268 -0.5246 -0.3948 -1.1167
 2602SOL    HW219266   0.306   0.529  16.309 -0.2482 -1.4069 -0.1467
 2603SOL     OW19267   4.373   1.216   7.874  0.1693  0.6638 -0.1155
 2603SOL    HW119268   4.381   1.194   7.781 -1.4997  1.6659 -0.4945
 2603SOL    HW219269   4.435   1.289   7.873  1.0641 -0.0829  0.4807
 2604SOL     OW19270   3.484   4.425  16.451  1.0202  1.0002 -0.2611
 2604SOL    HW119271   3.417   4.361  16.424  1.0784  1.3033 -1.1078
 2604SOL    HW219272   3.437   4.508  16.446  1.5639  1.3227  0.0780
 2605SOL     OW19273   3.247   1.957   9.792 -0.2327 -0.2445 -0.4629
 2605SOL    HW119274   3.287   1.887   9.740 -1.0701 -1.3649  0.4231
 2605SOL    HW219275   3.199   1.906   9.856  0.5583 -0.2132  0.1534
 2606SOL     OW19276   0.787   2.064   2.679 -0.6059  0.6272 -0.4787
 2606SOL    HW119277   0.698   2.100   2.684  0.0831  2.0918  1.2813
 2606SOL    HW219278   0.768   1.970   2.684 -1.3984  0.7692 -0.7547
 2607SOL     OW19279   0.628   0.181   9.109 -0.0725 -0.4151 -0.5082
 2607SOL    HW119280   0.610   0.259   9.161 -0.3451 -0.3109 -0.7621
 2607SOL    HW219281   0.695   0.215   9.050  0.4704  0.3564  0.5433
 2608SOL     OW19282   4.005   2.304   4.634  0.0891 -0.3038  0.1953
 2608SOL    HW119283   3.939   2.370   4.652 -0.6352 -0.7135 -0.9324
 2608SOL    HW219284   4.082   2.362   4.637  0.2377 -0.4918  0.0734
 2609SOL     OW19285   2.736   2.332   3.403  0.4124  0.0301 -0.8757
 2609SOL    HW119286   2.751   2.261   3.341 -1.0484 -2.0018  1.0860
 2609SOL    HW219287   2.722   2.412   3.353 -0.4595  1.1155  1.0946
 2610SOL     OW19288   4.232   2.879   3.511  0.1843 -0.0487  0.1461
 2610SOL    HW119289   4.314   2.832   3.496 -0.2927 -0.8145 -0.0575
 2610SOL    HW219290   4.179   2.840   3.441  0.3515 -2.5317  1.4192
 2611SOL     OW19291   4.018   3.027   3.924 -0.2142  0.3038  0.6353
 2611SOL    HW119292   4.074   3.029   3.846 -2.4423  0.2001 -0.9740
 2611SOL    HW219293   4.038   2.938   3.952  1.5793  0.7446  0.7260
 2612SOL     OW19294   4.247   2.186  16.350  0.6431  0.2621  0.0242
 2612SOL    HW119295   4.270   2.262  16.296  0.5369  1.2132  1.3350
 2612SOL    HW219296   4.163   2.163  16.310  0.8230 -0.5540  0.0957
 2613SOL     OW19297   1.313   1.632   3.351 -0.5565 -0.3010 -0.0270
 2613SOL    HW119298   1.322   1.557   3.292  2.1700 -0.0853  0.1385
 2613SOL    HW219299   1.393   1.673   3.320 -1.0572  0.4957 -0.2603
 2614SOL     OW19300   3.471   0.080   1.988  0.0570 -0.0237  0.0744
 2614SOL    HW119301   3.496   0.029   1.911  1.6927  1.1134 -0.1537
 2614SOL    HW219302   3.380   0.051   1.999 -0.1097 -0.1230 -1.5407
 2615SOL     OW19303   2.689   4.014   0.830  0.5786 -0.0453 -0.2222
 2615SOL    HW119304   2.619   4.080   0.837  1.1073  0.8587 -3.5247
 2615SOL    HW219305   2.754   4.047   0.892 -1.0891  0.0252  1.5008
 2616SOL     OW19306   2.836   3.743   5.138 -0.2727 -0.5334  0.0418
 2616SOL    HW119307   2.830   3.665   5.084 -0.0007  1.4205 -2.7911
 2616SOL    HW219308   2.863   3.814   5.079 -3.0992 -0.6833 -1.3852
 2617SOL     OW19309   0.959   2.303  16.957 -1.0608  0.8272 -0.3108
 2617SOL    HW119310   1.040   2.336  16.995 -1.1810  1.0021 -0.2124
 2617SOL    HW219311   0.911   2.384  16.941 -1.2717  1.0716  1.5662
 2618SOL     OW19312   2.705   3.223  10.995 -0.4118  0.6779  0.4516
 2618SOL    HW119313   2.662   3.302  11.028  0.1489  1.2435 -0.1923
 2618SOL    HW219314   2.661   3.157  11.049 -0.5793  0.1625 -0.3203
 2619SOL     OW19315   1.954   2.224   7.235  0.0229 -0.5203 -0.4703
 2619SOL    HW119316   1.892   2.199   7.304  1.0385  1.8172  1.2708
 2619SOL    HW219317   1.935   2.162   7.164  2.8632  0.2752 -1.8986
 2620SOL     OW19318   1.153   4.713   8.585  0.1649  0.8568 -0.1327
 2620SOL    HW119319   1.187   0.021   8.500 -0.9669 -2.7072 -1.8702
 2620SOL    HW219320   1.186   4.623   8.580  0.1974  0.7687  1.9543
 2621SOL     OW19321   0.784   2.333   0.125  0.5142  0.1164 -0.2011
 2621SOL    HW119322   0.695   2.368   0.135  0.1252 -1.2014  0.9563
 2621SOL    HW219323   0.774   2.276   0.049 -1.8493  0.0360  0.1787
 2622SOL     OW19324   2.347   0.645  11.155  0.3581 -0.3197 -0.3229
 2622SOL    HW119325   2.429   0.693  11.166  0.3086 -0.3066  0.0000
 2622SOL    HW219326   2.363   0.585  11.082 -0.8504  0.2819 -1.0750
 2623SOL     OW19327   2.585   4.029   5.903  0.2022 -0.0396  0.3949
 2623SOL    HW119328   2.609   4.121   5.895  2.2702 -0.8193 -2.5239
 2623SOL    HW219329   2.525   4.015   5.829  1.9013 -1.5822 -0.6907
 2624SOL     OW19330   1.669   1.997  17.212  0.4932 -0.4281 -0.5057
 2624SOL    HW119331   1.632   2.080  17.242 -0.4920 -1.0331 -0.0675
 2624SOL    HW219332   1.677   1.948  17.293  0.5414 -2.3510 -1.6643
 2625SOL     OW19333   1.995   0.391   0.781 -0.0108 -0.0993 -0.0167
 2625SOL    HW119334   1.900   0.401   0.788  0.1227  2.3990 -1.8554
 2625SOL    HW219335   2.010   0.464   0.722 -2.7651 -1.5872 -2.5709
 2626SOL     OW19336   4.188   0.496   1.547 -0.3377  0.1834  0.0769
 2626SOL    HW119337   4.245   0.465   1.477 -0.0261  1.0668 -0.0658
 2626SOL    HW219338   4.137   0.569   1.510  1.3577  1.5108  0.3626
 2627SOL     OW19339   2.515   4.433  17.361 -0.2827  0.1378  0.0736
 2627SOL    HW119340   2.493   4.389  17.278  2.1736 -1.1357  0.1061
 2627SOL    HW219341   2.595   4.390  17.391 -1.4890 -1.5995  0.8161
 2628SOL     OW19342   4.377   2.105   6.428  0.0249  0.3463  0.0573
 2628SOL    HW119343   4.300   2.162   6.426 -0.7055 -0.6999 -1.1547
 2628SOL    HW219344   4.402   2.113   6.336  1.1559  2.1034  0.5150
 2629SOL     OW19345   4.513   0.454   5.426 -0.1765  0.0514  0.4031
 2629SOL    HW119346   4.517   0.406   5.343  0.0636  0.8983 -0.0792
 2629SOL    HW219347   4.567   0.401   5.485 -0.4895  1.3388  1.8300
 2630SOL     OW19348   2.767   3.725   3.066  0.2745  0.6493 -0.0459
 2630SOL    HW119349   2.682   3.702   3.027  0.5666 -0.1490 -0.2080
 2630SOL    HW219350   2.821   3.697   2.992 -0.2731 -0.5614  0.0089
 2631SOL     OW19351   3.564   1.912   9.480 -0.4785 -0.1916  0.5648
 2631SOL    HW119352   3.653   1.921   9.515 -0.7693  2.2894  0.7131
 2631SOL    HW219353   3.545   1.999   9.445 -0.4270  0.2436  1.6309
 2632SOL     OW19354   4.581   2.248  10.277  0.4377 -0.6241  0.1246
 2632SOL    HW119355   4.620   2.331  10.249 -1.9695  0.1946 -0.7597
 2632SOL    HW219356   4.493   2.285  10.283 -0.3063 -2.2277 -0.9366
 2633SOL     OW19357   2.563   0.136   6.187 -0.3084 -0.4407 -0.0319
 2633SOL    HW119358   2.558   0.177   6.274 -0.7737 -2.0012  0.6619
 2633SOL    HW219359   2.546   0.208   6.126  0.5009 -0.2525 -0.0473
 2634SOL     OW19360   1.665   0.720   8.350  0.0042 -0.1278 -0.3243
 2634SOL    HW119361   1.571   0.727   8.364  0.2153 -0.8514  1.5131
 2634SOL    HW219362   1.682   0.637   8.394  3.4515  0.6458 -0.1837
 2635SOL     OW19363   2.751   2.298   5.271 -0.0757  0.4245  0.2801
 2635SOL    HW119364   2.668   2.332   5.239  0.8270  1.5602 -0.8205
 2635SOL    HW219365   2.785   2.382   5.302  0.5424 -0.9859  3.4952
 2636SOL     OW19366   2.370   2.157   3.846 -0.3970 -0.1535  0.7343
 2636SOL    HW119367   2.346   2.209   3.770 -0.2779  1.4200  1.7802
 2636SOL    HW219368   2.355   2.228   3.908 -0.5420  0.6840 -0.2586
 2637SOL     OW19369   4.596   0.611   0.400  0.1169 -0.0729 -0.2131
 2637SOL    HW119370   4.548   0.534   0.429 -2.3878  0.7641 -2.1700
 2637SOL    HW219371   4.686   0.577   0.403  0.2926  0.5260  0.9738
 2638SOL     OW19372   2.220   0.164  14.738  0.2392 -0.4446 -0.2406
 2638SOL    HW119373   2.253   0.253  14.750 -0.9157  0.1546 -1.6051
 2638SOL    HW219374   2.281   0.108  14.786  0.4087 -0.5523 -0.5772
 2639SOL     OW19375   3.350   3.181   8.636  0.4810  0.0594  0.5137
 2639SOL    HW119376   3.283   3.113   8.630  1.1970 -0.7130  1.1636
 2639SOL    HW219377   3.424   3.121   8.629 -1.0421 -1.6452 -0.7961
 2640SOL     OW19378   0.614   0.874   3.306  0.4896  0.2241  0.5372
 2640SOL    HW119379   0.612   0.780   3.288 -3.7343  0.6686 -1.3102
 2640SOL    HW219380   0.695   0.900   3.262 -0.8984  1.5272 -1.1939
 2641SOL     OW19381   0.215   3.361   1.795  0.5322  0.1791 -0.4924
 2641SOL    HW119382   0.283   3.305   1.758  1.1942  1.2898 -0.9521
 2641SOL    HW219383   0.229   3.451   1.763 -2.4776  1.1825  1.0303
 2642SOL     OW19384   1.619   3.671   7.997  0.1623 -0.4704  0.5330
 2642SOL    HW119385   1.577   3.750   8.029  3.4617  0.4769  2.5784
 2642SOL    HW219386   1.541   3.618   7.983 -0.2494  0.6398 -1.3247
 2643SOL     OW19387   2.989   3.474  12.232  0.1099 -0.2102  0.2023
 2643SOL    HW119388   2.999   3.549  12.291 -0.7727  2.0141 -2.4277
 2643SOL    HW219389   3.051   3.506  12.166  0.2875 -1.0096 -0.0148
 2644SOL     OW19390   0.322   4.205   5.681 -0.4903  0.3973 -0.2770
 2644SOL    HW119391   0.398   4.152   5.706 -1.5522 -0.1921  1.6794
 2644SOL    HW219392   0.361   4.257   5.611 -0.1761 -1.8671 -1.7863
 2645SOL     OW19393   3.273   1.451   1.005 -0.0995  0.1354  0.1325
 2645SOL    HW119394   3.209   1.458   1.075 -0.9222 -0.5530 -0.5629
 2645SOL    HW219395   3.224   1.508   0.946  3.0458  0.5102 -2.1352
 2646SOL     OW19396   4.033   3.001   7.709  0.1741 -0.1681  0.0741
 2646SOL    HW119397   3.943   3.033   7.715  0.2307  0.3155 -1.7181
 2646SOL    HW219398   4.070   3.049   7.635 -0.2818  3.6269  2.2794
 2647SOL     OW19399   0.902   2.961   9.146 -0.0800 -0.1854  0.1234
 2647SOL    HW119400   0.874   3.014   9.222  1.0618 -1.0547  1.1398
 2647SOL    HW219401   0.958   2.897   9.190 -1.1010 -0.0553  1.6202
 2648SOL     OW19402   3.398   0.490   2.813 -0.2126  0.1330  0.3084
 2648SOL    HW119403   3.368   0.400   2.820 -0.6695  0.1448 -1.6232
 2648SOL    HW219404   3.415   0.487   2.719 -2.1070 -2.6548  0.0444
 2649SOL     OW19405   3.695   0.111   4.665 -0.0500 -0.2969  0.0420
 2649SOL    HW119406   3.647   0.179   4.618 -0.7425  0.8307  2.3746
 2649SOL    HW219407   3.759   0.105   4.594 -0.7627 -1.1175 -0.5199
 2650SOL     OW19408   1.952   1.378   5.498  0.4184  0.9100  0.4612
 2650SOL    HW119409   1.990   1.454   5.455  1.3628 -1.2599 -2.5404
 2650SOL    HW219410   1.861   1.402   5.515  0.3462  1.4783 -0.7193
 2651SOL     OW19411   2.507   2.510   2.438  0.0350 -0.3071  0.0222
 2651SOL    HW119412   2.517   2.575   2.369 -0.5354  1.7402  1.8955
 2651SOL    HW219413   2.414   2.493   2.424  0.1922 -1.3214  0.2035
 2652SOL     OW19414   2.886   3.818  16.018 -0.0287  0.7925 -0.3887
 2652SOL    HW119415   2.861   3.763  15.944 -0.4473  0.8624 -0.2965
 2652SOL    HW219416   2.979   3.818  15.992 -0.1224  0.2987 -0.7355
 2653SOL     OW19417   1.627   1.996   3.545  0.3259 -0.1620  0.0986
 2653SOL    HW119418   1.535   2.024   3.540  0.5379  0.6027  0.4937
 2653SOL    HW219419   1.674   2.078   3.559  0.8290 -0.5390  0.6070
 2654SOL     OW19420   4.393   2.749  13.825 -0.4858 -0.7329  0.3083
 2654SOL    HW119421   4.324   2.791  13.774 -0.3037  1.8433  2.1612
 2654SOL    HW219422   4.369   2.770  13.916  0.4510  0.1605  0.3451
 2655SOL     OW19423   3.829   4.470  15.214 -0.9390  0.4742 -0.3730
 2655SOL    HW119424   3.734   4.465  15.205 -0.8779 -0.5168 -0.4155
 2655SOL    HW219425   3.847   4.564  15.215 -0.3031  0.3720 -2.5003
 2656SOL     OW19426   0.699   0.265   1.168 -0.1917  0.1679 -0.3730
 2656SOL    HW119427   0.727   0.173   1.168 -0.2962  0.1362 -1.0651
 2656SOL    HW219428   0.710   0.277   1.262  0.0592 -0.9182 -0.2606
 2657SOL     OW19429   1.625   1.294   9.328  0.4735  0.0785 -0.0116
 2657SOL    HW119430   1.557   1.330   9.386 -0.0955  0.2083 -0.7574
 2657SOL    HW219431   1.670   1.231   9.383  0.4155  1.8975  2.1221
 2658SOL     OW19432   4.252   0.527   2.129 -0.6635 -0.1663 -0.4638
 2658SOL    HW119433   4.314   0.517   2.202  0.1887  0.4717 -1.0926
 2658SOL    HW219434   4.305   0.579   2.068 -0.5991 -1.7176 -1.7281
 2659SOL     OW19435   1.085   1.493  15.587  0.1347  0.0704 -0.0738
 2659SOL    HW119436   1.074   1.400  15.565 -1.3632  0.0363  0.7835
 2659SOL    HW219437   1.176   1.489  15.617  0.0701 -1.5136 -0.0996
 2660SOL     OW19438   2.709   2.516   0.913 -0.1643  0.1821  0.9436
 2660SOL    HW119439   2.652   2.473   0.849 -0.3074 -1.3359  2.1032
 2660SOL    HW219440   2.795   2.478   0.893  0.0459  0.1498  1.9351
 2661SOL     OW19441   0.975   1.268   8.118 -0.3900  0.6000 -0.0029
 2661SOL    HW119442   1.014   1.331   8.178  0.5524 -1.1531  1.2167
 2661SOL    HW219443   1.036   1.281   8.045  2.3611  2.2699  2.6083
 2662SOL     OW19444   3.181   1.755  14.706 -0.2174  0.1076 -0.4933
 2662SOL    HW119445   3.250   1.818  14.683 -0.6177  0.0257 -1.8994
 2662SOL    HW219446   3.233   1.674  14.713  0.0208  0.2264 -0.8847
 2663SOL     OW19447   4.279   2.409  16.186  0.2834 -0.0418  0.3729
 2663SOL    HW119448   4.288   2.434  16.094  0.2161  1.8898  0.8930
 2663SOL    HW219449   4.193   2.439  16.217 -1.0948 -0.0274 -3.4836
 2664SOL     OW19450   3.501   0.875   6.179  0.0846 -0.1789 -0.2351
 2664SOL    HW119451   3.538   0.806   6.124  1.0493  0.2980 -0.1876
 2664SOL    HW219452   3.408   0.873   6.154  0.4730  0.5767 -1.7536
 2665SOL     OW19453   4.398   0.823   5.118 -0.4475 -0.0106 -0.4582
 2665SOL    HW119454   4.482   0.782   5.099 -0.1118  0.4856 -0.0494
 2665SOL    HW219455   4.329   0.760   5.139 -1.7516  1.3014 -0.8011
 2666SOL     OW19456   2.610   4.545   3.553  0.2795 -0.0391 -0.1725
 2666SOL    HW119457   2.587   4.527   3.644  0.7553  1.6875  0.3002
 2666SOL    HW219458   2.626   4.455   3.525  0.8458 -0.3742  1.2160
 2667SOL     OW19459   3.582   2.279   5.272  0.4338  0.0999  0.1071
 2667SOL    HW119460   3.590   2.266   5.177 -0.5187  1.3229 -0.1543
 2667SOL    HW219461   3.673   2.255   5.288  0.5016  0.1002 -0.2768
 2668SOL     OW19462   3.726   0.580   3.947  0.0348 -1.3298  0.7598
 2668SOL    HW119463   3.780   0.563   3.870  0.2018  2.6065  0.0470
 2668SOL    HW219464   3.713   0.673   3.931  0.0382 -1.3341  0.7318
 2669SOL     OW19465   3.673   4.503   2.722  0.1664  0.1722 -0.2156
 2669SOL    HW119466   3.594   4.468   2.680  0.1410  0.1769 -0.1717
 2669SOL    HW219467   3.706   4.538   2.639 -1.3508  0.8789 -0.5280
 2670SOL     OW19468   3.051   2.775   3.628  0.2188 -0.0790 -0.0014
 2670SOL    HW119469   3.129   2.720   3.628  0.3590  0.1210  0.9795
 2670SOL    HW219470   2.999   2.745   3.553  0.7906  0.3759 -0.5782
 2671SOL     OW19471   2.555   0.394  11.179 -0.5293  0.0324 -0.3606
 2671SOL    HW119472   2.545   0.387  11.084 -2.0570  2.3083 -0.3638
 2671SOL    HW219473   2.649   0.409  11.187 -0.4650 -0.7991  0.4344
 2672SOL     OW19474   3.362   3.819   3.630 -0.0404  0.2158  0.1439
 2672SOL    HW119475   3.338   3.730   3.605  1.5594 -0.1555 -0.0516
 2672SOL    HW219476   3.448   3.802   3.669  1.0972  2.8906 -1.1669
 2673SOL     OW19477   1.791   1.282   3.665  0.2570  0.1027  0.1229
 2673SOL    HW119478   1.851   1.231   3.612  1.1993  1.1189  0.1974
 2673SOL    HW219479   1.824   1.366   3.633  1.4358 -0.4151  0.0093
 2674SOL     OW19480   3.885   0.640   5.341  0.4222  0.7032  0.0050
 2674SOL    HW119481   3.819   0.589   5.388  0.4792  2.0138  1.4998
 2674SOL    HW219482   3.943   0.662   5.414 -0.3210 -1.2615  1.1829
 2675SOL     OW19483   2.322   2.583   0.750  0.2707  0.1652 -0.4542
 2675SOL    HW119484   2.251   2.541   0.701 -0.7709  3.3220 -1.6902
 2675SOL    HW219485   2.372   2.504   0.772 -2.3959 -0.6467  2.6314
 2676SOL     OW19486   4.610   2.063  10.076 -0.0890  0.3914 -0.1163
 2676SOL    HW119487   4.637   2.142  10.122  0.2078 -1.0884  2.3038
 2676SOL    HW219488   4.614   2.085   9.983  0.4864  0.0375 -0.1816
 2677SOL     OW19489   2.187   2.644   8.216 -0.5139 -0.2514 -0.2367
 2677SOL    HW119490   2.177   2.549   8.218 -2.7400 -0.0104  0.0865
 2677SOL    HW219491   2.129   2.668   8.143 -1.0760  2.7461  1.1713
 2678SOL     OW19492   0.612   0.519   2.115 -0.9598  0.3165  0.5756
 2678SOL    HW119493   0.650   0.527   2.203 -1.9645 -1.1760  1.1496
 2678SOL    HW219494   0.581   0.609   2.103 -0.4989  0.4674  0.5214
 2679SOL     OW19495   4.695   1.568   3.526 -0.3429  0.7727  0.0837
 2679SOL    HW119496   4.710   1.653   3.566  1.1534  0.3381  0.4489
 2679SOL    HW219497   0.061   1.541   3.502 -1.1158 -2.3160  0.6550
 2680SOL     OW19498   3.661   1.229   6.056 -1.3092  0.2001 -0.3795
 2680SOL    HW119499   3.700   1.257   5.973  1.8935  1.9148  1.7108
 2680SOL    HW219500   3.566   1.231   6.042 -1.4394 -1.4757  0.2863
 2681SOL     OW19501   3.201   1.765  12.632 -0.6585 -0.6681  0.0320
 2681SOL    HW119502   3.139   1.743  12.702  0.5591  1.5843  1.8130
 2681SOL    HW219503   3.274   1.714  12.666 -1.2109 -0.4645  1.5461
 2682SOL     OW19504   4.703   2.491   5.327 -0.4599  0.0183  0.1972
 2682SOL    HW119505   4.661   2.564   5.372 -1.3566  0.5276 -1.4801
 2682SOL    HW219506   0.040   2.545   5.276  0.0993 -0.7331  0.0608
 2683SOL     OW19507   4.558   3.278  16.534  0.0180 -0.3308  0.2755
 2683SOL    HW119508   4.562   3.190  16.496  0.1813 -1.1034  2.1097
 2683SOL    HW219509   4.473   3.318  16.516 -0.1389  0.0079  1.7592
 2684SOL     OW19510   0.362   1.491   8.112  0.2441 -0.2732 -0.7064
 2684SOL    HW119511   0.389   1.402   8.090 -0.4816 -0.4516 -0.8697
 2684SOL    HW219512   0.409   1.546   8.050 -0.7659 -0.1901 -1.3876
 2685SOL     OW19513   1.031   3.316   9.703 -0.7395 -0.5314  0.3223
 2685SOL    HW119514   1.123   3.291   9.712  0.1120  2.8182  0.9508
 2685SOL    HW219515   1.003   3.255   9.771 -1.8911 -0.2915  0.0590
 2686SOL     OW19516   0.655   4.051   4.672 -0.0375  0.0364 -0.3489
 2686SOL    HW119517   0.570   4.069   4.712 -0.6006  1.5111 -2.2156
 2686SOL    HW219518   0.714   4.103   4.727 -1.0416 -0.3825  1.1068
 2687SOL     OW19519   2.647   1.593   6.969  0.4241  0.0309 -0.5508
 2687SOL    HW119520   2.617   1.676   6.933  0.8009  0.4250  0.0553
 2687SOL    HW219521   2.739   1.614   6.984  0.6746 -1.2145 -0.3073
 2688SOL     OW19522   2.775   3.062   9.905  0.4150 -0.0322 -0.1689
 2688SOL    HW119523   2.739   2.981   9.940  1.0757 -1.1555 -2.1309
 2688SOL    HW219524   2.782   3.031   9.815  0.4485 -0.5442  0.0127
 2689SOL     OW19525   3.883   2.404  13.238 -0.6586  0.0814  0.0142
 2689SOL    HW119526   3.804   2.351  13.248  0.7795 -2.0349  0.2339
 2689SOL    HW219527   3.874   2.437  13.149  0.3567 -1.6393 -0.7143
 2690SOL     OW19528   3.925   1.308   7.262  0.3471 -0.6743  0.2215
 2690SOL    HW119529   3.879   1.361   7.327 -1.6584 -0.2296 -1.5863
 2690SOL    HW219530   3.901   1.358   7.184 -2.6265  0.2839  1.7321
 2691SOL     OW19531   3.376   0.032  14.661 -0.2024  0.3031 -0.0730
 2691SOL    HW119532   3.388   4.664  14.631 -0.2032  0.1066  0.5243
 2691SOL    HW219533   3.459   0.041  14.708  0.6841 -1.4841 -1.2738
 2692SOL     OW19534   0.902   1.522   3.032  0.2165  0.1272 -0.7701
 2692SOL    HW119535   0.890   1.560   2.944 -1.8135  0.5418 -0.3113
 2692SOL    HW219536   0.903   1.430   3.009  1.9602 -0.7780  2.9831
 2693SOL     OW19537   4.114   3.387  15.490  0.3002  0.0713 -0.0083
 2693SOL    HW119538   4.091   3.325  15.421  0.7318 -0.7741  0.6174
 2693SOL    HW219539   4.129   3.327  15.563 -2.4900 -1.4174 -0.6581
 2694SOL     OW19540   2.045   1.387   2.898 -0.2042 -0.6843 -0.4981
 2694SOL    HW119541   2.106   1.364   2.968  1.6754 -0.6554 -2.1350
 2694SOL    HW219542   2.036   1.299   2.861 -0.5191 -1.2003  0.8079
 2695SOL     OW19543   2.308   0.443   4.599 -0.1946  0.4623 -0.0428
 2695SOL    HW119544   2.304   0.538   4.588 -0.0116  0.5314  0.4675
 2695SOL    HW219545   2.278   0.431   4.509  1.7118  2.1148 -0.9171
 2696SOL     OW19546   2.748   0.761   2.951 -0.2202 -0.9907 -0.3940
 2696SOL    HW119547   2.741   0.708   3.031 -0.7031  1.0574  0.9079
 2696SOL    HW219548   2.836   0.796   2.968 -1.0798  1.0978 -0.2758
 2697SOL     OW19549   2.781   3.416  15.916 -0.0342 -0.9471 -0.0210
 2697SOL    HW119550   2.746   3.503  15.898 -0.7247 -1.4206 -0.9740
 2697SOL    HW219551   2.700   3.368  15.936 -1.6703  1.0095 -1.8761
 2698SOL     OW19552   0.789   1.526   9.189  0.5942 -0.1168  0.0932
 2698SOL    HW119553   0.802   1.456   9.125 -0.8947  1.2518 -1.7003
 2698SOL    HW219554   0.754   1.598   9.137  0.6423  1.5797  2.4135
 2699SOL     OW19555   2.430   0.553   2.499  0.1196  0.0701  0.3374
 2699SOL    HW119556   2.486   0.580   2.572  0.8222 -0.3897 -0.0283
 2699SOL    HW219557   2.438   0.637   2.454  0.8735 -0.3599 -0.3225
 2700SOL     OW19558   4.634   3.950   8.397 -0.2519  0.5899  0.6417
 2700SOL    HW119559   4.649   4.015   8.466 -0.0712  0.5987  0.5958
 2700SOL    HW219560   4.722   3.941   8.359 -0.7047  0.0030 -0.2592
 2701SOL     OW19561   1.628   0.581   7.163  0.1338 -0.8011  0.2760
 2701SOL    HW119562   1.571   0.588   7.240  0.4923  0.1879  0.4563
 2701SOL    HW219563   1.604   0.490   7.145 -1.8120 -0.3054  0.4058
 2702SOL     OW19564   1.275   4.479   0.944 -0.1138 -0.0420  0.1569
 2702SOL    HW119565   1.334   4.404   0.953 -0.4859 -0.1542  1.6355
 2702SOL    HW219566   1.307   4.533   1.016  2.9053 -1.5385 -0.0285
 2703SOL     OW19567   2.239   2.209  13.822 -0.0489 -0.5304 -0.0484
 2703SOL    HW119568   2.301   2.261  13.874 -1.5926 -0.3390  1.6105
 2703SOL    HW219569   2.159   2.256  13.846  0.6426  0.6524 -0.0736
 2704SOL     OW19570   4.602   1.750   7.674  0.1042  0.1112 -0.0569
 2704SOL    HW119571   4.660   1.703   7.733  0.3258  0.3886 -0.0529
 2704SOL    HW219572   4.562   1.811   7.736 -0.9724 -0.1831 -0.4568
 2705SOL     OW19573   2.383   0.614   7.004 -0.7459  0.3303 -0.0940
 2705SOL    HW119574   2.373   0.519   7.010 -1.9954  0.3421 -1.9126
 2705SOL    HW219575   2.294   0.644   6.987 -0.9865  0.7665  1.9010
 2706SOL     OW19576   0.851   3.211  12.486 -0.4293  0.0472 -0.3283
 2706SOL    HW119577   0.788   3.274  12.451  0.3051 -0.6972 -2.9168
 2706SOL    HW219578   0.813   3.176  12.567  2.0537 -0.3522  0.6771
 2707SOL     OW19579   4.664   1.572   6.493  0.1365  0.2824 -0.0570
 2707SOL    HW119580   4.601   1.640   6.470  0.1650  0.5744  0.6965
 2707SOL    HW219581   4.719   1.563   6.415  0.7455  1.2522  0.2570
 2708SOL     OW19582   1.603   2.480  11.104 -0.1822 -0.0218  0.2377
 2708SOL    HW119583   1.509   2.491  11.091  0.3133  0.3885 -3.0473
 2708SOL    HW219584   1.640   2.566  11.086  2.0510 -1.2813 -1.2780
 2709SOL     OW19585   2.939   1.483   8.256  0.2413 -0.0274 -0.5115
 2709SOL    HW119586   2.915   1.567   8.216 -0.5097 -0.3139 -0.6722
 2709SOL    HW219587   2.982   1.443   8.181 -1.3295  0.9602 -1.9616
 2710SOL     OW19588   3.995   1.304   4.088 -0.0703  0.2140 -0.3493
 2710SOL    HW119589   3.917   1.352   4.060  0.2387  0.7560 -0.2927
 2710SOL    HW219590   4.043   1.380   4.123  2.3755 -2.0480  1.2227
 2711SOL     OW19591   0.161   3.757  17.596  0.2259  0.1083 -1.2617
 2711SOL    HW119592   0.148   3.803  17.513 -1.9806  2.2236  0.2657
 2711SOL    HW219593   0.076   3.783  17.631 -0.4426 -1.3971 -1.7844
 2712SOL     OW19594   2.736   0.302  11.856 -0.1837 -0.1692  0.6290
 2712SOL    HW119595   2.714   0.233  11.919 -0.8103  2.0852  2.8692
 2712SOL    HW219596   2.679   0.268  11.787  3.8657 -0.1485 -2.7439
 2713SOL     OW19597   2.671   1.723   4.476  0.5104 -0.2689 -0.0388
 2713SOL    HW119598   2.592   1.709   4.529 -1.0688  2.5610 -1.6627
 2713SOL    HW219599   2.652   1.646   4.422  3.0745  1.2234 -3.0461
 2714SOL     OW19600   3.328   2.753   2.075 -0.1574  0.0535  0.2823
 2714SOL    HW119601   3.347   2.815   2.005  1.0953 -2.6869 -1.7936
 2714SOL    HW219602   3.395   2.685   2.071  0.1556  0.1820  3.1954
 2715SOL     OW19603   3.126   2.409   2.814 -0.1865  0.0804  0.2888
 2715SOL    HW119604   3.200   2.458   2.850 -0.3624  0.3951  0.2232
 2715SOL    HW219605   3.064   2.482   2.819 -2.3108 -1.5917 -1.5769
 2716SOL     OW19606   1.108   4.004   2.339  0.3261  0.6723 -0.1894
 2716SOL    HW119607   1.057   3.942   2.286  1.1681 -0.1881 -0.0032
 2716SOL    HW219608   1.123   3.947   2.415 -0.5234  0.8196  0.0874
 2717SOL     OW19609   2.950   0.310  12.051  0.4302 -0.0394 -0.3078
 2717SOL    HW119610   2.896   0.303  11.972 -1.4642  0.1961  0.9729
 2717SOL    HW219611   2.989   0.398  12.044  0.6247 -0.1508 -0.6611
 2718SOL     OW19612   2.422   4.316  13.623  0.0805  0.0488 -0.4261
 2718SOL    HW119613   2.356   4.272  13.677 -1.0184  3.7802  1.3178
 2718SOL    HW219614   2.432   4.250  13.555 -2.9822 -1.7246  0.8227
 2719SOL     OW19615   1.675   2.219  10.510 -0.1574  0.0745  0.6021
 2719SOL    HW119616   1.681   2.144  10.450 -0.6239  0.5237 -0.0050
 2719SOL    HW219617   1.711   2.183  10.591 -1.1717 -2.9105 -0.2515
 2720SOL     OW19618   3.293   1.681   3.219 -0.2375  0.2239 -0.3397
 2720SOL    HW119619   3.330   1.769   3.221  1.0528 -0.3359  0.2212
 2720SOL    HW219620   3.351   1.638   3.157 -1.3806 -1.1508 -0.4663
 2721SOL     OW19621   3.465   4.269  15.082  0.1121 -0.4040 -0.6132
 2721SOL    HW119622   3.401   4.253  15.152 -0.3551  0.8381 -0.7507
 2721SOL    HW219623   3.535   4.206  15.098 -0.9095 -1.6163 -0.8425
 2722SOL     OW19624   0.720   0.518   2.378 -0.1168 -0.0293  0.4615
 2722SOL    HW119625   0.707   0.588   2.442  0.5542  1.5121 -1.0841
 2722SOL    HW219626   0.666   0.445   2.409 -1.5743  0.5170 -0.8235
 2723SOL     OW19627   2.206   0.980   4.529 -0.3617 -0.1348 -0.1770
 2723SOL    HW119628   2.242   0.891   4.528 -0.6095 -0.2498  0.8116
 2723SOL    HW219629   2.125   0.965   4.578  0.9692  0.7059  2.2696
 2724SOL     OW19630   0.981   2.655   9.203 -0.6587 -0.3703 -0.1338
 2724SOL    HW119631   0.998   2.668   9.110  4.1412 -1.6387  0.6039
 2724SOL    HW219632   1.030   2.573   9.208  0.0326  0.1140  1.1015
 2725SOL     OW19633   1.563   0.229   7.788  0.5335 -0.3631 -0.3269
 2725SOL    HW119634   1.654   0.258   7.796 -0.0614  2.0093 -2.1463
 2725SOL    HW219635   1.574   0.143   7.748  0.2080 -0.5034 -0.1155
 2726SOL     OW19636   1.940   4.546   3.933 -0.6944 -0.2459  0.2523
 2726SOL    HW119637   2.014   4.572   3.878 -0.2502 -1.1375  0.4181
 2726SOL    HW219638   1.894   4.630   3.933 -0.0913  0.0822  0.3064
 2727SOL     OW19639   2.734   2.490   6.649  0.8772  0.1959 -0.1889
 2727SOL    HW119640   2.826   2.513   6.636  0.8432  1.1524  1.1700
 2727SOL    HW219641   2.703   2.581   6.651  1.6738  0.4867 -0.7428
 2728SOL     OW19642   0.196   1.551   7.430  0.7949 -0.0286  0.8013
 2728SOL    HW119643   0.220   1.528   7.341  0.8650 -1.6792  1.2589
 2728SOL    HW219644   0.278   1.591   7.458  1.2370  0.3976 -1.0879
 2729SOL     OW19645   0.260   1.418  14.113  0.4107  0.0958 -0.5881
 2729SOL    HW119646   0.293   1.432  14.202  3.2130 -0.2606 -1.5627
 2729SOL    HW219647   0.267   1.506  14.076  0.8474  0.3532  0.0982
 2730SOL     OW19648   1.413   1.983   9.856  0.1662  0.2435 -0.1558
 2730SOL    HW119649   1.326   1.989   9.817  0.8352 -0.7390 -1.8000
 2730SOL    HW219650   1.459   2.050   9.806 -1.1551  0.9389 -0.4239
 2731SOL     OW19651   0.587   2.081   5.945  0.1102 -0.1141  0.3722
 2731SOL    HW119652   0.651   2.106   6.011 -1.5245  3.4153  0.6275
 2731SOL    HW219653   0.622   2.120   5.864 -0.4390  0.1249  0.2441
 2732SOL     OW19654   0.117   1.533   2.118  0.1826  0.4386  0.6017
 2732SOL    HW119655   0.080   1.608   2.163 -2.0399  0.3817 -1.0826
 2732SOL    HW219656   0.044   1.471   2.113  0.8255 -0.3068  0.3984
 2733SOL     OW19657   3.249   1.921   1.552 -0.1514  0.1776  0.3338
 2733SOL    HW119658   3.273   1.831   1.571  1.6377  0.4236 -0.7465
 2733SOL    HW219659   3.154   1.928   1.538  0.2143  2.1710 -1.2307
 2734SOL     OW19660   0.608   0.442   7.781 -0.2702 -0.2354  0.2170
 2734SOL    HW119661   0.555   0.415   7.705  1.9232 -0.6111 -1.1963
 2734SOL    HW219662   0.692   0.470   7.746 -0.3970  0.3626  0.4040
 2735SOL     OW19663   0.076   3.557   6.805 -0.0205 -0.3996 -0.6655
 2735SOL    HW119664   4.712   3.596   6.819  1.3470  2.1892  0.5687
 2735SOL    HW219665   0.051   3.466   6.790 -0.8990 -0.3277  0.3389
 2736SOL     OW19666   4.245   2.203  17.581  0.2440  0.1965  0.3453
 2736SOL    HW119667   4.159   2.238  17.603  0.7085 -0.2193  2.8210
 2736SOL    HW219668   4.227   2.150  17.503 -0.8706  1.1596 -0.0465
 2737SOL     OW19669   1.851   3.787   4.707 -0.2913  0.3861 -0.2598
 2737SOL    HW119670   1.916   3.804   4.639 -1.5277 -0.0849 -1.5577
 2737SOL    HW219671   1.900   3.727   4.762 -2.2589 -1.2910 -0.3500
 2738SOL     OW19672   1.812   2.531   2.441  0.0218  0.0745 -0.1412
 2738SOL    HW119673   1.754   2.472   2.490  1.2755 -1.0576 -0.0172
 2738SOL    HW219674   1.871   2.473   2.393 -0.0792  0.2922 -0.5239
 2739SOL     OW19675   3.591   1.025  16.739  0.2061 -0.3410  0.3712
 2739SOL    HW119676   3.666   1.033  16.797  2.0779 -0.1510 -2.0453
 2739SOL    HW219677   3.545   0.950  16.778 -1.4126  0.7511  0.5657
 2740SOL     OW19678   3.121   4.682   2.557 -0.3110 -0.8251  0.1247
 2740SOL    HW119679   3.192   4.619   2.550  0.6463  0.2600 -0.0310
 2740SOL    HW219680   3.113   4.690   2.652 -0.7285 -2.0091  0.1793
 2741SOL     OW19681   3.338   3.431  10.901 -0.2525  0.7807  0.0829
 2741SOL    HW119682   3.273   3.362  10.890 -0.2619  0.6232  1.0927
 2741SOL    HW219683   3.324   3.460  10.991 -1.9483  0.6465 -0.1374
 2742SOL     OW19684   0.784   0.295  10.918 -0.2509  0.0833 -0.0625
 2742SOL    HW119685   0.803   0.258  11.004  0.8798 -0.8131 -0.6910
 2742SOL    HW219686   0.863   0.349  10.915  2.6572 -4.1756 -0.2440
 2743SOL     OW19687   1.931   1.576   1.988 -0.0442 -0.4123 -0.3856
 2743SOL    HW119688   1.878   1.654   2.006  1.5014  0.5904 -0.1908
 2743SOL    HW219689   1.995   1.586   2.058 -1.1522 -2.4817  0.9386
 2744SOL     OW19690   1.727   1.402  11.922  0.3358  0.1796 -0.0867
 2744SOL    HW119691   1.731   1.380  12.016 -1.2287 -1.6305 -0.4448
 2744SOL    HW219692   1.820   1.422  11.911  0.2312 -1.1814 -3.1568
 2745SOL     OW19693   0.165   2.199   2.113 -0.0094  0.7126  0.1949
 2745SOL    HW119694   0.117   2.146   2.049 -0.3771 -1.4888  2.2944
 2745SOL    HW219695   0.196   2.143   2.184 -0.2301 -0.0425 -0.3053
 2746SOL     OW19696   0.379   0.037   3.125 -0.2685 -0.0084 -0.4905
 2746SOL    HW119697   0.292   0.053   3.162 -0.7663 -0.0846 -1.6197
 2746SOL    HW219698   0.379   0.116   3.071  1.4742  0.0484 -0.4092
 2747SOL     OW19699   0.968   3.930   2.688  0.2986  0.0320 -0.1006
 2747SOL    HW119700   0.877   3.962   2.687  0.3847  0.2714 -0.6545
 2747SOL    HW219701   1.014   3.989   2.629 -1.2105  1.3346  0.0114
 2748SOL     OW19702   3.210   1.300   5.818  0.0763 -0.5845 -0.2434
 2748SOL    HW119703   3.230   1.225   5.875 -1.3248 -0.9495 -0.2321
 2748SOL    HW219704   3.161   1.262   5.745  1.1795  1.5363 -2.0816
 2749SOL     OW19705   3.793   0.597   5.814 -0.0390 -0.6678  0.5289
 2749SOL    HW119706   3.870   0.540   5.815  0.0758 -0.4704  2.6238
 2749SOL    HW219707   3.835   0.683   5.810  0.5857 -1.0999 -2.0855
 2750SOL     OW19708   4.539   3.214   2.824  0.9198 -0.6066 -0.1191
 2750SOL    HW119709   4.599   3.213   2.750 -1.5085  0.0089 -2.0705
 2750SOL    HW219710   4.589   3.263   2.889 -0.2496  0.7281 -0.2156
 2751SOL     OW19711   1.332   1.245   8.695 -0.1749  0.0229 -0.5263
 2751SOL    HW119712   1.302   1.266   8.783 -1.2556 -0.8223 -0.6965
 2751SOL    HW219713   1.395   1.318   8.692 -0.5492  0.4175  1.7673
 2752SOL     OW19714   0.582   2.699   2.309 -0.3367  0.5284 -0.2472
 2752SOL    HW119715   0.516   2.637   2.339  3.0596 -1.7396  2.6670
 2752SOL    HW219716   0.527   2.762   2.263 -2.5491 -0.7154  0.6924
 2753SOL     OW19717   4.309   4.686   8.867  0.1767 -0.4234 -0.4211
 2753SOL    HW119718   4.293   0.035   8.806  0.9783 -0.6397 -0.8907
 2753SOL    HW219719   4.257   4.617   8.825 -0.3592  0.9047 -1.9538
 2754SOL     OW19720   1.841   3.349  14.845  0.0839  0.9531 -0.5103
 2754SOL    HW119721   1.792   3.301  14.912 -0.9930  0.4027 -1.6876
 2754SOL    HW219722   1.814   3.302  14.766 -0.2678 -0.4723  0.4569
 2755SOL     OW19723   1.355   3.733   7.463 -0.3961  0.3649  0.2279
 2755SOL    HW119724   1.365   3.798   7.394  1.8330  0.9935  1.1428
 2755SOL    HW219725   1.444   3.699   7.458 -1.4692 -2.5822  1.4046
 2756SOL     OW19726   0.456   3.500   2.085 -0.0483 -0.2266  0.0206
 2756SOL    HW119727   0.365   3.474   2.100 -0.7344  1.5557 -1.1545
 2756SOL    HW219728   0.440   3.593   2.097  1.2656  0.0615 -0.4698
 2757SOL     OW19729   1.642   4.348   1.377  0.6355 -0.1374 -0.0289
 2757SOL    HW119730   1.729   4.309   1.371 -0.0417 -1.7573  0.7988
 2757SOL    HW219731   1.586   4.282   1.336 -0.7482  2.1006 -1.7753
 2758SOL     OW19732   0.591   2.805   8.288  0.0510 -0.3439 -0.0322
 2758SOL    HW119733   0.667   2.777   8.237 -0.7317 -2.2314 -0.1435
 2758SOL    HW219734   0.602   2.900   8.288 -1.8581 -0.1361  3.2491
 2759SOL     OW19735   0.053   2.847   3.953  0.2308  0.4013  0.4190
 2759SOL    HW119736   0.051   2.909   3.880 -2.2220 -0.2720 -0.0895
 2759SOL    HW219737   4.683   2.827   3.962 -0.4706  1.9539 -3.5284
 2760SOL     OW19738   0.261   3.807   9.070 -0.0960 -0.0628  0.2449
 2760SOL    HW119739   0.307   3.887   9.097  1.0114 -0.8838  0.8358
 2760SOL    HW219740   0.173   3.843   9.063  0.0182 -0.0275 -0.9928
 2761SOL     OW19741   4.442   1.971  13.405  0.1235 -0.0304  0.1637
 2761SOL    HW119742   4.466   1.989  13.314 -0.0570 -2.9375 -0.4632
 2761SOL    HW219743   4.355   1.934  13.388  0.1953  0.4425 -1.2298
 2762SOL     OW19744   1.210   4.451   9.708  0.1228 -0.3838 -0.0614
 2762SOL    HW119745   1.152   4.523   9.683 -0.9213 -0.9068  0.8379
 2762SOL    HW219746   1.149   4.388   9.748  1.1947 -0.6230  1.1822
 2763SOL     OW19747   1.002   3.035  10.176 -0.1374 -0.2581 -0.0243
 2763SOL    HW119748   1.085   2.990  10.191 -0.7781 -1.5193 -0.2758
 2763SOL    HW219749   0.952   2.990  10.244 -0.8053  0.8743  0.2225
 2764SOL     OW19750   4.274   0.612   8.803 -1.1013 -0.7441  0.5058
 2764SOL    HW119751   4.361   0.572   8.806 -0.9996 -0.4804  1.0032
 2764SOL    HW219752   4.241   0.548   8.866 -2.1585 -0.6056  0.1056
 2765SOL     OW19753   3.055   3.414   6.684 -0.5818  0.4857  0.9736
 2765SOL    HW119754   2.995   3.339   6.691  1.2136 -1.2630 -2.5060
 2765SOL    HW219755   3.004   3.467   6.623 -0.4491 -1.2391 -0.6252
 2766SOL     OW19756   3.465   4.265   4.781  0.2195  0.5407  0.0443
 2766SOL    HW119757   3.534   4.244   4.718 -0.6209 -2.5556  0.1721
 2766SOL    HW219758   3.482   4.359   4.784 -4.0073  1.3245  0.8979
 2767SOL     OW19759   3.199   4.446   2.882 -0.1914  0.1238 -0.3506
 2767SOL    HW119760   3.140   4.372   2.870  1.4187 -1.4216  1.1817
 2767SOL    HW219761   3.282   4.398   2.873 -0.5665 -0.4751 -0.5770
 2768SOL     OW19762   1.457   0.692   1.727  0.0658 -0.0868  0.1005
 2768SOL    HW119763   1.378   0.718   1.776 -0.4897  1.7552 -1.7681
 2768SOL    HW219764   1.531   0.722   1.779 -1.0911  1.5441  0.7966
 2769SOL     OW19765   4.000   0.312   6.359  0.3540 -0.4090  0.3930
 2769SOL    HW119766   3.913   0.344   6.386 -0.2873 -1.5210 -0.3585
 2769SOL    HW219767   4.046   0.396   6.359  2.0823 -1.3709 -1.0343
 2770SOL     OW19768   0.319   1.941  16.631  0.2193 -0.4390 -0.1747
 2770SOL    HW119769   0.350   1.852  16.646  0.4592 -0.3675 -0.2378
 2770SOL    HW219770   0.237   1.935  16.679 -0.0965  3.0375 -0.3023
 2771SOL     OW19771   0.748   1.092   0.656  1.1335  0.5515  0.4444
 2771SOL    HW119772   0.692   1.096   0.734  0.1252 -0.0714 -0.2471
 2771SOL    HW219773   0.679   1.055   0.601  0.0971 -0.0360  2.1166
 2772SOL     OW19774   0.551   3.474   3.765 -0.0298 -0.2181 -0.0780
 2772SOL    HW119775   0.538   3.500   3.674  1.6494 -2.3291 -0.9337
 2772SOL    HW219776   0.488   3.526   3.814 -2.0971 -3.3299  0.5593
 2773SOL     OW19777   4.155   1.225   5.545 -0.6035  0.6138  0.3814
 2773SOL    HW119778   4.097   1.184   5.609 -3.0785  1.2379 -1.4646
 2773SOL    HW219779   4.179   1.148   5.493 -0.1095 -0.3094  1.9858
 2774SOL     OW19780   4.549   0.367   7.751 -0.0798 -0.4118 -0.2805
 2774SOL    HW119781   4.456   0.391   7.750  0.2197  0.7721  0.2677
 2774SOL    HW219782   4.575   0.385   7.660 -1.7252  0.8821 -0.5002
 2775SOL     OW19783   3.264   0.773  17.600  0.3227 -0.4158  0.1919
 2775SOL    HW119784   3.240   0.787  17.508  0.2190 -2.5559 -0.1069
 2775SOL    HW219785   3.275   0.864  17.629 -0.2933  0.1958 -1.4916
 2776SOL     OW19786   3.691   2.212   4.216 -0.5019 -0.0191  0.6871
 2776SOL    HW119787   3.638   2.289   4.235 -0.0938  0.2501  0.7429
 2776SOL    HW219788   3.762   2.216   4.281  0.7316  0.2984 -0.6734
 2777SOL     OW19789   0.852   1.373   5.581 -0.9431  0.1833  0.4346
 2777SOL    HW119790   0.887   1.439   5.641  1.3667  0.4125 -1.1399
 2777SOL    HW219791   0.938   1.346   5.548 -1.2494 -2.3393  1.6836
 2778SOL     OW19792   3.334   0.625   5.810 -0.1599  0.0837  0.6569
 2778SOL    HW119793   3.404   0.645   5.872 -0.2481  2.6094 -0.0743
 2778SOL    HW219794   3.280   0.579   5.875  0.8576  1.0699  2.1955
 2779SOL     OW19795   0.491   4.199   7.015 -0.0653 -0.7970  0.1971
 2779SOL    HW119796   0.452   4.121   7.055 -0.3501  0.1627  1.8063
 2779SOL    HW219797   0.492   4.178   6.922 -1.8088  2.5454 -0.5794
 2780SOL     OW19798   1.220   2.382   3.237  0.1971 -0.4734 -0.3964
 2780SOL    HW119799   1.174   2.457   3.275 -0.9280 -0.0818 -2.4672
 2780SOL    HW219800   1.151   2.336   3.188  0.4723 -1.9820  0.6784
 2781SOL     OW19801   2.877   3.351  14.646 -0.2377  0.5159 -0.0446
 2781SOL    HW119802   2.932   3.321  14.574 -0.0355 -2.7101  1.4417
 2781SOL    HW219803   2.876   3.444  14.624  0.4235  0.3509 -0.7617
 2782SOL     OW19804   0.930   4.350   8.315  0.6445  0.0821 -0.0620
 2782SOL    HW119805   0.892   4.343   8.403  0.2667  1.0087 -0.1458
 2782SOL    HW219806   0.850   4.321   8.272 -0.0287  1.3383  0.3457
 2783SOL     OW19807   1.841   4.156  12.362 -0.7635  0.0690  0.2375
 2783SOL    HW119808   1.934   4.181  12.357 -1.1021  0.8917 -2.0005
 2783SOL    HW219809   1.817   4.182  12.451 -1.1001 -0.8843  0.4184
 2784SOL     OW19810   0.814   3.574  13.456 -0.4223  0.0706  0.4826
 2784SOL    HW119811   0.755   3.499  13.457 -0.8352  0.3989  2.0619
 2784SOL    HW219812   0.759   3.649  13.434 -0.3893 -0.2367 -0.6421
 2785SOL     OW19813   0.303   3.671   6.880  0.4008 -0.1888  0.1155
 2785SOL    HW119814   0.214   3.643   6.857  0.9545 -1.0627 -0.9529
 2785SOL    HW219815   0.337   3.585   6.905  2.9411  0.6376 -0.5026
 2786SOL     OW19816   0.998   1.951   3.187  0.3367  0.3928 -0.1321
 2786SOL    HW119817   1.068   1.926   3.126 -0.5196 -0.0844 -0.9036
 2786SOL    HW219818   1.039   1.932   3.272 -0.6556 -3.2116 -0.4682
 2787SOL     OW19819   4.388   2.686   2.981 -0.7327  1.2437  0.4818
 2787SOL    HW119820   4.298   2.665   3.007  0.0176 -0.0415  2.0223
 2787SOL    HW219821   4.389   2.779   2.959 -0.4963  0.4930 -2.6370
 2788SOL     OW19822   2.894   0.211  14.395 -0.1621 -0.2494  0.2531
 2788SOL    HW119823   2.848   0.190  14.314 -1.2638  1.6556  0.3926
 2788SOL    HW219824   2.975   0.174  14.360 -1.6640 -2.1679 -1.1911
 2789SOL     OW19825   3.914   1.236  12.559  0.6908  0.1925  0.3289
 2789SOL    HW119826   3.885   1.198  12.642  1.9341 -1.3675  0.0601
 2789SOL    HW219827   3.988   1.185  12.526  1.0621 -0.4401  2.1473
 2790SOL     OW19828   1.842   3.729   8.326 -0.2563  0.1911 -0.3140
 2790SOL    HW119829   1.920   3.676   8.312 -0.9640 -0.9064 -0.0776
 2790SOL    HW219830   1.875   3.795   8.388  2.0336 -0.0974 -1.2403
 2791SOL     OW19831   3.351   1.833   5.035  0.0301 -0.5424  0.2031
 2791SOL    HW119832   3.331   1.922   5.063 -0.1025  0.1448 -2.0693
 2791SOL    HW219833   3.418   1.843   4.966  1.1222  1.9283  1.6194
 2792SOL     OW19834   2.949   0.301   9.356 -0.2413  0.2909 -1.2551
 2792SOL    HW119835   2.938   0.394   9.337 -2.9318  0.1381 -0.5603
 2792SOL    HW219836   2.883   0.257   9.302  0.2463  0.2153 -1.7784
 2793SOL     OW19837   1.267   3.222   5.739  0.0088  0.2532 -0.6008
 2793SOL    HW119838   1.225   3.190   5.660 -0.3696 -1.4813  0.2899
 2793SOL    HW219839   1.192   3.269   5.774  0.3436  0.5904 -0.3342
 2794SOL     OW19840   3.455   1.260   0.727 -0.1096 -0.3023  0.0850
 2794SOL    HW119841   3.536   1.306   0.703  1.6473 -1.8357  3.1013
 2794SOL    HW219842   3.461   1.273   0.822  0.9942  1.1940 -0.1812
 2795SOL     OW19843   0.978   1.257   4.841 -0.2237  0.2719 -0.0406
 2795SOL    HW119844   1.014   1.323   4.900 -1.4970  1.0045 -0.0925
 2795SOL    HW219845   0.894   1.233   4.880  0.0927  0.0131  0.4920
 2796SOL     OW19846   1.256   0.435  16.233 -0.1145 -0.1710 -0.2852
 2796SOL    HW119847   1.205   0.516  16.226  2.8121  1.8121  1.6663
 2796SOL    HW219848   1.302   0.448  16.315  0.7736  0.9341 -0.9561
 2797SOL     OW19849   3.749   1.832   7.658 -0.5945 -0.5623  0.0349
 2797SOL    HW119850   3.666   1.879   7.652  0.1684  1.1896  3.2548
 2797SOL    HW219851   3.721   1.754   7.706 -1.2610 -0.1085  0.3847
 2798SOL     OW19852   3.436   2.967   2.596 -0.3186  0.3986 -0.2558
 2798SOL    HW119853   3.466   2.879   2.574 -0.3762 -0.7408  4.1612
 2798SOL    HW219854   3.515   3.020   2.585 -0.5946  0.8825  0.1229
 2799SOL     OW19855   2.620   1.766   4.119 -0.0053 -0.2840  0.4768
 2799SOL    HW119856   2.673   1.722   4.052  0.8981  0.4192  0.7364
 2799SOL    HW219857   2.673   1.831   4.165  0.1999 -1.3601  1.7536
 2800SOL     OW19858   3.456   1.147   2.631 -0.1071 -0.9734 -0.2229
 2800SOL    HW119859   3.470   1.204   2.707 -0.9522 -0.8825 -0.1388
 2800SOL    HW219860   3.413   1.200   2.564  2.5687 -0.0441 -1.1835
 2801SOL     OW19861   3.645   4.069  13.303 -0.0329  0.2370 -0.1318
 2801SOL    HW119862   3.550   4.057  13.312 -0.0084  0.6022  0.6087
 2801SOL    HW219863   3.665   3.975  13.302  2.5896  0.7881  0.7141
 2802SOL     OW19864   0.388   1.818   1.410  0.5502 -0.5622 -0.0808
 2802SOL    HW119865   0.348   1.905   1.408  3.3263  0.8394  4.0909
 2802SOL    HW219866   0.353   1.777   1.331 -0.8071  0.2798  0.0837
 2803SOL     OW19867   1.987   1.048   2.547 -0.1006 -0.8545  0.2450
 2803SOL    HW119868   1.952   0.960   2.531  0.4739 -1.4228  2.0716
 2803SOL    HW219869   1.905   1.095   2.534 -0.6722 -1.8523  0.2047
 2804SOL     OW19870   3.053   0.543   1.553 -0.6340 -0.1532  0.0893
 2804SOL    HW119871   3.082   0.624   1.513  2.2746 -0.0132  2.4372
 2804SOL    HW219872   2.971   0.523   1.506 -1.0324 -0.4049  0.8823
 2805SOL     OW19873   2.686   1.387   7.376 -0.1812  0.2718 -0.1128
 2805SOL    HW119874   2.619   1.397   7.443  0.0554 -0.1201  0.1798
 2805SOL    HW219875   2.761   1.386   7.436 -1.8683 -0.0009  1.9860
 2806SOL     OW19876   4.244   1.596  16.121 -0.5145 -0.2509  0.5296
 2806SOL    HW119877   4.309   1.660  16.150 -0.2582  0.2149 -1.0672
 2806SOL    HW219878   4.180   1.650  16.075 -0.7599 -0.0085  1.1542
 2807SOL     OW19879   0.094   2.410  12.040 -0.4767  0.0438  0.0886
 2807SOL    HW119880   0.123   2.361  11.963 -1.9457  0.0910 -0.4978
 2807SOL    HW219881   0.158   2.394  12.109  1.1278  1.3462 -1.0956
 2808SOL     OW19882   2.701   3.155  10.639  0.4921  0.3127 -1.4134
 2808SOL    HW119883   2.681   3.077  10.587  0.7257  0.4292 -1.6753
 2808SOL    HW219884   2.651   3.140  10.719  1.6489 -1.7430 -1.0933
 2809SOL     OW19885   0.575   1.791   4.402  0.4524 -0.3545 -0.1261
 2809SOL    HW119886   0.573   1.804   4.307 -0.7985 -0.4377 -0.1021
 2809SOL    HW219887   0.607   1.875   4.433  3.2337 -0.7705 -1.8256
 2810SOL     OW19888   3.843   1.178   2.066  0.5741  0.0523  0.5145
 2810SOL    HW119889   3.827   1.094   2.108  1.0942 -0.4123 -0.2077
 2810SOL    HW219890   3.759   1.189   2.021 -0.6106  1.9674  3.2249
 2811SOL     OW19891   0.080   0.642   4.279 -0.0290  0.3126 -0.2102
 2811SOL    HW119892   0.134   0.597   4.214 -0.9737 -0.7343 -0.2656
 2811SOL    HW219893   0.147   0.677   4.338  0.2197  2.9145 -1.9919
 2812SOL     OW19894   2.865   3.891   0.150 -0.5320 -0.1366  0.1176
 2812SOL    HW119895   2.903   3.833   0.084 -0.3944 -2.3406  2.1199
 2812SOL    HW219896   2.847   3.827   0.220  0.6881  0.3944  0.9169
 2813SOL     OW19897   0.191   0.643   3.295  0.1525  0.3890 -0.1888
 2813SOL    HW119898   0.139   0.720   3.319 -2.0842 -1.1889  0.0468
 2813SOL    HW219899   0.121   0.582   3.270 -0.3742  0.5075  0.9867
 2814SOL     OW19900   4.401   2.976   2.936 -0.5599  0.0253  0.2074
 2814SOL    HW119901   4.393   2.991   3.030  0.3675  1.0772  0.1299
 2814SOL    HW219902   4.427   3.066   2.915  0.0552  0.2460  1.8702
 2815SOL     OW19903   4.454   2.905   4.474  0.1849 -0.0668  0.0947
 2815SOL    HW119904   4.442   2.826   4.422  1.1571 -0.3012  0.2330
 2815SOL    HW219905   4.512   2.876   4.545  0.3618  0.8357  0.3226
 2816SOL     OW19906   2.228   4.501   7.637 -0.0350 -0.0214 -0.2300
 2816SOL    HW119907   2.253   4.420   7.681 -0.1962 -1.0966 -2.0949
 2816SOL    HW219908   2.184   4.548   7.708  1.3278 -1.0000  1.2690
 2817SOL     OW19909   1.980   1.274   6.495  0.3173  0.0389 -0.1245
 2817SOL    HW119910   1.911   1.246   6.555  0.2289 -1.8587 -1.1260
 2817SOL    HW219911   1.998   1.357   6.539 -0.1837  0.3672 -0.5316
 2818SOL     OW19912   1.147   1.785   4.963 -0.4392  0.0789  0.2009
 2818SOL    HW119913   1.060   1.758   4.936 -0.3978  0.5738 -0.4516
 2818SOL    HW219914   1.149   1.848   4.890  3.5618  0.2195  0.4223
 2819SOL     OW19915   2.295   4.699   7.422 -0.4027  0.1165 -0.2008
 2819SOL    HW119916   2.330   4.632   7.364  0.3891  2.2778 -2.2213
 2819SOL    HW219917   2.263   4.643   7.493  1.6977  0.7198  1.2045
 2820SOL     OW19918   2.999   2.802   4.111  0.2746  0.5440 -0.1724
 2820SOL    HW119919   3.030   2.892   4.114  1.5448  0.0649  0.8615
 2820SOL    HW219920   2.946   2.820   4.033 -0.4313  0.9006  0.3968
 2821SOL     OW19921   1.379   0.395  16.493  0.5777 -0.3465 -0.4846
 2821SOL    HW119922   1.417   0.370  16.577 -0.2754  2.2313  0.6810
 2821SOL    HW219923   1.363   0.489  16.504  1.0176 -0.1554 -1.4584
 2822SOL     OW19924   1.423   3.437  15.432 -0.2794 -0.6920 -0.2205
 2822SOL    HW119925   1.419   3.525  15.471 -0.7470 -1.2581  1.0250
 2822SOL    HW219926   1.491   3.390  15.481 -1.0938 -0.9105  0.7002
 2823SOL     OW19927   4.376   1.922   4.832 -0.3767 -0.2410  0.0923
 2823SOL    HW119928   4.315   1.961   4.895 -0.1678  1.0336 -0.4736
 2823SOL    HW219929   4.343   1.951   4.746 -1.6526 -0.5390  0.4863
 2824SOL     OW19930   4.225   0.946   1.082  0.1309  0.1184 -0.1274
 2824SOL    HW119931   4.274   0.995   1.016  0.1769  0.9799  0.5427
 2824SOL    HW219932   4.290   0.878   1.098 -2.3402 -2.2387 -0.1862
 2825SOL     OW19933   1.232   0.146   5.339 -0.0931 -0.1103 -0.4526
 2825SOL    HW119934   1.157   0.133   5.281  0.8585 -1.5594 -1.3498
 2825SOL    HW219935   1.284   0.067   5.326 -0.3881 -0.4992  0.7525
 2826SOL     OW19936   3.792   0.843  16.955  0.2624  0.2418 -0.0263
 2826SOL    HW119937   3.760   0.896  17.028 -1.7972 -2.1921  0.8236
 2826SOL    HW219938   3.757   0.756  16.977 -0.9734  0.4518 -1.1899
 2827SOL     OW19939   1.531   0.387   8.198 -0.5377 -0.1219  0.7269
 2827SOL    HW119940   1.592   0.334   8.251 -1.1544  1.8604  3.3870
 2827SOL    HW219941   1.451   0.334   8.195 -1.8770  1.8512  1.9258
 2828SOL     OW19942   2.753   2.812   4.931 -0.2686  0.0636  0.3296
 2828SOL    HW119943   2.825   2.821   4.868 -0.9472  1.0811 -0.3016
 2828SOL    HW219944   2.689   2.765   4.878 -0.0276 -0.2529  0.3169
 2829SOL     OW19945   0.673   2.557   3.297 -0.1932 -0.3190  0.7303
 2829SOL    HW119946   0.660   2.569   3.391 -0.6039 -0.9628  0.7514
 2829SOL    HW219947   0.605   2.614   3.261  2.1160  0.2869 -2.6696
 2830SOL     OW19948   3.281   0.730   3.288 -0.3152 -0.5663  0.2547
 2830SOL    HW119949   3.251   0.815   3.321  1.3309  0.6984 -1.4830
 2830SOL    HW219950   3.357   0.752   3.234 -1.3412  2.1151 -0.1222
 2831SOL     OW19951   3.004   2.908  17.062 -0.2206  0.1245 -0.0421
 2831SOL    HW119952   2.978   2.939  17.149  2.5191 -0.6204  1.0163
 2831SOL    HW219953   3.005   2.813  17.067 -1.2724  0.0748 -0.6895
 2832SOL     OW19954   4.133   4.133   9.814  0.6243  0.1872 -0.4242
 2832SOL    HW119955   4.129   4.209   9.756 -0.5166  1.7372  1.6908
 2832SOL    HW219956   4.162   4.054   9.769  1.6677  1.6024 -2.2205
 2833SOL     OW19957   2.842   1.121  11.062 -0.0293 -0.1802 -0.6642
 2833SOL    HW119958   2.887   1.067  10.997  1.3625 -0.4813  0.5660
 2833SOL    HW219959   2.902   1.145  11.133 -0.4424 -0.8841 -0.0709
 2834SOL     OW19960   0.498   4.036  11.797 -0.1309  0.0812  0.0023
 2834SOL    HW119961   0.513   3.946  11.827  1.6345  0.4192  0.1587
 2834SOL    HW219962   0.507   4.026  11.702  1.0932 -1.2139  0.2592
 2835SOL     OW19963   2.976   3.750   2.231 -0.0843  0.4219  0.1388
 2835SOL    HW119964   3.014   3.763   2.144  0.7199  0.4178  0.4860
 2835SOL    HW219965   2.944   3.660   2.234 -1.3467  0.9313  1.7683
 2836SOL     OW19966   1.757   3.106   8.485 -0.0056  0.1554 -0.1393
 2836SOL    HW119967   1.822   3.052   8.440  0.9878 -0.0678  1.5725
 2836SOL    HW219968   1.773   3.180   8.428  0.8051 -1.6021 -2.2110
 2837SOL     OW19969   1.912   1.046   7.056  0.0911 -0.0664 -0.4535
 2837SOL    HW119970   1.979   1.106   7.022  1.4320 -1.4020 -0.1607
 2837SOL    HW219971   1.946   1.046   7.145  2.0985 -1.3914 -1.2312
 2838SOL     OW19972   1.058   1.765   8.762 -0.0772 -0.0375 -0.0035
 2838SOL    HW119973   1.148   1.755   8.730 -0.3720 -1.7359 -0.3196
 2838SOL    HW219974   1.022   1.710   8.692  1.0651  0.2185 -0.7890
 2839SOL     OW19975   2.006   2.154   3.137 -0.0686 -0.3545 -0.2022
 2839SOL    HW119976   2.084   2.110   3.103  0.5517  1.0276 -0.5667
 2839SOL    HW219977   2.030   2.244   3.114  0.9539 -0.7021 -0.5061
 2840SOL     OW19978   3.690   0.653  13.958  0.0994  0.0842 -0.2432
 2840SOL    HW119979   3.616   0.687  14.009 -1.5097 -3.0172 -0.5042
 2840SOL    HW219980   3.667   0.561  13.964 -0.9859  0.2634 -1.7053
 2841SOL     OW19981   0.675   2.655  13.193 -0.5933 -0.0384 -0.2928
 2841SOL    HW119982   0.681   2.686  13.103 -0.4904  1.2743  0.1720
 2841SOL    HW219983   0.613   2.582  13.192 -0.1134 -0.4474  0.4467
 2842SOL     OW19984   0.646   2.681   4.789  0.3573  0.4691  0.1596
 2842SOL    HW119985   0.589   2.757   4.774  0.6139  0.8221  0.9767
 2842SOL    HW219986   0.710   2.720   4.848  0.1702  2.3052 -0.8189
 2843SOL     OW19987   1.045   0.615  15.173  0.0725 -0.1587  0.7684
 2843SOL    HW119988   1.004   0.569  15.245  0.5105 -1.3728  0.2416
 2843SOL    HW219989   0.974   0.671  15.141  0.7629  0.1929 -0.1424
 2844SOL     OW19990   1.392   4.336   2.130 -0.6825  0.1238  0.0939
 2844SOL    HW119991   1.327   4.276   2.092 -1.5660  0.8468  0.4738
 2844SOL    HW219992   1.367   4.419   2.089 -0.3032  0.1952  0.0060
 2845SOL     OW19993   2.006   1.686  16.896 -0.0178  0.3185 -0.4567
 2845SOL    HW119994   2.071   1.642  16.950 -1.5596 -0.0544  1.0941
 2845SOL    HW219995   1.938   1.688  16.963 -1.1042  0.4096 -1.5561
 2846SOL     OW19996   3.205   3.899   6.595 -0.0505 -0.5751  0.6722
 2846SOL    HW119997   3.248   3.869   6.514  2.7359  1.1926  1.4822
 2846SOL    HW219998   3.117   3.906   6.559 -0.3804 -1.9338  1.2273
 2847SOL     OW19999   3.745   4.669  13.039  0.3198  0.0479 -0.1920
 2847SOL    HW120000   3.805   4.671  12.965 -0.0174  0.2365 -0.4603
 2847SOL    HW220001   3.707   4.583  13.022  3.1895 -1.3580  0.4895
 2848SOL     OW20002   2.581   4.381   8.190 -0.5850 -0.3966 -0.2623
 2848SOL    HW120003   2.610   4.428   8.112 -0.5706  0.9924  0.5723
 2848SOL    HW220004   2.485   4.390   8.188 -0.8857 -3.0561  2.2046
 2849SOL     OW20005   0.052   2.459  16.533  0.1793  0.1070  0.1484
 2849SOL    HW120006   4.718   2.406  16.477 -0.9012 -1.2132  2.4387
 2849SOL    HW220007   0.098   2.388  16.578 -2.0373 -1.3464  0.1000
 2850SOL     OW20008   3.939   4.228   4.495  0.0941 -0.0245 -0.1861
 2850SOL    HW120009   3.894   4.216   4.411  0.5003  1.8058 -0.6709
 2850SOL    HW220010   3.932   4.140   4.531 -0.8497 -0.1384 -0.6523
 2851SOL     OW20011   1.696   3.498   5.293  0.1642  0.1987  0.2027
 2851SOL    HW120012   1.602   3.483   5.295  0.1213  0.6158  1.1411
 2851SOL    HW220013   1.714   3.494   5.386  0.4665 -1.0129  0.0897
 2852SOL     OW20014   1.161   1.323   5.536 -0.4584  0.4373 -0.0549
 2852SOL    HW120015   1.235   1.341   5.478  2.4322 -2.1084  2.8194
 2852SOL    HW220016   1.197   1.374   5.608 -2.3977  0.4603  0.8899
 2853SOL     OW20017   4.161   2.881  13.952  0.0594 -0.2420  0.2135
 2853SOL    HW120018   4.220   2.952  13.929  0.3651 -0.8837 -0.9734
 2853SOL    HW220019   4.111   2.918  14.026  1.0624  0.5880  0.4676
 2854SOL     OW20020   2.196   2.478   7.603 -0.0835 -0.0550 -0.5634
 2854SOL    HW120021   2.205   2.410   7.536 -0.8298  0.6974 -1.4229
 2854SOL    HW220022   2.178   2.420   7.677  2.5829 -0.6869 -0.4077
 2855SOL     OW20023   0.160   1.504   9.855 -0.0960 -0.1372  0.0245
 2855SOL    HW120024   0.249   1.511   9.891  0.9684 -3.1155 -2.0485
 2855SOL    HW220025   0.133   1.422   9.896 -0.4733 -1.3889 -2.7644
 2856SOL     OW20026   3.752   1.251   8.429 -0.0952 -0.7778  0.7446
 2856SOL    HW120027   3.697   1.240   8.507 -0.2360 -0.8109  0.6406
 2856SOL    HW220028   3.800   1.173   8.457 -0.0794 -1.2495 -0.6124
 2857SOL     OW20029   3.248   2.864  16.876 -0.1307 -0.2771 -0.3324
 2857SOL    HW120030   3.342   2.845  16.879 -0.7046 -3.0772 -0.1574
 2857SOL    HW220031   3.212   2.806  16.942  0.2452  3.0383  2.7621
 2858SOL     OW20032   4.114   2.258   8.604 -0.1030  0.3941 -0.1679
 2858SOL    HW120033   4.022   2.246   8.624 -0.3433  0.1669 -1.3864
 2858SOL    HW220034   4.140   2.321   8.670  0.9287 -0.8141  0.5884
 2859SOL     OW20035   4.303   3.094   9.398 -0.2342  0.7387  0.3175
 2859SOL    HW120036   4.272   3.006   9.375  0.6873 -0.2748  2.8830
 2859SOL    HW220037   4.377   3.073   9.455 -0.1869  0.4598  0.1549
 2860SOL     OW20038   3.625   0.460  15.616  0.1729 -0.0206 -0.6183
 2860SOL    HW120039   3.691   0.486  15.552  0.4578 -1.4752 -0.9240
 2860SOL    HW220040   3.639   0.518  15.691 -2.2288 -0.6392  0.3384
 2861SOL     OW20041   1.770   1.201   6.650  0.1909 -0.6767  0.1353
 2861SOL    HW120042   1.691   1.233   6.606 -0.3860  2.0269  3.1520
 2861SOL    HW220043   1.746   1.109   6.654 -1.4032 -0.2864 -0.3701
 2862SOL     OW20044   3.616   2.527  13.610  0.2950  0.4082 -1.0804
 2862SOL    HW120045   3.551   2.557  13.547 -0.4624  1.8929  0.4023
 2862SOL    HW220046   3.652   2.612  13.635  1.5384  0.6501 -3.6931
 2863SOL     OW20047   0.936   2.738   8.629  0.1291 -0.2510 -0.4560
 2863SOL    HW120048   0.949   2.816   8.576 -0.3530 -1.3058 -2.1071
 2863SOL    HW220049   0.900   2.784   8.705  0.7050 -2.6848  1.2869
 2864SOL     OW20050   0.315   0.415   1.944  0.2910  0.0246  0.3603
 2864SOL    HW120051   0.253   0.396   1.874  2.7667 -2.2709 -1.2158
 2864SOL    HW220052   0.356   0.491   1.902  0.5083 -0.8539 -1.0015
 2865SOL     OW20053   4.548   2.072   3.502 -0.7787 -0.0019  0.0535
 2865SOL    HW120054   4.460   2.100   3.476  0.1405  1.6348 -1.3073
 2865SOL    HW220055   4.584   2.139   3.560 -2.6798  1.7266 -0.7390
 2866SOL     OW20056   3.423   1.601   7.946 -0.4553 -0.1420 -0.0712
 2866SOL    HW120057   3.363   1.526   7.953 -0.8800 -0.0755 -3.3267
 2866SOL    HW220058   3.367   1.662   7.898 -2.8152 -1.9117  0.3914
 2867SOL     OW20059   1.027   1.360   6.921  0.1155  0.1635 -0.5119
 2867SOL    HW120060   0.970   1.393   6.852 -1.5643  0.8052  1.1801
 2867SOL    HW220061   1.058   1.273   6.895 -0.4599 -0.6614  1.5496
 2868SOL     OW20062   4.366   3.840  11.560 -0.0751 -0.1047 -0.3456
 2868SOL    HW120063   4.342   3.885  11.479 -0.0100  0.0364 -0.2869
 2868SOL    HW220064   4.450   3.886  11.568 -0.2350  0.1246  0.0088
 2869SOL     OW20065   3.902   0.010   2.376 -0.0324 -0.0645 -0.3537
 2869SOL    HW120066   3.936   4.645   2.356 -0.0557 -0.5012  1.5038
 2869SOL    HW220067   3.949   0.036   2.455 -1.0525  4.4050 -1.2545
 2870SOL     OW20068   0.270   2.121   6.389  0.5531  0.0038 -0.2077
 2870SOL    HW120069   0.304   2.041   6.430  0.7088  0.1015 -0.1504
 2870SOL    HW220070   0.225   2.098   6.308  0.4272 -0.4976  0.0004
 2871SOL     OW20071   0.812   0.539   2.958  0.2126  0.1633 -0.2544
 2871SOL    HW120072   0.842   0.510   2.872 -1.4665  0.5021 -0.9711
 2871SOL    HW220073   0.743   0.600   2.933 -2.0848 -1.7840  1.2925
 2872SOL     OW20074   3.044   0.698   9.108 -0.8245 -0.4124 -0.0771
 2872SOL    HW120075   3.106   0.627   9.090  1.3145  0.9200  1.9888
 2872SOL    HW220076   3.010   0.708   9.019 -0.6398  1.1972  0.0327
 2873SOL     OW20077   4.687   0.139   5.125 -0.0395 -0.4412 -0.5723
 2873SOL    HW120078   4.624   0.180   5.066 -1.6424  1.4041  2.3953
 2873SOL    HW220079   4.665   0.046   5.116  1.4477 -0.6475 -2.0291
 2874SOL     OW20080   1.991   1.092   8.986  0.4818 -0.3339  0.6394
 2874SOL    HW120081   1.930   1.113   9.057 -1.4396 -1.3205 -0.7572
 2874SOL    HW220082   2.011   1.000   9.004  0.7874 -0.1296  1.3728
 2875SOL     OW20083   0.312   3.239   7.072  0.3577 -0.0982 -0.5288
 2875SOL    HW120084   0.381   3.179   7.043 -0.8337 -2.4010  1.4121
 2875SOL    HW220085   0.237   3.190   7.041  1.0342 -0.8408 -0.9901
 2876SOL     OW20086   1.642   1.651   4.301 -0.0406  0.4632  0.1384
 2876SOL    HW120087   1.731   1.685   4.291 -0.2368  1.1112  0.5655
 2876SOL    HW220088   1.634   1.577   4.241 -0.1663 -0.5852  1.4523
 2877SOL     OW20089   2.847   0.460   2.311 -0.1541 -0.2601 -0.2803
 2877SOL    HW120090   2.803   0.407   2.377  0.0054 -0.4860 -0.3554
 2877SOL    HW220091   2.849   0.547   2.351  1.2933 -1.2632  1.8017
 2878SOL     OW20092   0.460   4.284   4.829 -0.1710 -0.1815 -0.5376
 2878SOL    HW120093   0.425   4.373   4.831  0.4036 -0.0009  1.0054
 2878SOL    HW220094   0.522   4.290   4.901  0.1242 -0.1244 -0.7961
 2879SOL     OW20095   1.548   4.380   0.951  0.4514 -0.0400  0.4287
 2879SOL    HW120096   1.614   4.435   0.994  1.0527  1.2797 -2.2261
 2879SOL    HW220097   1.550   4.428   0.869  1.3368  0.6365  0.8465
 2880SOL     OW20098   2.378   2.271   1.422  0.2984 -0.3513 -0.6122
 2880SOL    HW120099   2.295   2.227   1.442 -0.0825  0.4629 -0.3822
 2880SOL    HW220100   2.364   2.355   1.466 -1.4423 -0.8033 -0.2947
 2881SOL     OW20101   2.194   0.223  17.003  0.1747  0.3139 -0.0953
 2881SOL    HW120102   2.238   0.222  17.087  0.2697 -2.7342 -0.1554
 2881SOL    HW220103   2.140   0.301  17.011  0.1910  0.1351  1.7366
 2882SOL     OW20104   2.167   3.048   2.541 -0.2694  0.3982 -0.1652
 2882SOL    HW120105   2.200   3.133   2.511 -1.8964  1.6453  1.6376
 2882SOL    HW220106   2.165   2.997   2.460  3.6671  1.0555 -0.7164
 2883SOL     OW20107   4.222   0.020   7.051  0.1153  0.4312 -0.2621
 2883SOL    HW120108   4.281   4.686   7.001  1.5572  0.7331  1.0771
 2883SOL    HW220109   4.259   0.104   7.025 -3.3011  2.5555  1.7264
 2884SOL     OW20110   1.691   2.561   4.076 -0.7629 -0.2824  0.5481
 2884SOL    HW120111   1.635   2.519   4.011  0.3016 -1.5197  0.4282
 2884SOL    HW220112   1.711   2.644   4.033 -3.0546 -0.7907 -1.5065
 2885SOL     OW20113   3.133   2.118   5.092 -0.2405  0.4320  0.4018
 2885SOL    HW120114   3.059   2.118   5.153 -1.0416 -0.6814 -0.5777
 2885SOL    HW220115   3.212   2.125   5.147  1.4500 -1.2678 -1.8288
 2886SOL     OW20116   1.005   3.574   3.382 -0.2071  0.2745 -0.0451
 2886SOL    HW120117   1.040   3.649   3.333 -1.5415  0.4375 -0.7442
 2886SOL    HW220118   1.029   3.594   3.472  0.8927 -0.1447 -0.2459
 2887SOL     OW20119   4.191   2.056  10.135  0.3224 -0.3612  0.4791
 2887SOL    HW120120   4.219   2.092  10.051  0.4482  0.1665  0.7450
 2887SOL    HW220121   4.278   2.048  10.175  0.6343  0.3809 -0.0464
 2888SOL     OW20122   2.341   4.168  13.154  0.4089  0.3897 -0.2127
 2888SOL    HW120123   2.283   4.183  13.229  0.3270  0.7408 -0.3465
 2888SOL    HW220124   2.402   4.241  13.159 -0.0418  0.6750  1.1689
 2889SOL     OW20125   2.566   1.629   6.201 -0.3055  0.6634 -0.3663
 2889SOL    HW120126   2.648   1.580   6.191 -0.8012 -0.8240  3.1202
 2889SOL    HW220127   2.510   1.585   6.137 -0.4538  1.3490 -0.7048
 2890SOL     OW20128   1.552   0.082   6.227  0.2694 -0.1144  0.2783
 2890SOL    HW120129   1.467   0.109   6.192  0.5344 -1.5740 -1.4847
 2890SOL    HW220130   1.514   0.009   6.275  1.4585  1.0892  3.0554
 2891SOL     OW20131   0.090   4.264  15.720 -0.1379  0.1180  0.5163
 2891SOL    HW120132   0.070   4.247  15.628 -1.4222  0.3810  0.7499
 2891SOL    HW220133   0.181   4.295  15.713 -0.5679  1.5214  1.2320
 2892SOL     OW20134   1.287   3.262   2.443 -0.2280  0.0909 -0.2798
 2892SOL    HW120135   1.317   3.347   2.411 -0.2400  0.2288  0.0731
 2892SOL    HW220136   1.194   3.283   2.447 -0.7649 -2.1803 -0.6894
 2893SOL     OW20137   4.616   0.633  15.051 -0.2692 -0.1188  0.5820
 2893SOL    HW120138   4.606   0.724  15.079 -0.8131 -0.0980  0.3218
 2893SOL    HW220139   4.710   0.634  15.033 -0.5292  1.7175 -0.6642
 2894SOL     OW20140   1.099   3.712   6.975  0.0742 -0.0350 -0.3580
 2894SOL    HW120141   1.118   3.723   7.068  2.0704  1.7588 -0.9868
 2894SOL    HW220142   1.116   3.620   6.955 -0.0210 -0.2253  0.4212
 2895SOL     OW20143   3.129   3.269   8.792  0.1270 -0.5439 -0.0926
 2895SOL    HW120144   3.035   3.270   8.779  0.0853 -2.6230  0.0627
 2895SOL    HW220145   3.154   3.201   8.730 -0.6376  0.8717 -1.9265
 2896SOL     OW20146   0.613   0.036   1.922  0.2597  0.6102  0.4197
 2896SOL    HW120147   0.581   0.101   1.984 -0.6601 -0.4020  1.0147
 2896SOL    HW220148   0.535   0.028   1.868  1.5980 -0.8923 -1.2935
 2897SOL     OW20149   4.446   1.928   7.841 -0.0302 -0.3525 -0.1949
 2897SOL    HW120150   4.484   1.894   7.922 -1.7943 -3.1887 -0.5570
 2897SOL    HW220151   4.359   1.955   7.870  0.3644 -1.1606  1.7752
 2898SOL     OW20152   3.990   3.805  10.962  0.2965  0.0836 -0.0984
 2898SOL    HW120153   3.984   3.712  10.939  1.0087  0.7887 -3.1211
 2898SOL    HW220154   4.009   3.842  10.876 -1.4342  3.3575  0.9168
 2899SOL     OW20155   3.049   4.463  10.142 -0.0070  0.0166 -0.3522
 2899SOL    HW120156   3.011   4.536  10.191  0.7671  0.0440  0.1962
 2899SOL    HW220157   3.042   4.490  10.050  0.0841 -0.7303 -0.5786
 2900SOL     OW20158   2.326   2.320   3.614  0.0440  0.0934 -0.3582
 2900SOL    HW120159   2.323   2.416   3.620  0.4990  0.0538  0.5028
 2900SOL    HW220160   2.233   2.300   3.630  0.8951 -1.3816  2.6913
 2901SOL     OW20161   2.248   3.707   2.120  0.6406 -0.7718 -0.1827
 2901SOL    HW120162   2.307   3.644   2.163  0.2040 -0.3802  0.9559
 2901SOL    HW220163   2.291   3.692   2.035  1.1383  0.0817 -0.0788
 2902SOL     OW20164   4.276   2.871   6.184 -0.3878 -0.0520  0.2773
 2902SOL    HW120165   4.306   2.791   6.226 -1.0802 -1.3675 -1.7392
 2902SOL    HW220166   4.287   2.848   6.092  0.1192 -1.5619  0.7267
 2903SOL     OW20167   2.854   0.898   0.861  0.0265  0.4526 -0.7199
 2903SOL    HW120168   2.938   0.914   0.817  0.3611 -1.1522 -0.6725
 2903SOL    HW220169   2.891   0.860   0.941 -1.1561 -1.1040 -0.9111
 2904SOL     OW20170   3.328   3.796   9.830  0.0469 -0.4393 -0.8260
 2904SOL    HW120171   3.316   3.703   9.815  0.3051 -0.9911  2.2787
 2904SOL    HW220172   3.404   3.808   9.773  0.8953 -2.7128 -0.1592
 2905SOL     OW20173   2.490   2.049   6.002  0.0917 -0.3005  0.4063
 2905SOL    HW120174   2.556   2.116   6.020  0.5588 -0.6043 -0.1596
 2905SOL    HW220175   2.549   1.982   5.967  0.2757 -1.2801  2.5942
 2906SOL     OW20176   2.923   3.290   7.419 -0.0336 -0.2186 -0.1277
 2906SOL    HW120177   2.947   3.342   7.496 -1.1460 -0.5039  0.4179
 2906SOL    HW220178   2.999   3.294   7.361  0.1876  0.7594  0.2325
 2907SOL     OW20179   0.823   0.626   4.182  0.0595 -0.1105  0.3695
 2907SOL    HW120180   0.731   0.614   4.157  0.0512 -0.3603  0.5267
 2907SOL    HW220181   0.819   0.612   4.276  2.6681 -0.5737  0.3961
 2908SOL     OW20182   4.703   0.338   9.649  0.1528  0.2954  0.6460
 2908SOL    HW120183   0.028   0.418   9.672  0.3044 -0.2297  2.1591
 2908SOL    HW220184   4.719   0.292   9.732 -1.3351  1.8650  1.8058
 2909SOL     OW20185   0.306   3.459   7.254  0.0823  0.0774 -0.3234
 2909SOL    HW120186   0.299   3.384   7.195 -3.1898 -1.8498  2.4765
 2909SOL    HW220187   0.401   3.468   7.261 -0.1242  0.5166  1.8524
 2910SOL     OW20188   3.001   1.319  17.571 -0.4856 -0.3003  0.5465
 2910SOL    HW120189   2.976   1.340  17.481  0.6688  1.8264  0.7268
 2910SOL    HW220190   2.976   1.227  17.573 -4.1049  0.6217 -1.9397
 2911SOL     OW20191   4.497   2.265   3.702  0.4355 -0.1185 -0.1656
 2911SOL    HW120192   4.442   2.309   3.767 -1.1543 -0.4277 -1.3063
 2911SOL    HW220193   4.565   2.233   3.762  0.7732 -1.6913 -1.4120
 2912SOL     OW20194   0.124   2.326   2.658  0.0472  0.0633 -0.0799
 2912SOL    HW120195   0.122   2.350   2.565  0.6627  0.6254  0.0534
 2912SOL    HW220196   0.076   2.243   2.659 -1.2887  0.8449  0.3041
 2913SOL     OW20197   3.959   3.564   1.657 -0.4561 -0.5316 -0.2190
 2913SOL    HW120198   3.869   3.549   1.628 -0.8516  0.0801  0.6800
 2913SOL    HW220199   4.004   3.488   1.621 -0.5677 -1.0794  0.8087
 2914SOL     OW20200   3.020   4.480   9.867  0.1343  0.2088  0.1002
 2914SOL    HW120201   2.960   4.527   9.809  1.2379  1.7552  0.2394
 2914SOL    HW220202   3.102   4.495   9.820 -0.0392 -0.7174 -0.4976
 2915SOL     OW20203   2.168   2.296   4.764 -0.1896 -0.1953  0.1275
 2915SOL    HW120204   2.177   2.215   4.715  0.8400  0.1918 -0.3351
 2915SOL    HW220205   2.085   2.282   4.810 -1.5631  0.3662 -2.1813
 2916SOL     OW20206   2.997   2.328   7.088  1.1958 -0.6591 -0.4643
 2916SOL    HW120207   3.092   2.319   7.093  1.1258 -0.6142  1.0104
 2916SOL    HW220208   2.983   2.257   7.025 -2.0222 -2.1014  1.8740
 2917SOL     OW20209   0.659   2.974   7.889  0.2773 -0.3094  0.1250
 2917SOL    HW120210   0.583   2.930   7.928  0.6073 -1.7981 -0.8899
 2917SOL    HW220211   0.731   2.951   7.948  0.9360  1.5217  0.0185
 2918SOL     OW20212   1.824   2.649   8.578  0.1872  0.8156  0.4500
 2918SOL    HW120213   1.789   2.571   8.621 -1.3691  0.0406 -2.1756
 2918SOL    HW220214   1.750   2.669   8.520  0.0056 -3.2248 -0.6961
 2919SOL     OW20215   0.435   1.541   5.952 -0.3567  0.1353  0.3333
 2919SOL    HW120216   0.422   1.544   5.857  2.1018  3.5924  0.1140
 2919SOL    HW220217   0.504   1.475   5.949 -0.7262 -0.1720 -1.1988
 2920SOL     OW20218   3.650   1.516   3.134 -0.1074 -0.0695 -0.3678
 2920SOL    HW120219   3.690   1.511   3.047  0.6622  1.0186 -0.0773
 2920SOL    HW220220   3.559   1.527   3.107 -0.1117  0.6447 -0.0792
 2921SOL     OW20221   3.182   2.977  12.353  0.2799  0.1596  0.4840
 2921SOL    HW120222   3.177   2.984  12.448  1.6312  2.4232  0.3980
 2921SOL    HW220223   3.272   3.000  12.332  0.2792 -0.3788 -0.1207
 2922SOL     OW20224   2.917   0.802   1.117 -0.3039 -0.2875 -0.1377
 2922SOL    HW120225   2.958   0.875   1.163 -1.1953  0.5263 -0.6462
 2922SOL    HW220226   2.859   0.775   1.189 -0.6802 -0.8116 -0.6300
 2923SOL     OW20227   1.430   1.458   3.845 -0.5740 -0.1769  0.2390
 2923SOL    HW120228   1.434   1.484   3.753 -0.8403  1.1442  0.5952
 2923SOL    HW220229   1.512   1.409   3.849  0.3848  1.3264 -1.0204
 2924SOL     OW20230   0.153   0.977  16.656  0.3402  0.1917  0.1198
 2924SOL    HW120231   0.149   1.053  16.599 -0.8387  0.1510  0.1450
 2924SOL    HW220232   0.061   0.972  16.684 -0.0346 -0.0293 -1.1151
 2925SOL     OW20233   0.721   4.587   4.323  0.8855 -0.2272  0.6091
 2925SOL    HW120234   0.673   4.617   4.400 -0.5869 -1.1544  0.0446
 2925SOL    HW220235   0.791   4.653   4.318 -2.2205  3.0671  0.6937
 2926SOL     OW20236   3.179   1.079  14.354  0.0060  0.4664  0.8038
 2926SOL    HW120237   3.223   1.112  14.432  0.7246  3.4539 -0.8617
 2926SOL    HW220238   3.231   1.122  14.286 -0.1519  1.6184  1.4167
 2927SOL     OW20239   0.599   0.021   4.509 -0.1691 -0.7487 -0.8416
 2927SOL    HW120240   0.563   0.065   4.586 -2.0671 -0.1414 -2.0703
 2927SOL    HW220241   0.644   0.100   4.478  0.6879  0.1936  2.7109
 2928SOL     OW20242   4.362   4.636   3.704  0.2200  0.1921  0.0077
 2928SOL    HW120243   4.341   0.006   3.692 -0.5127  0.0650  0.3072
 2928SOL    HW220244   4.425   4.620   3.633  0.6832 -2.0176  0.9428
 2929SOL     OW20245   3.850   0.425   4.619 -0.1423  0.2993  0.5054
 2929SOL    HW120246   3.758   0.406   4.599 -0.4783  2.8873 -0.3913
 2929SOL    HW220247   3.867   0.484   4.546  2.1141 -0.6472  0.2743
 2930SOL     OW20248   1.139   2.383   8.429  0.0073 -0.2352  0.4035
 2930SOL    HW120249   1.163   2.436   8.505  1.3979  1.2718 -1.0886
 2930SOL    HW220250   1.224   2.390   8.385  0.5772  0.4486  1.6004
 2931SOL     OW20251   1.563   1.215   6.174  0.0849  0.6884 -0.2162
 2931SOL    HW120252   1.544   1.297   6.129  1.2646  0.8344 -0.4527
 2931SOL    HW220253   1.479   1.180   6.202  0.6428 -1.3168 -0.9814
 2932SOL     OW20254   0.726   2.349  12.300  0.4182  0.2991 -0.3608
 2932SOL    HW120255   0.650   2.405  12.318  0.4129  0.3077 -0.4105
 2932SOL    HW220256   0.716   2.344  12.205  1.0103  1.5480 -0.4975
 2933SOL     OW20257   0.442   3.072  14.739  0.2835  0.0769 -0.0317
 2933SOL    HW120258   0.462   3.093  14.831  1.1536 -0.5672 -0.0789
 2933SOL    HW220259   0.476   3.150  14.697 -1.5915  0.5825 -0.6396
 2934SOL     OW20260   1.621   1.366   5.717 -0.4599  0.3683 -0.0748
 2934SOL    HW120261   1.673   1.343   5.794  1.2595  0.0892 -1.3284
 2934SOL    HW220262   1.602   1.278   5.684 -1.9571  0.4102  0.6774
 2935SOL     OW20263   3.942   0.196   7.307  0.5871 -0.1238 -0.8722
 2935SOL    HW120264   3.960   0.104   7.285  0.8871 -1.2036  3.9571
 2935SOL    HW220265   3.973   0.235   7.225 -0.6675  2.3552 -0.1697
 2936SOL     OW20266   3.888   3.518   7.251  0.2738 -0.3465 -0.0776
 2936SOL    HW120267   3.832   3.579   7.299  1.2588  0.2673  0.2833
 2936SOL    HW220268   3.829   3.471   7.192  1.2673 -1.2240 -0.3777
 2937SOL     OW20269   2.399   2.750   3.087 -0.1260 -0.0719  0.4847
 2937SOL    HW120270   2.450   2.697   3.025 -0.3965 -1.0895  1.1411
 2937SOL    HW220271   2.308   2.731   3.063 -0.2622  0.0662  0.9054
 2938SOL     OW20272   3.492   0.206   8.583 -0.2200  0.0914 -0.1146
 2938SOL    HW120273   3.524   0.135   8.528 -0.7894  0.7453 -1.3002
 2938SOL    HW220274   3.466   0.161   8.664  2.2740  1.9287  1.6892
 2939SOL     OW20275   3.235   3.720   7.519 -0.1405 -0.1075  0.4565
 2939SOL    HW120276   3.232   3.681   7.606  1.8974  1.0296  1.0440
 2939SOL    HW220277   3.308   3.782   7.526 -1.4211  1.5154 -0.6470
 2940SOL     OW20278   2.856   3.563  12.962 -0.1106 -0.2844 -1.0643
 2940SOL    HW120279   2.929   3.625  12.963 -0.2050 -0.1906  0.1029
 2940SOL    HW220280   2.826   3.585  12.874 -0.3667  2.6828 -0.2341
 2941SOL     OW20281   4.292   2.088   3.296 -0.4246  0.1878 -0.0130
 2941SOL    HW120282   4.262   2.070   3.207  1.1720  0.9306 -0.7027
 2941SOL    HW220283   4.225   2.146   3.331 -0.1822  0.1502  0.5201
 2942SOL     OW20284   1.909   1.363   4.119  0.5417 -0.3600  0.4663
 2942SOL    HW120285   1.846   1.379   4.049  2.3890  0.0423 -1.0928
 2942SOL    HW220286   1.965   1.441   4.115 -0.9079  0.6425 -0.6103
 2943SOL     OW20287   1.797   4.519  10.217  0.1816 -0.6264 -0.4284
 2943SOL    HW120288   1.847   4.442  10.244  0.3748  0.1943  1.5803
 2943SOL    HW220289   1.838   4.550  10.137  1.0916 -1.0150 -0.1198
 2944SOL     OW20290   2.672   3.388   0.484 -0.4267  0.6289  0.3291
 2944SOL    HW120291   2.626   3.430   0.556 -1.8958  1.7881 -1.2868
 2944SOL    HW220292   2.588   3.366   0.443 -0.5043  0.4863  0.5630
 2945SOL     OW20293   3.001   4.088   3.497 -0.0493 -0.8595 -0.0032
 2945SOL    HW120294   3.083   4.047   3.468 -0.4377 -1.2839 -0.5139
 2945SOL    HW220295   2.980   4.123   3.410 -0.0431  1.8375  1.0835
 2946SOL     OW20296   0.286   2.950   2.460 -0.7132 -0.0068  0.0424
 2946SOL    HW120297   0.321   2.938   2.372  0.2579 -1.5919  0.6302
 2946SOL    HW220298   0.254   3.040   2.452 -0.0108  0.2080 -0.3747
 2947SOL     OW20299   4.020   2.358   1.944  0.7296  0.0869  0.0304
 2947SOL    HW120300   3.982   2.272   1.929  2.6493 -0.8191  0.4804
 2947SOL    HW220301   3.952   2.395   2.001 -0.7995 -1.5836 -0.7338
 2948SOL     OW20302   0.734   4.574  10.643  0.2917  0.0272 -0.8134
 2948SOL    HW120303   0.791   4.620  10.704  0.1432  0.2051 -0.8110
 2948SOL    HW220304   0.765   4.594  10.554  0.5034  4.0401  0.1857
 2949SOL     OW20305   3.744   0.855   3.874  0.1019  0.0708 -0.0304
 2949SOL    HW120306   3.653   0.871   3.849  0.1707  1.2214  0.4306
 2949SOL    HW220307   3.775   0.944   3.893  0.4317 -0.1783  0.5936
 2950SOL     OW20308   3.390   3.400   7.441  0.2909 -0.4117 -0.4142
 2950SOL    HW120309   3.346   3.479   7.409  0.5955  0.4432  1.2689
 2950SOL    HW220310   3.437   3.371   7.362  0.9468 -1.4129  0.3449
 2951SOL     OW20311   4.699   0.303  16.002 -0.1285 -0.7928  0.4675
 2951SOL    HW120312   0.053   0.280  15.950 -0.1359 -1.3469  0.6965
 2951SOL    HW220313   4.635   0.317  15.933 -0.3831  2.0610  1.2761
 2952SOL     OW20314   3.898   0.037   7.944  0.1601 -0.0146 -0.5102
 2952SOL    HW120315   3.946   0.090   7.881 -0.4525  1.9811  0.7122
 2952SOL    HW220316   3.920   4.672   7.913 -0.7435 -0.2170 -0.5773
 2953SOL     OW20317   1.356   1.430   5.709 -0.3964 -0.7101 -0.5701
 2953SOL    HW120318   1.384   1.503   5.763 -0.9154  1.0755 -2.6944
 2953SOL    HW220319   1.437   1.411   5.661  0.2447 -1.1646  0.6960
 2954SOL     OW20320   2.930   0.494  12.393 -0.3744  0.2155  0.2166
 2954SOL    HW120321   2.984   0.456  12.462 -0.1117  0.3476  0.0836
 2954SOL    HW220322   2.851   0.440  12.385 -1.9271  2.4766  0.1279
 2955SOL     OW20323   4.542   4.193   8.682 -0.2664  0.1396 -0.0535
 2955SOL    HW120324   4.563   4.100   8.672  1.6589  0.7420 -1.6683
 2955SOL    HW220325   4.564   4.230   8.596 -0.8636  1.0274  0.1793
 2956SOL     OW20326   1.588   0.071   1.513  0.0859  0.3050 -0.4996
 2956SOL    HW120327   1.513   0.075   1.454 -0.2424  0.8789 -0.0399
 2956SOL    HW220328   1.621   4.707   1.487  0.1613  0.5104 -1.0922
 2957SOL     OW20329   1.371   0.530  10.882  0.2020 -0.3583 -0.2907
 2957SOL    HW120330   1.341   0.467  10.948 -0.5804 -0.0254 -0.3239
 2957SOL    HW220331   1.461   0.542  10.911  0.0763 -1.9055  0.7319
 2958SOL     OW20332   2.499   2.966   9.167  0.4772  0.2355 -0.1736
 2958SOL    HW120333   2.512   2.953   9.261  1.7824  0.6786 -0.2844
 2958SOL    HW220334   2.552   3.046   9.158  0.0513  0.3622 -1.5304
 2959SOL     OW20335   3.726   1.377   2.442  0.0075  0.5662  0.2414
 2959SOL    HW120336   3.730   1.299   2.497  1.0916  2.5630  2.9702
 2959SOL    HW220337   3.809   1.422   2.457  1.3637 -0.9849 -2.5543
 2960SOL     OW20338   0.830   2.595   5.836  0.0367  0.0646  0.1214
 2960SOL    HW120339   0.810   2.600   5.743  1.9052 -0.1336 -0.2974
 2960SOL    HW220340   0.759   2.647   5.873  0.0551  1.1759 -1.4255
 2961SOL     OW20341   4.242   3.303   9.891 -0.3306  0.0797 -0.3537
 2961SOL    HW120342   4.194   3.241   9.946 -0.2969  1.8526  1.6623
 2961SOL    HW220343   4.330   3.289   9.928 -0.8585 -1.3484  0.3580
 2962SOL     OW20344   4.455   4.678   5.328  0.3405 -0.5209 -0.4884
 2962SOL    HW120345   4.513   4.668   5.253  0.9277 -0.0696 -0.0902
 2962SOL    HW220346   4.472   4.594   5.370  0.4665  0.7786  2.0700
 2963SOL     OW20347   3.585   3.775   4.534  0.2451  0.7031 -0.0096
 2963SOL    HW120348   3.500   3.796   4.574  0.0390  0.8038 -0.4950
 2963SOL    HW220349   3.640   3.753   4.609  2.6739  2.4630 -1.2579
 2964SOL     OW20350   2.985   4.249  14.705 -0.3467  0.0521  0.6336
 2964SOL    HW120351   3.020   4.208  14.784  1.0547 -1.2710 -0.6755
 2964SOL    HW220352   2.957   4.336  14.733  1.6262  1.1198 -0.6679
 2965SOL     OW20353   1.832   0.455   3.825 -0.5460 -0.2796  0.1492
 2965SOL    HW120354   1.747   0.499   3.821 -0.1849  0.3152 -0.8987
 2965SOL    HW220355   1.806   0.371   3.786  1.2766 -1.6463  1.8407
 2966SOL     OW20356   3.739   3.955   8.349  0.2150  0.2998 -0.4511
 2966SOL    HW120357   3.651   3.933   8.317  0.3680  0.1546 -0.7639
 2966SOL    HW220358   3.794   3.905   8.289  0.6771 -0.6182  0.7357
 2967SOL     OW20359   4.149   1.852   6.722  0.9046 -0.1745 -0.1926
 2967SOL    HW120360   4.239   1.852   6.688 -0.1123 -0.7223 -2.8738
 2967SOL    HW220361   4.149   1.760   6.750 -0.3077  0.1883  0.9723
 2968SOL     OW20362   4.389   2.528  13.624 -0.1520 -0.4381  0.5801
 2968SOL    HW120363   4.406   2.542  13.531 -0.5765 -0.8486  0.4393
 2968SOL    HW220364   4.405   2.615  13.660  0.4485  0.1215 -1.0382
 2969SOL     OW20365   2.819   2.786   3.082 -0.2630  0.0694  0.0607
 2969SOL    HW120366   2.759   2.799   3.010 -2.6957 -0.9140  1.9159
 2969SOL    HW220367   2.812   2.873   3.123 -0.0160  0.7204 -1.2734
 2970SOL     OW20368   3.800   3.791  13.566 -0.2208  0.3966  0.0354
 2970SOL    HW120369   3.711   3.818  13.542 -1.1634 -1.0765  1.8662
 2970SOL    HW220370   3.817   3.858  13.632  1.6253  0.9403 -1.0057
 2971SOL     OW20371   2.532   0.856  15.335 -0.3462  0.1748 -0.8092
 2971SOL    HW120372   2.502   0.799  15.264  0.8327 -0.2695 -0.9611
 2971SOL    HW220373   2.575   0.786  15.384 -0.3378  0.0421 -1.0059
 2972SOL     OW20374   0.274   1.166   2.245  0.4712  0.2751  0.6710
 2972SOL    HW120375   0.323   1.090   2.212 -1.3183 -0.0384 -1.2593
 2972SOL    HW220376   0.207   1.172   2.177 -1.7080  0.5466  2.8639
 2973SOL     OW20377   0.627   4.493   2.008  0.4532  0.4442 -0.5466
 2973SOL    HW120378   0.622   4.586   1.986 -2.3556  0.6068  0.7798
 2973SOL    HW220379   0.534   4.476   2.021  0.9793 -0.2658  2.2083
 2974SOL     OW20380   0.559   2.153   3.227 -0.4020  0.5675 -0.5984
 2974SOL    HW120381   0.525   2.230   3.182 -0.3511  1.2560  0.5274
 2974SOL    HW220382   0.600   2.105   3.155 -0.8406 -1.5488  0.5749
 2975SOL     OW20383   1.046   0.164   6.921  0.1020  0.4988 -0.2401
 2975SOL    HW120384   1.121   0.217   6.895  0.8183 -2.2442 -3.7902
 2975SOL    HW220385   1.004   0.168   6.835 -0.3250  1.1508 -0.0003
 2976SOL     OW20386   4.416   2.840   4.186  0.4465  0.7178 -0.1674
 2976SOL    HW120387   4.475   2.780   4.232 -0.2623 -0.9134 -1.3420
 2976SOL    HW220388   4.409   2.795   4.101  1.4427  1.5280 -0.6740
 2977SOL     OW20389   2.777   3.566   4.930  0.3217 -0.7393  0.1174
 2977SOL    HW120390   2.775   3.472   4.912  1.8942 -1.2594  2.6220
 2977SOL    HW220391   2.791   3.605   4.844 -1.3762 -0.2006  0.1023
 2978SOL     OW20392   0.346   1.335   5.435 -0.3042 -0.0501  0.2766
 2978SOL    HW120393   0.337   1.252   5.388 -0.8649  1.2444 -1.8765
 2978SOL    HW220394   0.439   1.351   5.422 -0.6669 -0.7378 -2.9692
 2979SOL     OW20395   3.189   3.366   4.921  0.4605  0.6965 -0.6100
 2979SOL    HW120396   3.166   3.419   4.997  0.8734 -1.5594  1.0863
 2979SOL    HW220397   3.245   3.294   4.950  0.1816 -0.1735 -2.2178
 2980SOL     OW20398   1.915   2.623  12.076  0.0924  0.0458  0.0397
 2980SOL    HW120399   1.843   2.671  12.035  1.2313  1.1521 -0.6646
 2980SOL    HW220400   1.967   2.688  12.123  0.2292  1.2956 -1.8205
 2981SOL     OW20401   3.749   0.665  15.774  0.0836 -0.4441 -0.0969
 2981SOL    HW120402   3.804   0.642  15.849 -0.5924  0.7335  0.7713
 2981SOL    HW220403   3.798   0.744  15.750  0.3483 -0.6632 -0.2651
 2982SOL     OW20404   0.634   1.260   6.877  0.3584  0.3885 -0.3976
 2982SOL    HW120405   0.637   1.281   6.970  1.4968  0.3174 -0.4144
 2982SOL    HW220406   0.611   1.168   6.888 -1.4677  0.7927 -0.8882
 2983SOL     OW20407   3.334   1.953  17.177  0.5365 -0.0458  0.2914
 2983SOL    HW120408   3.418   1.920  17.145  0.3581 -0.0864 -0.1441
 2983SOL    HW220409   3.272   1.943  17.104 -0.0375 -1.4742  0.9816
 2984SOL     OW20410   0.101   2.394   7.244 -0.2949 -0.3304 -0.0252
 2984SOL    HW120411   0.068   2.433   7.163 -2.4759  2.1249  2.0385
 2984SOL    HW220412   0.026   2.420   7.299  1.4439 -1.2243  2.7849
 2985SOL     OW20413   0.460   2.961  17.493 -0.5431 -0.1175  0.1495
 2985SOL    HW120414   0.386   3.021  17.502 -0.2612  0.1643  0.5454
 2985SOL    HW220415   0.430   2.892  17.552 -1.0260 -0.2705 -0.2710
 2986SOL     OW20416   4.452   2.965   1.963  0.3936 -0.0338  0.0625
 2986SOL    HW120417   4.547   2.975   1.970  0.3765  0.0092  0.2309
 2986SOL    HW220418   4.441   2.926   1.876 -0.3920  0.8885 -0.2574
 2987SOL     OW20419   2.163   2.804   9.244 -0.0322 -0.2558 -0.4224
 2987SOL    HW120420   2.081   2.821   9.291  0.5783 -0.9640  0.8632
 2987SOL    HW220421   2.196   2.721   9.276  1.0090  1.6369  3.4269
 2988SOL     OW20422   3.176   4.588   3.440  0.4806  0.1281 -0.1170
 2988SOL    HW120423   3.214   4.592   3.352  0.6654 -2.6684 -0.1392
 2988SOL    HW220424   3.086   4.556   3.432  1.1855 -1.8907  0.0612
 2989SOL     OW20425   1.179   2.703  10.445 -0.3996 -0.0210  0.6903
 2989SOL    HW120426   1.213   2.770  10.386 -0.0416 -0.9570 -0.1535
 2989SOL    HW220427   1.257   2.662  10.482  0.6093  1.3420  0.0308
 2990SOL     OW20428   1.387   3.569   2.735  0.5620  0.8357 -0.1329
 2990SOL    HW120429   1.403   3.541   2.645  1.6965 -1.5593  0.8049
 2990SOL    HW220430   1.444   3.645   2.737  3.5788 -1.4731  0.8827
 2991SOL     OW20431   2.415   0.137   4.490 -0.2027  0.9225 -0.2806
 2991SOL    HW120432   2.392   0.108   4.578  1.8207 -1.0454 -0.3981
 2991SOL    HW220433   2.336   0.183   4.461 -0.3672  0.7224 -0.1516
 2992SOL     OW20434   1.284   2.097   6.061  0.2749  0.3261  0.6446
 2992SOL    HW120435   1.235   2.122   5.983  1.2786 -0.2912 -0.1695
 2992SOL    HW220436   1.248   2.159   6.125  1.6535  2.2970 -0.5087
 2993SOL     OW20437   3.467   3.648  13.501  0.6454  0.2241 -0.1409
 2993SOL    HW120438   3.376   3.624  13.519  0.2688  1.5474 -0.2752
 2993SOL    HW220439   3.478   3.735  13.540 -0.5603 -0.3674  1.5059
 2994SOL     OW20440   4.326   2.797  14.656  0.3344  0.5636  0.3670
 2994SOL    HW120441   4.417   2.778  14.680  0.3139 -1.2539 -0.9796
 2994SOL    HW220442   4.308   2.722  14.599  1.2787 -1.5322  2.7765
 2995SOL     OW20443   0.705   2.596   0.754 -0.1263  0.1535  0.1768
 2995SOL    HW120444   0.713   2.671   0.814  1.8160  0.9428 -1.0581
 2995SOL    HW220445   0.793   2.584   0.717  0.6940  0.3298  2.0972
 2996SOL     OW20446   1.534   3.690   5.753 -0.0446  0.0375 -0.4200
 2996SOL    HW120447   1.574   3.629   5.690  1.1936  1.4244 -0.9832
 2996SOL    HW220448   1.440   3.678   5.747  0.1401 -0.7144 -1.9035
 2997SOL     OW20449   4.423   2.501  16.419  0.0612  1.0754  0.4944
 2997SOL    HW120450   4.424   2.465  16.330  1.1547  1.1551  0.4703
 2997SOL    HW220451   4.500   2.558  16.414 -0.3272  1.3776 -2.0079
 2998SOL     OW20452   2.746   4.180   9.402  0.7401  0.1822  0.2596
 2998SOL    HW120453   2.809   4.111   9.380 -1.5761 -1.2791 -1.8151
 2998SOL    HW220454   2.780   4.203   9.489  2.1589  0.6737 -0.4230
 2999SOL     OW20455   0.298   4.709   6.484 -0.0392  0.0173  0.0873
 2999SOL    HW120456   0.326   0.012   6.397  0.0521  2.4287  0.8329
 2999SOL    HW220457   0.370   0.021   6.537 -0.4029 -0.1287  0.6838
 3000SOL     OW20458   1.265   3.683   2.268  0.0074 -0.5118 -0.0396
 3000SOL    HW120459   1.198   3.746   2.240  1.5151  0.6629 -1.0297
 3000SOL    HW220460   1.229   3.601   2.234  0.6471 -1.1249  0.7644
 3001SOL     OW20461   3.647   3.751   5.607 -0.1778  0.0723  0.4897
 3001SOL    HW120462   3.666   3.844   5.612  0.3865 -0.0696  1.0118
 3001SOL    HW220463   3.589   3.746   5.531 -2.1378  1.5893  1.8823
 3002SOL     OW20464   0.699   4.570   6.705 -0.0707 -0.8652 -0.3413
 3002SOL    HW120465   0.788   4.540   6.722 -0.8010 -1.2134  2.8415
 3002SOL    HW220466   0.708   4.660   6.738  0.8840 -0.8852 -0.5475
 3003SOL     OW20467   3.152   3.112   6.891  0.8099  0.1877 -0.5950
 3003SOL    HW120468   3.170   3.201   6.923 -0.6038 -0.3865  1.8349
 3003SOL    HW220469   3.199   3.060   6.957 -0.8418  1.4733  1.6149
 3004SOL     OW20470   0.438   1.778  17.390  0.0053  0.1099  0.3291
 3004SOL    HW120471   0.471   1.712  17.451  1.0789 -0.3875 -0.7990
 3004SOL    HW220472   0.468   1.748  17.304 -2.2356 -2.0474  0.2988
 3005SOL     OW20473   3.041   2.439   3.119 -0.1650  0.2792 -0.6259
 3005SOL    HW120474   3.032   2.355   3.073  0.0723 -0.6785  1.0899
 3005SOL    HW220475   3.032   2.498   3.044  2.9953  0.1372 -1.1158
 3006SOL     OW20476   4.006   2.219   5.562  0.0263  0.0699  0.1235
 3006SOL    HW120477   4.058   2.223   5.642  0.2879  1.5625 -0.1169
 3006SOL    HW220478   4.048   2.143   5.522  4.0858  1.7486  1.1352
 3007SOL     OW20479   1.665   3.121   5.893 -0.2987  0.0738  0.6105
 3007SOL    HW120480   1.600   3.113   5.824  0.8441  0.4910 -0.5243
 3007SOL    HW220481   1.747   3.153   5.855  0.7710  0.3706  3.0999
 3008SOL     OW20482   0.661   0.646  16.790 -0.3164 -0.3156 -0.6325
 3008SOL    HW120483   0.729   0.705  16.821  0.5467 -2.0612  0.7792
 3008SOL    HW220484   0.578   0.683  16.820  0.6277  1.5714 -0.3336
 3009SOL     OW20485   1.579   3.430   8.714  0.0668  0.1618  0.1690
 3009SOL    HW120486   1.506   3.384   8.671  0.7461 -0.9033  0.1621
 3009SOL    HW220487   1.542   3.443   8.801  0.0947 -1.5392  0.4390
 3010SOL     OW20488   4.447   1.022   6.440  0.0965 -0.1677 -0.3864
 3010SOL    HW120489   4.535   1.045   6.411  0.1913  0.2506  0.2405
 3010SOL    HW220490   4.404   1.107   6.442 -2.7792 -1.6049 -0.8630
 3011SOL     OW20491   4.024   2.521   8.065 -0.4122  0.2454  0.3979
 3011SOL    HW120492   4.049   2.463   7.992 -1.9948  0.9410 -0.7199
 3011SOL    HW220493   3.942   2.477   8.088 -0.9794  1.2395  0.2972
 3012SOL     OW20494   2.917   0.182   8.979 -0.3918 -0.4207 -0.3196
 3012SOL    HW120495   2.868   0.233   8.915 -0.8044 -0.1210  0.2389
 3012SOL    HW220496   3.004   0.208   8.950 -1.6618  3.4080 -0.5756
 3013SOL     OW20497   2.009   2.389   2.011 -0.5745 -0.3911  0.4185
 3013SOL    HW120498   1.919   2.408   1.986 -0.8176 -0.9013  0.9057
 3013SOL    HW220499   2.051   2.444   1.945  1.1377 -1.1202  0.9043
 3014SOL     OW20500   1.463   3.312   8.362 -0.1151  0.3128  0.6991
 3014SOL    HW120501   1.493   3.403   8.366 -0.8251  0.5810  0.0460
 3014SOL    HW220502   1.470   3.286   8.454 -0.2966 -0.8321  0.3816
 3015SOL     OW20503   2.058   2.306   8.753  0.7549  0.0604 -0.0024
 3015SOL    HW120504   2.031   2.241   8.688  2.2123 -0.2208 -0.3329
 3015SOL    HW220505   2.060   2.258   8.835 -0.5273  1.2162  0.7189
 3016SOL     OW20506   0.363   2.997   3.701 -0.1419 -0.1198  0.4253
 3016SOL    HW120507   0.381   2.907   3.731  0.5676 -0.7690 -1.9456
 3016SOL    HW220508   0.343   3.039   3.785 -3.7476 -0.6070 -0.2222
 3017SOL     OW20509   1.413   4.674  16.247 -0.1605  0.1235 -0.1530
 3017SOL    HW120510   1.455   4.709  16.168  1.5233 -0.7948  0.3327
 3017SOL    HW220511   1.428   4.579  16.237 -0.8919  0.0899 -0.9503
 3018SOL     OW20512   2.220   4.510  14.960 -0.0429 -0.5369 -0.3609
 3018SOL    HW120513   2.160   4.491  14.888  1.1238  1.0309 -1.7336
 3018SOL    HW220514   2.264   4.587  14.927 -0.5245 -0.0741  0.0722
 3019SOL     OW20515   3.349   4.369   6.996  0.2168  0.4603 -0.1888
 3019SOL    HW120516   3.364   4.426   7.072  0.2407 -1.3525  1.1489
 3019SOL    HW220517   3.301   4.299   7.040 -0.2604  0.1705 -1.1709
 3020SOL     OW20518   0.947   3.306  15.061  0.5743  0.2104 -0.0346
 3020SOL    HW120519   0.914   3.340  14.978 -0.8787  0.7298  0.7776
 3020SOL    HW220520   0.908   3.375  15.114  2.2121  0.9894  0.1808
 3021SOL     OW20521   2.021   1.087   7.802 -0.1653  0.2276 -0.0359
 3021SOL    HW120522   2.101   1.070   7.852 -0.8235  1.6890  1.5102
 3021SOL    HW220523   1.954   1.079   7.870 -0.0333  0.3893  0.1113
 3022SOL     OW20524   1.879   1.939  13.721  0.3737  0.5101  0.4621
 3022SOL    HW120525   1.873   1.981  13.806  3.6621  0.1530  0.8647
 3022SOL    HW220526   1.797   1.889  13.724  0.1163  0.9274  0.4620
 3023SOL     OW20527   2.580   4.491   9.772 -0.0124 -0.1228 -0.6390
 3023SOL    HW120528   2.530   4.558   9.818  0.9019 -1.5561  2.4552
 3023SOL    HW220529   2.509   4.455   9.720  0.9155 -2.5087 -0.2724
 3024SOL     OW20530   1.005   3.085   5.845 -0.3128 -0.4481  0.0291
 3024SOL    HW120531   0.956   3.041   5.776  0.7330  0.9756 -1.6327
 3024SOL    HW220532   0.986   3.177   5.827  0.5239 -0.1796  0.5256
 3025SOL     OW20533   4.236   0.182  15.930  0.1097 -0.3570  0.0186
 3025SOL    HW120534   4.172   0.187  15.859  1.4262  1.5505 -1.0523
 3025SOL    HW220535   4.310   0.216  15.878  1.7060 -3.1875  0.4407
 3026SOL     OW20536   0.966   1.635   6.085  0.0228  0.3401 -0.3765
 3026SOL    HW120537   0.938   1.544   6.089 -0.5400  0.5512  0.5923
 3026SOL    HW220538   1.040   1.636   6.146 -0.4820 -2.1172  0.2656
 3027SOL     OW20539   3.229   0.445   2.019  0.2668  0.0197 -0.2640
 3027SOL    HW120540   3.207   0.414   1.931 -0.2401  1.3695 -0.6075
 3027SOL    HW220541   3.181   0.383   2.074  0.7878 -0.5214 -0.4109
 3028SOL     OW20542   3.209   3.805   3.968  0.4346  0.9110 -0.3366
 3028SOL    HW120543   3.235   3.713   3.959 -0.1168  0.8519 -1.3276
 3028SOL    HW220544   3.114   3.798   3.956  0.1852 -0.3051  2.4081
 3029SOL     OW20545   4.604   1.319   9.435  0.1850  0.4255 -0.0393
 3029SOL    HW120546   4.608   1.259   9.510  1.4216  0.1545 -0.3193
 3029SOL    HW220547   4.666   1.390   9.452  0.9142  0.6969 -3.6778
 3030SOL     OW20548   4.248   3.505  14.066 -0.2969 -0.2463 -0.3624
 3030SOL    HW120549   4.236   3.504  14.161  3.1010 -1.7205  0.0860
 3030SOL    HW220550   4.174   3.558  14.039  0.7047 -0.1073 -2.8034
 3031SOL     OW20551   3.573   3.800   5.294 -0.5561  0.3722 -0.2076
 3031SOL    HW120552   3.649   3.845   5.330  0.2778 -0.7012 -0.6231
 3031SOL    HW220553   3.610   3.752   5.219  1.1194 -1.0496  1.5325
 3032SOL     OW20554   2.044   3.353   0.216  0.5211  0.6738 -0.1721
 3032SOL    HW120555   2.019   3.435   0.258 -1.5867 -0.5788  0.9734
 3032SOL    HW220556   2.016   3.292   0.284 -0.0062 -0.8661 -1.7823
 3033SOL     OW20557   1.349   3.115  12.310 -0.3699  0.5101  0.0981
 3033SOL    HW120558   1.356   3.088  12.218  0.8190  0.1914  0.2831
 3033SOL    HW220559   1.387   3.033  12.343 -0.5807  0.6359  0.6637
 3034SOL     OW20560   4.416   3.306   8.569 -0.3943  0.2333  0.5265
 3034SOL    HW120561   4.418   3.362   8.647  1.2380 -0.1256  0.7450
 3034SOL    HW220562   4.337   3.253   8.584 -0.2450 -0.8212 -2.5301
 3035SOL     OW20563   1.865   4.133  12.919 -0.0849  0.6917 -0.2004
 3035SOL    HW120564   1.930   4.201  12.901 -1.7189  2.2470 -0.1569
 3035SOL    HW220565   1.852   4.084  12.837  0.1120  0.0938  0.1232
 3036SOL     OW20566   4.514   1.854  10.564  0.3830  0.1429 -0.2977
 3036SOL    HW120567   4.607   1.873  10.551  0.5024 -0.4034 -0.2370
 3036SOL    HW220568   4.483   1.934  10.607 -0.1415 -0.8432  1.1515
 3037SOL     OW20569   1.450   3.029   8.847 -0.0091  0.0022  0.0788
 3037SOL    HW120570   1.431   3.012   8.939  1.3709  0.0802  0.3880
 3037SOL    HW220571   1.362   3.052   8.818 -0.3592 -0.4442  0.7941
 3038SOL     OW20572   0.189   3.870   3.364 -0.3679  0.0117 -0.3233
 3038SOL    HW120573   0.276   3.874   3.404  0.5340  0.9615 -2.4043
 3038SOL    HW220574   0.205   3.834   3.277 -3.6919 -0.7151 -0.6118
 3039SOL     OW20575   0.676   1.395   6.279 -0.4214 -0.2111 -0.5304
 3039SOL    HW120576   0.753   1.392   6.222 -0.4013  1.3512 -0.6041
 3039SOL    HW220577   0.615   1.354   6.218 -0.6185 -2.3620  1.1117
 3040SOL     OW20578   2.560   3.022   3.084  0.2269 -0.2708  0.1883
 3040SOL    HW120579   2.559   2.961   3.010 -0.0697 -2.5311  2.0546
 3040SOL    HW220580   2.542   2.959   3.153  0.3478 -0.3478  0.1495
 3041SOL     OW20581   3.772   0.680   0.692  0.3387  0.3563 -0.1317
 3041SOL    HW120582   3.748   0.688   0.600  2.4092  0.1420 -0.6956
 3041SOL    HW220583   3.850   0.624   0.688 -1.1461 -1.9002  2.2737
 3042SOL     OW20584   3.069   1.820   4.980  0.1954  0.6652 -0.4979
 3042SOL    HW120585   3.112   1.745   5.022  2.2600  1.9673 -0.3203
 3042SOL    HW220586   3.120   1.894   5.013  1.5941 -1.1667  1.4822
 3043SOL     OW20587   2.014   4.322   2.252  0.1707 -0.6803  0.2702
 3043SOL    HW120588   2.031   4.392   2.315 -1.4819  0.8467 -0.9661
 3043SOL    HW220589   1.935   4.275   2.277 -0.5866 -0.2607 -1.3687
 3044SOL     OW20590   2.893   0.105  11.308 -0.0631  0.2885 -0.3665
 3044SOL    HW120591   2.859   0.016  11.304 -1.9878  0.9933  0.1124
 3044SOL    HW220592   2.948   0.100  11.386 -1.6046  0.3694  0.7312
 3045SOL     OW20593   2.254   3.899   7.442  0.3282  0.1279 -0.8689
 3045SOL    HW120594   2.205   3.924   7.520  0.4621  1.3425 -1.1784
 3045SOL    HW220595   2.192   3.921   7.372 -1.3852  3.1409  1.5748
 3046SOL     OW20596   3.704   2.588   2.755  0.3240 -0.2585 -0.0576
 3046SOL    HW120597   3.767   2.550   2.695 -2.7110 -0.2337 -3.2795
 3046SOL    HW220598   3.673   2.503   2.785  0.1261  1.3225  4.2963
 3047SOL     OW20599   2.621   0.222   8.377  0.1836 -0.1947  0.0621
 3047SOL    HW120600   2.662   0.140   8.349 -0.1974 -0.3576 -0.0071
 3047SOL    HW220601   2.660   0.278   8.309  0.1287 -2.7180 -2.0338
 3048SOL     OW20602   3.830   1.833   8.394 -0.0544 -0.4552 -0.2019
 3048SOL    HW120603   3.778   1.888   8.336  2.0528 -0.6245 -2.2713
 3048SOL    HW220604   3.855   1.767   8.329 -1.6279  0.5498 -1.8285
 3049SOL     OW20605   3.842   4.461  16.592 -0.5453  0.6583  0.6261
 3049SOL    HW120606   3.869   4.519  16.664 -2.0710  1.8827  0.2162
 3049SOL    HW220607   3.800   4.518  16.528  0.3954 -0.7678 -1.2828
 3050SOL     OW20608   3.345   2.015  12.637 -0.3652 -0.1344 -0.0963
 3050SOL    HW120609   3.307   1.930  12.656  1.3150 -0.5451  1.4259
 3050SOL    HW220610   3.264   2.057  12.607 -1.3811 -2.1172 -0.1243
 3051SOL     OW20611   0.660   3.956   6.600 -0.4469 -0.4091 -0.4500
 3051SOL    HW120612   0.640   4.030   6.658 -1.2394  0.8269 -2.2836
 3051SOL    HW220613   0.585   3.902   6.623 -0.9586  0.4604 -0.0819
 3052SOL     OW20614   2.556   3.749   5.089  0.4320  0.1281 -0.4207
 3052SOL    HW120615   2.584   3.732   5.000  0.4047 -2.7819  0.1357
 3052SOL    HW220616   2.643   3.770   5.123 -0.8871  0.3855  2.8178
 3053SOL     OW20617   4.396   2.107   5.168 -0.1133 -0.1795  0.0017
 3053SOL    HW120618   4.464   2.159   5.125 -0.8398  0.5512 -0.2640
 3053SOL    HW220619   4.333   2.107   5.096 -0.4220 -0.5780  0.2712
 3054SOL     OW20620   3.173   4.658   1.956  0.2407 -0.0691  0.3590
 3054SOL    HW120621   3.185   4.691   1.867  1.8682  0.0382  0.6102
 3054SOL    HW220622   3.142   4.569   1.942 -1.8711  0.7618 -0.2232
 3055SOL     OW20623   1.004   0.935  11.628  0.3313  0.0165  0.3374
 3055SOL    HW120624   1.061   0.860  11.646 -1.4310 -1.9864 -2.4099
 3055SOL    HW220625   0.997   0.982  11.712  0.6113  1.6896 -0.5758
 3056SOL     OW20626   3.995   3.295   4.848  0.0657  0.3941 -0.5526
 3056SOL    HW120627   3.997   3.383   4.811  0.9350  0.6178  0.0076
 3056SOL    HW220628   4.013   3.314   4.940  3.2258  0.5468 -1.1908
 3057SOL     OW20629   3.486   4.489   6.794  0.9311 -0.2013 -0.3611
 3057SOL    HW120630   3.456   4.580   6.802  2.8249  0.3031  0.9788
 3057SOL    HW220631   3.446   4.444   6.868  0.3417  0.3977 -0.3138
 3058SOL     OW20632   4.326   0.695  16.015  0.4501 -0.3315 -0.8243
 3058SOL    HW120633   4.289   0.627  15.958  0.1727  0.1516 -1.2310
 3058SOL    HW220634   4.279   0.771  15.979  1.3390 -0.5058 -2.3769
 3059SOL     OW20635   3.724   4.161   2.638  0.0118 -0.5301  0.0345
 3059SOL    HW120636   3.764   4.237   2.597 -1.9530  0.6611  0.3124
 3059SOL    HW220637   3.647   4.141   2.584  0.6786 -0.6142 -0.8829
 3060SOL     OW20638   2.840   2.733   3.449  0.5652 -0.2868  0.0191
 3060SOL    HW120639   2.849   2.825   3.424 -0.8280 -0.3294 -0.6441
 3060SOL    HW220640   2.747   2.725   3.471  0.6100  0.5189  0.5071
 3061SOL     OW20641   1.252   4.038  16.531 -0.4859  0.0961 -0.4997
 3061SOL    HW120642   1.256   4.130  16.557 -0.0227  0.1628 -0.8168
 3061SOL    HW220643   1.281   4.046  16.441  0.8807  3.0295  0.1737
 3062SOL     OW20644   1.801   0.767   7.318  0.2113 -0.1099  0.0297
 3062SOL    HW120645   1.732   0.774   7.384  0.8885 -0.8920  0.8327
 3062SOL    HW220646   1.758   0.710   7.255  1.3377  0.1824 -0.9959
 3063SOL     OW20647   1.732   2.110   7.362 -0.5145  0.1266  0.6132
 3063SOL    HW120648   1.676   2.172   7.316 -0.6959 -0.6721 -0.2516
 3063SOL    HW220649   1.728   2.030   7.310  1.5875  0.5484 -0.1774
 3064SOL     OW20650   1.440   4.438  12.117  0.1379  0.1631  0.2689
 3064SOL    HW120651   1.478   4.351  12.117  1.5595  0.7847 -0.6786
 3064SOL    HW220652   1.421   4.461  12.026  0.4011  2.0699  0.6831
 3065SOL     OW20653   2.405   3.899   6.299 -0.0394 -0.5431 -0.0954
 3065SOL    HW120654   2.430   3.975   6.246  1.0832  0.0701  1.3225
 3065SOL    HW220655   2.324   3.939   6.328  0.3589  1.2386 -1.4604
 3066SOL     OW20656   3.876   2.024   7.031 -0.7229 -0.1396 -0.4931
 3066SOL    HW120657   3.881   1.989   6.942  1.9952 -0.9267  0.0011
 3066SOL    HW220658   3.955   2.077   7.036  0.1923 -1.6112  0.5046
 3067SOL     OW20659   0.031   2.799   4.266  0.0163  0.3072  0.2434
 3067SOL    HW120660   0.122   2.770   4.260 -0.1771  0.0717 -1.6698
 3067SOL    HW220661   0.044   2.883   4.223  0.8058  1.8406  3.4955
 3068SOL     OW20662   2.443   2.607  17.065 -0.5151  0.3266  0.4246
 3068SOL    HW120663   2.362   2.557  17.055  0.2410 -0.6954 -0.5358
 3068SOL    HW220664   2.426   2.684  17.012  1.2302  1.1138  1.0041
 3069SOL     OW20665   0.675   4.718   2.266  0.1248  0.3115  0.5684
 3069SOL    HW120666   0.581   0.003   2.246  0.4651 -0.9529 -1.4891
 3069SOL    HW220667   0.709   4.685   2.183  1.7557  0.7781  1.0607
 3070SOL     OW20668   4.619   1.142  11.449 -0.5170 -0.2341  0.0571
 3070SOL    HW120669   4.662   1.102  11.373 -2.1420 -0.1839 -0.8801
 3070SOL    HW220670   4.681   1.123  11.520  0.7774 -0.3901 -1.1042
 3071SOL     OW20671   1.196   0.043   2.463  0.0957  0.2518 -0.3079
 3071SOL    HW120672   1.168   0.076   2.378  0.3684 -0.6492 -0.7555
 3071SOL    HW220673   1.182   4.672   2.451  1.1776  0.0012  0.2887
 3072SOL     OW20674   2.319   4.682   8.669  0.4015 -0.1728  0.0785
 3072SOL    HW120675   2.257   4.610   8.667 -0.8544  0.8878  0.7266
 3072SOL    HW220676   2.264   0.038   8.666  0.8945  0.2271  1.6049
 3073SOL     OW20677   0.436   1.210   8.068  0.4225 -0.3307 -0.4306
 3073SOL    HW120678   0.388   1.156   8.005  0.6131  0.1738 -1.0037
 3073SOL    HW220679   0.424   1.146   8.138 -0.5177 -0.2765 -0.5429
 3074SOL     OW20680   0.490   4.190   2.739 -1.0541 -0.0492 -0.5505
 3074SOL    HW120681   0.564   4.148   2.696 -0.5138 -1.9812  2.2261
 3074SOL    HW220682   0.461   4.246   2.667  1.5734  2.1039  0.0784
 3075SOL     OW20683   4.263   4.496   5.796  0.6506  0.3604  0.0081
 3075SOL    HW120684   4.258   4.444   5.716 -2.4644 -0.0761  0.4901
 3075SOL    HW220685   4.218   4.576   5.767  1.4497  1.1148  0.8120
 3076SOL     OW20686   1.184   1.449   2.864 -0.0954 -0.1650 -0.3607
 3076SOL    HW120687   1.235   1.479   2.789  0.0203  0.2240 -0.1264
 3076SOL    HW220688   1.110   1.508   2.872  0.8072  0.7860  1.1062
 3077SOL     OW20689   0.043   4.625   5.280 -0.4188  0.1306  0.3900
 3077SOL    HW120690   0.012   4.654   5.366 -2.3258  0.1299 -0.2855
 3077SOL    HW220691   0.086   4.541   5.298  2.3499  1.5895  0.5093
 3078SOL     OW20692   0.234   4.578   5.629  0.3843  0.0004 -0.1192
 3078SOL    HW120693   0.225   4.663   5.586  0.6712  0.4756  0.7558
 3078SOL    HW220694   0.291   4.604   5.702  2.8345 -1.2260 -1.6026
 3079SOL     OW20695   1.789   2.533   4.844  0.2017  0.2143 -0.4549
 3079SOL    HW120696   1.793   2.494   4.757  3.1985  0.0783 -0.2692
 3079SOL    HW220697   1.698   2.536   4.871 -0.4444 -0.6199 -2.5710
 3080SOL     OW20698   2.678   2.245   3.039 -0.2400  0.1507 -0.0603
 3080SOL    HW120699   2.654   2.255   2.946 -0.2618  1.2852  0.0627
 3080SOL    HW220700   2.607   2.198   3.081 -0.3257  1.0808  0.8270
 3081SOL     OW20701   4.137   3.270   5.270 -0.3033  0.5899  0.9067
 3081SOL    HW120702   4.115   3.335   5.204 -1.6344 -0.8826 -0.1114
 3081SOL    HW220703   4.052   3.253   5.312 -0.1086 -0.5321  0.8353
 3082SOL     OW20704   1.388   2.014   5.094  0.3993 -0.1672 -0.1125
 3082SOL    HW120705   1.340   1.933   5.111  1.1579 -0.9446 -1.6174
 3082SOL    HW220706   1.471   1.992   5.137 -0.5097 -1.5311  0.9537
 3083SOL     OW20707   2.685   1.213   2.141  0.3516 -0.2004 -0.1882
 3083SOL    HW120708   2.670   1.136   2.195  0.2875 -0.2263 -0.2435
 3083SOL    HW220709   2.747   1.268   2.190  0.3441 -1.4502  1.2291
 3084SOL     OW20710   3.387   0.681  16.008 -0.6905  0.4196 -0.3569
 3084SOL    HW120711   3.322   0.621  15.971 -3.2164  2.7689  0.2666
 3084SOL    HW220712   3.331   0.749  16.045 -1.7324 -1.7737  2.1385
 3085SOL     OW20713   0.059   0.292   6.669 -0.3366 -0.0055 -0.7716
 3085SOL    HW120714   0.146   0.332   6.667 -0.4006  0.2169  0.6808
 3085SOL    HW220715   0.028   0.306   6.759  2.1903  0.8132 -0.0296
 3086SOL     OW20716   2.532   2.713   3.524 -0.5493  0.4994  0.3701
 3086SOL    HW120717   2.508   2.641   3.465 -1.0345  0.4396  0.6390
 3086SOL    HW220718   2.451   2.764   3.531 -0.6107  0.3240  1.0013
 3087SOL     OW20719   2.543   0.493   3.196 -0.3987 -0.4854  0.0602
 3087SOL    HW120720   2.473   0.470   3.136  0.3482  0.9395 -1.3693
 3087SOL    HW220721   2.533   0.588   3.200  2.6498 -0.0249 -2.8889
 3088SOL     OW20722   1.503   1.876   4.276  0.3604 -0.0948 -0.1077
 3088SOL    HW120723   1.524   1.787   4.303 -0.7407 -0.5904 -0.8878
 3088SOL    HW220724   1.573   1.887   4.212 -1.0596 -1.9885 -1.9925
 3089SOL     OW20725   1.755   0.699  10.432  0.1324  0.5494  0.5932
 3089SOL    HW120726   1.788   0.648  10.505 -1.2268 -1.5979 -0.3049
 3089SOL    HW220727   1.660   0.697  10.446  0.2489  3.0561  1.7665
 3090SOL     OW20728   1.197   1.061   3.570 -0.5138 -0.4822 -0.3133
 3090SOL    HW120729   1.279   1.014   3.586  0.1493  1.5574  2.1234
 3090SOL    HW220730   1.228   1.151   3.572 -0.5859 -0.4394 -0.9370
 3091SOL     OW20731   2.031   3.081  10.557  0.2014 -0.6451 -0.0874
 3091SOL    HW120732   1.964   3.023  10.591  1.7481 -2.6180 -0.4289
 3091SOL    HW220733   1.991   3.141  10.494  1.5272 -1.2205 -1.4834
 3092SOL     OW20734   0.242   0.723   6.409  0.4320 -0.1280  0.2950
 3092SOL    HW120735   0.154   0.751   6.432 -0.2308 -2.5572  0.6729
 3092SOL    HW220736   0.255   0.681   6.494 -0.2891  2.3191  1.6020
 3093SOL     OW20737   3.720   0.097   7.494 -0.1846 -0.0100  0.3595
 3093SOL    HW120738   3.716   0.002   7.480 -0.8089  0.0112  0.4336
 3093SOL    HW220739   3.791   0.126   7.436 -1.0407 -0.8258 -1.1060
 3094SOL     OW20740   2.931   0.845   5.195 -0.2979  0.1418  0.0285
 3094SOL    HW120741   2.838   0.862   5.212  0.1876  2.0556  0.8487
 3094SOL    HW220742   2.927   0.765   5.247  0.1128  2.0904  3.1125
 3095SOL     OW20743   3.384   0.328   1.182  0.3660  0.0983  0.0313
 3095SOL    HW120744   3.437   0.314   1.103  0.9039  0.1889  0.3813
 3095SOL    HW220745   3.424   0.405   1.222  2.0941 -0.2601 -1.0092
 3096SOL     OW20746   3.659   3.377   4.075  0.0928  0.1629  0.1012
 3096SOL    HW120747   3.654   3.401   3.982  2.1950 -0.7578 -0.2506
 3096SOL    HW220748   3.727   3.310   4.072 -0.9043 -0.8868  0.8922
 3097SOL     OW20749   3.303   4.072  14.830 -0.3937 -0.4524  0.3252
 3097SOL    HW120750   3.272   4.029  14.910  2.1644 -0.9646  1.0748
 3097SOL    HW220751   3.237   4.140  14.838 -0.0328 -0.0548 -0.0688
 3098SOL     OW20752   1.264   0.437   2.310  0.1099  0.2704  0.1501
 3098SOL    HW120753   1.207   0.504   2.346  1.5366  2.3425 -1.4882
 3098SOL    HW220754   1.351   0.476   2.316  0.0436  0.4291  0.0762
 3099SOL     OW20755   1.688   3.911   6.141 -0.3071  0.2736  0.1216
 3099SOL    HW120756   1.593   3.916   6.140 -0.4129 -1.2280  1.4518
 3099SOL    HW220757   1.698   3.837   6.201  0.2630  0.8010  0.6884
 3100SOL     OW20758   1.321   4.571   9.137 -0.2230 -0.0845  0.0472
 3100SOL    HW120759   1.405   4.598   9.100 -0.6254  1.4074  0.2552
 3100SOL    HW220760   1.268   4.584   9.059  1.0561  0.9885 -0.6430
 3101SOL     OW20761   3.179   1.715   7.894 -0.1291 -0.1022  0.2236
 3101SOL    HW120762   3.197   1.806   7.915  1.6960 -0.2393 -0.7715
 3101SOL    HW220763   3.159   1.720   7.800  1.7152 -0.9812 -0.2048
 3102SOL     OW20764   2.720   3.389   5.254  0.3519 -0.4020 -0.1975
 3102SOL    HW120765   2.677   3.360   5.173  2.3775  2.3061 -2.2174
 3102SOL    HW220766   2.690   3.334   5.326 -0.2544  1.4628  0.9743
 3103SOL     OW20767   0.074   1.343   7.865 -0.2793  0.2899 -0.6574
 3103SOL    HW120768   4.705   1.372   7.872  0.2547  1.7901 -0.0056
 3103SOL    HW220769   0.090   1.285   7.939 -1.8976  1.0980  0.3393
 3104SOL     OW20770   1.761   3.841   7.306 -0.0945  0.1042  0.0173
 3104SOL    HW120771   1.687   3.900   7.317  0.5795  0.7348  1.1645
 3104SOL    HW220772   1.728   3.783   7.375 -1.5239 -0.3393 -1.0410
 3105SOL     OW20773   3.157   1.446   1.604 -0.4048  0.0269  0.2942
 3105SOL    HW120774   3.128   1.419   1.691 -0.6189 -2.9110 -0.6720
 3105SOL    HW220775   3.249   1.420   1.613 -0.3049 -0.1174 -1.0760
 3106SOL     OW20776   2.692   4.556  12.974 -0.2259 -0.4572 -0.0497
 3106SOL    HW120777   2.733   4.522  12.894 -0.7724  0.9377 -0.9117
 3106SOL    HW220778   2.769   4.575  13.029  0.5166 -1.0313 -0.8772
 3107SOL     OW20779   4.185   2.866   6.658 -0.0418 -0.3576  0.0754
 3107SOL    HW120780   4.219   2.952   6.633 -1.4567  0.2686  0.3033
 3107SOL    HW220781   4.162   2.829   6.572  1.3957 -1.2276  0.0691
 3108SOL     OW20782   2.039   2.170  13.605  0.0606 -0.4298 -0.1277
 3108SOL    HW120783   2.096   2.198  13.676  0.0491 -0.8101  0.0340
 3108SOL    HW220784   2.002   2.085  13.629 -1.6179  0.3321  0.0364
 3109SOL     OW20785   2.724   3.097   8.273  0.5865  0.0518  0.3258
 3109SOL    HW120786   2.706   3.064   8.362  0.1153  0.2829  0.3167
 3109SOL    HW220787   2.720   3.016   8.222  1.3614  0.9645 -1.1558
 3110SOL     OW20788   3.053   2.525   8.325  0.4803  0.1427  0.7695
 3110SOL    HW120789   3.117   2.555   8.389 -0.7942  1.2797  1.5247
 3110SOL    HW220790   3.087   2.438   8.305  0.4004 -0.2370  2.2938
 3111SOL     OW20791   1.054   2.194  14.791 -0.2223  0.0167  0.3511
 3111SOL    HW120792   1.001   2.164  14.865 -0.8411  0.6265  0.1521
 3111SOL    HW220793   1.009   2.164  14.712 -0.0863 -0.4258  0.4362
 3112SOL     OW20794   1.828   1.284   1.785  0.1554 -0.5640  0.4920
 3112SOL    HW120795   1.798   1.375   1.791 -0.5191 -0.9358  2.6714
 3112SOL    HW220796   1.740   1.249   1.780  0.1183 -0.2325 -1.1969
 3113SOL     OW20797   1.937   1.511   4.884  0.4838 -0.1161  0.0422
 3113SOL    HW120798   1.858   1.462   4.863  0.9741 -0.6896 -0.4734
 3113SOL    HW220799   1.935   1.519   4.979 -0.9722  1.5534 -0.1401
 3114SOL     OW20800   0.512   2.921   7.609 -0.2364 -0.0862 -0.3167
 3114SOL    HW120801   0.418   2.927   7.629 -0.5032  0.9461 -1.8502
 3114SOL    HW220802   0.532   2.891   7.697  0.3945 -1.3107 -0.8809
 3115SOL     OW20803   4.288   3.341  15.811  0.2293 -0.8887  0.3303
 3115SOL    HW120804   4.359   3.386  15.765 -1.1602  1.6025  0.6010
 3115SOL    HW220805   4.340   3.290  15.873 -0.6617 -2.0959  0.0774
 3116SOL     OW20806   3.853   3.026  13.181 -0.0567  0.3028 -0.6826
 3116SOL    HW120807   3.798   3.007  13.258 -0.5028  0.9846 -0.8295
 3116SOL    HW220808   3.931   2.976  13.205 -1.0576  0.0131  2.0219
 3117SOL     OW20809   1.416   2.302   8.518 -0.2396  0.0726  0.8549
 3117SOL    HW120810   1.343   2.248   8.547 -1.0506  0.1284 -1.0262
 3117SOL    HW220811   1.426   2.364   8.590 -0.4264 -1.3740  2.1146
 3118SOL     OW20812   4.265   3.955   5.373 -0.7231 -0.4686  0.8735
 3118SOL    HW120813   4.199   3.934   5.308 -0.0253 -1.0496  0.3529
 3118SOL    HW220814   4.332   3.891   5.348 -0.9933 -0.7281  0.8263
 3119SOL     OW20815   4.223   0.825   8.304  0.0680 -0.0908 -0.2823
 3119SOL    HW120816   4.165   0.774   8.361  0.3975  0.9481  0.9749
 3119SOL    HW220817   4.181   0.910   8.315 -0.1887 -0.2604  0.0757
 3120SOL     OW20818   3.939   3.166  12.709 -0.0796  0.6256  0.1227
 3120SOL    HW120819   4.002   3.194  12.643  0.1036 -2.4108 -1.0096
 3120SOL    HW220820   3.972   3.224  12.778 -1.1425  2.4957 -0.9619
 3121SOL     OW20821   0.939   2.012   9.739  0.7438 -0.1104 -0.2375
 3121SOL    HW120822   0.934   2.003   9.834 -0.2953 -1.5354 -0.4287
 3121SOL    HW220823   1.023   1.969   9.722  1.9425  1.3324  1.8874
 3122SOL     OW20824   3.102   2.621   2.111  0.2585 -0.1246  0.0849
 3122SOL    HW120825   3.148   2.544   2.144  0.1248 -0.3156 -0.1806
 3122SOL    HW220826   3.179   2.677   2.098 -0.0513 -0.0500 -1.4278
 3123SOL     OW20827   3.030   2.225   8.568  0.1198  0.0860  0.1346
 3123SOL    HW120828   3.028   2.132   8.544  0.6717 -0.2202  1.2638
 3123SOL    HW220829   3.121   2.248   8.555 -0.1970 -0.2173 -2.4938
 3124SOL     OW20830   2.635   0.780  13.128  0.0154 -0.2085 -0.1098
 3124SOL    HW120831   2.637   0.684  13.136 -0.2159 -0.1411  0.8415
 3124SOL    HW220832   2.676   0.802  13.212  1.2775  1.2192 -1.1113
 3125SOL     OW20833   1.543   1.434   6.033 -0.3188 -0.2253 -0.0241
 3125SOL    HW120834   1.545   1.486   5.952  1.4203  0.8420  0.7077
 3125SOL    HW220835   1.517   1.502   6.094  1.0313 -0.2182  0.5282
 3126SOL     OW20836   3.830   1.527   6.005 -0.1534  0.0559 -0.4715
 3126SOL    HW120837   3.856   1.619   6.005  1.9770 -0.5523 -2.3902
 3126SOL    HW220838   3.734   1.529   6.014 -0.2715 -2.3971 -1.1740
 3127SOL     OW20839   4.153   1.806   9.048  0.7651 -0.4809  0.8174
 3127SOL    HW120840   4.125   1.776   9.135  1.1941 -0.9107  0.8030
 3127SOL    HW220841   4.177   1.895   9.073  2.0144 -1.1782  2.1126
 3128SOL     OW20842   2.577   4.614   6.751 -0.3839 -0.0273 -0.8424
 3128SOL    HW120843   2.484   4.597   6.737 -0.6973  1.6535 -0.7641
 3128SOL    HW220844   2.598   4.541   6.810 -0.0142  1.3345  0.7073
 3129SOL     OW20845   3.951   1.476   1.465 -0.3570 -0.0935  0.1786
 3129SOL    HW120846   3.956   1.427   1.383 -0.7261 -1.3149  0.8854
 3129SOL    HW220847   4.038   1.516   1.455 -0.5469 -0.0705 -1.4570
 3130SOL     OW20848   1.043   2.945   8.483 -0.5516 -0.3230 -0.0302
 3130SOL    HW120849   1.133   2.969   8.460 -0.9646 -0.0451 -1.3230
 3130SOL    HW220850   0.994   2.951   8.401 -0.0466  1.2136 -0.2177
 3131SOL     OW20851   0.281   2.322  13.389 -0.0102  0.8054 -0.6633
 3131SOL    HW120852   0.227   2.282  13.457  0.3049  1.7288  0.1289
 3131SOL    HW220853   0.263   2.275  13.308  3.0917  1.1604 -1.5715
 3132SOL     OW20854   4.210   1.072   8.751 -0.7739 -0.2068  0.0739
 3132SOL    HW120855   4.130   1.109   8.789 -0.9618 -0.9849  0.4311
 3132SOL    HW220856   4.214   0.992   8.804 -0.5575  1.5281  2.7182
 3133SOL     OW20857   0.938   1.901   8.958 -0.5475  0.3775  0.2578
 3133SOL    HW120858   0.988   1.854   8.890  0.5537 -0.7890  1.8758
 3133SOL    HW220859   0.915   1.982   8.913  1.1323  0.6496 -0.1419
 3134SOL     OW20860   1.818   4.052  13.173  0.0894  0.4302 -0.0093
 3134SOL    HW120861   1.855   4.068  13.087 -1.1726  0.8776 -0.4763
 3134SOL    HW220862   1.740   3.999  13.157 -1.0906  1.9810  0.5532
 3135SOL     OW20863   1.630   2.260   8.871  0.2411  0.3887 -0.3876
 3135SOL    HW120864   1.596   2.171   8.865 -1.2281  0.8559  1.0779
 3135SOL    HW220865   1.621   2.262   8.966  2.5849  3.4880 -0.2123
 3136SOL     OW20866   1.531   1.161   4.325 -0.5502 -0.7520 -0.0091
 3136SOL    HW120867   1.499   1.191   4.409 -1.6478 -1.3826 -0.1981
 3136SOL    HW220868   1.619   1.199   4.322 -0.3833 -1.1317  0.0777
 3137SOL     OW20869   2.528   3.376   6.078 -0.1494 -0.3430  0.7000
 3137SOL    HW120870   2.597   3.437   6.053 -1.9852  1.2643 -0.4339
 3137SOL    HW220871   2.508   3.331   5.996 -0.7698 -0.8077  1.1116
 3138SOL     OW20872   2.773   2.994  12.517 -0.0480  0.2903  0.4141
 3138SOL    HW120873   2.765   2.908  12.477  0.6692  0.0590  0.7751
 3138SOL    HW220874   2.852   3.033  12.481 -1.1095  1.4995 -0.5923
 3139SOL     OW20875   1.612   1.136   2.537  0.1199  0.2387  0.2720
 3139SOL    HW120876   1.655   1.115   2.455 -0.9321 -3.9496  0.8285
 3139SOL    HW220877   1.519   1.114   2.530  0.1848  0.5630 -1.4929
 3140SOL     OW20878   0.102   0.701  12.887  0.0779  0.4972 -0.0131
 3140SOL    HW120879   0.173   0.644  12.857  1.5005  2.3116 -0.0421
 3140SOL    HW220880   0.167   0.760  12.924  1.9093 -2.2789  1.2334
 3141SOL     OW20881   3.509   2.750   3.489 -0.4625  0.1650 -0.0060
 3141SOL    HW120882   3.535   2.842   3.499  2.0197 -0.6713  1.1454
 3141SOL    HW220883   3.425   2.765   3.532 -0.9403 -0.2672 -0.7940
 3142SOL     OW20884   0.298   1.073  17.668 -0.3216  0.1524 -0.0754
 3142SOL    HW120885   0.217   1.057   0.024  0.2546  0.5406  1.0035
 3142SOL    HW220886   0.264   1.144  17.614  1.0135  1.3836  0.6994
 3143SOL     OW20887   4.442   4.190   9.987 -0.1304 -0.2979 -0.1563
 3143SOL    HW120888   4.443   4.133   9.910  1.8928 -0.3463 -0.0924
 3143SOL    HW220889   4.519   4.245   9.971  0.4779 -0.9266  0.6362
 3144SOL     OW20890   4.190   4.294  17.060 -0.2083 -0.1699 -0.0656
 3144SOL    HW120891   4.259   4.317  16.997 -1.9316 -1.8687 -2.5979
 3144SOL    HW220892   4.248   4.286  17.136 -0.7759  0.1812  0.3969
 3145SOL     OW20893   1.804   2.151  17.532 -0.2190 -0.0290 -0.4908
 3145SOL    HW120894   1.761   2.071  17.500 -0.1370  0.1504 -1.0387
 3145SOL    HW220895   1.735   2.169  17.596  1.5039  0.8491  1.1130
 3146SOL     OW20896   2.831   2.867   3.877 -0.1212  0.4817 -0.0399
 3146SOL    HW120897   2.860   2.924   3.806 -0.0600 -0.5822 -0.8696
 3146SOL    HW220898   2.849   2.778   3.847 -0.5972  0.9971 -1.8259
 3147SOL     OW20899   4.410   2.452   5.275 -0.0155  0.0153  0.0926
 3147SOL    HW120900   4.467   2.411   5.209 -0.9842 -0.7955 -0.2312
 3147SOL    HW220901   4.345   2.385   5.294 -0.4887  1.3656  3.2363
 3148SOL     OW20902   0.041   2.837   8.030 -0.1453  0.0171 -0.6246
 3148SOL    HW120903   0.053   2.915   7.976 -1.4834  1.2191  0.8328
 3148SOL    HW220904   0.089   2.866   8.107  0.9396 -0.0414 -1.2721
 3149SOL     OW20905   3.917   3.631   8.694  0.7543 -0.2101  0.5636
 3149SOL    HW120906   3.928   3.725   8.683  0.1081 -0.2920 -0.8062
 3149SOL    HW220907   3.825   3.621   8.720  0.5935 -0.5192 -0.0987
 3150SOL     OW20908   1.109   3.641   3.626 -0.2799 -1.1763  0.1143
 3150SOL    HW120909   1.203   3.645   3.613  0.0142 -1.4867  2.2545
 3150SOL    HW220910   1.086   3.734   3.625 -3.6823 -1.9755  0.6726
 3151SOL     OW20911   0.075   0.341   7.206  0.2989  0.1854 -0.1351
 3151SOL    HW120912   0.099   0.291   7.284  0.2409  0.6715  0.1962
 3151SOL    HW220913   0.028   0.279   7.150  0.8725  0.9154 -1.4275
 3152SOL     OW20914   4.038   2.747   3.700 -0.2451  0.5564  0.3580
 3152SOL    HW120915   3.956   2.784   3.668 -0.1609 -0.7049 -1.2948
 3152SOL    HW220916   4.099   2.803   3.652  1.5339  0.0615  2.0543
 3153SOL     OW20917   0.889   4.477   5.072  0.1452 -0.3815  0.1403
 3153SOL    HW120918   0.849   4.446   5.154  0.5771  0.2438  0.5814
 3153SOL    HW220919   0.816   4.475   5.010 -0.6301 -1.1224  1.0802
 3154SOL     OW20920   2.075   2.060   2.241 -0.0024  0.0626 -0.2177
 3154SOL    HW120921   1.989   2.092   2.213  0.8003 -0.1655 -2.9271
 3154SOL    HW220922   2.034   1.982   2.278 -1.1680  1.2669  1.0469
 3155SOL     OW20923   3.572   3.470  10.307  0.0914  0.2355 -0.5027
 3155SOL    HW120924   3.488   3.467  10.261  0.8410 -2.4598 -1.7141
 3155SOL    HW220925   3.620   3.544  10.270  1.6228 -1.6014 -2.2563
 3156SOL     OW20926   1.177   3.351   4.625 -0.5367 -0.4165 -0.4884
 3156SOL    HW120927   1.090   3.317   4.645 -0.3680 -0.7823 -0.3664
 3156SOL    HW220928   1.143   3.410   4.558 -3.0141 -1.1802  0.0792
 3157SOL     OW20929   1.294   0.975   9.505 -0.0507 -0.4134  0.0244
 3157SOL    HW120930   1.254   0.973   9.418  1.3449  2.2639 -0.6927
 3157SOL    HW220931   1.303   0.882   9.525  0.2038 -0.3828  0.0621
 3158SOL     OW20932   0.861   4.677   8.467  0.0197 -0.3218  0.0771
 3158SOL    HW120933   0.934   4.660   8.527  1.1461  0.6281 -1.0381
 3158SOL    HW220934   0.814   0.005   8.534  0.6711 -2.9530  2.5267
 3159SOL     OW20935   1.799   2.879   4.393  0.1117  0.1767  0.6706
 3159SOL    HW120936   1.818   2.956   4.339  0.9296  1.3725  2.6281
 3159SOL    HW220937   1.703   2.874   4.391  0.0021  1.4289  2.5139
 3160SOL     OW20938   0.995   1.595   8.558  0.0862 -0.3402 -0.2077
 3160SOL    HW120939   1.068   1.548   8.516  0.1918 -0.4026  0.0437
 3160SOL    HW220940   0.929   1.535   8.524  0.9342 -1.3070 -0.1731
 3161SOL     OW20941   4.457   1.150  16.472 -0.4364 -0.2274  0.4326
 3161SOL    HW120942   4.370   1.121  16.500 -0.5618 -0.8476 -0.6346
 3161SOL    HW220943   4.439   1.147  16.378  1.5971  0.7179  0.0127
 3162SOL     OW20944   1.490   0.263   4.343  0.6181 -0.0420  0.0927
 3162SOL    HW120945   1.545   0.287   4.418  0.9205  0.7082 -0.3634
 3162SOL    HW220946   1.476   0.356   4.322  1.4934 -0.5608 -2.8505
 3163SOL     OW20947   1.342   0.278   7.425  0.2586 -0.3337 -1.5961
 3163SOL    HW120948   1.288   0.249   7.352 -1.0558  3.3593 -2.0881
 3163SOL    HW220949   1.343   0.199   7.480  0.4172 -0.2244 -1.4442
 3164SOL     OW20950   4.602   0.823   9.171  0.1865  0.3553  0.2666
 3164SOL    HW120951   4.615   0.768   9.094 -2.7692 -0.8040  0.6090
 3164SOL    HW220952   4.506   0.822   9.174  0.1952 -3.2684 -0.8980
 3165SOL     OW20953   3.029   3.710   2.516  0.4522  0.3709  0.1273
 3165SOL    HW120954   3.061   3.781   2.572 -1.3249  2.4502 -1.4987
 3165SOL    HW220955   3.006   3.764   2.440 -1.9001  2.4120  2.2866
 3166SOL     OW20956   1.733   3.521   4.829  0.0953 -0.3823 -0.0857
 3166SOL    HW120957   1.773   3.434   4.835 -0.0810 -0.3533  1.3638
 3166SOL    HW220958   1.794   3.564   4.889 -2.0657 -0.2609  1.9872
 3167SOL     OW20959   0.268   1.703   6.835  0.2973  0.1696 -0.4407
 3167SOL    HW120960   0.261   1.610   6.815 -3.1907  0.5287 -0.9216
 3167SOL    HW220961   0.199   1.748   6.786  0.5522  0.4844 -0.5083
 3168SOL     OW20962   4.196   0.336   6.653 -0.4749 -0.0642 -0.3992
 3168SOL    HW120963   4.113   0.314   6.695  0.4605  0.3131  1.6769
 3168SOL    HW220964   4.206   0.270   6.585 -0.4986 -0.3582 -0.1171
 3169SOL     OW20965   0.582   4.129  17.281 -0.3927  0.3097  0.2022
 3169SOL    HW120966   0.528   4.204  17.253  1.7991  2.3970  1.5882
 3169SOL    HW220967   0.523   4.081  17.339  0.4070  3.0136  3.2567
 3170SOL     OW20968   1.993   2.375   2.316 -0.0290 -0.1451  0.2444
 3170SOL    HW120969   2.018   2.371   2.223  0.9155 -0.1389  0.4931
 3170SOL    HW220970   1.965   2.288   2.342  1.1945 -0.4261  0.6145
 3171SOL     OW20971   3.591   0.326  16.906  0.0859 -0.4002 -0.3118
 3171SOL    HW120972   3.665   0.267  16.892  0.8505  0.6588 -0.7143
 3171SOL    HW220973   3.544   0.281  16.976 -3.8178  0.5865 -2.2487
 3172SOL     OW20974   3.262   0.244  12.020 -0.0789  0.2785 -0.4339
 3172SOL    HW120975   3.200   0.178  11.989  0.2016  0.3739 -1.1790
 3172SOL    HW220976   3.254   0.227  12.114  2.7438  2.1194  0.1157
 3173SOL     OW20977   3.870   3.700   9.307  0.2951 -0.6311  0.3525
 3173SOL    HW120978   3.776   3.685   9.321 -0.3433  3.3451  0.3877
 3173SOL    HW220979   3.902   3.615   9.275 -0.7370 -0.8496 -0.1232
 3174SOL     OW20980   4.223   0.732  16.589  1.3614  0.0913  0.1065
 3174SOL    HW120981   4.220   0.827  16.574 -0.8614 -0.1727 -1.0181
 3174SOL    HW220982   4.140   0.702  16.554  1.6896 -0.6783 -0.0134
 3175SOL     OW20983   0.517   3.971  13.146  0.1367  0.1664 -0.6563
 3175SOL    HW120984   0.463   4.049  13.134  1.5072  1.1509 -0.3708
 3175SOL    HW220985   0.582   4.009  13.205 -0.2503  0.8168 -0.6563
 3176SOL     OW20986   2.926   2.109   3.808  0.1653  0.2281 -0.1167
 3176SOL    HW120987   3.007   2.091   3.856  0.8893  0.2717 -1.3174
 3176SOL    HW220988   2.905   2.193   3.848 -0.0603  1.1030 -2.0507
 3177SOL     OW20989   1.946   2.095   4.068  0.6662 -0.3043  0.7227
 3177SOL    HW120990   1.966   2.056   4.153  1.7953  0.5558  0.8522
 3177SOL    HW220991   1.907   2.178   4.096  2.0768  1.3074 -2.0429
 3178SOL     OW20992   0.718   2.112   8.157 -0.2351  0.1419  0.4926
 3178SOL    HW120993   0.806   2.081   8.180  0.0105  1.4461  1.3105
 3178SOL    HW220994   0.730   2.166   8.079  0.3313 -1.2013 -0.3428
 3179SOL     OW20995   2.450   2.074   2.108  0.2837  0.0123  0.2791
 3179SOL    HW120996   2.386   2.145   2.103 -0.1817 -0.3085  1.7832
 3179SOL    HW220997   2.520   2.118   2.059 -2.0245  1.4376 -1.7733
 3180SOL     OW20998   4.706   2.288   4.859 -0.1820  0.3655 -0.5139
 3180SOL    HW120999   4.717   2.367   4.806 -1.5208  1.0149  0.1601
 3180SOL    HW221000   0.057   2.237   4.825 -0.0985  0.1346  0.0123
 3181SOL     OW21001   3.268   1.154  10.168  0.3952 -0.0720  0.2667
 3181SOL    HW121002   3.185   1.141  10.122  0.2292 -0.6813  0.7353
 3181SOL    HW221003   3.258   1.079  10.228  2.7300  0.1616  0.9250
 3182SOL     OW21004   0.725   2.192  17.562  0.2503 -0.1282  0.2808
 3182SOL    HW121005   0.639   2.232  17.551  0.5362  0.4306  0.0821
 3182SOL    HW221006   0.737   2.182  17.467  1.7891 -1.4113  0.6171
 3183SOL     OW21007   1.838   1.505   8.188  0.5462  0.0458  0.1361
 3183SOL    HW121008   1.851   1.591   8.149  0.3367 -0.1094 -0.2797
 3183SOL    HW221009   1.754   1.481   8.147 -0.6296  2.7853  0.9985
 3184SOL     OW21010   2.349   2.863   7.415 -0.0896  0.4312 -0.3818
 3184SOL    HW121011   2.313   2.837   7.331  2.3219  0.9689 -1.5948
 3184SOL    HW221012   2.272   2.837   7.466 -1.9220  0.6970 -3.0265
 3185SOL     OW21013   2.794   0.980   1.856  0.6669  0.1133  0.0246
 3185SOL    HW121014   2.840   1.063   1.872 -0.7107  0.6384  1.2189
 3185SOL    HW221015   2.702   1.001   1.871  0.2826 -3.0593  2.2323
 3186SOL     OW21016   4.572   3.387   9.549  0.3089 -0.0847 -0.4651
 3186SOL    HW121017   4.480   3.368   9.533  0.2077  1.7139 -1.9923
 3186SOL    HW221018   4.575   3.483   9.553  0.8801 -0.1233  0.1903
 3187SOL     OW21019   3.905   2.727  13.918  0.1662  0.7239 -0.3503
 3187SOL    HW121020   3.988   2.754  13.959  0.4000 -2.8005  1.4983
 3187SOL    HW221021   3.945   2.666  13.856 -2.0370 -1.0340 -0.0411
 3188SOL     OW21022   3.796   0.127   4.423 -0.2293  0.0727  0.0974
 3188SOL    HW121023   3.869   0.143   4.363  1.1621 -0.9358  1.5070
 3188SOL    HW221024   3.725   0.108   4.362  0.5316 -2.5051  0.0093
 3189SOL     OW21025   3.119   0.905   2.777  0.0666  0.3848 -0.3678
 3189SOL    HW121026   3.132   0.820   2.734 -2.9995  0.9066 -2.3042
 3189SOL    HW221027   3.214   0.922   2.778  0.4702 -2.1533  3.3954
 3190SOL     OW21028   3.770   3.627   4.713  0.3444 -0.1374  0.0962
 3190SOL    HW121029   3.725   3.564   4.658  0.7864 -1.6022  1.4254
 3190SOL    HW221030   3.860   3.621   4.682  1.1386  1.5395  1.9777
 3191SOL     OW21031   1.215   2.129   7.217  0.3355  0.4588 -0.2084
 3191SOL    HW121032   1.293   2.074   7.222 -1.2305 -1.5416  1.8526
 3191SOL    HW221033   1.156   2.082   7.158 -0.0893  0.3930  0.2706
 3192SOL     OW21034   3.538   3.369   9.825  0.6786 -0.1007  0.6995
 3192SOL    HW121035   3.561   3.302   9.762 -1.8092  0.2563 -0.5767
 3192SOL    HW221036   3.538   3.328   9.911  1.7356 -1.0929  0.2124
 3193SOL     OW21037   0.662   0.860   4.343  0.4605  0.1238  0.2435
 3193SOL    HW121038   0.621   0.779   4.310 -1.1307  0.5346  1.1902
 3193SOL    HW221039   0.604   0.922   4.299  1.1292  1.0296  0.6345
 3194SOL     OW21040   4.562   3.524  17.319 -0.1204  0.5505 -0.0876
 3194SOL    HW121041   4.620   3.454  17.348 -0.3605  0.2508 -0.3324
 3194SOL    HW221042   4.525   3.564  17.398 -1.5001  1.7450 -1.3313
 3195SOL     OW21043   0.186   1.065   5.111  0.1868  0.0128  0.1672
 3195SOL    HW121044   0.188   1.122   5.035  1.3030 -0.6351 -0.2850
 3195SOL    HW221045   0.179   0.978   5.072 -0.9560 -0.8813  2.3261
 3196SOL     OW21046   3.528   1.797   8.567  0.2792  0.3009 -0.4090
 3196SOL    HW121047   3.611   1.770   8.528 -0.1615 -2.7889  0.7503
 3196SOL    HW221048   3.476   1.794   8.487  1.0428 -1.0251 -0.8452
 3197SOL     OW21049   0.000   4.160   3.033  0.2997  0.1029  0.3500
 3197SOL    HW121050   4.646   4.171   2.976  1.0514 -1.7703 -1.0364
 3197SOL    HW221051   4.687   4.105   3.102  2.5422  1.1239  2.3273
 3198SOL     OW21052   2.494   0.827   8.198  0.0925  0.5075 -0.0518
 3198SOL    HW121053   2.535   0.913   8.191  0.6079  0.2452 -0.2134
 3198SOL    HW221054   2.552   0.780   8.258 -0.1620 -1.3626 -1.2854
 3199SOL     OW21055   4.134   0.824   7.365  0.9146  0.0239 -0.4624
 3199SOL    HW121056   4.165   0.883   7.433  1.1089  2.7119 -2.8576
 3199SOL    HW221057   4.206   0.763   7.349  0.1972 -1.0243  0.3107
 3200SOL     OW21058   0.194   2.303   4.508  0.1086  0.1768  0.4160
 3200SOL    HW121059   0.172   2.334   4.420  0.4607 -1.3523 -0.2246
 3200SOL    HW221060   0.286   2.329   4.515  0.5059 -0.6726 -1.6783
 3201SOL     OW21061   2.793   2.279  15.762 -0.1928 -0.7463 -0.0776
 3201SOL    HW121062   2.867   2.295  15.820 -1.9578  3.1341  1.1083
 3201SOL    HW221063   2.748   2.204  15.801  0.9795 -1.2731  0.2663
 3202SOL     OW21064   2.700   2.005   8.284 -0.0557  0.0280 -0.3788
 3202SOL    HW121065   2.713   2.055   8.204 -0.6671 -2.3089 -1.9206
 3202SOL    HW221066   2.712   2.079   8.345 -1.6704 -1.5620  1.8910
 3203SOL     OW21067   0.517   4.544   0.872 -0.3849 -0.0323 -0.1352
 3203SOL    HW121068   0.549   4.458   0.898 -1.0179 -0.6768 -1.4926
 3203SOL    HW221069   0.574   4.547   0.795 -0.5676 -2.0810 -0.3539
 3204SOL     OW21070   2.497   1.826   1.963  0.0590 -0.7972 -0.5149
 3204SOL    HW121071   2.469   1.916   1.978  3.0047 -0.3520  2.3003
 3204SOL    HW221072   2.412   1.789   1.936 -0.5246  0.4524 -0.3985
 3205SOL     OW21073   2.219   3.959   2.221 -0.2180 -0.9942  0.5998
 3205SOL    HW121074   2.313   3.945   2.208 -0.1084 -3.9894  4.5349
 3205SOL    HW221075   2.177   3.892   2.166  0.7546 -1.3442  0.2843
 3206SOL     OW21076   0.172   3.595   4.497 -0.0482  0.3708  0.2164
 3206SOL    HW121077   0.220   3.545   4.431  0.2248  0.5971  0.2469
 3206SOL    HW221078   0.161   3.531   4.568 -0.3197  1.1533  0.8870
 3207SOL     OW21079   0.377   1.518   2.133  0.0725  0.1490 -0.1438
 3207SOL    HW121080   0.386   1.479   2.219 -1.5742  2.2324  0.9673
 3207SOL    HW221081   0.283   1.525   2.118 -0.1475 -3.0040 -0.2155
 3208SOL     OW21082   4.112   0.105   8.104 -0.3506  0.3496  0.4827
 3208SOL    HW121083   4.182   0.048   8.074 -0.4715  0.4736 -0.0391
 3208SOL    HW221084   4.033   0.074   8.060  1.0525 -0.3928 -1.4897
 3209SOL     OW21085   2.737   3.438   7.280  0.6957 -0.5604  0.2000
 3209SOL    HW121086   2.803   3.401   7.338 -0.0148 -0.5956  0.9910
 3209SOL    HW221087   2.658   3.388   7.302 -0.3657  1.7719  1.7106
 3210SOL     OW21088   3.281   3.707   9.489 -0.0217 -0.0790 -0.0413
 3210SOL    HW121089   3.369   3.702   9.528 -0.9517 -1.7178  1.8296
 3210SOL    HW221090   3.248   3.620   9.512 -0.8569  0.5063  0.9934
 3211SOL     OW21091   4.400   1.823   0.724  0.3137 -0.0893  0.0940
 3211SOL    HW121092   4.471   1.880   0.754 -1.1666  0.3988  2.6847
 3211SOL    HW221093   4.325   1.875   0.754 -0.1881 -0.6954 -0.1136
 3212SOL     OW21094   2.749   0.217   4.255  0.0063 -0.3307  0.3846
 3212SOL    HW121095   2.666   0.247   4.216 -0.9324  1.2396  3.5710
 3212SOL    HW221096   2.812   0.286   4.235 -1.6165  1.2508  0.7779
 3213SOL     OW21097   0.256   1.682  14.023  0.3495  1.1432 -0.0656
 3213SOL    HW121098   0.325   1.727  13.976  0.5864  0.4561 -0.3700
 3213SOL    HW221099   0.238   1.747  14.091  0.0213 -0.9839  1.8921
 3214SOL     OW21100   0.071   0.295   2.057  0.2236  0.8185 -0.0876
 3214SOL    HW121101   0.018   0.228   2.013  0.0512 -1.0122  2.9194
 3214SOL    HW221102   0.143   0.309   1.997 -0.2006 -0.7707 -0.9752
 3215SOL     OW21103   4.262   0.312   7.023  0.8206 -0.0042  0.0964
 3215SOL    HW121104   4.277   0.306   7.118  0.9379 -0.4064  0.0507
 3215SOL    HW221105   4.272   0.407   7.023  0.0007  0.0776 -2.9998
 3216SOL     OW21106   3.785   3.673   2.030  0.7264  0.1739  0.3941
 3216SOL    HW121107   3.827   3.624   1.959 -1.4907 -2.8762  1.2216
 3216SOL    HW221108   3.859   3.686   2.089  0.1757 -0.2490  1.1698
 3217SOL     OW21109   3.749   3.797   0.250  0.0998 -0.4765 -0.3055
 3217SOL    HW121110   3.835   3.770   0.280  0.9940  1.2769 -1.3051
 3217SOL    HW221111   3.705   3.820   0.332 -0.0134  2.0811 -1.0580
 3218SOL     OW21112   2.325   4.014  17.069  0.3936 -0.4090  0.1769
 3218SOL    HW121113   2.247   3.961  17.058  1.2914 -1.3875 -1.5053
 3218SOL    HW221114   2.315   4.071  16.993 -4.7034 -1.2440  0.2247
 3219SOL     OW21115   4.009   0.051  12.893  0.2592 -0.0171  0.1411
 3219SOL    HW121116   3.998   0.109  12.818  2.6240 -1.4153 -1.2812
 3219SOL    HW221117   4.045   0.103  12.965 -0.8796  1.8998 -0.6627
 3220SOL     OW21118   3.655   0.628   2.488  0.2119  0.6950  0.1969
 3220SOL    HW121119   3.644   0.621   2.393 -0.7623  1.3746  0.2684
 3220SOL    HW221120   3.590   0.563   2.515  1.4453  0.5875  2.8915
 3221SOL     OW21121   0.184   0.345   8.796 -0.2147  0.2764 -0.5190
 3221SOL    HW121122   0.178   0.428   8.842 -0.7819  0.9578 -1.8273
 3221SOL    HW221123   0.192   0.372   8.705  0.5233  1.2155 -0.1698
 3222SOL     OW21124   0.823   0.260   8.932  0.0960  0.4448  0.1775
 3222SOL    HW121125   0.878   0.328   8.969 -0.4764  0.2446  1.3935
 3222SOL    HW221126   0.864   0.243   8.847 -0.8464 -0.5661 -0.0795
 3223SOL     OW21127   0.493   2.297   2.983  0.5919  0.2722  0.5427
 3223SOL    HW121128   0.444   2.350   2.920 -0.4406 -2.1752 -0.7130
 3223SOL    HW221129   0.579   2.313   2.943  1.2778  0.6080  2.1517
 3224SOL     OW21130   3.753   3.512   4.976  0.0634  0.1352 -0.0348
 3224SOL    HW121131   3.788   3.565   4.904 -1.3137 -1.4007 -1.8336
 3224SOL    HW221132   3.669   3.558   4.985 -1.2248 -2.2309 -0.0677
 3225SOL     OW21133   0.952   0.882   4.386 -0.3456 -0.1583  0.3351
 3225SOL    HW121134   0.873   0.906   4.338 -0.7072  0.8555  1.4444
 3225SOL    HW221135   1.004   0.850   4.312  0.5464  0.1585  0.8355
 3226SOL     OW21136   4.336   0.936   0.421  0.0794  0.2657 -0.0711
 3226SOL    HW121137   4.395   0.869   0.388  0.5068 -0.0585  1.3329
 3226SOL    HW221138   4.258   0.884   0.437 -1.0086  1.6465 -0.8676
 3227SOL     OW21139   2.809   3.526   7.668 -0.1714  0.4678 -0.3485
 3227SOL    HW121140   2.835   3.579   7.592  0.6602 -1.2102 -1.2436
 3227SOL    HW221141   2.775   3.594   7.726 -0.6518  1.1895 -1.4553
 3228SOL     OW21142   2.244   0.577   7.981 -0.0532 -0.2990  0.3775
 3228SOL    HW121143   2.180   0.548   7.916 -0.1177 -0.1875  0.3921
 3228SOL    HW221144   2.186   0.602   8.053 -1.2423 -0.3660 -0.5534
 3229SOL     OW21145   3.491   2.598   7.763  0.2611  0.0723 -0.1869
 3229SOL    HW121146   3.531   2.526   7.812 -0.5998  0.6915  1.4083
 3229SOL    HW221147   3.426   2.550   7.712 -0.9143  2.0704 -0.5378
 3230SOL     OW21148   2.921   1.143  13.953  0.0524  0.5286 -0.5183
 3230SOL    HW121149   2.971   1.147  13.872 -0.6649 -0.7852 -1.0279
 3230SOL    HW221150   2.948   1.058  13.990 -1.0704  0.5348  0.3387
 3231SOL     OW21151   3.292   2.816   5.255  0.1609 -0.5161 -0.3306
 3231SOL    HW121152   3.235   2.755   5.209  2.9237 -2.7021 -0.7863
 3231SOL    HW221153   3.342   2.847   5.180  1.9604 -1.5306  0.4676
 3232SOL     OW21154   4.460   1.044   4.164  0.1407 -0.3393 -0.2707
 3232SOL    HW121155   4.523   1.012   4.229  0.4800 -0.7916 -0.8321
 3232SOL    HW221156   4.433   1.121   4.215  0.1633 -0.5372  0.0430
 3233SOL     OW21157   2.944   1.495  10.359  0.6359 -0.0797 -0.8845
 3233SOL    HW121158   2.977   1.415  10.320  4.2692 -0.2469  2.5025
 3233SOL    HW221159   3.020   1.519  10.413 -1.3255 -1.6172  2.5578
 3234SOL     OW21160   4.078   1.884   2.880 -0.1915  0.2924  0.2245
 3234SOL    HW121161   4.054   1.869   2.789 -2.1470  1.3881  0.5623
 3234SOL    HW221162   3.994   1.875   2.925 -0.6137 -0.6493 -0.7652
 3235SOL     OW21163   2.507   3.699   1.953 -0.2798 -0.3639 -0.2217
 3235SOL    HW121164   2.500   3.782   1.999 -1.1468  0.6520 -2.1795
 3235SOL    HW221165   2.593   3.704   1.911 -0.6740  0.9739 -0.8568
 3236SOL     OW21166   2.269   2.590   3.625 -0.1910 -0.0922  0.1389
 3236SOL    HW121167   2.269   2.618   3.717  0.5883  1.0808 -0.2217
 3236SOL    HW221168   2.234   2.666   3.578 -0.2339 -2.5096 -3.6641
 3237SOL     OW21169   3.912   3.966  10.732  0.0184  0.4291  0.2920
 3237SOL    HW121170   3.900   3.877  10.698  0.3735  0.8187 -0.8461
 3237SOL    HW221171   3.821   3.995  10.734  0.1009  0.6326  1.1518
 3238SOL     OW21172   0.254   0.556   6.672  0.3911  0.0474 -0.2945
 3238SOL    HW121173   0.295   0.471   6.689  1.0362  0.4759  0.2675
 3238SOL    HW221174   0.293   0.612   6.738 -2.5495 -0.2277  1.6492
 3239SOL     OW21175   0.747   3.105  14.801  0.6235  0.0194 -0.2608
 3239SOL    HW121176   0.800   3.184  14.808 -2.5994  1.9476  2.1794
 3239SOL    HW221177   0.732   3.085  14.894 -3.8629 -0.6957 -1.1256
 3240SOL     OW21178   3.731   2.720   4.987 -0.4289 -0.0167  0.5104
 3240SOL    HW121179   3.656   2.673   5.024  0.6602 -0.9584  1.5107
 3240SOL    HW221180   3.801   2.658   5.007 -0.5733 -0.4103 -0.1949
 3241SOL     OW21181   3.940   0.834   5.788 -0.2742  0.4471  0.3910
 3241SOL    HW121182   4.017   0.807   5.837 -0.4244  0.2695  0.5309
 3241SOL    HW221183   3.952   0.929   5.779  0.8490  0.1160 -1.5583
 3242SOL     OW21184   3.663   2.775  13.743  0.4484 -0.0245 -0.0508
 3242SOL    HW121185   3.713   2.731  13.812 -0.3210 -0.0387  0.5036
 3242SOL    HW221186   3.706   2.861  13.742 -0.1675  0.3125  2.8444
 3243SOL     OW21187   4.456   0.742   6.382  0.4042  0.2923  0.7937
 3243SOL    HW121188   4.407   0.811   6.425  0.7009  1.0825 -0.1473
 3243SOL    HW221189   4.444   0.666   6.439  0.1067 -0.6880 -0.5637
 3244SOL     OW21190   0.472   3.131   7.394  0.2678  0.2442 -0.2924
 3244SOL    HW121191   0.489   3.051   7.444  1.4563  1.0984  0.6609
 3244SOL    HW221192   0.421   3.087   7.326  0.2068 -1.5495  0.8865
 3245SOL     OW21193   4.011   1.267   5.223 -0.1613  0.0409  0.0163
 3245SOL    HW121194   4.002   1.318   5.142 -2.0802  1.7081  1.2919
 3245SOL    HW221195   4.072   1.331   5.260  0.5308  0.3810 -1.6999
 3246SOL     OW21196   0.867   4.443   9.878  0.1550  0.5027  0.2611
 3246SOL    HW121197   0.923   4.365   9.881 -0.5274 -0.0441 -1.3311
 3246SOL    HW221198   0.782   4.404   9.899 -0.7312  1.8613 -0.8689
 3247SOL     OW21199   3.019   3.845  13.651 -0.0566 -0.1941 -0.2733
 3247SOL    HW121200   3.048   3.759  13.621  1.6298  0.0918  0.5195
 3247SOL    HW221201   3.065   3.896  13.584  1.4965 -2.2084 -0.7218
 3248SOL     OW21202   2.416   0.229   7.595  0.9650 -0.0864 -0.3396
 3248SOL    HW121203   2.397   0.137   7.610 -0.3165  0.0923 -0.8388
 3248SOL    HW221204   2.394   0.243   7.503 -0.1447  0.6996  0.0392
 3249SOL     OW21205   2.786   4.631   0.910 -0.3543  0.0125  0.7684
 3249SOL    HW121206   2.808   4.711   0.864  0.0339 -1.0184 -0.8164
 3249SOL    HW221207   2.691   4.641   0.913 -0.3045 -0.0847  2.6887
 3250SOL     OW21208   2.835   1.895   7.984 -0.3945 -0.0919  0.2871
 3250SOL    HW121209   2.751   1.896   7.939 -0.5902 -0.5577  0.6291
 3250SOL    HW221210   2.892   1.896   7.907 -1.1140 -2.1570 -0.2619
 3251SOL     OW21211   1.692   3.938   5.750 -0.3468 -0.0045 -0.3454
 3251SOL    HW121212   1.661   3.852   5.720 -0.6180 -0.1380  0.3063
 3251SOL    HW221213   1.773   3.918   5.796 -0.2996 -0.6700 -0.7178
 3252SOL     OW21214   3.835   0.746   0.978  0.0572  0.6804  0.2619
 3252SOL    HW121215   3.795   0.746   0.892  2.2142  1.1530 -0.7469
 3252SOL    HW221216   3.925   0.722   0.959  0.6786  2.4519  0.8980
 3253SOL     OW21217   2.298   3.973   3.973  0.4172 -0.1862 -0.1131
 3253SOL    HW121218   2.231   3.905   3.962 -0.4516  0.9120 -1.6516
 3253SOL    HW221219   2.310   4.001   3.883 -0.0130 -1.4463 -0.5611
 3254SOL     OW21220   2.820   1.578   5.053 -0.3526  0.3769 -0.0046
 3254SOL    HW121221   2.843   1.485   5.050 -2.6653 -0.1656 -1.0539
 3254SOL    HW221222   2.830   1.607   4.963  0.6820  0.2120  0.0552
 3255SOL     OW21223   4.252   1.015  16.595  0.3185  0.3873 -0.1810
 3255SOL    HW121224   4.159   1.040  16.592  0.5985  1.5964  1.4584
 3255SOL    HW221225   4.280   1.057  16.676  0.2008 -0.7863  0.4565
 3256SOL     OW21226   0.215   2.729   4.722 -0.0967  0.0126  0.8067
 3256SOL    HW121227   0.217   2.825   4.717 -1.7895  0.0557  0.8670
 3256SOL    HW221228   0.262   2.699   4.645  2.6475  1.3033  1.9891
 3257SOL     OW21229   2.952   1.680   2.035 -0.3148  0.1900  0.4838
 3257SOL    HW121230   2.888   1.749   2.051 -1.2649 -0.7556  0.7812
 3257SOL    HW221231   2.918   1.633   1.960 -0.6656  0.4456  0.4851
 3258SOL     OW21232   0.534   4.243   5.293  0.4453  0.1297  0.1084
 3258SOL    HW121233   0.538   4.155   5.255  2.7909  1.0373 -1.7868
 3258SOL    HW221234   0.568   4.230   5.381 -0.6391 -0.8977  0.3772
 3259SOL     OW21235   2.676   2.199   7.504  0.4838 -0.1019 -0.4078
 3259SOL    HW121236   2.612   2.128   7.499  1.6433 -1.2257  0.9549
 3259SOL    HW221237   2.628   2.278   7.479  1.9996  1.2807  1.0407
 3260SOL     OW21238   1.186   3.568   4.213  0.0087  0.1269 -0.2611
 3260SOL    HW121239   1.220   3.586   4.126 -1.1724 -1.5620 -1.0730
 3260SOL    HW221240   1.269   3.573   4.261 -0.4087 -0.5745  0.5318
 3261SOL     OW21241   1.105   0.714  13.266  0.2152 -0.5872 -0.1909
 3261SOL    HW121242   1.119   0.805  13.290 -0.5474 -0.1209 -1.5235
 3261SOL    HW221243   1.056   0.724  13.185 -1.4137  0.5078  0.9256
 3262SOL     OW21244   3.013   2.662   0.626  0.1093 -0.0574  0.3748
 3262SOL    HW121245   3.106   2.682   0.616  0.0906  0.5586  1.4619
 3262SOL    HW221246   3.004   2.567   0.628 -0.2739  0.0231  2.6546
 3263SOL     OW21247   3.842   1.170   6.745  0.4288 -0.3062 -0.0712
 3263SOL    HW121248   3.846   1.242   6.683  0.8997  0.3435  0.7159
 3263SOL    HW221249   3.863   1.098   6.686 -0.1851 -1.8630  1.6062
 3264SOL     OW21250   2.917   0.017  16.763 -0.1929  0.7494 -0.1888
 3264SOL    HW121251   2.943   0.035  16.853 -1.4658 -2.3421  0.7874
 3264SOL    HW221252   2.917   4.644  16.768 -1.0176  0.6069 -2.7696
 3265SOL     OW21253   0.426   0.367   7.593  0.1501 -0.1118  0.0245
 3265SOL    HW121254   0.387   0.452   7.570  1.9226  1.3261  2.3198
 3265SOL    HW221255   0.379   0.350   7.675 -0.3156 -0.1104 -0.2456
 3266SOL     OW21256   2.481   4.071  11.014 -0.4100 -0.3114  0.8004
 3266SOL    HW121257   2.528   4.071  10.930 -0.2455 -1.8323  0.8896
 3266SOL    HW221258   2.389   4.066  10.989 -1.2765  0.1322  3.8687
 3267SOL     OW21259   2.183   4.611   7.125 -0.3206  0.0264 -0.4852
 3267SOL    HW121260   2.174   4.694   7.171 -2.0133 -0.6567  0.4182
 3267SOL    HW221261   2.092   4.581   7.127 -0.8307  1.7225  1.2360
 3268SOL     OW21262   1.441   3.663  15.586  0.2059  0.1826  0.3640
 3268SOL    HW121263   1.433   3.677  15.680  0.3814  0.5814  0.3242
 3268SOL    HW221264   1.534   3.665  15.563  0.3235 -0.6333  0.7839
 3269SOL     OW21265   1.181   4.398   2.747  0.1604 -0.6936 -0.2898
 3269SOL    HW121266   1.175   4.454   2.669 -0.7729 -1.7253 -0.9504
 3269SOL    HW221267   1.271   4.402   2.780  0.3578 -0.7422 -0.8156
 3270SOL     OW21268   4.212   1.774  13.679 -0.4555  0.1959  0.3425
 3270SOL    HW121269   4.168   1.859  13.683 -0.8443  0.0857 -1.5813
 3270SOL    HW221270   4.174   1.748  13.763  1.5010 -2.6699  0.3160
 3271SOL     OW21271   2.056   4.345  12.971 -0.0591 -0.3367  0.6286
 3271SOL    HW121272   2.097   4.396  13.040  1.0826  2.3533 -2.0348
 3271SOL    HW221273   2.073   4.399  12.893  0.4656 -0.2825  0.7826
 3272SOL     OW21274   1.199   4.163   2.023  0.3993 -0.6579 -0.5316
 3272SOL    HW121275   1.158   4.079   2.044  1.6155 -1.2910 -0.7041
 3272SOL    HW221276   1.126   4.204   1.975 -1.3197 -0.8159  1.9672
 3273SOL     OW21277   2.588   2.809  17.474 -0.0371 -0.2729  0.3491
 3273SOL    HW121278   2.507   2.845  17.510  1.4248  1.6644  1.6335
 3273SOL    HW221279   2.570   2.816  17.380  1.6620  0.6673  0.1048
 3274SOL     OW21280   2.340   2.226   5.254 -0.9355  0.0767  0.5340
 3274SOL    HW121281   2.403   2.265   5.193  0.3201 -2.1112  0.4398
 3274SOL    HW221282   2.259   2.266   5.221 -2.3216 -3.0319  0.1186
 3275SOL     OW21283   2.695   2.268   6.805  0.4283  0.1877 -0.2912
 3275SOL    HW121284   2.720   2.351   6.765 -1.7134  0.9720  0.0314
 3275SOL    HW221285   2.768   2.249   6.865 -0.0200  0.7866  0.4364
 3276SOL     OW21286   2.162   0.436   5.908  0.3698 -0.2449 -0.4714
 3276SOL    HW121287   2.157   0.342   5.889 -3.0952 -0.5950  2.1156
 3276SOL    HW221288   2.192   0.434   5.999 -1.8126 -0.2792  0.2475
 3277SOL     OW21289   4.535   0.811   7.336 -0.9829  0.0429  0.4808
 3277SOL    HW121290   4.574   0.882   7.284  0.1741 -1.0964 -0.1894
 3277SOL    HW221291   4.603   0.745   7.327 -0.6537  0.5402 -0.6858
 3278SOL     OW21292   4.241   1.052   4.887  0.1672  0.2192 -0.3647
 3278SOL    HW121293   4.311   1.093   4.938 -2.1455 -0.2178  3.1862
 3278SOL    HW221294   4.199   1.131   4.855 -2.6059 -0.6148  1.2111
 3279SOL     OW21295   2.815   2.694   6.138  0.2171 -0.6118  0.0656
 3279SOL    HW121296   2.768   2.641   6.204 -2.3407 -0.2340 -1.4517
 3279SOL    HW221297   2.892   2.640   6.121 -0.3321 -0.4519 -2.8954
 3280SOL     OW21298   3.050   4.367   1.683  0.1695  0.5360 -0.4252
 3280SOL    HW121299   3.074   4.455   1.655  1.3909 -0.0466 -1.2468
 3280SOL    HW221300   3.007   4.382   1.767  0.5813 -1.3589  0.1326
 3281SOL     OW21301   1.411   1.478   9.795  0.1783  0.3186 -0.5403
 3281SOL    HW121302   1.367   1.521   9.869  1.7480  0.9833  0.0251
 3281SOL    HW221303   1.473   1.437   9.856  0.8563 -0.2412 -1.6236
 3282SOL     OW21304   3.054   1.591  16.082 -0.1882  0.2282  0.0139
 3282SOL    HW121305   3.009   1.647  16.145  0.0354  2.0346 -1.4450
 3282SOL    HW221306   2.992   1.592  16.008 -0.5165 -2.0723  0.2558
 3283SOL     OW21307   0.761   2.282   5.208 -0.0462  0.5072  0.0654
 3283SOL    HW121308   0.758   2.207   5.149  0.0427 -0.8419  1.7556
 3283SOL    HW221309   0.798   2.243   5.288  0.4783  1.1864  0.1544
 3284SOL     OW21310   4.704   3.726  10.049 -0.3911 -0.4143 -0.1057
 3284SOL    HW121311   0.019   3.794  10.104  1.8796 -0.8692 -1.1122
 3284SOL    HW221312   4.613   3.723  10.080 -0.1564  2.2026  0.8008
 3285SOL     OW21313   1.030   0.376   5.159  0.2883 -0.2333 -0.2715
 3285SOL    HW121314   0.971   0.348   5.089  1.2213  0.5270 -1.3606
 3285SOL    HW221315   0.977   0.421   5.224 -0.9613  0.9408 -2.1046
 3286SOL     OW21316   3.328   4.327   7.486  0.5503  0.0114  0.4442
 3286SOL    HW121317   3.262   4.315   7.554  0.6700 -0.5779  0.4570
 3286SOL    HW221318   3.296   4.412   7.455 -0.6308 -0.7489 -0.4328
 3287SOL     OW21319   1.444   4.348   6.721 -0.2092  0.2556  0.4345
 3287SOL    HW121320   1.379   4.375   6.786 -0.2445  0.6532  0.2271
 3287SOL    HW221321   1.460   4.427   6.670  0.3415  0.4999  0.9856
 3288SOL     OW21322   3.278   0.498   8.462 -0.3500 -0.0625 -0.8697
 3288SOL    HW121323   3.259   0.576   8.515 -0.6807 -2.7170  2.8834
 3288SOL    HW221324   3.243   0.525   8.377  0.8398  2.2102 -0.6566
 3289SOL     OW21325   0.372   4.666  15.701 -0.1210 -0.4118  0.5415
 3289SOL    HW121326   0.342   4.668  15.611 -0.8258  1.6839  0.8278
 3289SOL    HW221327   0.448   0.000  15.687 -1.2589  0.9383 -0.1432
 3290SOL     OW21328   4.721   0.481  16.633 -0.2382 -0.2035 -0.5012
 3290SOL    HW121329   4.627   0.491  16.642  0.0569  1.1612  1.1496
 3290SOL    HW221330   0.010   0.566  16.591  1.7921 -0.5371 -0.6311
 3291SOL     OW21331   1.423   4.421   2.891 -0.2417 -0.0417 -0.0119
 3291SOL    HW121332   1.418   4.440   2.984  0.5136 -0.1954  0.0604
 3291SOL    HW221333   1.517   4.409   2.880 -0.3201 -1.7416  1.2810
 3292SOL     OW21334   1.440   0.240   3.700  0.8268 -0.4328  0.6683
 3292SOL    HW121335   1.457   0.331   3.673 -3.1079  0.5523  1.4882
 3292SOL    HW221336   1.452   0.197   3.616 -0.1760  2.4211 -0.9640
 3293SOL     OW21337   3.880   2.548   4.012 -0.5394 -0.4497  0.0631
 3293SOL    HW121338   3.815   2.590   3.955 -1.3854 -1.0000  0.6403
 3293SOL    HW221339   3.861   2.455   4.006  1.1474 -0.7658 -0.3813
 3294SOL     OW21340   0.000   2.233   1.456  0.3653  0.2901 -0.2480
 3294SOL    HW121341   0.036   2.188   1.533  0.8956  0.9910 -0.0845
 3294SOL    HW221342   0.023   2.177   1.382  1.0136 -0.8273  0.7891
 3295SOL     OW21343   0.044   4.204  15.461 -0.3344  0.1354  0.5645
 3295SOL    HW121344   0.127   4.209  15.413 -0.3119  0.9661  0.7036
 3295SOL    HW221345   4.698   4.202  15.395  0.7362 -1.6152 -0.5149
 3296SOL     OW21346   3.078   2.522   7.450  0.0537  0.2733 -0.0492
 3296SOL    HW121347   3.144   2.569   7.398  0.7683  0.1124  0.7162
 3296SOL    HW221348   3.086   2.577   7.528  2.2491  0.2502 -0.2715
 3297SOL     OW21349   4.612   4.393   7.636  0.4475  0.3997  0.7250
 3297SOL    HW121350   4.659   4.358   7.561 -2.6687 -1.5881 -0.2974
 3297SOL    HW221351   4.648   4.481   7.646 -1.6984  1.1535  1.7395
 3298SOL     OW21352   1.655   4.517  13.480 -0.0360 -0.3284  0.0630
 3298SOL    HW121353   1.656   4.477  13.567 -0.2491 -0.2126  0.1188
 3298SOL    HW221354   1.598   4.458  13.430 -1.7572 -1.3309  3.1964
 3299SOL     OW21355   1.021   4.320   1.853  0.6319  0.5031  0.9466
 3299SOL    HW121356   0.926   4.320   1.867  0.2238  2.2385 -1.7194
 3299SOL    HW221357   1.043   4.412   1.834  1.2476  0.0825 -0.3877
 3300SOL     OW21358   2.255   0.508   3.141  0.0668 -0.3844 -0.1241
 3300SOL    HW121359   2.218   0.514   3.053 -0.7851  2.8306  0.4753
 3300SOL    HW221360   2.276   0.597   3.169  1.0441 -0.3106 -1.0869
 3301SOL     OW21361   1.470   2.016   3.094 -0.1116 -0.3481  0.6914
 3301SOL    HW121362   1.380   1.985   3.107 -1.4367  3.4531  0.5597
 3301SOL    HW221363   1.497   1.966   3.018 -0.9107 -1.9733  1.4686
 3302SOL     OW21364   3.853   2.893   3.582 -0.2208  0.1909 -0.3937
 3302SOL    HW121365   3.834   2.987   3.572  1.4421  0.5553 -0.1371
 3302SOL    HW221366   3.828   2.860   3.496  1.0389  1.2557 -1.1694
 3303SOL     OW21367   4.161   3.932   7.166 -0.1775 -0.2851 -0.1916
 3303SOL    HW121368   4.180   3.963   7.078 -1.0232  2.5833  0.6326
 3303SOL    HW221369   4.213   3.852   7.168 -0.1071 -0.3139 -3.3276
 3304SOL     OW21370   2.258   0.650   2.264  0.2838  0.5253 -0.9893
 3304SOL    HW121371   2.343   0.611   2.243  0.8002  1.9045 -1.4785
 3304SOL    HW221372   2.218   0.565   2.278 -0.7099  0.8666 -1.8105
 3305SOL     OW21373   3.570   2.111   7.141 -0.3250  0.1543  0.5120
 3305SOL    HW121374   3.579   2.028   7.093 -1.2862  1.1437 -1.3737
 3305SOL    HW221375   3.632   2.168   7.095 -0.6490  0.3639  0.3335
 3306SOL     OW21376   3.580   3.632   9.981  0.2363 -0.8489  0.9003
 3306SOL    HW121377   3.634   3.642  10.059 -1.2093 -3.1097  2.2072
 3306SOL    HW221378   3.503   3.687   9.997  1.1729  1.5580 -2.8791
 3307SOL     OW21379   2.282   4.601   0.115  0.3021 -1.1953 -0.2124
 3307SOL    HW121380   2.249   4.553   0.191 -1.4491  1.1261  0.4669
 3307SOL    HW221381   2.337   4.532   0.075 -1.7588 -2.6365 -0.5540
 3308SOL     OW21382   0.996   0.417  13.341 -0.3524  0.7255  0.3721
 3308SOL    HW121383   1.060   0.444  13.407  0.3135  1.5051 -0.6010
 3308SOL    HW221384   1.053   0.433  13.266 -0.2157 -1.7161 -0.0672
 3309SOL     OW21385   1.292   3.335  12.923 -0.2996 -0.3376  0.3092
 3309SOL    HW121386   1.307   3.286  13.004  2.2159  0.4279  0.3088
 3309SOL    HW221387   1.381   3.366  12.908 -0.0977 -1.7321 -1.3794
 3310SOL     OW21388   1.720   2.989   5.102  0.1341 -0.0328  0.1277
 3310SOL    HW121389   1.743   2.905   5.141 -1.5461 -1.2640 -1.5711
 3310SOL    HW221390   1.767   3.053   5.156  0.6484  0.2432 -0.6402
 3311SOL     OW21391   0.649   2.480   4.601 -0.2849  0.6898 -0.1739
 3311SOL    HW121392   0.702   2.433   4.666  0.2334  0.9267 -0.4274
 3311SOL    HW221393   0.645   2.560   4.654  1.2923  1.8096 -1.7726
 3312SOL     OW21394   3.272   4.625  15.068 -0.6938  0.4423  0.1859
 3312SOL    HW121395   3.339   4.598  15.006 -0.7122  0.4330  0.1700
 3312SOL    HW221396   3.243   4.707  15.027  0.8120  0.8624 -0.0559
 3313SOL     OW21397   2.521   0.897   2.874  0.3373 -0.7117 -0.2149
 3313SOL    HW121398   2.559   0.965   2.819 -0.0028 -0.6877 -0.4209
 3313SOL    HW221399   2.601   0.861   2.911  1.0995 -1.0564 -2.1717
 3314SOL     OW21400   4.446   2.846   2.551  0.3803 -0.1146 -0.1709
 3314SOL    HW121401   4.497   2.827   2.629  2.2082  3.4154 -0.5483
 3314SOL    HW221402   4.504   2.895   2.493 -4.0073  1.6038 -3.0995
 3315SOL     OW21403   0.606   4.307  12.564  0.1246  0.0176 -1.3004
 3315SOL    HW121404   0.678   4.257  12.602  0.2876  0.2111 -1.3528
 3315SOL    HW221405   0.661   4.356  12.502  2.2997  0.6518  1.1406
 3316SOL     OW21406   4.264   4.591   8.061 -0.0954 -0.2757 -0.5638
 3316SOL    HW121407   4.178   4.562   8.031 -0.2437 -0.0274 -0.3809
 3316SOL    HW221408   4.313   4.571   7.981  0.6944  0.8213 -0.3576
 3317SOL     OW21409   0.291   1.521   5.214  0.5916  0.4410 -0.0731
 3317SOL    HW121410   0.382   1.539   5.238  1.1945 -1.6802 -0.8521
 3317SOL    HW221411   0.271   1.461   5.286 -0.9789 -0.1103 -0.9551
 3318SOL     OW21412   1.616   3.834  11.437 -0.2374  0.2856 -0.4039
 3318SOL    HW121413   1.559   3.889  11.385 -0.7023 -1.3867 -1.6549
 3318SOL    HW221414   1.684   3.899  11.459  0.5925 -0.9891  0.7903
 3319SOL     OW21415   0.159   1.512   5.674  0.2577  0.3947 -0.3144
 3319SOL    HW121416   0.103   1.555   5.739 -0.1953  0.2902 -0.6390
 3319SOL    HW221417   0.121   1.427   5.656  0.5084  0.1340  0.3802
 3320SOL     OW21418   3.671   3.243   6.494 -0.6614  0.0637 -0.1433
 3320SOL    HW121419   3.707   3.158   6.522  0.9074  0.2464 -1.5769
 3320SOL    HW221420   3.647   3.211   6.407  1.0911  0.2187 -0.6873
 3321SOL     OW21421   1.009   2.365   6.058 -0.3092  0.5882  0.4424
 3321SOL    HW121422   1.038   2.433   5.997  1.4982 -0.5808  0.0160
 3321SOL    HW221423   1.087   2.354   6.111  0.4753 -3.2878 -1.4848
 3322SOL     OW21424   1.600   0.787   4.818  0.0977  0.3053  0.0156
 3322SOL    HW121425   1.561   0.739   4.891  2.3263  0.7483  1.5110
 3322SOL    HW221426   1.676   0.826   4.862  0.3603 -0.6842  0.4359
 3323SOL     OW21427   2.790   2.153   8.668 -0.4270  0.0286  0.2363
 3323SOL    HW121428   2.876   2.182   8.638 -0.8439  0.6398 -0.3691
 3323SOL    HW221429   2.801   2.058   8.669  1.1524  0.1848 -1.7691
 3324SOL     OW21430   1.507   2.158   2.797 -0.0386  0.4033 -0.4993
 3324SOL    HW121431   1.434   2.161   2.858  0.6871 -0.2568  0.3989
 3324SOL    HW221432   1.526   2.064   2.798 -2.4523 -0.0774 -0.2020
 3325SOL     OW21433   3.023   1.564   0.023  0.1680  0.3795 -0.6343
 3325SOL    HW121434   3.031   1.615  17.636  1.5126  1.6301  0.2991
 3325SOL    HW221435   3.025   1.477  17.676  1.1980 -0.5575  1.4388
 3326SOL     OW21436   3.474   0.915   8.419  0.2981 -0.2714 -0.2093
 3326SOL    HW121437   3.466   0.983   8.486  0.7915 -0.6954  0.2864
 3326SOL    HW221438   3.525   0.849   8.465  0.0143  3.0172  4.8410
 3327SOL     OW21439   4.363   3.866   8.539 -0.1783  0.6913 -0.0325
 3327SOL    HW121440   4.453   3.835   8.528 -0.4605 -0.0838 -0.1851
 3327SOL    HW221441   4.352   3.846   8.632  2.0661 -1.1756 -0.1762
 3328SOL     OW21442   1.836   0.840   1.531 -0.0747  0.2631  0.0289
 3328SOL    HW121443   1.875   0.790   1.602  0.2490  0.7084  0.1666
 3328SOL    HW221444   1.889   0.919   1.537  0.8697 -0.4030  0.3713
 3329SOL     OW21445   0.790   1.493   1.233  0.6122  0.0333  0.8958
 3329SOL    HW121446   0.820   1.461   1.148  0.9999  2.3537  0.1448
 3329SOL    HW221447   0.857   1.557   1.258  0.8566  0.8261 -1.7941
 3330SOL     OW21448   1.952   2.435   5.382 -0.1358 -0.5236 -0.2443
 3330SOL    HW121449   1.923   2.503   5.322 -1.7737  0.2622  1.4315
 3330SOL    HW221450   2.034   2.475   5.413  0.5546 -2.6969  0.7964
 3331SOL     OW21451   1.066   3.543   4.459 -0.1011 -0.2083 -0.0424
 3331SOL    HW121452   1.093   3.577   4.374 -0.3274  0.5572  0.1962
 3331SOL    HW221453   0.988   3.586   4.493 -0.0635  0.7237 -1.1186
 3332SOL     OW21454   0.544   2.506  12.080 -0.0371 -0.1812  0.0219
 3332SOL    HW121455   0.612   2.442  12.061 -0.1065 -0.6217  1.2916
 3332SOL    HW221456   0.468   2.477  12.030 -1.2506 -0.0746  1.7869
 3333SOL     OW21457   3.798   4.473  11.997  0.1274 -0.8293  0.2607
 3333SOL    HW121458   3.860   4.484  12.069  2.3909 -2.0800 -1.5180
 3333SOL    HW221459   3.829   4.387  11.968 -1.1733 -1.3411  0.3697
 3334SOL     OW21460   2.223   2.761   8.820  0.2868  0.0297 -0.3707
 3334SOL    HW121461   2.265   2.811   8.890 -1.1773  1.5823 -0.5965
 3334SOL    HW221462   2.165   2.818   8.770 -0.1652  0.7185  0.9447
 3335SOL     OW21463   4.274   4.259   1.204 -0.1437  0.5583 -0.4581
 3335SOL    HW121464   4.187   4.234   1.171 -0.7959 -0.2785  1.9051
 3335SOL    HW221465   4.266   4.224   1.293  0.3238  2.7329  0.4220
 3336SOL     OW21466   2.845   1.911   0.350 -0.2148 -0.0674 -0.1517
 3336SOL    HW121467   2.926   1.867   0.326  0.2672  0.1734  1.0328
 3336SOL    HW221468   2.823   1.858   0.427  1.8467  0.5132  0.8206
 3337SOL     OW21469   1.915   0.052  11.623 -0.1668  0.6287  0.1601
 3337SOL    HW121470   1.971   0.119  11.584  0.8610 -1.2541 -1.6076
 3337SOL    HW221471   1.948   4.693  11.586  1.4984 -0.0197  3.1247
 3338SOL     OW21472   0.727   0.929  11.627  0.0273  0.2303 -0.2298
 3338SOL    HW121473   0.673   0.863  11.584  0.7371 -0.6233  0.1902
 3338SOL    HW221474   0.674   0.951  11.703  0.2502 -0.6666  0.1849
 3339SOL     OW21475   3.243   3.056   7.383 -0.6559 -0.3310  0.2849
 3339SOL    HW121476   3.187   2.991   7.426 -2.9262  0.4123 -1.5656
 3339SOL    HW221477   3.331   3.050   7.421 -0.8768 -3.0336  0.3450
 3340SOL     OW21478   1.089   3.642  13.465 -0.4081  0.1254  0.3344
 3340SOL    HW121479   0.994   3.630  13.460 -0.2518 -0.1059 -2.1241
 3340SOL    HW221480   1.098   3.571  13.528 -0.8481  1.2153  1.6282
 3341SOL     OW21481   4.264   1.765  10.698 -0.0850  0.2495 -0.0307
 3341SOL    HW121482   4.180   1.743  10.658  0.5700 -0.2358 -1.1540
 3341SOL    HW221483   4.316   1.812  10.632  0.2295 -0.2023 -0.1020
 3342SOL     OW21484   3.312   0.006  10.659 -0.3714 -0.2255 -0.3290
 3342SOL    HW121485   3.255   0.078  10.633 -1.1961 -0.3950  1.0119
 3342SOL    HW221486   3.398   0.047  10.653 -0.6995  0.8537  2.4042
 3343SOL     OW21487   1.525   1.695  17.052 -0.1307  0.3987 -0.5193
 3343SOL    HW121488   1.446   1.700  16.999 -0.2539 -1.1750 -0.4991
 3343SOL    HW221489   1.568   1.770  17.012 -2.0063  1.4520 -0.5565
 3344SOL     OW21490   0.558   0.381   8.539  0.1143  0.0224 -0.4198
 3344SOL    HW121491   0.574   0.351   8.629  0.0842  0.5046 -0.2577
 3344SOL    HW221492   0.613   0.458   8.548  2.2862 -1.7527  1.5485
 3345SOL     OW21493   3.054   4.311  17.434 -0.1608  0.6753 -0.3490
 3345SOL    HW121494   3.104   4.248  17.384  3.0799  2.2750  0.8564
 3345SOL    HW221495   3.079   4.395  17.396  0.5045  0.2267 -0.8900
 3346SOL     OW21496   3.863   0.786   2.549  0.6738  0.2053 -0.7698
 3346SOL    HW121497   3.809   0.856   2.585 -1.0515 -0.8030 -1.4404
 3346SOL    HW221498   3.799   0.717   2.535  0.9355 -0.2396  0.2364
 3347SOL     OW21499   3.394   3.074   8.939 -0.0695 -0.3164 -0.0277
 3347SOL    HW121500   3.326   3.068   8.872 -2.0988  0.5920  1.9689
 3347SOL    HW221501   3.425   3.163   8.924  0.6722 -0.5791 -0.0707
 3348SOL     OW21502   2.401   2.734   5.606 -0.8038 -0.4119 -0.2846
 3348SOL    HW121503   2.429   2.722   5.696 -0.1041  1.6042 -0.2218
 3348SOL    HW221504   2.356   2.650   5.600  0.3812 -1.0894  0.2825
 3349SOL     OW21505   0.092   2.061   9.443  0.2061 -0.0495  0.2148
 3349SOL    HW121506   0.016   2.013   9.476  0.0402 -2.0284 -3.1227
 3349SOL    HW221507   0.160   2.064   9.511  1.4652  2.2738 -1.1537
 3350SOL     OW21508   2.893   3.287   7.766  0.7264 -0.2988 -0.0146
 3350SOL    HW121509   2.897   3.301   7.861 -0.4167  0.0862 -0.0207
 3350SOL    HW221510   2.888   3.379   7.739 -0.5537  0.2821  2.1104
 3351SOL     OW21511   0.575   4.696   2.654 -0.4808  0.3782  0.2915
 3351SOL    HW121512   0.491   4.686   2.698  0.4008 -0.5961  1.7525
 3351SOL    HW221513   0.630   4.641   2.710  1.2431 -0.0575 -1.8340
 3352SOL     OW21514   2.534   4.287   0.899 -0.2287 -0.4488  0.1429
 3352SOL    HW121515   2.624   4.320   0.895 -0.4244 -0.2085 -2.3546
 3352SOL    HW221516   2.519   4.269   0.806 -0.9297  2.0854 -0.2369
 3353SOL     OW21517   4.038   1.004   4.659 -0.3538 -0.5156 -0.1524
 3353SOL    HW121518   4.077   1.008   4.746 -1.4167  1.1165  0.2477
 3353SOL    HW221519   4.094   1.057   4.602 -0.6996 -0.5538 -0.5284
 3354SOL     OW21520   4.247   3.215   0.461 -0.2206 -0.3367 -0.0510
 3354SOL    HW121521   4.157   3.238   0.484  0.2668  2.1846 -0.7093
 3354SOL    HW221522   4.233   3.121   0.471  2.6508 -0.6085  1.2504
 3355SOL     OW21523   0.997   0.470   6.137 -0.6136 -0.1899 -0.4500
 3355SOL    HW121524   0.963   0.500   6.053  0.9745  0.4710 -0.8554
 3355SOL    HW221525   1.090   0.494   6.132 -0.6099  0.0988  1.1392
 3356SOL     OW21526   2.887   2.028   1.009  0.0887  0.7641 -0.3866
 3356SOL    HW121527   2.968   2.075   0.987 -0.4583  1.5974 -0.6446
 3356SOL    HW221528   2.887   2.020   1.104  0.6499 -2.1912 -0.6267
 3357SOL     OW21529   3.862   3.175  15.310  0.1829  0.3717  0.1327
 3357SOL    HW121530   3.788   3.146  15.257  0.7762 -1.3642  0.2287
 3357SOL    HW221531   3.868   3.265  15.278 -0.9486  0.9688  1.6118
 3358SOL     OW21532   2.038   2.266   8.350 -0.7183 -0.9925 -0.0622
 3358SOL    HW121533   1.945   2.277   8.328 -0.3383 -1.5544 -1.9731
 3358SOL    HW221534   2.034   2.202   8.420  1.2165 -0.6459  0.3699
 3359SOL     OW21535   1.623   3.202  13.880 -0.2206  0.3987 -0.1373
 3359SOL    HW121536   1.589   3.122  13.840  1.1118 -0.3096  0.1384
 3359SOL    HW221537   1.547   3.223  13.934 -1.1223 -2.6596 -0.1993
 3360SOL     OW21538   3.402   0.426   8.146  0.1261  0.1088 -0.1039
 3360SOL    HW121539   3.439   0.423   8.235  0.8817 -3.3217 -0.5461
 3360SOL    HW221540   3.415   0.519   8.127 -0.7823  0.7722  2.4260
 3361SOL     OW21541   0.918   0.017  11.085 -0.1654  0.1343 -0.4240
 3361SOL    HW121542   0.876   4.689  11.155  0.0693 -0.5116 -0.7524
 3361SOL    HW221543   0.955   0.094  11.129  0.1073 -1.0037  1.3862
 3362SOL     OW21544   3.950   1.074   7.061  0.1644  0.5691 -0.2634
 3362SOL    HW121545   4.015   1.133   7.024  2.1450 -0.2608  1.8898
 3362SOL    HW221546   3.923   1.123   7.139 -1.5040 -2.3695  1.0191
 3363SOL     OW21547   2.150   1.381   3.799  0.3440 -0.2512  0.6126
 3363SOL    HW121548   2.163   1.469   3.764 -0.4825 -0.5517 -0.4347
 3363SOL    HW221549   2.109   1.334   3.727  1.3054 -0.6671  0.3482
 3364SOL     OW21550   2.813   3.308   3.376  0.2261  0.4529 -0.0376
 3364SOL    HW121551   2.753   3.377   3.347  2.4384  0.6883 -3.9522
 3364SOL    HW221552   2.898   3.345   3.353  0.7164  0.8201  2.3307
 3365SOL     OW21553   3.110   1.970   5.354 -0.5712  0.4770 -0.2993
 3365SOL    HW121554   3.193   1.989   5.310 -0.9001  1.2429 -0.5860
 3365SOL    HW221555   3.043   1.998   5.292 -0.5715 -1.6594 -1.2502
 3366SOL     OW21556   4.671   1.962   5.591  0.1895  0.4134  0.3689
 3366SOL    HW121557   0.038   1.974   5.620  0.8033 -1.8995 -0.5487
 3366SOL    HW221558   4.692   1.901   5.520  0.1808  2.1446 -1.1180
 3367SOL     OW21559   1.902   0.406   8.888  0.0022  0.3540 -0.4404
 3367SOL    HW121560   1.872   0.450   8.809 -0.8923  0.1407 -0.2202
 3367SOL    HW221561   1.993   0.414   8.861  0.0808  0.3932 -0.1705
 3368SOL     OW21562   2.698   0.124   5.630  0.2544 -0.3890 -0.3559
 3368SOL    HW121563   2.739   0.050   5.585  0.9325  0.1014 -0.5447
 3368SOL    HW221564   2.652   0.168   5.559 -0.6293 -1.9907 -0.7919
 3369SOL     OW21565   0.324   0.050   4.899  0.0408 -0.9688  0.5121
 3369SOL    HW121566   0.379   0.084   4.970 -0.9839 -1.9150  1.7420
 3369SOL    HW221567   0.274   4.702   4.939 -0.1148 -0.3637  1.3858
 3370SOL     OW21568   4.018   0.006   9.004 -0.2076  0.1490 -0.3147
 3370SOL    HW121569   4.114   0.008   9.006 -0.2087 -0.6794  0.8818
 3370SOL    HW221570   4.019   4.678   8.923  0.0539 -1.2785  0.5771
 3371SOL     OW21571   4.056   3.293   8.412 -0.5522 -0.5656 -0.4546
 3371SOL    HW121572   4.069   3.300   8.317  0.0775 -1.4888 -0.4317
 3371SOL    HW221573   4.044   3.386   8.431 -1.5520 -0.8461  0.2807
 3372SOL     OW21574   0.664   1.082   7.611 -0.4524  0.6503 -0.2842
 3372SOL    HW121575   0.659   1.088   7.516 -0.0121  0.3943 -0.3209
 3372SOL    HW221576   0.755   1.098   7.635 -1.0621  0.8901  1.8717
 3373SOL     OW21577   1.208   2.089   5.417 -0.2248 -0.3771 -0.3025
 3373SOL    HW121578   1.150   2.044   5.355 -3.2103 -2.1278  3.7545
 3373SOL    HW221579   1.204   2.025   5.488  0.8518  0.1148  0.1931
 3374SOL     OW21580   1.316   4.558   1.985 -0.0511 -0.4919  0.6235
 3374SOL    HW121581   1.348   4.639   1.946 -0.4170 -1.5023 -1.7870
 3374SOL    HW221582   1.222   4.575   1.984 -0.1093 -0.7419  1.4402
 3375SOL     OW21583   3.923   1.897   5.209  0.0376  0.0257  0.1571
 3375SOL    HW121584   4.018   1.905   5.216  0.0169  1.7254 -1.4564
 3375SOL    HW221585   3.906   1.839   5.283 -0.8174  1.5610  1.1687
 3376SOL     OW21586   4.537   0.368   4.388  0.1153  0.2864 -0.8461
 3376SOL    HW121587   4.507   0.405   4.304 -1.9491  1.5908  0.4489
 3376SOL    HW221588   4.459   0.319   4.413 -0.6519  2.0069  0.1636
 3377SOL     OW21589   4.197   2.101  11.625 -0.3842  0.1539 -0.2673
 3377SOL    HW121590   4.114   2.063  11.598 -0.5796  0.4753 -0.1242
 3377SOL    HW221591   4.193   2.070  11.716 -1.4518 -0.8214 -0.6510
 3378SOL     OW21592   0.544   0.785   3.718 -0.4381 -0.1687 -0.2791
 3378SOL    HW121593   0.482   0.833   3.663 -0.5438  0.8554  0.7352
 3378SOL    HW221594   0.619   0.843   3.721  1.1477 -2.1604 -1.2458
 3379SOL     OW21595   1.366   3.757   3.618 -0.1352  0.0313  0.2176
 3379SOL    HW121596   1.372   3.849   3.590 -1.6148 -0.9228 -3.3570
 3379SOL    HW221597   1.409   3.775   3.701  0.5984  0.1116 -0.1827
 3380SOL     OW21598   2.327   4.644   0.726 -0.3409  0.5305  0.1534
 3380SOL    HW121599   2.291   4.556   0.712  1.2646 -0.2971  1.2606
 3380SOL    HW221600   2.258   4.686   0.778 -1.6952 -0.7508 -0.6271
 3381SOL     OW21601   0.684   0.724   0.032 -0.6608 -0.4759 -0.7113
 3381SOL    HW121602   0.750   0.748   0.097 -0.5691 -0.2958 -0.8683
 3381SOL    HW221603   0.626   0.799   0.045  0.6079  0.1712  1.1502
 3382SOL     OW21604   1.005   1.470   7.761  0.2426  0.4057 -0.3831
 3382SOL    HW121605   1.075   1.533   7.777  1.6023 -1.1852 -0.1421
 3382SOL    HW221606   0.945   1.537   7.727 -1.1549  0.0348  1.4053
 3383SOL     OW21607   1.007   3.994  11.747 -0.6721  0.3758 -0.3159
 3383SOL    HW121608   1.027   4.075  11.699  0.3858 -0.1484 -0.7296
 3383SOL    HW221609   1.100   3.972  11.749 -1.2208 -1.8848  0.1837
 3384SOL     OW21610   0.826   3.962   5.817 -0.0922  0.1681 -0.4240
 3384SOL    HW121611   0.889   3.914   5.872 -0.1135  0.4115 -0.1864
 3384SOL    HW221612   0.860   4.051   5.823  1.7855 -0.8276  3.6187
 3385SOL     OW21613   1.057   2.611   1.789 -0.6421  0.0457 -0.1106
 3385SOL    HW121614   1.133   2.614   1.848 -0.3337 -1.1688 -0.4356
 3385SOL    HW221615   1.012   2.528   1.808  0.3135 -0.2769  0.7653
 3386SOL     OW21616   0.140   1.792   2.765  0.1204  0.1231 -0.4234
 3386SOL    HW121617   0.074   1.725   2.744  1.1260 -0.8060 -0.6105
 3386SOL    HW221618   0.075   1.858   2.788 -0.8108 -0.8207 -0.3100
 3387SOL     OW21619   0.817   0.884   0.233  0.0838  0.2984 -0.1171
 3387SOL    HW121620   0.796   0.976   0.248 -1.0336 -0.3296  2.2663
 3387SOL    HW221621   0.892   0.898   0.176 -1.3526  1.1063 -1.7807
 3388SOL     OW21622   0.717   0.532   1.341  0.1513 -0.3783  0.6995
 3388SOL    HW121623   0.785   0.565   1.283 -0.5482  3.2264  1.9432
 3388SOL    HW221624   0.743   0.561   1.428 -0.8428 -1.0898  1.2338
 3389SOL     OW21625   0.413   3.806   1.217  0.6203  0.2612  0.3138
 3389SOL    HW121626   0.339   3.862   1.239  0.3643  0.4562 -1.0696
 3389SOL    HW221627   0.456   3.786   1.300  0.1878 -0.7156  0.2994
 3390SOL     OW21628   1.702   2.556   5.197 -0.4985 -0.1548  0.4527
 3390SOL    HW121629   1.672   2.471   5.163  2.5810 -0.1917 -2.2223
 3390SOL    HW221630   1.658   2.549   5.281  1.7753 -0.9821  1.5753
 3391SOL     OW21631   3.040   2.904   7.490  0.4000 -0.5291  0.4079
 3391SOL    HW121632   2.980   2.830   7.498  0.9752 -0.9916  0.4933
 3391SOL    HW221633   3.021   2.939   7.577 -1.9773  0.6292 -0.5802
 3392SOL     OW21634   1.017   3.306   5.081 -0.5997 -0.3213 -0.2388
 3392SOL    HW121635   1.000   3.377   5.020  0.5037 -0.0100 -0.1903
 3392SOL    HW221636   1.044   3.235   5.023 -0.1142 -0.4135  0.0975
 3393SOL     OW21637   2.172   0.124  10.947  1.2850  0.1925  0.1471
 3393SOL    HW121638   2.166   0.147  11.040 -0.3807 -2.9336  0.8119
 3393SOL    HW221639   2.091   0.168  10.920  1.3303  0.0301 -0.2421
 3394SOL     OW21640   0.043   2.984   7.263 -0.1328 -0.3518 -0.0069
 3394SOL    HW121641   4.684   3.032   7.280 -0.1088 -0.7286  1.1724
 3394SOL    HW221642   0.011   2.916   7.203 -0.4407 -1.1814  1.0917
 3395SOL     OW21643   4.113   4.088   3.539 -0.6013  0.0858 -0.0906
 3395SOL    HW121644   4.092   4.096   3.446 -0.5602  0.6174 -0.0559
 3395SOL    HW221645   4.150   4.175   3.550  0.2627 -0.2085 -0.7357
 3396SOL     OW21646   1.825   0.429   6.427 -0.3717 -0.6091 -0.0131
 3396SOL    HW121647   1.888   0.501   6.436 -0.2675 -0.4597 -2.0080
 3396SOL    HW221648   1.884   0.362   6.461  1.3688  0.5374 -0.7737
 3397SOL     OW21649   3.940   4.070  11.011 -0.7434 -0.6501  0.0366
 3397SOL    HW121650   3.940   3.974  11.009 -0.0773 -0.6440 -0.2466
 3397SOL    HW221651   3.851   4.104  11.007 -1.3739 -2.3512 -0.4884
 3398SOL     OW21652   0.327   4.229  16.265 -0.0606 -0.4324 -0.2245
 3398SOL    HW121653   0.333   4.284  16.343 -1.0760 -0.5335 -0.0774
 3398SOL    HW221654   0.355   4.290  16.197  0.1499 -1.3940 -1.0035
 3399SOL     OW21655   4.094   0.185  10.842  0.5524  0.4549  0.1058
 3399SOL    HW121656   4.098   0.102  10.890  0.5183  0.0535 -0.5854
 3399SOL    HW221657   4.128   0.249  10.904  0.1540 -1.2660  2.1007
 3400SOL     OW21658   2.397   1.450   5.150  0.6516 -0.3629  0.0721
 3400SOL    HW121659   2.353   1.517   5.097 -0.5208 -1.8988 -0.8722
 3400SOL    HW221660   2.467   1.490   5.202 -0.1366  1.5460 -0.3334
 3401SOL     OW21661   0.797   1.701  15.285  0.0346 -0.0061 -0.3734
 3401SOL    HW121662   0.732   1.678  15.351  1.6170 -0.3029  1.0860
 3401SOL    HW221663   0.870   1.741  15.333  1.0550  1.2762 -2.9626
 3402SOL     OW21664   3.977   3.665  13.745 -0.2802  0.5176  0.0393
 3402SOL    HW121665   4.047   3.677  13.680  1.3533 -1.8064  1.3729
 3402SOL    HW221666   3.897   3.668  13.692 -2.0215 -0.1007  2.6537
 3403SOL     OW21667   2.993   0.515  13.548  0.5391  0.0724  0.1838
 3403SOL    HW121668   2.913   0.523  13.496  0.3497  2.1778  0.7928
 3403SOL    HW221669   2.968   0.440  13.601  0.6741  1.0475  1.6104
 3404SOL     OW21670   2.118   1.265   7.368 -0.0419  0.2544  0.3938
 3404SOL    HW121671   2.081   1.347   7.400  1.8242  1.2345  0.0566
 3404SOL    HW221672   2.180   1.248   7.439  0.5580 -0.8563 -0.3882
 3405SOL     OW21673   2.839   1.212  17.315  0.2845 -0.5809 -0.0525
 3405SOL    HW121674   2.855   1.303  17.339  1.1319 -0.0728 -2.5297
 3405SOL    HW221675   2.771   1.218  17.248  0.7445 -0.7933 -0.5355
 3406SOL     OW21676   0.650   2.576   3.572  0.4477 -0.1865 -0.1926
 3406SOL    HW121677   0.678   2.487   3.594 -1.6647 -1.4664 -2.6881
 3406SOL    HW221678   0.690   2.629   3.640  1.2173  1.6196 -2.0598
 3407SOL     OW21679   0.212   3.908   8.798  0.6246 -0.5888  0.2641
 3407SOL    HW121680   0.137   3.949   8.840 -0.5316 -1.1013 -1.3039
 3407SOL    HW221681   0.248   3.856   8.870  2.8913  0.4752 -0.1034
 3408SOL     OW21682   3.590   1.346  15.334  0.1946  0.3751 -0.0127
 3408SOL    HW121683   3.500   1.336  15.364 -0.4147 -0.3069 -2.0856
 3408SOL    HW221684   3.603   1.441  15.329 -1.3394  0.6293  1.1221
 3409SOL     OW21685   1.519   0.697   9.282 -0.1840  0.7209  0.0506
 3409SOL    HW121686   1.539   0.651   9.363  0.1807  0.9313  0.0795
 3409SOL    HW221687   1.431   0.664   9.266  0.3076  0.2522 -1.7513
 3410SOL     OW21688   1.737   0.930   8.584 -0.5211  0.1189 -0.1381
 3410SOL    HW121689   1.799   0.977   8.639  0.6482  1.3657 -2.5093
 3410SOL    HW221690   1.659   0.960   8.631  0.2527  1.2459  0.4377
 3411SOL     OW21691   3.602   2.004   2.854  0.4571 -0.0766  0.2825
 3411SOL    HW121692   3.539   1.977   2.920 -1.4817  0.6386 -1.2630
 3411SOL    HW221693   3.542   2.049   2.794  0.9975  0.1805 -0.0604
 3412SOL     OW21694   2.262   2.285   4.448  0.1615  0.1245  0.2834
 3412SOL    HW121695   2.178   2.242   4.459  0.5666 -0.3863  1.4644
 3412SOL    HW221696   2.295   2.232   4.375  0.4738 -0.1359  0.6102
 3413SOL     OW21697   1.989   4.591   4.882  0.4441  0.3570  0.1422
 3413SOL    HW121698   1.895   4.609   4.891  0.8374  1.6855  1.5634
 3413SOL    HW221699   2.018   4.645   4.956  2.0999  1.7712 -1.5516
 3414SOL     OW21700   4.673   1.239   5.976 -0.0396  0.6953 -0.2569
 3414SOL    HW121701   4.607   1.288   5.927 -0.0941  0.5134 -0.3652
 3414SOL    HW221702   0.031   1.289   5.961  0.3600  0.5509  1.4206
 3415SOL     OW21703   3.964   3.669  15.988 -0.0889 -0.0355  0.0686
 3415SOL    HW121704   3.944   3.709  15.904 -0.8366  0.2620  0.3891
 3415SOL    HW221705   3.926   3.725  16.056 -0.2623  0.0414 -0.0939
 3416SOL     OW21706   1.691   4.474  10.837  0.4162 -0.1588  0.5588
 3416SOL    HW121707   1.595   4.477  10.837  0.4099 -0.7815 -0.9218
 3416SOL    HW221708   1.706   4.494  10.745  1.5593 -1.4157  0.4877
 3417SOL     OW21709   3.582   1.644   2.218 -0.3818  0.1058 -0.0352
 3417SOL    HW121710   3.507   1.668   2.272 -0.9369 -1.0089 -0.3067
 3417SOL    HW221711   3.574   1.712   2.151  0.1869 -1.0834 -1.3212
 3418SOL     OW21712   0.599   3.591   9.710  1.1028  0.2289  1.2447
 3418SOL    HW121713   0.655   3.622   9.782  2.4767  0.0416  0.2632
 3418SOL    HW221714   0.559   3.512   9.745  0.0243  0.2109 -0.0569
 3419SOL     OW21715   1.859   1.517   9.729 -0.3039  0.2332  0.0934
 3419SOL    HW121716   1.831   1.604   9.699 -0.7457  0.0184 -0.1234
 3419SOL    HW221717   1.885   1.480   9.645  0.7174 -0.2415  0.6207
 3420SOL     OW21718   0.549   2.387  12.928  0.0953  0.7222 -0.2209
 3420SOL    HW121719   0.497   2.387  13.008  1.9495  0.8973  0.9966
 3420SOL    HW221720   0.586   2.475  12.927  2.5496 -0.2910  0.7629
 3421SOL     OW21721   2.782   4.346  11.438  0.0728  0.1441  0.8037
 3421SOL    HW121722   2.811   4.288  11.367 -0.8540  1.4116 -0.6176
 3421SOL    HW221723   2.781   4.279  11.506  1.6692 -0.5902  0.1047
 3422SOL     OW21724   2.252   1.361   8.641 -0.2527 -0.3664 -0.3012
 3422SOL    HW121725   2.250   1.298   8.713 -0.3280  0.4971  0.4387
 3422SOL    HW221726   2.196   1.427   8.681 -0.9485 -0.8383 -0.4970
 3423SOL     OW21727   3.424   0.056   3.939 -0.4121 -0.0218 -0.7999
 3423SOL    HW121728   3.456   0.122   3.878  1.6062  1.0333  1.3648
 3423SOL    HW221729   3.460   4.702   3.894 -0.7260 -0.0111 -1.0689
 3424SOL     OW21730   2.199   2.089   1.492 -0.1235 -0.2467  0.2337
 3424SOL    HW121731   2.211   2.027   1.564 -0.2965  0.2548  0.6958
 3424SOL    HW221732   2.103   2.096   1.494 -0.2590 -1.0225 -4.1346
 3425SOL     OW21733   3.849   4.302   3.716  0.4922  0.3753 -0.7690
 3425SOL    HW121734   3.774   4.265   3.763 -0.2729 -0.2025 -2.4717
 3425SOL    HW221735   3.829   4.264   3.631 -0.0234 -1.6051  0.2331
 3426SOL     OW21736   2.380   3.660  11.503  0.1003  0.1975 -0.3110
 3426SOL    HW121737   2.438   3.642  11.429 -0.4458  0.6991 -0.8705
 3426SOL    HW221738   2.365   3.754  11.491 -0.5807  0.4130  2.2313
 3427SOL     OW21739   3.587   0.797   5.199  0.0497 -0.1967  0.1247
 3427SOL    HW121740   3.520   0.863   5.184 -1.8891 -2.1325  0.3002
 3427SOL    HW221741   3.639   0.843   5.265  2.1850 -0.2084 -1.5425
 3428SOL     OW21742   0.771   1.162  17.616 -0.7482  0.1967  0.6173
 3428SOL    HW121743   0.771   1.067  17.630 -1.0329 -0.1008 -1.3963
 3428SOL    HW221744   0.860   1.173  17.582 -1.1217  2.0110  0.2376
 3429SOL     OW21745   2.850   2.564   5.309  0.2043 -0.3830 -0.2527
 3429SOL    HW121746   2.800   2.608   5.377 -0.4326 -0.1330 -0.8792
 3429SOL    HW221747   2.856   2.634   5.244  2.1188  0.0735  0.4012
 3430SOL     OW21748   4.404   0.895   3.936  0.1736  0.5958 -0.0876
 3430SOL    HW121749   4.443   0.923   4.018 -0.4026 -0.5867  0.5808
 3430SOL    HW221750   4.316   0.869   3.964  0.5746 -1.2173 -0.5266
 3431SOL     OW21751   4.061   3.689   5.681 -0.0044  0.1479 -0.0827
 3431SOL    HW121752   4.076   3.639   5.600  0.1760 -2.1130  1.3466
 3431SOL    HW221753   4.126   3.759   5.676  1.8280 -1.5514  0.0880
 3432SOL     OW21754   2.953   4.296   2.500 -0.0611  0.0038 -0.2202
 3432SOL    HW121755   2.894   4.361   2.538  0.1213  0.8754 -1.4188
 3432SOL    HW221756   2.894   4.222   2.484 -2.0935  1.7261 -0.6622
 3433SOL     OW21757   3.967   3.773   9.548  0.1343  0.5531 -0.2243
 3433SOL    HW121758   3.916   3.756   9.469  1.2648  1.0841 -1.0644
 3433SOL    HW221759   3.974   3.868   9.540 -1.3597  0.6932  0.2123
 3434SOL     OW21760   0.346   2.552   2.342 -0.5739  0.2286  0.8424
 3434SOL    HW121761   0.407   2.481   2.361 -0.8928 -0.1995  0.2496
 3434SOL    HW221762   0.307   2.526   2.259  0.0236 -2.2496  1.3409
 3435SOL     OW21763   4.687   0.396  15.155  0.2555 -0.3927  0.5875
 3435SOL    HW121764   4.635   0.476  15.147  0.5981 -0.3830 -1.4725
 3435SOL    HW221765   4.632   0.337  15.103 -0.7416  1.4787 -0.4571
 3436SOL     OW21766   4.557   3.657   9.529 -0.1187  0.9665 -0.6311
 3436SOL    HW121767   4.620   3.697   9.590  1.0723  1.1190 -1.9623
 3436SOL    HW221768   4.583   3.691   9.443  1.0604 -0.5069 -0.8528
 3437SOL     OW21769   2.849   0.185  10.974 -0.2802 -0.5202  0.0252
 3437SOL    HW121770   2.869   0.136  10.894 -1.1282 -1.2398  0.2528
 3437SOL    HW221771   2.941   0.176  11.001  0.0200 -2.6959 -1.6976
 3438SOL     OW21772   3.661   3.793  14.082  0.0580 -0.5134  0.1840
 3438SOL    HW121773   3.755   3.784  14.066  0.4624  0.9431  1.7777
 3438SOL    HW221774   3.634   3.713  14.036 -0.6127 -0.1236 -0.1112
 3439SOL     OW21775   0.143   0.829   8.626 -0.0527 -0.4899  0.0364
 3439SOL    HW121776   0.216   0.771   8.647  2.6721  1.5918 -3.7919
 3439SOL    HW221777   0.083   0.760   8.598  0.7973 -2.3911  2.9047
 3440SOL     OW21778   1.108   0.826   2.345  0.5263  0.3207 -0.0912
 3440SOL    HW121779   1.164   0.880   2.290 -0.2130 -0.8536 -1.9936
 3440SOL    HW221780   1.035   0.805   2.287 -0.8178 -0.8683  1.9907
 3441SOL     OW21781   2.476   3.375   4.708 -0.2909  0.2947  0.0581
 3441SOL    HW121782   2.399   3.325   4.681 -0.2430  0.0705  0.3385
 3441SOL    HW221783   2.535   3.306   4.677 -2.1175 -1.0241 -0.4615
 3442SOL     OW21784   2.127   3.937   3.132 -0.2476 -0.0203  0.4460
 3442SOL    HW121785   2.158   3.848   3.122  0.0414  0.1907 -0.4968
 3442SOL    HW221786   2.098   3.942   3.223 -1.2843 -1.7139  0.2019
 3443SOL     OW21787   0.099   2.008   3.430 -0.4240  0.1311  0.1256
 3443SOL    HW121788   0.107   1.930   3.376  0.1443 -0.4209  1.0081
 3443SOL    HW221789   0.004   2.016   3.428 -0.4540 -0.0734  1.0234
 3444SOL     OW21790   1.712   2.657  15.177  0.6788  0.1538 -0.4942
 3444SOL    HW121791   1.745   2.745  15.191  1.3280 -0.1127 -0.3765
 3444SOL    HW221792   1.776   2.604  15.224 -0.0421 -0.4998 -0.2430
 3445SOL     OW21793   2.219   4.509   3.441 -0.3348  0.3984  0.2947
 3445SOL    HW121794   2.294   4.562   3.411 -0.1031  1.0426  2.0420
 3445SOL    HW221795   2.154   4.523   3.372 -1.8612 -0.5653  1.5371
 3446SOL     OW21796   2.875   1.034   3.617  0.3176  0.3135  0.1803
 3446SOL    HW121797   2.945   0.969   3.612  1.4913  1.5588  0.6319
 3446SOL    HW221798   2.920   1.118   3.620 -0.5521  0.7705  0.3805
 3447SOL     OW21799   2.114   1.677   9.799  0.5584  0.1468  0.1702
 3447SOL    HW121800   2.027   1.717   9.796  0.8071  0.5962 -1.1590
 3447SOL    HW221801   2.114   1.630   9.715  2.3726 -0.8424  0.7285
 3448SOL     OW21802   1.732   2.254   3.571  0.2196 -0.5151  0.0250
 3448SOL    HW121803   1.713   2.345   3.545  0.9579  0.3022  2.3442
 3448SOL    HW221804   1.795   2.227   3.505  0.6916  1.5408 -0.3555
 3449SOL     OW21805   1.424   1.029   7.235  0.5175 -0.3184  0.1886
 3449SOL    HW121806   1.349   0.994   7.283 -1.6917  0.9332 -2.3699
 3449SOL    HW221807   1.422   0.998   7.145 -1.5273  2.0630 -0.5859
 3450SOL     OW21808   0.124   4.654   2.093 -0.3874 -0.7238  0.4814
 3450SOL    HW121809   0.078   4.669   2.011 -2.6172  1.4459  2.1068
 3450SOL    HW221810   0.048   4.658   2.151  0.7518 -1.2734  2.0114
 3451SOL     OW21811   2.490   3.528   4.107 -0.2435 -0.0345  0.2085
 3451SOL    HW121812   2.574   3.487   4.126 -0.1123 -0.2884 -0.9328
 3451SOL    HW221813   2.520   3.618   4.120  1.0456 -0.4100 -0.1821
 3452SOL     OW21814   1.749   3.242   3.778  0.1622  0.6943  0.1085
 3452SOL    HW121815   1.686   3.314   3.769  0.1989  0.7293  0.1307
 3452SOL    HW221816   1.735   3.194   3.696 -3.4255  0.0147  1.1148
 3453SOL     OW21817   1.575   2.998   1.667 -0.2090 -0.3883 -0.1499
 3453SOL    HW121818   1.498   3.050   1.645 -0.2652 -0.0119  0.9175
 3453SOL    HW221819   1.617   3.057   1.729  0.6151  0.0730 -1.1388
 3454SOL     OW21820   2.168   0.814   6.144  0.5644 -0.2328 -0.1684
 3454SOL    HW121821   2.260   0.822   6.170  0.4424  0.0714  0.1631
 3454SOL    HW221822   2.164   0.905   6.114  0.9789 -0.7588 -1.8176
 3455SOL     OW21823   0.792   1.070  10.626 -0.3124 -0.3468 -0.3637
 3455SOL    HW121824   0.765   1.131  10.558 -1.8343 -0.3193  0.2619
 3455SOL    HW221825   0.828   1.129  10.692 -0.9894 -0.6661  0.2873
 3456SOL     OW21826   3.147   2.757  17.286  0.1244  0.0128  0.4678
 3456SOL    HW121827   3.070   2.703  17.305  1.4166 -1.0349  2.6783
 3456SOL    HW221828   3.112   2.842  17.311  2.9593  1.9068 -1.9859
 3457SOL     OW21829   0.359   1.005  13.879 -0.1022  0.3951 -0.5015
 3457SOL    HW121830   0.440   0.956  13.861  0.2866  0.9438 -0.2494
 3457SOL    HW221831   0.394   1.073  13.937  0.4880  0.5384 -1.0182
 3458SOL     OW21832   0.448   3.479  13.337 -0.3993 -1.0771 -0.7573
 3458SOL    HW121833   0.375   3.440  13.386  0.8043 -0.5258  1.5037
 3458SOL    HW221834   0.421   3.478  13.246 -0.5924 -0.5592 -0.7091
 3459SOL     OW21835   0.999   3.195   8.942  0.6154  0.1368  0.7961
 3459SOL    HW121836   0.944   3.139   8.997 -2.5207  1.7367 -0.6674
 3459SOL    HW221837   0.967   3.281   8.971 -0.8030 -0.3524  0.6548
 3460SOL     OW21838   1.678   0.869   3.213  0.3086  0.9450 -0.3091
 3460SOL    HW121839   1.718   0.956   3.219 -2.4980  2.0251  2.4806
 3460SOL    HW221840   1.697   0.843   3.123  2.6749  1.0130  0.1646
 3461SOL     OW21841   1.647   1.889   3.806 -0.1449 -0.4191 -0.4301
 3461SOL    HW121842   1.694   1.969   3.781  0.8345 -1.8058 -3.1094
 3461SOL    HW221843   1.612   1.865   3.720  0.3866 -1.5974 -0.3199
 3462SOL     OW21844   0.198   4.665   8.571  0.2019  0.7063 -0.2680
 3462SOL    HW121845   0.158   4.617   8.643  0.2496  0.7796 -0.1927
 3462SOL    HW221846   0.207   4.591   8.511  1.7919  0.5279  0.1916
 3463SOL     OW21847   0.722   4.218   8.167  0.1601  0.1367 -0.0605
 3463SOL    HW121848   0.741   4.189   8.078 -0.0676  1.1910 -0.4416
 3463SOL    HW221849   0.639   4.171   8.171 -0.0001  0.4612  0.3595
 3464SOL     OW21850   3.944   1.994   6.779 -0.2311 -0.4139  0.2126
 3464SOL    HW121851   4.023   1.940   6.776  1.3438  1.9212 -0.3692
 3464SOL    HW221852   3.895   1.964   6.703 -2.1542 -2.2476  2.1695
 3465SOL     OW21853   0.139   1.122  14.018  0.3758 -0.3938  0.1673
 3465SOL    HW121854   0.153   1.091  14.107 -1.0521  1.3527  0.9985
 3465SOL    HW221855   0.212   1.077  13.975  2.2122  3.5492 -0.8232
 3466SOL     OW21856   2.219   3.860   8.370 -0.5209  0.8793 -0.2377
 3466SOL    HW121857   2.197   3.941   8.322  1.2147  0.8107 -1.1607
 3466SOL    HW221858   2.158   3.866   8.443 -0.3348  0.7946 -0.0768
 3467SOL     OW21859   0.849   4.047   0.208 -0.6445  0.0898  0.0903
 3467SOL    HW121860   0.762   4.069   0.243 -0.9334 -0.6183 -0.1742
 3467SOL    HW221861   0.898   4.066   0.288 -0.1911  0.9968 -0.4078
 3468SOL     OW21862   4.482   4.133   4.641  0.1055  0.7982 -0.0663
 3468SOL    HW121863   4.437   4.103   4.562  0.2781  0.7162 -0.1327
 3468SOL    HW221864   4.436   4.216   4.651  0.3971  1.0028 -0.4455
 3469SOL     OW21865   0.654   2.046   4.485 -0.3224  0.9806 -0.3328
 3469SOL    HW121866   0.740   2.060   4.524 -0.3898  2.3376 -0.6540
 3469SOL    HW221867   0.665   2.117   4.421  0.1557  1.3932  0.2056
 3470SOL     OW21868   3.512   0.966   6.736 -0.2742 -0.0556 -0.6129
 3470SOL    HW121869   3.455   1.038   6.709 -1.5400 -1.4950 -1.7315
 3470SOL    HW221870   3.543   0.938   6.650 -1.2418  0.0029 -0.9751
 3471SOL     OW21871   0.058   1.519   9.464 -0.3006 -0.2225 -0.7377
 3471SOL    HW121872   0.084   1.606   9.493 -0.8044 -0.6704  1.0642
 3471SOL    HW221873   0.056   1.542   9.371 -0.9339 -2.8059 -1.3703
 3472SOL     OW21874   2.416   0.379   0.317 -0.5344  0.2900  0.0420
 3472SOL    HW121875   2.412   0.297   0.268 -3.1841 -0.3620  1.3319
 3472SOL    HW221876   2.428   0.443   0.247  0.1636  0.6878  0.5252
 3473SOL     OW21877   0.575   1.692   8.024 -0.2484  0.3441 -0.2251
 3473SOL    HW121878   0.614   1.771   8.062  0.7685 -0.0272 -0.4931
 3473SOL    HW221879   0.620   1.626   8.076  1.9164  3.0001  1.3124
 3474SOL     OW21880   3.492   1.949  10.618  0.3205  0.6884 -0.1650
 3474SOL    HW121881   3.487   2.024  10.677 -1.2772  1.2552 -1.0273
 3474SOL    HW221882   3.490   1.999  10.537  0.0750 -0.4643 -0.8772
 3475SOL     OW21883   1.870   4.030   7.759  0.2719 -0.7283 -0.3098
 3475SOL    HW121884   1.820   3.950   7.775 -2.8874  2.0413  3.3872
 3475SOL    HW221885   1.855   4.033   7.664 -1.6699 -2.1129 -0.0445
 3476SOL     OW21886   1.733   4.463   5.156  0.5374  0.2847 -0.1100
 3476SOL    HW121887   1.688   4.393   5.108  2.0604 -0.8838  0.1991
 3476SOL    HW221888   1.706   4.449   5.247 -1.9205  0.0124 -0.8714
 3477SOL     OW21889   1.359   0.030   4.929  0.3559 -0.3031  0.1493
 3477SOL    HW121890   1.384   0.101   4.870 -1.5490  0.2859  0.0578
 3477SOL    HW221891   1.264   0.032   4.932  0.3255 -1.0114 -0.2734
 3478SOL     OW21892   4.553   3.696  16.245  0.0975 -0.6810 -0.2948
 3478SOL    HW121893   4.480   3.643  16.274 -0.5858  0.5451  0.2392
 3478SOL    HW221894   4.563   3.650  16.162 -0.1809 -0.5881 -0.3785
 3479SOL     OW21895   0.254   2.477   8.960  0.5316  0.2693  0.1506
 3479SOL    HW121896   0.237   2.383   8.953 -0.1780  0.2966  1.4133
 3479SOL    HW221897   0.270   2.477   9.054  0.1016 -0.4427  0.2228
 3480SOL     OW21898   0.751   3.253   2.233  0.4037 -0.2918 -0.3389
 3480SOL    HW121899   0.765   3.228   2.141 -2.2849 -1.8057 -0.3368
 3480SOL    HW221900   0.766   3.347   2.239  1.4194 -0.5364  0.9340
 3481SOL     OW21901   0.288   1.747   1.153 -0.6423  0.0205  0.0455
 3481SOL    HW121902   0.228   1.729   1.225  0.6353  2.4223  1.7411
 3481SOL    HW221903   0.242   1.698   1.086 -0.0695  1.5930 -1.5088
 3482SOL     OW21904   3.928   0.126   3.331 -0.1456  0.0775 -0.1160
 3482SOL    HW121905   3.896   0.127   3.241 -0.9686  1.8371  0.1921
 3482SOL    HW221906   4.012   0.082   3.319 -0.7925 -0.8646 -1.1936
 3483SOL     OW21907   3.764   1.286   4.640 -0.0877  0.1335  0.0214
 3483SOL    HW121908   3.724   1.353   4.585 -0.5240  0.5851  0.8840
 3483SOL    HW221909   3.853   1.286   4.605  0.0197  1.2666  0.3107
 3484SOL     OW21910   2.077   2.638   6.517 -0.2310  0.4340 -0.3962
 3484SOL    HW121911   2.139   2.707   6.495  1.5954 -1.4285 -1.1148
 3484SOL    HW221912   2.046   2.609   6.432  0.3604  0.9792 -0.7943
 3485SOL     OW21913   4.475   4.199   3.269 -0.7380 -0.1218 -0.0143
 3485SOL    HW121914   4.548   4.138   3.280 -1.8359 -1.4395 -0.2067
 3485SOL    HW221915   4.515   4.276   3.311  1.1814  0.3803 -2.7513
 3486SOL     OW21916   3.888   1.345   6.931  0.2277  1.0389  0.4162
 3486SOL    HW121917   3.983   1.336   6.928  0.1903  0.6346  0.4623
 3486SOL    HW221918   3.860   1.268   6.881  2.0823  0.7480 -0.1906
 3487SOL     OW21919   2.838   4.219   5.574  0.3846 -0.1138  0.1922
 3487SOL    HW121920   2.898   4.286   5.607  0.3779 -1.0935  2.2019
 3487SOL    HW221921   2.755   4.248   5.612  0.3372 -0.5445  0.4152
 3488SOL     OW21922   4.423   4.257  11.016 -0.0565  0.0898 -0.0532
 3488SOL    HW121923   4.340   4.250  10.970 -0.7545 -0.3107  1.2608
 3488SOL    HW221924   4.472   4.297  10.945 -0.7358 -1.8211 -1.5737
 3489SOL     OW21925   1.276   3.496   3.215 -0.1774  0.0877  0.4072
 3489SOL    HW121926   1.256   3.590   3.217  1.5179  0.4483  0.7560
 3489SOL    HW221927   1.277   3.481   3.121 -1.1172  1.1314  0.2236
 3490SOL     OW21928   4.422   4.305   6.298 -0.2870  0.0107  0.3245
 3490SOL    HW121929   4.403   4.381   6.353  0.8663  1.1998 -0.9396
 3490SOL    HW221930   4.430   4.336   6.208 -0.4118  2.8879  1.3073
 3491SOL     OW21931   0.495   1.497   2.925 -0.2399  0.0534  0.5258
 3491SOL    HW121932   0.529   1.560   2.862 -3.8213  1.6015  0.1689
 3491SOL    HW221933   0.501   1.539   3.011 -2.1999 -1.0430  1.2043
 3492SOL     OW21934   2.399   1.656  10.154 -0.4315  0.4872 -0.6197
 3492SOL    HW121935   2.307   1.629  10.148 -0.7272  1.2308  0.4709
 3492SOL    HW221936   2.394   1.730  10.094  0.1876  1.4398  0.5044
 3493SOL     OW21937   2.462   0.365   2.899  0.2144 -0.2463  0.1283
 3493SOL    HW121938   2.403   0.356   2.824 -0.9158  0.9433  0.8626
 3493SOL    HW221939   2.472   0.459   2.887  0.3691 -0.2317  0.3729
 3494SOL     OW21940   3.278   0.759   3.944  0.5079 -0.4496 -0.4873
 3494SOL    HW121941   3.287   0.676   3.899 -0.4435  0.6155 -2.6477
 3494SOL    HW221942   3.216   0.734   4.012 -1.4994 -0.8900 -2.4845
 3495SOL     OW21943   0.303   2.106   7.467 -0.0308  0.4938  0.0928
 3495SOL    HW121944   0.376   2.044   7.470  0.9669  1.5394 -3.5925
 3495SOL    HW221945   0.279   2.102   7.375  0.2894  3.8260 -0.1144
 3496SOL     OW21946   3.220   3.930   2.939  0.5484  0.3835 -0.0765
 3496SOL    HW121947   3.226   3.835   2.949  2.3678  0.4731 -0.3006
 3496SOL    HW221948   3.130   3.926   2.907  0.5759  1.5413 -0.3037
 3497SOL     OW21949   3.296   3.527   9.711 -0.3799  0.3544 -0.8258
 3497SOL    HW121950   3.213   3.499   9.671 -0.8366  0.6793 -0.1195
 3497SOL    HW221951   3.307   3.457   9.775  3.5323  2.0870  0.4295
 3498SOL     OW21952   1.679   0.831   0.751  0.1620 -0.2626  0.3810
 3498SOL    HW121953   1.610   0.779   0.709 -0.7453 -1.1720  3.0072
 3498SOL    HW221954   1.651   0.918   0.722  0.3591 -1.2639 -2.7877
 3499SOL     OW21955   2.974   4.151  13.645 -0.2619 -0.6989  0.1569
 3499SOL    HW121956   3.065   4.176  13.658 -0.3671 -0.5137  0.5409
 3499SOL    HW221957   2.944   4.196  13.566 -1.5859 -0.8363  0.5747
 3500SOL     OW21958   2.964   2.777   8.200 -0.1771  0.2348  0.9442
 3500SOL    HW121959   2.869   2.777   8.191 -0.0637 -0.0362 -0.2510
 3500SOL    HW221960   2.974   2.699   8.256 -0.1483  0.7813  1.6961
 3501SOL     OW21961   0.617   0.307  17.517  0.1815  0.2261 -0.9180
 3501SOL    HW121962   0.595   0.396  17.545  1.8646  0.4263 -0.2019
 3501SOL    HW221963   0.565   0.259  17.582  0.0242 -0.5695 -1.6361
 3502SOL     OW21964   1.450   3.971   8.258  0.0904 -0.2927 -0.1951
 3502SOL    HW121965   1.520   3.943   8.199  0.9921  2.2167 -0.3070
 3502SOL    HW221966   1.382   3.993   8.195 -0.5006  2.6008  1.4306
 3503SOL     OW21967   0.897   0.167   8.009  0.8596 -0.2282 -0.8223
 3503SOL    HW121968   0.893   0.227   8.084  0.7796 -1.0308 -0.1889
 3503SOL    HW221969   0.932   0.087   8.047 -0.2262  0.4413  1.5963
 3504SOL     OW21970   0.889   4.364   1.074 -0.2174  0.1822  0.2280
 3504SOL    HW121971   0.962   4.304   1.088  0.0838  0.5354  0.1474
 3504SOL    HW221972   0.933   4.449   1.070 -3.2402  1.6674 -1.6001
 3505SOL     OW21973   0.120   1.389   9.027  0.5758 -0.4207  0.0245
 3505SOL    HW121974   0.096   1.313   9.080 -1.8530  1.0993  1.0720
 3505SOL    HW221975   0.214   1.374   9.015  1.0034  2.5531 -0.2454
 3506SOL     OW21976   4.052   1.095   5.794 -0.1544 -0.0535 -0.1998
 3506SOL    HW121977   4.039   1.084   5.888  0.9699  3.5921  0.3982
 3506SOL    HW221978   4.055   1.191   5.785 -1.4164  0.0796  0.9240
 3507SOL     OW21979   1.670   2.771   6.396  0.2732 -0.2055  0.3329
 3507SOL    HW121980   1.695   2.826   6.322 -2.7283 -0.4783 -0.8565
 3507SOL    HW221981   1.575   2.770   6.383  0.3839  0.4656 -0.5478
 3508SOL     OW21982   2.439   3.153   6.257 -0.3989  0.0480 -0.2332
 3508SOL    HW121983   2.453   3.227   6.197 -0.3234  1.0955  1.0822
 3508SOL    HW221984   2.490   3.088   6.209  0.9894  0.6792  0.4016
 3509SOL     OW21985   2.387   1.645   5.518  0.4354  0.2591 -0.7845
 3509SOL    HW121986   2.451   1.616   5.453  1.3563 -1.6556  0.9964
 3509SOL    HW221987   2.450   1.671   5.584 -0.7214  0.9368  0.0612
 3510SOL     OW21988   2.128   0.482   1.032 -0.0119  0.3177  0.0008
 3510SOL    HW121989   2.067   0.465   1.104 -0.3168  0.4896 -0.2200
 3510SOL    HW221990   2.073   0.483   0.953 -1.2746 -1.2321  0.8622
 3511SOL     OW21991   0.619   3.770   2.627 -0.0115  0.2558  0.5121
 3511SOL    HW121992   0.646   3.804   2.712 -1.7715  0.8243  0.8574
 3511SOL    HW221993   0.664   3.686   2.635  2.2448  1.7539  3.5337
 3512SOL     OW21994   3.101   2.643   7.685  0.0579  0.3105 -0.9713
 3512SOL    HW121995   3.128   2.618   7.774 -1.2038 -2.4632 -1.3791
 3512SOL    HW221996   3.169   2.710   7.676  1.1249 -0.7128 -0.5264
 3513SOL     OW21997   3.532   2.939   7.319  0.7597 -0.4111 -0.0139
 3513SOL    HW121998   3.559   2.852   7.287  2.3481 -0.2619  0.9548
 3513SOL    HW221999   3.521   2.931   7.413 -0.3164  1.0111 -0.0326
 3514SOL     OW22000   0.701   0.765   2.532  0.0480 -0.0356  0.0572
 3514SOL    HW122001   0.701   0.824   2.607 -1.3457  0.0821 -0.0524
 3514SOL    HW222002   0.615   0.787   2.496 -0.8875 -0.5715  1.9831
 3515SOL     OW22003   2.598   3.207   9.616 -0.6243  0.3357  0.2361
 3515SOL    HW122004   2.613   3.238   9.705  1.3410 -0.3166  0.1246
 3515SOL    HW222005   2.641   3.121   9.613 -1.1282  0.0539  0.9355
 3516SOL     OW22006   3.347   0.225  15.870 -0.6608  0.4859  0.1749
 3516SOL    HW122007   3.346   0.319  15.853 -3.3783  0.6370  1.1214
 3516SOL    HW222008   3.388   0.226  15.956  2.5061  2.0968 -1.3292
 3517SOL     OW22009   0.101   1.077   2.720 -0.5883  0.2805 -0.2236
 3517SOL    HW122010   0.156   1.085   2.798 -0.1338  0.8006 -0.5990
 3517SOL    HW222011   0.152   1.070   2.639  1.7288 -0.5068  1.3175
 3518SOL     OW22012   0.447   0.208   6.971 -0.5512  0.4134 -0.5352
 3518SOL    HW122013   0.411   0.271   7.033 -1.2967  1.3500 -1.9191
 3518SOL    HW222014   0.455   0.131   7.028 -1.9345  0.8954  0.3042
 3519SOL     OW22015   4.190   0.432   8.997 -0.0063  0.6891  0.3551
 3519SOL    HW122016   4.104   0.403   8.966  0.2026 -0.8929  1.2680
 3519SOL    HW222017   4.225   0.347   9.021  0.6648  0.4272 -1.5588
 3520SOL     OW22018   3.674   0.224   0.246  0.1516 -0.1073 -0.2124
 3520SOL    HW122019   3.611   0.154   0.259 -0.2455  0.1303 -0.9131
 3520SOL    HW222020   3.758   0.177   0.245 -0.4574 -1.1000 -3.1927
 3521SOL     OW22021   1.845   1.739   8.015  0.1610  0.3539  0.1044
 3521SOL    HW122022   1.876   1.709   7.929 -0.3466  1.3488 -0.4203
 3521SOL    HW222023   1.926   1.780   8.044 -0.6036  2.0437 -0.1640
 3522SOL     OW22024   2.047   4.538   5.598 -0.0475  0.5226  0.4592
 3522SOL    HW122025   2.103   4.484   5.542 -1.9877 -1.4215  0.3981
 3522SOL    HW222026   2.018   4.608   5.538 -0.5663  1.0021  1.2728
 3523SOL     OW22027   4.513   1.555  13.352  0.5544 -0.1542  0.5472
 3523SOL    HW122028   4.465   1.584  13.429 -0.2718 -0.5816  0.2026
 3523SOL    HW222029   4.600   1.574  13.384  0.2182  0.1802  1.2541
 3524SOL     OW22030   1.157   1.376   3.843 -0.6237  0.4872 -0.2935
 3524SOL    HW122031   1.134   1.295   3.888  2.0634 -0.5011 -0.6912
 3524SOL    HW222032   1.251   1.368   3.824 -0.7696 -1.7594 -0.0881
 3525SOL     OW22033   3.983   1.688   5.372  0.1509 -0.3120  0.5031
 3525SOL    HW122034   4.031   1.731   5.444  2.9051 -0.7592 -1.0887
 3525SOL    HW222035   4.032   1.607   5.380 -0.0720 -0.4285  0.7000
 3526SOL     OW22036   1.829   4.281   3.894  0.1620 -0.0218  0.1726
 3526SOL    HW122037   1.828   4.320   3.806 -0.9538  1.1235  0.6779
 3526SOL    HW222038   1.883   4.344   3.941 -2.0307 -0.2315  3.0158
 3527SOL     OW22039   3.549   1.750   5.449  0.1065  0.6186 -0.2218
 3527SOL    HW122040   3.456   1.738   5.467 -0.2070 -2.1485 -3.6539
 3527SOL    HW222041   3.557   1.845   5.444  0.9927  0.5795  0.5367
 3528SOL     OW22042   0.838   1.757   9.369 -0.3366  0.6200  0.0722
 3528SOL    HW122043   0.791   1.782   9.449  0.1637 -0.1321  0.5963
 3528SOL    HW222044   0.792   1.683   9.330 -1.3653  0.6879  1.1612
 3529SOL     OW22045   1.075   4.165   3.631 -0.2983  0.0535 -0.1361
 3529SOL    HW122046   1.139   4.232   3.656 -0.9270  0.8707 -0.6960
 3529SOL    HW222047   0.999   4.224   3.624 -0.6958 -0.3698  0.6606
 3530SOL     OW22048   0.086   4.400   4.746 -0.0191  0.3060  0.6509
 3530SOL    HW122049   0.066   4.340   4.673  1.3548 -0.1659  0.6564
 3530SOL    HW222050   0.106   4.482   4.701  1.0896  0.9192  2.2787
 3531SOL     OW22051   2.412   1.454   6.072  0.3982  0.4543  0.3536
 3531SOL    HW122052   2.386   1.407   6.152  1.0160  1.3004  1.0533
 3531SOL    HW222053   2.474   1.395   6.029 -0.1637  0.2147 -0.1108
 3532SOL     OW22054   3.462   0.638   3.529  0.6748 -0.1853  0.0686
 3532SOL    HW122055   3.448   0.585   3.451  2.4359 -0.1513 -0.2646
 3532SOL    HW222056   3.516   0.580   3.583  1.6377  0.3163 -0.3521
 3533SOL     OW22057   1.105   4.256   5.138  0.4287 -0.3216 -0.5061
 3533SOL    HW122058   1.075   4.171   5.107  0.7505 -0.9028  0.7602
 3533SOL    HW222059   1.064   4.318   5.077  0.1733 -0.4561 -0.4715
 3534SOL     OW22060   2.850   3.200   9.170  0.0954  0.0836  0.2417
 3534SOL    HW122061   2.786   3.220   9.102  0.8437 -0.5455 -0.6517
 3534SOL    HW222062   2.794   3.177   9.244 -0.3863  0.3202 -0.0492
 3535SOL     OW22063   0.117   4.146   9.951 -0.2180 -0.0201 -0.3488
 3535SOL    HW122064   0.152   4.184   9.870  0.1494 -1.1557 -0.7244
 3535SOL    HW222065   0.050   4.208   9.981 -0.7796  0.4884 -2.6476
 3536SOL     OW22066   4.655   1.292   7.349 -0.7244 -0.2578  0.0270
 3536SOL    HW122067   4.613   1.376   7.330 -1.6962 -0.7859 -0.1499
 3536SOL    HW222068   0.005   1.313   7.408 -0.7854 -0.6368  0.2321
 3537SOL     OW22069   3.980   0.026   5.025  0.2094 -0.0081 -0.2191
 3537SOL    HW122070   4.047   0.043   4.958  1.1004 -0.4006  0.5727
 3537SOL    HW222071   4.008   0.088   5.092 -0.6548 -0.5126  0.6137
 3538SOL     OW22072   4.525   1.894   5.088  0.3090  0.5676 -0.6196
 3538SOL    HW122073   4.510   1.977   5.133 -2.0836 -1.2136  1.8626
 3538SOL    HW222074   4.524   1.934   5.001 -1.4317 -0.4023 -1.0523
 3539SOL     OW22075   2.881   2.747   2.252 -0.6260  0.1931 -0.1035
 3539SOL    HW122076   2.975   2.729   2.260 -0.4945  0.3731 -1.2422
 3539SOL    HW222077   2.852   2.660   2.223  1.7519 -0.1525 -1.4941
 3540SOL     OW22078   3.264   1.163   3.590 -0.3962 -0.1796 -0.4260
 3540SOL    HW122079   3.221   1.212   3.660  0.1718 -3.4580  2.2421
 3540SOL    HW222080   3.353   1.156   3.625 -0.6000 -0.0617  0.1193
 3541SOL     OW22081   2.890   1.581   0.875  0.0722  0.0588  0.0354
 3541SOL    HW122082   2.830   1.508   0.858  0.1208  0.7960 -3.2590
 3541SOL    HW222083   2.834   1.654   0.902 -0.2980  0.9811 -3.1557
 3542SOL     OW22084   2.664   2.109   0.892  0.3850  0.0480  0.1681
 3542SOL    HW122085   2.690   2.051   0.821 -3.4330 -1.1070 -0.2841
 3542SOL    HW222086   2.742   2.114   0.947 -0.3430  1.4644  1.0995
 3543SOL     OW22087   4.418   3.192   4.685  0.5371 -0.2870  0.0548
 3543SOL    HW122088   4.410   3.135   4.761  0.6174  0.1304  0.3804
 3543SOL    HW222089   4.333   3.172   4.647 -0.0156 -0.2229  1.2561
 3544SOL     OW22090   4.411   3.836   5.835 -0.1359 -0.5280 -0.1996
 3544SOL    HW122091   4.489   3.883   5.806 -0.8431  0.7876  0.0253
 3544SOL    HW222092   4.350   3.859   5.765  1.0587 -0.6683 -1.2870
 3545SOL     OW22093   2.030   3.821  10.147  0.2461  0.0244  0.9032
 3545SOL    HW122094   2.125   3.835  10.138  0.0947  0.1134 -0.5342
 3545SOL    HW222095   1.994   3.892  10.095  0.8548 -1.3895 -1.4611
 3546SOL     OW22096   2.662   3.723   7.786 -0.5074  0.2831  0.0151
 3546SOL    HW122097   2.690   3.781   7.715 -0.6204  0.4962  0.1475
 3546SOL    HW222098   2.606   3.787   7.830 -1.1687  0.2290 -0.7401
 3547SOL     OW22099   0.833   2.088   3.796 -0.0604 -0.5419  0.3674
 3547SOL    HW122100   0.923   2.064   3.818 -0.0952  1.0611  2.2837
 3547SOL    HW222101   0.789   2.101   3.880 -0.2977  1.0273  0.0087
 3548SOL     OW22102   1.112   1.968   2.420 -0.0307 -0.2338  0.5034
 3548SOL    HW122103   1.033   1.976   2.367  0.2893  0.1570  0.0850
 3548SOL    HW222104   1.178   2.028   2.387 -2.0514  2.2033  0.9382
 3549SOL     OW22105   0.858   3.535  12.916  0.2539  0.1079 -0.6380
 3549SOL    HW122106   0.930   3.598  12.913 -1.5900  2.2044 -0.9140
 3549SOL    HW222107   0.875   3.500  13.003 -1.6721 -0.6637 -0.5781
 3550SOL     OW22108   2.335   0.298   3.336  0.1841 -0.1444  0.3226
 3550SOL    HW122109   2.347   0.272   3.245 -0.7570 -0.9861  0.4370
 3550SOL    HW222110   2.351   0.392   3.347  0.3504  0.1677 -2.7906
 3551SOL     OW22111   0.656   0.923  11.262  0.3546  0.1732  0.3087
 3551SOL    HW122112   0.679   0.844  11.212 -0.5134  0.6089 -0.7765
 3551SOL    HW222113   0.626   0.872  11.337  0.1023  1.4034  1.0355
 3552SOL     OW22114   2.390   3.960   5.105 -0.0043 -0.0693  0.5144
 3552SOL    HW122115   2.451   3.965   5.178 -1.8335 -0.1249  2.0316
 3552SOL    HW222116   2.440   3.909   5.041  1.6911  0.8636  1.0912
 3553SOL     OW22117   3.832   1.845   9.514 -0.2738  0.0894  0.7310
 3553SOL    HW122118   3.799   1.756   9.525  1.7050 -0.7566 -0.0478
 3553SOL    HW222119   3.878   1.851   9.598  1.0759  1.7026 -0.1205
 3554SOL     OW22120   0.143   3.577  12.618 -0.2440 -0.4037  0.3079
 3554SOL    HW122121   0.181   3.584  12.706 -1.3329 -4.8056  1.1340
 3554SOL    HW222122   0.113   3.487  12.628 -0.5034 -0.3356  0.1441
 3555SOL     OW22123   2.633   3.207   9.343  0.4524 -0.2519 -0.6614
 3555SOL    HW122124   2.610   3.190   9.434 -3.4799  2.3553 -1.1671
 3555SOL    HW222125   2.571   3.279   9.330  0.8333  0.5438  1.9734
 3556SOL     OW22126   3.408   3.833   5.866  0.4485  0.0992  0.3253
 3556SOL    HW122127   3.359   3.774   5.810  0.9115 -1.2179  1.3089
 3556SOL    HW222128   3.400   3.788   5.950 -2.2060 -0.8978 -0.4792
 3557SOL     OW22129   2.547   3.548  16.155  0.2911 -0.2736 -0.2240
 3557SOL    HW122130   2.614   3.606  16.191 -0.1940  0.5733 -0.6822
 3557SOL    HW222131   2.488   3.532  16.229  0.1763  0.4667 -0.1582
 3558SOL     OW22132   2.858   3.591  11.032  0.0196 -0.2355 -0.2963
 3558SOL    HW122133   2.867   3.507  10.988  1.7710  0.2519 -0.8766
 3558SOL    HW222134   2.948   3.605  11.062  0.0209  0.8673 -0.8099
 3559SOL     OW22135   4.656   3.369   1.250  0.1893  0.0308  0.2889
 3559SOL    HW122136   0.011   3.363   1.195  0.6447  0.6335  0.8634
 3559SOL    HW222137   4.608   3.426   1.190  1.5931  1.3503  0.4147
 3560SOL     OW22138   0.699   3.213  11.918  0.1305  0.4625 -0.3508
 3560SOL    HW122139   0.740   3.128  11.902  0.9136  0.9613 -0.9793
 3560SOL    HW222140   0.745   3.256  11.991 -0.0820  0.0371  0.0345
 3561SOL     OW22141   4.377   2.690   2.357 -0.0923  0.2643  0.4406
 3561SOL    HW122142   4.422   2.715   2.437  1.1413  0.0115 -0.1761
 3561SOL    HW222143   4.373   2.769   2.303  1.1512 -1.2853 -1.9389
 3562SOL     OW22144   2.402   1.831   5.069  0.2962 -0.4060 -0.1177
 3562SOL    HW122145   2.312   1.811   5.043  1.0027 -3.4384 -0.1423
 3562SOL    HW222146   2.393   1.841   5.164  0.3061  3.2014 -0.5026
 3563SOL     OW22147   4.186   3.570   2.028  0.7443 -0.4448  0.1050
 3563SOL    HW122148   4.228   3.645   1.986  0.6936 -1.9748 -2.6721
 3563SOL    HW222149   4.117   3.563   1.962  1.3086  0.8204 -0.6190
 3564SOL     OW22150   2.168   0.092  10.185  0.7075 -0.0088  0.0642
 3564SOL    HW122151   2.160   4.720  10.197 -0.8529 -0.0360 -1.1802
 3564SOL    HW222152   2.195   0.129  10.270  2.7405  2.7379 -1.7488
 3565SOL     OW22153   4.038   4.222  12.172  0.0341  0.4660 -0.3764
 3565SOL    HW122154   4.024   4.142  12.121  1.4499 -2.0120  3.2070
 3565SOL    HW222155   4.115   4.195  12.220 -0.8381  1.5522  1.6272
 3566SOL     OW22156   3.266   4.483   4.263 -0.0578  0.2378  0.4268
 3566SOL    HW122157   3.311   4.449   4.186  0.1378  1.3835  0.0351
 3566SOL    HW222158   3.238   4.567   4.226  0.3488  0.5439  0.8089
 3567SOL     OW22159   2.848   0.155   7.594 -0.3829  0.3590  0.1952
 3567SOL    HW122160   2.800   0.158   7.677 -1.2285  1.4068 -0.3287
 3567SOL    HW222161   2.886   0.067   7.594 -1.4223 -0.0897  1.6617
 3568SOL     OW22162   2.116   4.648   9.818  0.1325 -0.1209  0.2378
 3568SOL    HW122163   2.050   4.632   9.886 -0.1494 -0.7399 -0.1724
 3568SOL    HW222164   2.183   4.704   9.856 -1.0825  2.6562 -1.6753
 3569SOL     OW22165   3.382   4.593   2.566 -0.0014  0.7500  0.6182
 3569SOL    HW122166   3.415   4.568   2.480 -1.3797 -1.1326  0.6356
 3569SOL    HW222167   3.405   4.520   2.623 -1.9191 -0.9498 -0.8189
 3570SOL     OW22168   0.932   4.245  10.101 -0.0543  0.4552 -0.2021
 3570SOL    HW122169   0.837   4.256  10.104  0.0748  1.2345  1.1340
 3570SOL    HW222170   0.965   4.317  10.155  1.8330  0.4162 -1.2852
 3571SOL     OW22171   2.784   2.263   4.263 -1.2274 -0.1140 -0.0320
 3571SOL    HW122172   2.859   2.320   4.249 -0.2265 -1.5853 -0.6063
 3571SOL    HW222173   2.803   2.192   4.325 -2.1685 -0.3811 -0.0354
 3572SOL     OW22174   2.868   3.258  12.621  0.0196 -0.5160  0.0791
 3572SOL    HW122175   2.857   3.349  12.649 -2.8769 -0.5214 -1.0602
 3572SOL    HW222176   2.963   3.250  12.627 -0.2088 -1.8325  1.8908
 3573SOL     OW22177   3.499   1.754  10.008 -0.2708  0.0681  0.3040
 3573SOL    HW122178   3.490   1.659  10.007  1.2557 -0.0610 -1.2669
 3573SOL    HW222179   3.482   1.779  10.099  2.9140 -0.7021  1.1257
 3574SOL     OW22180   1.482   3.045  15.094 -0.4950 -0.5962 -0.1608
 3574SOL    HW122181   1.451   3.039  15.004 -0.4706  1.0856 -0.2810
 3574SOL    HW222182   1.402   3.046  15.147 -0.4472 -1.5968 -0.0710
 3575SOL     OW22183   4.417   3.260   1.749  0.2921 -0.1823 -0.2600
 3575SOL    HW122184   4.453   3.185   1.702 -0.1806 -1.7264  1.8042
 3575SOL    HW222185   4.495   3.303   1.784 -1.0834  0.6269  1.8507
 3576SOL     OW22186   3.609   0.451   6.153 -0.1080 -0.2441  0.5017
 3576SOL    HW122187   3.521   0.451   6.191  0.3660 -0.5344  1.6071
 3576SOL    HW222188   3.608   0.368   6.106 -1.0779  0.3811 -0.5810
 3577SOL     OW22189   3.149   4.103   1.734 -0.3272  0.4317 -0.2595
 3577SOL    HW122190   3.173   4.137   1.820  0.7073 -2.2941  0.5070
 3577SOL    HW222191   3.121   4.191   1.709 -0.0829  0.4815 -0.3575
 3578SOL     OW22192   1.183   0.636   6.385  0.4864  0.0026 -0.1736
 3578SOL    HW122193   1.166   0.558   6.437  2.5178 -0.3763 -0.0851
 3578SOL    HW222194   1.092   0.660   6.365  0.8339 -0.1911 -1.9919
 3579SOL     OW22195   0.707   1.307   0.461 -0.2128  0.2602  0.4667
 3579SOL    HW122196   0.668   1.350   0.537  1.3366  0.4865  1.1201
 3579SOL    HW222197   0.785   1.270   0.502  0.6018  0.8409 -0.5728
 3580SOL     OW22198   3.978   4.488  13.639  0.0796 -0.4672 -0.7756
 3580SOL    HW122199   3.981   4.497  13.543  0.3511 -1.1184 -0.8283
 3580SOL    HW222200   4.064   4.527  13.656 -1.3240  2.4804 -0.5163
 3581SOL     OW22201   4.532   3.327  14.079 -0.2886  0.4569  0.2026
 3581SOL    HW122202   4.583   3.261  14.030 -1.0004 -0.2180  0.3708
 3581SOL    HW222203   4.581   3.328  14.161 -0.0276 -0.3665  0.0653
 3582SOL     OW22204   3.656   2.479   4.292  0.2665 -0.5732  0.8658
 3582SOL    HW122205   3.618   2.560   4.258 -0.5904 -2.2184 -2.0865
 3582SOL    HW222206   3.748   2.498   4.277 -0.2925  0.4588 -1.1763
 3583SOL     OW22207   2.192   0.636   4.286  0.2890  0.6350  0.4048
 3583SOL    HW122208   2.123   0.662   4.347 -1.3484 -0.9003 -0.7780
 3583SOL    HW222209   2.195   0.540   4.287 -0.3159  0.6225  1.7225
 3584SOL     OW22210   0.081   0.810   7.439 -0.3776  0.3079  0.0068
 3584SOL    HW122211   0.023   0.843   7.508  0.0509  0.5433  0.2521
 3584SOL    HW222212   0.137   0.746   7.483  0.6808  0.3775 -1.2395
 3585SOL     OW22213   3.432   2.981   4.843 -0.8457 -0.6486  0.8117
 3585SOL    HW122214   3.399   2.898   4.809  0.7667 -1.8483  2.2050
 3585SOL    HW222215   3.445   3.028   4.761 -0.1249  0.2546  1.4507
 3586SOL     OW22216   0.658   1.420   7.112  0.3494  0.1805 -0.1348
 3586SOL    HW122217   0.703   1.482   7.054  0.5036  0.5755  0.4049
 3586SOL    HW222218   0.604   1.480   7.163  2.1642  0.0058  1.9725
 3587SOL     OW22219   1.388   1.034  17.672  0.1048 -0.0149 -0.2510
 3587SOL    HW122220   1.440   1.091  17.616  1.0572 -1.5852 -0.9567
 3587SOL    HW222221   1.441   0.956  17.653 -0.2344 -0.6074  1.2670
 3588SOL     OW22222   2.636   3.427   6.800 -0.2524  0.4446  0.5618
 3588SOL    HW122223   2.617   3.429   6.706  1.6748  1.1037  0.1941
 3588SOL    HW222224   2.555   3.389   6.834 -0.4277 -0.0103 -0.3572
 3589SOL     OW22225   1.857   0.098   3.324 -0.0847  0.2216 -0.0291
 3589SOL    HW122226   1.889   0.179   3.364 -2.0923  0.3514  1.2683
 3589SOL    HW222227   1.801   0.129   3.253  1.1145  0.5014 -0.8695
 3590SOL     OW22228   3.411   2.023   0.644  0.6352  0.4065 -0.2555
 3590SOL    HW122229   3.482   1.963   0.665  1.2660  0.9449 -0.8283
 3590SOL    HW222230   3.413   2.085   0.717  1.6306  1.0081 -0.7833
 3591SOL     OW22231   1.472   1.649   5.857  0.2983 -0.2183  0.4349
 3591SOL    HW122232   1.528   1.693   5.793 -1.7378  0.5893 -0.8109
 3591SOL    HW222233   1.433   1.724   5.902 -0.6686 -1.4545  1.6175
 3592SOL     OW22234   2.568   1.352   2.895  0.1772  0.1444 -0.3588
 3592SOL    HW122235   2.491   1.353   2.838 -0.0886 -2.8264 -0.0285
 3592SOL    HW222236   2.545   1.407   2.970  1.3312 -1.0434  0.8740
 3593SOL     OW22237   3.590   3.503   6.510  0.0270  0.0898  0.2262
 3593SOL    HW122238   3.606   3.409   6.498 -1.0109  0.0109 -0.5575
 3593SOL    HW222239   3.518   3.495   6.573 -1.1844 -1.2611 -1.3131
 3594SOL     OW22240   3.991   0.336  15.238 -0.6361 -0.1013  0.0875
 3594SOL    HW122241   4.075   0.343  15.193 -1.5776 -1.0175 -1.8505
 3594SOL    HW222242   3.929   0.348  15.166  1.0828 -0.2980 -1.4409
 3595SOL     OW22243   0.107   3.150   9.155  0.0495  0.3190 -0.0153
 3595SOL    HW122244   0.069   3.068   9.186 -1.3712  1.1354  0.4037
 3595SOL    HW222245   0.061   3.205   9.218 -1.3131 -1.4966  0.5691
 3596SOL     OW22246   0.617   3.892   8.482 -0.1131  0.1438  0.3297
 3596SOL    HW122247   0.590   3.979   8.510  1.6114 -0.0885  2.6838
 3596SOL    HW222248   0.653   3.861   8.565  0.0270  1.3223  0.7027
 3597SOL     OW22249   4.317   4.228   5.605 -0.0682  0.3758 -0.1278
 3597SOL    HW122250   4.408   4.202   5.594 -0.6745 -1.1689 -1.4726
 3597SOL    HW222251   4.278   4.200   5.687  2.0708 -0.1121  0.7014
 3598SOL     OW22252   2.977   3.026  15.409 -0.0660 -0.3220 -0.7149
 3598SOL    HW122253   2.995   3.063  15.495  0.9169 -1.3069 -0.4938
 3598SOL    HW222254   3.034   3.074  15.349  3.7432 -2.4909  1.1285
 3599SOL     OW22255   4.104   0.650   1.288 -0.5806 -0.5175  0.1403
 3599SOL    HW122256   4.163   0.580   1.261 -0.4991  0.3166 -1.8251
 3599SOL    HW222257   4.148   0.733   1.272  2.1967 -1.4891  2.8423
 3600SOL     OW22258   2.829   4.236   9.658 -0.4857 -0.3862  1.0293
 3600SOL    HW122259   2.801   4.278   9.739 -1.6930 -1.4638  1.1699
 3600SOL    HW222260   2.905   4.291   9.643  0.6567 -2.1813  0.2157
 3601SOL     OW22261   1.197   2.867  15.780 -0.0980 -0.8003  0.7371
 3601SOL    HW122262   1.138   2.860  15.704  1.6270  1.0295 -0.7642
 3601SOL    HW222263   1.143   2.830  15.850 -1.0889  2.2285  1.5491
 3602SOL     OW22264   3.371   4.106  13.363 -0.7895 -0.0121 -0.0336
 3602SOL    HW122265   3.336   4.038  13.420 -1.2510 -0.9928 -1.4664
 3602SOL    HW222266   3.292   4.137  13.317 -2.2108 -0.8031  1.9061
 3603SOL     OW22267   4.469   0.356   8.742 -0.3959  0.3761  0.2455
 3603SOL    HW122268   4.509   0.442   8.737  0.6395 -0.2375 -2.0917
 3603SOL    HW222269   4.538   0.301   8.779  1.3908  0.0216 -3.6077
 3604SOL     OW22270   2.657   3.742  11.235  0.1978  0.2730 -0.3305
 3604SOL    HW122271   2.728   3.692  11.196 -1.5208 -2.6039  0.2328
 3604SOL    HW222272   2.580   3.694  11.204  0.4518 -0.8707  0.8160
 3605SOL     OW22273   2.223   3.216   2.187 -0.1742  0.1491  0.5611
 3605SOL    HW122274   2.245   3.161   2.112  1.2578 -0.3779  1.3561
 3605SOL    HW222275   2.173   3.283   2.139 -0.6565 -1.2886 -0.9485
 3606SOL     OW22276   3.759   2.183   7.709 -0.0974  0.1332 -0.1414
 3606SOL    HW122277   3.793   2.150   7.792  1.6688 -0.4692 -1.1022
 3606SOL    HW222278   3.784   2.275   7.708  2.9286 -0.6919  1.2292
 3607SOL     OW22279   3.028   2.305  15.871 -0.5861  0.6004 -0.3316
 3607SOL    HW122280   3.071   2.288  15.787  0.0732 -0.6655  0.2635
 3607SOL    HW222281   3.099   2.336  15.927 -0.2651 -0.2102 -0.2901
 3608SOL     OW22282   0.325   3.267  14.479 -0.1921  0.1721  0.0716
 3608SOL    HW122283   0.347   3.223  14.396  0.5944 -2.4144  1.6422
 3608SOL    HW222284   0.410   3.260  14.522 -0.1660  1.7753  0.2712
 3609SOL     OW22285   3.288   2.527   0.244  0.0183 -0.0227  0.2025
 3609SOL    HW122286   3.322   2.439   0.228  0.2108  0.1737 -0.4472
 3609SOL    HW222287   3.259   2.516   0.335 -1.0456 -1.5166 -0.3087
 3610SOL     OW22288   3.260   3.577   4.248  0.3096  0.5556 -0.5016
 3610SOL    HW122289   3.199   3.542   4.183  0.4565  0.9720 -0.8683
 3610SOL    HW222290   3.338   3.530   4.218 -0.0285 -1.8817  2.4879
 3611SOL     OW22291   1.753   4.471   4.800  0.4887  0.3863  0.3452
 3611SOL    HW122292   1.815   4.398   4.799  1.2117  0.9685  1.7687
 3611SOL    HW222293   1.686   4.438   4.861 -2.1596  2.1733 -1.5780
 3612SOL     OW22294   0.413   0.396  16.434 -0.5907  0.1816 -1.2182
 3612SOL    HW122295   0.344   0.356  16.486 -0.8847  0.2284 -1.5745
 3612SOL    HW222296   0.458   0.453  16.496 -1.0146 -1.8758  0.9593
 3613SOL     OW22297   0.247   4.133   5.174  0.2832  0.1345 -0.1406
 3613SOL    HW122298   0.253   4.120   5.079  4.0164  1.2082 -0.0740
 3613SOL    HW222299   0.330   4.095   5.202 -0.8684 -1.7960  0.6563
 3614SOL     OW22300   4.307   1.747  15.374  0.4944 -0.0156 -0.1246
 3614SOL    HW122301   4.222   1.785  15.394 -0.9392 -3.6616  0.5853
 3614SOL    HW222302   4.302   1.657  15.405 -0.6047  0.5428  1.2637
 3615SOL     OW22303   2.017   3.984   5.371  0.0537 -0.0033  0.7224
 3615SOL    HW122304   1.947   4.001   5.308  1.0494 -0.3313 -0.4633
 3615SOL    HW222305   1.993   3.892   5.387 -0.4078  0.0166  0.1288
 3616SOL     OW22306   3.537   0.902   3.499  0.0307  0.6390 -0.5996
 3616SOL    HW122307   3.514   0.810   3.484 -0.6652  0.4367  1.6626
 3616SOL    HW222308   3.488   0.911   3.580 -0.1311  0.5648 -0.6891
 3617SOL     OW22309   3.748   3.911   8.629  0.3304 -0.4894 -0.1062
 3617SOL    HW122310   3.660   3.948   8.628  0.4695 -0.0957  2.7935
 3617SOL    HW222311   3.767   3.916   8.535  0.3226 -0.6564 -0.1162
 3618SOL     OW22312   4.583   4.477   2.053  0.2655 -0.3860 -0.4062
 3618SOL    HW122313   4.566   4.508   1.965  1.3887 -2.2238 -1.2785
 3618SOL    HW222314   4.665   4.429   2.040  1.0835  0.8454  0.2689
 3619SOL     OW22315   3.341   3.545   8.322 -0.2260  0.2984 -0.2580
 3619SOL    HW122316   3.399   3.516   8.392  0.0962  1.3956 -0.0635
 3619SOL    HW222317   3.259   3.550   8.371  0.3955  0.9715  0.7010
 3620SOL     OW22318   4.240   1.648   7.092 -0.2914  0.5345 -0.0347
 3620SOL    HW122319   4.307   1.663   7.026  1.1999  0.6810  1.5316
 3620SOL    HW222320   4.173   1.716   7.084  0.8906  1.4889 -1.5904
 3621SOL     OW22321   3.109   3.737  15.846 -0.3385 -0.6242  0.2159
 3621SOL    HW122322   3.149   3.784  15.772  1.1450 -1.9952  0.1518
 3621SOL    HW222323   3.086   3.652  15.808  2.1206 -0.7235 -1.0626
 3622SOL     OW22324   4.466   2.834   3.913 -0.2600  0.1313 -0.0364
 3622SOL    HW122325   4.374   2.810   3.904 -0.3017  0.6831 -1.1698
 3622SOL    HW222326   4.486   2.854   3.821 -1.8910 -1.5642 -0.7532
 3623SOL     OW22327   3.386   0.896   2.703 -0.0192  0.3441  0.0189
 3623SOL    HW122328   3.394   0.850   2.619 -0.0263 -2.0236  1.3162
 3623SOL    HW222329   3.413   0.985   2.678  0.5869  0.8682  2.5965
 3624SOL     OW22330   2.268   3.069  11.184 -0.1564  0.1744 -0.3448
 3624SOL    HW122331   2.173   3.063  11.191 -0.3470  1.3663 -1.8510
 3624SOL    HW222332   2.283   3.085  11.090 -1.4860 -0.6829 -0.7103
 3625SOL     OW22333   3.812   1.426  12.943 -0.3445  0.1895 -0.0749
 3625SOL    HW122334   3.835   1.334  12.930 -1.7123 -0.3338  1.2228
 3625SOL    HW222335   3.850   1.448  13.028  1.5095 -1.4414 -0.4628
 3626SOL     OW22336   1.557   3.892   2.918  0.4487 -0.2294 -0.1687
 3626SOL    HW122337   1.650   3.893   2.894  0.3924 -1.3444 -0.4272
 3626SOL    HW222338   1.553   3.810   2.967  1.4932 -0.3733 -0.3237
 3627SOL     OW22339   1.659   1.071   5.959  0.5659 -0.2166  0.1812
 3627SOL    HW122340   1.623   1.116   6.036  2.0347  0.7034  0.3430
 3627SOL    HW222341   1.721   1.142   5.940  0.8046 -0.3673  0.4045
 3628SOL     OW22342   1.119   0.573  16.580  0.2881 -0.5671  0.5554
 3628SOL    HW122343   1.098   0.646  16.638  0.6071  0.0061 -0.0553
 3628SOL    HW222344   1.198   0.610  16.541 -0.8680  1.4040  0.0961
 3629SOL     OW22345   4.340   0.704   4.433 -0.1485 -0.3274 -0.0004
 3629SOL    HW122346   4.253   0.730   4.464 -0.8241 -3.4203  0.6655
 3629SOL    HW222347   4.382   0.673   4.513 -1.6199  1.3588  1.4498
 3630SOL     OW22348   0.556   4.577   7.737 -0.5774 -0.8015 -0.3532
 3630SOL    HW122349   0.584   4.492   7.702  1.3620 -0.9491  1.5292
 3630SOL    HW222350   0.534   4.614   7.652 -0.5856 -2.3453 -1.0304
 3631SOL     OW22351   0.051   1.864   7.063 -0.3579  0.1833  0.0851
 3631SOL    HW122352   0.040   1.797   7.132 -2.0554 -1.1414 -1.4785
 3631SOL    HW222353   0.135   1.841   7.023  0.3230 -1.4434  2.4270
 3632SOL     OW22354   4.634   0.725   5.394 -0.1667  0.0698  0.5632
 3632SOL    HW122355   4.554   0.674   5.406  2.2722 -3.7275  0.5787
 3632SOL    HW222356   4.684   0.679   5.462  0.9470  2.4301  1.3433
 3633SOL     OW22357   3.160   0.566   7.852 -0.1591  0.1490  0.2975
 3633SOL    HW122358   3.207   0.621   7.914 -0.0100  0.4304 -0.0688
 3633SOL    HW222359   3.077   0.548   7.897  0.7086  2.9809  2.9787
 3634SOL     OW22360   1.043   2.923   4.315  0.2035  0.2438  0.2736
 3634SOL    HW122361   1.044   2.830   4.292  1.0270  0.3202 -0.0009
 3634SOL    HW222362   1.069   2.953   4.227 -1.6111  0.2124 -0.2609
 3635SOL     OW22363   0.504   0.206   1.352  0.2712  0.3635  0.5418
 3635SOL    HW122364   0.488   0.153   1.274 -1.2095 -1.3895  2.0353
 3635SOL    HW222365   0.418   0.204   1.392  1.1608 -1.5247  2.3313
 3636SOL     OW22366   4.075   1.224  14.763 -0.0062 -0.3979  0.6154
 3636SOL    HW122367   4.161   1.242  14.725  0.4912  0.2470  2.0649
 3636SOL    HW222368   4.083   1.281  14.839  0.3556 -1.1378  1.1351
 3637SOL     OW22369   1.961   2.877   8.621 -0.4760 -0.1993 -0.2632
 3637SOL    HW122370   2.040   2.859   8.571  0.0285 -0.8272  0.7563
 3637SOL    HW222371   1.913   2.795   8.608 -1.2984  0.5202 -1.7915
 3638SOL     OW22372   0.206   1.416   2.890  0.1320 -0.0354 -0.2822
 3638SOL    HW122373   0.218   1.403   2.796  2.2973 -1.8256  0.2353
 3638SOL    HW222374   0.293   1.448   2.916 -0.3347  1.5680 -0.6928
 3639SOL     OW22375   1.267   1.760  15.715 -0.0686  0.1348  0.4084
 3639SOL    HW122376   1.361   1.780  15.723 -0.6339  2.5470  0.7461
 3639SOL    HW222377   1.271   1.697  15.787  1.4388 -0.1459  0.0840
 3640SOL     OW22378   0.955   0.787   3.304 -0.1718 -0.4132  0.0913
 3640SOL    HW122379   0.897   0.717   3.273 -0.3614 -0.3846  0.3881
 3640SOL    HW222380   1.034   0.733   3.294  0.1675  0.3566 -1.4696
 3641SOL     OW22381   0.047   0.017   6.631 -0.2893 -0.6527 -0.3511
 3641SOL    HW122382   0.068   0.110   6.625 -2.3996 -0.0363  1.5847
 3641SOL    HW222383   0.128   4.690   6.624  0.5762  0.9119 -1.3658
 3642SOL     OW22384   1.698   4.344   0.113  0.1306  0.4263 -0.2775
 3642SOL    HW122385   1.737   4.348   0.200  0.6680 -0.5496 -0.4800
 3642SOL    HW222386   1.640   4.268   0.123 -0.6280  1.0432  0.0965
 3643SOL     OW22387   0.781   1.910   8.666 -0.0501  0.0300 -0.2237
 3643SOL    HW122388   0.724   1.934   8.593  1.9166  1.7231 -1.1897
 3643SOL    HW222389   0.753   1.824   8.698 -0.2167 -0.7268 -2.4194
 3644SOL     OW22390   2.833   0.344  11.208  0.2840  0.8392  0.4198
 3644SOL    HW122391   2.826   0.312  11.118  0.7035  3.6552 -0.6067
 3644SOL    HW222392   2.880   0.267  11.239 -0.0778  2.3436  4.6719
 3645SOL     OW22393   3.929   1.419   7.684  0.1193 -0.0528  0.1060
 3645SOL    HW122394   3.896   1.329   7.691  1.0647 -0.8183 -4.9070
 3645SOL    HW222395   3.876   1.448   7.609  0.9755 -0.4503 -0.6575
 3646SOL     OW22396   3.466   3.593  16.805 -0.5624 -0.2038 -0.1231
 3646SOL    HW122397   3.489   3.681  16.837  0.9891 -0.6242 -0.0882
 3646SOL    HW222398   3.372   3.585  16.815 -0.7962  2.8020  0.0434
 3647SOL     OW22399   3.938   4.226   6.222  0.4582 -0.1489 -0.2122
 3647SOL    HW122400   3.868   4.200   6.162  0.4119  1.4572 -0.8527
 3647SOL    HW222401   4.001   4.155   6.207 -0.6598 -0.5078 -3.3739
 3648SOL     OW22402   0.104   3.194   3.160 -0.2883 -0.5391 -0.1984
 3648SOL    HW122403   0.070   3.123   3.214  1.3711 -0.7585  0.5499
 3648SOL    HW222404   0.138   3.144   3.085 -0.1312 -2.4383  1.1350
 3649SOL     OW22405   4.215   2.094  10.693 -0.3125  0.0070  0.2168
 3649SOL    HW122406   4.124   2.085  10.722 -0.5081  0.9506 -0.1020
 3649SOL    HW222407   4.226   2.184  10.726  1.2068  0.1449 -0.6904
 3650SOL     OW22408   3.973   1.406   1.212 -0.2552 -0.3621  0.3055
 3650SOL    HW122409   3.903   1.393   1.149  0.9324 -1.6722 -0.7413
 3650SOL    HW222410   4.050   1.373   1.164  0.3738  0.8719  0.4709
 3651SOL     OW22411   1.520   3.845  15.146 -0.1232  0.6488 -0.2366
 3651SOL    HW122412   1.594   3.844  15.086  0.0064 -0.6523 -0.0539
 3651SOL    HW222413   1.497   3.937  15.134 -2.6964 -0.0127 -0.4430
 3652SOL     OW22414   4.576   2.330   5.094 -0.2099 -0.0974 -0.1351
 3652SOL    HW122415   4.648   2.369   5.144  0.2150 -0.8848 -0.1240
 3652SOL    HW222416   4.618   2.327   5.008 -0.8408  0.0099 -0.4467
 3653SOL     OW22417   4.586   2.988  14.263 -0.7785  0.0655  0.1019
 3653SOL    HW122418   4.617   3.047  14.194  1.0711 -0.8487  0.1661
 3653SOL    HW222419   4.650   3.010  14.331  0.7296  0.0049 -1.2996
 3654SOL     OW22420   1.096   3.514  12.542 -0.6142 -0.5456  0.1163
 3654SOL    HW122421   1.006   3.543  12.527 -0.0625  0.5843 -1.0631
 3654SOL    HW222422   1.099   3.481  12.631  1.4175  0.0187  0.2665
 3655SOL     OW22423   0.492   3.701   0.601  0.2258  0.1401  0.3399
 3655SOL    HW122424   0.573   3.674   0.644  0.5795  2.4898  1.1671
 3655SOL    HW222425   0.471   3.622   0.551 -1.1798  1.2402 -0.7964
 3656SOL     OW22426   0.287   0.506   9.228  0.0261  0.0102 -0.2892
 3656SOL    HW122427   0.239   0.588   9.216  0.7257  0.2216 -1.7362
 3656SOL    HW222428   0.287   0.504   9.323  1.3072  1.2084 -0.2634
 3657SOL     OW22429   3.305   0.784   2.295 -0.0378  0.5325 -0.1457
 3657SOL    HW122430   3.328   0.692   2.285  0.8555  0.4875  2.3426
 3657SOL    HW222431   3.255   0.809   2.217  0.6138  0.1078 -0.6993
 3658SOL     OW22432   1.169   2.057   3.961  0.4918 -0.3214  0.6689
 3658SOL    HW122433   1.174   1.962   3.951  0.5472 -0.2908  0.3837
 3658SOL    HW222434   1.135   2.065   4.050 -0.7868 -2.4198  0.3564
 3659SOL     OW22435   4.266   3.069  10.699  0.1905 -0.0826  0.0112
 3659SOL    HW122436   4.312   3.108  10.774 -0.0088 -2.5409  1.4010
 3659SOL    HW222437   4.179   3.068  10.738 -0.5273  0.5309 -1.5756
 3660SOL     OW22438   4.689   4.692  11.209  0.3941  0.9528  0.7124
 3660SOL    HW122439   4.721   4.638  11.137 -0.9640  0.4838  0.4670
 3660SOL    HW222440   4.650   0.042  11.161  1.2257 -0.4720 -2.0623
 3661SOL     OW22441   1.381   3.518   7.031 -0.8255 -0.1885 -0.2234
 3661SOL    HW122442   1.464   3.470   7.026  0.4747  1.9913 -0.0457
 3661SOL    HW222443   1.332   3.478   6.959 -1.6762  0.0683  0.2152
 3662SOL     OW22444   4.531   2.006  12.764  0.0450 -0.9718 -0.4014
 3662SOL    HW122445   4.559   1.922  12.727 -1.5839 -1.5128 -0.3886
 3662SOL    HW222446   4.449   2.019  12.716 -0.1239  1.0619  0.4345
 3663SOL     OW22447   0.215   1.591   0.921 -0.2590 -0.2127 -0.3364
 3663SOL    HW122448   0.119   1.598   0.914 -0.2598 -0.4790 -0.5574
 3663SOL    HW222449   0.218   1.496   0.910 -1.9086  0.0364 -2.8268
 3664SOL     OW22450   4.461   2.028   2.412  0.2094 -1.0524 -0.2129
 3664SOL    HW122451   4.442   2.015   2.505 -0.5777 -0.8024 -0.3400
 3664SOL    HW222452   4.404   1.968   2.363 -1.9027  0.5691  0.2701
 3665SOL     OW22453   0.484   2.217  15.560 -0.8335  0.3995  0.4306
 3665SOL    HW122454   0.455   2.173  15.480 -0.8926  1.2097 -0.0013
 3665SOL    HW222455   0.498   2.152  15.629 -4.2940 -0.2403  0.5259
 3666SOL     OW22456   0.190   0.590   7.531 -0.6459  0.0344  0.2807
 3666SOL    HW122457   0.135   0.512   7.538  1.8644 -1.9136 -1.7884
 3666SOL    HW222458   0.229   0.580   7.445  0.2261  0.8997  0.5748
 3667SOL     OW22459   3.010   4.709   2.316  0.5474  0.6077 -0.1873
 3667SOL    HW122460   3.067   4.714   2.393  0.0419  0.7985  0.1675
 3667SOL    HW222461   3.021   4.615   2.302  0.0845  0.7262 -1.3392
 3668SOL     OW22462   2.682   1.756   7.507  0.4743 -0.0466  0.2199
 3668SOL    HW122463   2.668   1.663   7.522 -0.6868 -0.1195 -1.3396
 3668SOL    HW222464   2.710   1.776   7.597 -0.0029  1.5909  0.0061
 3669SOL     OW22465   1.417   4.266   6.387  0.2916  0.2667 -0.2857
 3669SOL    HW122466   1.484   4.266   6.318  2.2911 -0.2012  1.6426
 3669SOL    HW222467   1.462   4.207   6.448  0.7545  0.0984 -0.7890
 3670SOL     OW22468   0.159   4.111   6.933  0.2748  0.4447 -0.5191
 3670SOL    HW122469   0.182   4.093   6.842  1.0611 -2.1767  0.2247
 3670SOL    HW222470   0.109   4.192   6.926  1.6991  1.3801  0.0032
 3671SOL     OW22471   3.491   0.467   5.615  0.2984 -0.1305  0.2326
 3671SOL    HW122472   3.427   0.415   5.565  1.4530 -1.2224 -0.0919
 3671SOL    HW222473   3.433   0.508   5.679  1.0790 -0.1248  0.9256
 3672SOL     OW22474   3.645   0.489   9.354 -0.4800 -0.1186 -0.0291
 3672SOL    HW122475   3.739   0.505   9.343 -0.5446 -0.2341 -0.7815
 3672SOL    HW222476   3.610   0.460   9.270  0.7377  1.3533 -1.0389
 3673SOL     OW22477   3.697   4.591   5.296  0.5296  0.1196 -0.0084
 3673SOL    HW122478   3.639   4.514   5.290  0.8562 -0.3686  2.8339
 3673SOL    HW222479   3.695   4.612   5.203 -0.5561 -1.3940 -0.3382
 3674SOL     OW22480   3.554   3.008  16.800  0.7575 -0.1120  0.3212
 3674SOL    HW122481   3.648   3.024  16.793  0.6507  0.0168 -0.7740
 3674SOL    HW222482   3.529   3.084  16.853 -0.0336 -0.9686  1.1672
 3675SOL     OW22483   3.501   0.355  16.391 -0.5769 -0.2448 -0.0215
 3675SOL    HW122484   3.516   0.403  16.473  1.5638 -0.7973 -0.0920
 3675SOL    HW222485   3.534   0.409  16.319  2.3669  0.7065  2.0494
 3676SOL     OW22486   1.948   3.630  11.703 -0.5341 -0.3017 -0.1843
 3676SOL    HW122487   2.010   3.576  11.653 -0.5816 -1.5461  1.0994
 3676SOL    HW222488   2.010   3.701  11.722  1.5790 -1.6806 -1.9444
 3677SOL     OW22489   2.439   4.467   2.762 -0.3882 -0.3662 -0.0810
 3677SOL    HW122490   2.401   4.532   2.821  1.3460 -0.3049  0.9584
 3677SOL    HW222491   2.526   4.451   2.797 -0.7283  1.8780  1.7549
 3678SOL     OW22492   3.842   1.915  12.328 -0.3319 -0.0213 -0.2284
 3678SOL    HW122493   3.867   1.982  12.264  3.7990 -0.4922  0.8983
 3678SOL    HW222494   3.746   1.910  12.321 -0.3160  0.4272 -0.8579
 3679SOL     OW22495   1.424   0.416   1.382  0.1398  0.0074  0.7925
 3679SOL    HW122496   1.352   0.436   1.441 -1.2894  1.1876 -1.3463
 3679SOL    HW222497   1.494   0.455   1.433 -0.6738  1.0632  1.0863
 3680SOL     OW22498   0.580   4.681   5.245  0.0602  0.6281 -0.1633
 3680SOL    HW122499   0.589   4.722   5.159  2.3163  1.4884  0.5024
 3680SOL    HW222500   0.492   4.711   5.270  0.5254  0.8644  1.2001
 3681SOL     OW22501   2.330   2.988  11.467  0.4229 -0.1750  0.3067
 3681SOL    HW122502   2.265   2.975  11.398  0.2646  1.3780  0.1481
 3681SOL    HW222503   2.401   3.031  11.418  0.2419  0.3964  0.5431
 3682SOL     OW22504   1.420   2.980   9.470  0.3335 -0.3457 -0.7635
 3682SOL    HW122505   1.486   3.037   9.509  2.5958 -3.1554 -0.4569
 3682SOL    HW222506   1.347   3.012   9.522 -0.6175 -1.8158 -1.1943
 3683SOL     OW22507   0.149   0.956   7.232  0.1363 -0.3083 -0.3963
 3683SOL    HW122508   0.066   0.999   7.215 -0.1699  0.0323  1.8563
 3683SOL    HW222509   0.131   0.893   7.302 -1.0661 -0.3139 -0.7224
 3684SOL     OW22510   1.154   4.528   7.454  0.1400 -0.3243 -0.5981
 3684SOL    HW122511   1.064   4.496   7.460  0.3544 -0.7214  0.5765
 3684SOL    HW222512   1.202   4.445   7.462 -0.8886 -0.8705  0.0415
 3685SOL     OW22513   0.163   4.367  11.848  0.0904 -0.2118 -0.2191
 3685SOL    HW122514   0.213   4.302  11.799  1.0009  0.1500  0.2277
 3685SOL    HW222515   0.183   4.449  11.801 -1.3071 -0.4875 -1.3093
 3686SOL     OW22516   0.261   3.729   1.531 -0.0753 -0.1389 -0.2556
 3686SOL    HW122517   0.232   3.758   1.444  1.5068  1.5914 -0.2157
 3686SOL    HW222518   0.356   3.732   1.527 -0.0995  1.6324  0.4942
 3687SOL     OW22519   3.730   2.438  12.986  0.1468 -0.1442 -0.0693
 3687SOL    HW122520   3.646   2.399  12.964 -0.5227  1.4534 -0.3667
 3687SOL    HW222521   3.703   2.529  12.994 -3.1208 -1.0917 -0.5663
 3688SOL     OW22522   4.207   3.565   4.484 -0.4007 -0.4021  0.8057
 3688SOL    HW122523   4.232   3.644   4.436 -0.7388 -1.3985 -0.9828
 3688SOL    HW222524   4.148   3.526   4.421  2.0826 -1.4522 -0.8771
 3689SOL     OW22525   3.551   1.929  13.210  0.3309 -0.0571  0.3833
 3689SOL    HW122526   3.567   1.941  13.116 -0.6151 -0.5977  0.1551
 3689SOL    HW222527   3.479   1.992  13.221 -0.2827 -0.0236 -3.6518
 3690SOL     OW22528   0.331   1.912   5.229  0.0835 -0.2525  1.0455
 3690SOL    HW122529   0.375   1.848   5.173 -0.9208 -2.6414  2.9835
 3690SOL    HW222530   0.297   1.980   5.171  2.5965  1.2091  1.2608
 3691SOL     OW22531   1.993   0.710  11.214 -0.3976  0.0057 -0.0686
 3691SOL    HW122532   2.084   0.684  11.226 -0.3654  0.1939  0.0930
 3691SOL    HW222533   2.002   0.805  11.205 -0.7410 -0.0488 -0.9827
 3692SOL     OW22534   3.499   4.212   0.331  0.2019 -0.6601 -0.4000
 3692SOL    HW122535   3.558   4.144   0.299 -1.2326 -1.8119 -0.6204
 3692SOL    HW222536   3.530   4.217   0.421  0.3811 -0.4300 -0.4745
 3693SOL     OW22537   2.352   0.043   1.568  0.2667  0.5077  0.4924
 3693SOL    HW122538   2.415   4.714   1.619  0.0812  2.1224  2.3888
 3693SOL    HW222539   2.404   0.123   1.561  1.5367 -0.4100 -0.4066
 3694SOL     OW22540   0.699   0.203   5.415 -0.7591 -0.3845 -0.9590
 3694SOL    HW122541   0.786   0.180   5.446 -0.7258  2.3650  1.0191
 3694SOL    HW222542   0.667   0.123   5.374 -1.2477 -0.6282 -0.1070
 3695SOL     OW22543   1.264   1.855   4.139  0.6570 -0.0584 -0.0890
 3695SOL    HW122544   1.321   1.869   4.214 -0.3594 -0.4836  0.7629
 3695SOL    HW222545   1.310   1.775   4.115  1.3747 -0.1464  1.6125
 3696SOL     OW22546   0.767   0.015   9.913  1.0156 -0.3295  0.2079
 3696SOL    HW122547   0.755   0.009   9.818 -0.9867  0.3586  0.4070
 3696SOL    HW222548   0.840   0.077   9.912 -0.4841  1.4758  1.5579
 3697SOL     OW22549   4.226   2.495   8.265 -0.5667 -0.1923 -0.2621
 3697SOL    HW122550   4.189   2.560   8.206 -1.4137 -0.9563 -0.5710
 3697SOL    HW222551   4.283   2.553   8.315  0.1477  0.1479 -1.4756
 3698SOL     OW22552   4.200   3.859  11.140 -0.0188  0.3825 -0.6351
 3698SOL    HW122553   4.245   3.883  11.059  0.7936  2.6293  0.4964
 3698SOL    HW222554   4.114   3.845  11.099 -0.8599 -0.7832  1.5352
 3699SOL     OW22555   2.603   2.016  12.078 -0.0466 -0.2800 -0.3933
 3699SOL    HW122556   2.532   1.989  12.137 -2.3102  1.8737 -2.1376
 3699SOL    HW222557   2.653   1.935  12.065  0.2379 -0.1948  0.1561
 3700SOL     OW22558   4.641   3.959  12.829  0.6728 -0.7360  0.2152
 3700SOL    HW122559   4.682   3.967  12.915  0.6413 -0.9035  0.2460
 3700SOL    HW222560   4.566   4.016  12.848  1.2135  0.6944 -2.0769
 3701SOL     OW22561   4.163   0.848   7.013  0.5363 -0.0345  0.1548
 3701SOL    HW122562   4.096   0.914   7.031 -0.0994 -0.5672 -0.2714
 3701SOL    HW222563   4.214   0.856   7.094 -1.0083  2.2782  0.9080
 3702SOL     OW22564   2.263   3.378   8.360 -0.8448  0.3445  0.4014
 3702SOL    HW122565   2.347   3.375   8.314 -2.0521 -0.8322 -1.7109
 3702SOL    HW222566   2.268   3.303   8.419  0.2028 -1.2133 -1.6798
 3703SOL     OW22567   0.335   4.381  15.678  0.2285 -0.0150 -0.1815
 3703SOL    HW122568   0.376   4.465  15.700 -0.9810 -0.1307  2.5263
 3703SOL    HW222569   0.410   4.327  15.655 -2.5096 -2.6536 -2.8188
 3704SOL     OW22570   2.846   0.665   5.839 -0.0721 -0.3653  0.5817
 3704SOL    HW122571   2.939   0.645   5.824 -0.4106 -1.1767 -0.4461
 3704SOL    HW222572   2.850   0.759   5.858 -0.6036  0.6240 -4.2572
 3705SOL     OW22573   0.559   2.454   2.738 -0.4773  0.4923 -0.1201
 3705SOL    HW122574   0.546   2.549   2.734  1.7667  0.8197  0.3975
 3705SOL    HW222575   0.499   2.423   2.671 -2.1666 -0.4384  1.7935
 3706SOL     OW22576   2.230   0.774   6.544  0.1582 -0.2276  0.2898
 3706SOL    HW122577   2.241   0.688   6.584 -1.0641 -0.2233  0.6359
 3706SOL    HW222578   2.238   0.822   6.626 -4.0144 -0.5468  0.9001
 3707SOL     OW22579   0.157   0.493   3.798 -0.0523  0.3974 -0.4320
 3707SOL    HW122580   0.148   0.399   3.782 -1.8985  0.6365 -0.8036
 3707SOL    HW222581   0.252   0.507   3.800  0.0914 -0.7146  0.3638
 3708SOL     OW22582   2.928   3.591  11.484  0.2826 -0.2498 -0.2992
 3708SOL    HW122583   2.833   3.583  11.495  0.2893 -1.1401 -0.8346
 3708SOL    HW222584   2.959   3.567  11.571  3.7356  1.3589 -1.0781
 3709SOL     OW22585   1.543   4.295  12.774  0.2557  0.3520 -0.4117
 3709SOL    HW122586   1.559   4.312  12.866 -0.2366  2.7946 -0.7798
 3709SOL    HW222587   1.489   4.374  12.763  0.5535  0.4243 -1.3989
 3710SOL     OW22588   3.423   2.760   0.140  0.0843 -0.1074  0.2974
 3710SOL    HW122589   3.434   2.769   0.234  0.4196 -2.5096  0.4897
 3710SOL    HW222590   3.356   2.692   0.139 -0.4659  0.4364  0.4213
 3711SOL     OW22591   4.600   4.145   5.549 -0.3193  0.4008 -0.2279
 3711SOL    HW122592   4.552   4.116   5.472 -0.5144 -0.5902  0.2660
 3711SOL    HW222593   4.692   4.129   5.525 -1.1224 -3.4494 -0.8146
 3712SOL     OW22594   2.019   1.260  11.584  0.5418  0.4651  0.1562
 3712SOL    HW122595   2.044   1.243  11.493  2.0333 -1.3980  0.9234
 3712SOL    HW222596   1.959   1.334  11.575 -1.8565 -1.4938  0.1225
 3713SOL     OW22597   2.247   0.612  16.282 -0.9055 -0.2226 -0.1841
 3713SOL    HW122598   2.331   0.601  16.236  0.3153  3.6692  1.1907
 3713SOL    HW222599   2.192   0.647  16.212 -0.4888  0.6818 -0.0564
 3714SOL     OW22600   0.457   1.570   8.905  0.3251  0.0957 -0.2817
 3714SOL    HW122601   0.482   1.568   8.813  1.6858 -0.0339  0.0907
 3714SOL    HW222602   0.363   1.591   8.907 -0.2700 -2.7174  1.2652
 3715SOL     OW22603   2.100   3.392  11.312  0.0991  0.1228  0.7848
 3715SOL    HW122604   2.015   3.363  11.278  1.7117 -1.2939 -2.0158
 3715SOL    HW222605   2.160   3.330  11.270 -1.9675 -1.1466 -0.3237
 3716SOL     OW22606   0.660   2.922   3.755 -0.0701 -0.2794 -0.1302
 3716SOL    HW122607   0.674   2.928   3.660  2.0697 -0.1228  0.1941
 3716SOL    HW222608   0.652   3.014   3.779  0.8531 -0.5198  1.0835
 3717SOL     OW22609   1.980   1.859  17.689  0.0370  0.1666  0.2874
 3717SOL    HW122610   1.903   1.909   0.025  0.1150 -0.8019  2.1991
 3717SOL    HW222611   2.054   1.920  17.690  0.1821  0.0061 -0.8854
 3718SOL     OW22612   1.612   3.742   5.103  0.0317 -0.5613  0.7244
 3718SOL    HW122613   1.625   3.817   5.047 -0.4010 -0.3722  0.8762
 3718SOL    HW222614   1.576   3.681   5.039 -3.0429 -0.5994  2.4787
 3719SOL     OW22615   2.703   4.276   5.861  0.3875 -0.2338 -0.2933
 3719SOL    HW122616   2.671   4.362   5.834 -0.8148 -0.9909 -1.2277
 3719SOL    HW222617   2.795   4.278   5.889  0.8269  0.9765 -1.8416
 3720SOL     OW22618   2.871   4.610   2.854  0.2088 -0.6074 -0.1751
 3720SOL    HW122619   2.896   4.517   2.846 -1.0505 -1.0309  0.8453
 3720SOL    HW222620   2.949   4.640   2.806  1.2620 -0.1871  1.7831
 3721SOL     OW22621   4.493   4.707  16.131  0.0462 -0.1552 -0.1033
 3721SOL    HW122622   4.520   4.617  16.147  0.4077  0.1113  0.7889
 3721SOL    HW222623   4.407   4.681  16.099 -0.3327  0.7488  0.1856
 3722SOL     OW22624   0.816   2.661   3.791  0.6801  0.1370 -0.3334
 3722SOL    HW122625   0.899   2.660   3.839 -0.4155  2.3156  1.5759
 3722SOL    HW222626   0.809   2.749   3.756  1.2606  0.4569  0.3435
 3723SOL     OW22627   1.203   0.681  14.989 -0.1373  0.1826  0.7477
 3723SOL    HW122628   1.151   0.647  15.061 -0.0620 -1.1657  0.1609
 3723SOL    HW222629   1.238   0.763  15.023  0.3700  1.5618 -3.0457
 3724SOL     OW22630   0.750   2.365   2.889 -0.1683 -0.3340 -1.2277
 3724SOL    HW122631   0.685   2.409   2.835 -1.3832  1.2452  1.4858
 3724SOL    HW222632   0.817   2.344   2.824  1.6458  0.1843  0.4626
 3725SOL     OW22633   0.580   0.635   4.979 -0.1720  0.2905 -0.0078
 3725SOL    HW122634   0.541   0.673   4.900 -0.0236  1.7136  0.6079
 3725SOL    HW222635   0.505   0.608   5.033 -0.2322 -0.1800 -0.3210
 3726SOL     OW22636   2.377   3.554   6.221 -0.4909  0.1440  0.8332
 3726SOL    HW122637   2.426   3.473   6.204 -0.6059  0.1674  0.3924
 3726SOL    HW222638   2.323   3.561   6.143  0.2006 -1.9783  0.1644
 3727SOL     OW22639   1.427   0.678   8.944 -0.2936  0.2727  0.3040
 3727SOL    HW122640   1.461   0.669   9.033  1.5164 -1.6399 -0.5937
 3727SOL    HW222641   1.508   0.656   8.899  0.5787 -2.1017  3.0334
 3728SOL     OW22642   2.522   1.475   3.617 -0.3788 -0.0700  0.4021
 3728SOL    HW122643   2.535   1.568   3.634 -1.9111  0.4990 -1.6701
 3728SOL    HW222644   2.614   1.452   3.634 -0.4524  1.2769  2.5618
 3729SOL     OW22645   3.735   1.164   2.610 -0.0406  0.4306 -0.1072
 3729SOL    HW122646   3.767   1.119   2.688 -1.8979 -0.7107 -0.0008
 3729SOL    HW222647   3.639   1.153   2.612 -0.0715  0.3152 -2.3968
 3730SOL     OW22648   1.211   3.629   7.237 -0.2298  0.5144 -0.1462
 3730SOL    HW122649   1.277   3.599   7.174  0.8603 -0.9299  1.7035
 3730SOL    HW222650   1.249   3.586   7.313 -0.5076 -0.7090 -0.6897
 3731SOL     OW22651   3.038   1.659  11.517 -0.1588 -0.0453 -0.9900
 3731SOL    HW122652   3.040   1.648  11.422 -1.3055 -1.5551 -0.8438
 3731SOL    HW222653   2.974   1.591  11.541  1.4924  0.3262  4.5827
 3732SOL     OW22654   3.242   3.977   3.457 -0.0087  0.5824 -0.0001
 3732SOL    HW122655   3.310   4.031   3.417  2.7424 -2.1636  0.9531
 3732SOL    HW222656   3.285   3.930   3.528 -0.9844  0.2040  0.3373
 3733SOL     OW22657   0.735   0.355  16.804  0.2390 -0.5553 -0.2225
 3733SOL    HW122658   0.809   0.353  16.742  0.8106 -3.2680  0.5601
 3733SOL    HW222659   0.696   0.441  16.786  1.3910  0.1212  0.4981
 3734SOL     OW22660   2.515   1.104   8.438 -0.0750 -0.0330 -0.5436
 3734SOL    HW122661   2.485   1.194   8.422  1.0604  0.1024 -1.9304
 3734SOL    HW222662   2.530   1.106   8.532 -1.8102 -0.2530 -0.2616
 3735SOL     OW22663   1.224   2.780  14.117 -0.8543  0.3428  0.1547
 3735SOL    HW122664   1.275   2.766  14.197  1.3915  3.0937 -0.7925
 3735SOL    HW222665   1.134   2.755  14.139 -0.8773  1.1416  1.0138
 3736SOL     OW22666   0.899   3.116   5.607  0.0130 -0.0462 -0.3611
 3736SOL    HW122667   0.884   3.202   5.567 -0.2373  0.2929  0.4673
 3736SOL    HW222668   0.809   3.091   5.631  1.2332 -2.8569  1.2449
 3737SOL     OW22669   1.978   2.063   7.002 -0.3043 -0.2362  0.0031
 3737SOL    HW122670   1.926   1.994   6.962 -0.2570 -0.2563 -0.0232
 3737SOL    HW222671   1.943   2.140   6.956 -1.9883  0.6914  2.8621
 3738SOL     OW22672   3.070   0.768   4.122 -0.2652  0.0741 -0.1694
 3738SOL    HW122673   3.110   0.854   4.136 -0.5537  0.4252 -1.4495
 3738SOL    HW222674   3.054   0.781   4.028 -1.6308  0.9346  0.1817
 3739SOL     OW22675   2.994   1.318  15.311 -0.1782 -0.2903 -0.3322
 3739SOL    HW122676   2.982   1.404  15.269  1.7731 -0.6831 -1.6732
 3739SOL    HW222677   2.934   1.330  15.385 -2.7963  1.4147 -2.6916
 3740SOL     OW22678   2.848   4.667   5.404  0.0040 -0.0286  0.2018
 3740SOL    HW122679   2.784   4.658   5.333 -0.0183 -0.1097  0.2322
 3740SOL    HW222680   2.929   4.670   5.353  0.6296 -0.8243  1.1529
 3741SOL     OW22681   1.922   2.306   4.911 -0.0578  0.4997 -0.0586
 3741SOL    HW122682   1.883   2.392   4.891 -0.0107  0.4135 -0.5194
 3741SOL    HW222683   1.853   2.247   4.882  1.8910 -2.3493  1.1810
 3742SOL     OW22684   1.764   4.019   4.141 -0.2850  0.5528  0.2759
 3742SOL    HW122685   1.741   4.005   4.049 -1.9148  0.7905  0.6603
 3742SOL    HW222686   1.759   3.931   4.177 -1.1576  0.3461 -0.3719
 3743SOL     OW22687   0.872   1.383   8.406  0.7205  0.1630  0.0553
 3743SOL    HW122688   0.908   1.332   8.334  2.2532  1.5804 -0.1864
 3743SOL    HW222689   0.802   1.428   8.359  2.7084 -0.0843 -3.1645
 3744SOL     OW22690   3.354   0.316   2.314 -0.1594  0.1959 -0.2880
 3744SOL    HW122691   3.393   0.395   2.276  2.4162 -0.8958  0.1168
 3744SOL    HW222692   3.298   0.352   2.383 -0.9547  1.0065 -1.3441
 3745SOL     OW22693   3.254   0.495   6.024 -0.6560 -0.4454 -0.0565
 3745SOL    HW122694   3.172   0.446   6.027  0.2907 -2.0457 -0.5421
 3745SOL    HW222695   3.297   0.457   6.100 -0.1260 -0.1053 -0.1926
 3746SOL     OW22696   0.726   0.974   7.239  0.2876  0.1172  0.4131
 3746SOL    HW122697   0.672   0.916   7.292  0.9414 -0.9086 -0.0251
 3746SOL    HW222698   0.673   0.987   7.160 -2.9885 -0.0377  2.6122
 3747SOL     OW22699   0.515   1.806   6.950  0.2831  0.5011  0.2082
 3747SOL    HW122700   0.519   1.845   7.037  0.7599 -1.2848  0.9731
 3747SOL    HW222701   0.425   1.774   6.945  1.5085 -2.5546 -2.0491
 3748SOL     OW22702   1.140   2.816  17.421  0.5477 -0.2888  0.0525
 3748SOL    HW122703   1.133   2.912  17.421 -1.6232 -0.4594 -1.8397
 3748SOL    HW222704   1.068   2.798  17.481 -1.2476  2.6242 -1.2278
 3749SOL     OW22705   4.284   2.010   9.147 -0.0382  0.2035 -0.7402
 3749SOL    HW122706   4.343   2.071   9.192  0.9007 -1.9284  0.9349
 3749SOL    HW222707   4.333   1.935   9.181 -0.9878 -0.7240 -1.4392
 3750SOL     OW22708   0.835   2.785   1.840 -0.0779  0.4993  0.3176
 3750SOL    HW122709   0.836   2.790   1.936 -1.2805  1.6157  0.2625
 3750SOL    HW222710   0.904   2.721   1.821  0.4112  0.6786  1.4642
 3751SOL     OW22711   0.279   3.735   7.147 -0.1126 -0.1568 -0.4869
 3751SOL    HW122712   0.286   3.743   7.052  1.3216  0.4377 -0.3334
 3751SOL    HW222713   0.291   3.642   7.166 -1.6282 -0.1432  0.5761
 3752SOL     OW22714   4.431   1.022   8.588  0.0243 -0.0331  0.2389
 3752SOL    HW122715   4.390   1.073   8.518  0.9566 -1.3291 -1.2509
 3752SOL    HW222716   4.370   1.042   8.659  0.8029  0.2017  0.8481
 3753SOL     OW22717   4.452   2.951   8.874 -0.1044 -0.1807  0.0021
 3753SOL    HW122718   4.394   3.027   8.878  0.3097 -0.0313  3.2658
 3753SOL    HW222719   4.529   3.000   8.846 -0.1970 -1.6285 -2.7615
 3754SOL     OW22720   0.236   0.301   3.256  0.1737  0.6316  0.0085
 3754SOL    HW122721   0.161   0.359   3.245 -0.5605 -0.3905 -0.4348
 3754SOL    HW222722   0.306   0.343   3.206 -0.4230  1.2872 -0.2687
 3755SOL     OW22723   3.367   2.232   8.499 -0.2178  0.9435 -0.2145
 3755SOL    HW122724   3.397   2.291   8.569 -1.2407 -0.8730  1.7573
 3755SOL    HW222725   3.426   2.158   8.509  0.9523  2.4542  4.4954
 3756SOL     OW22726   3.466   1.983   6.733 -0.1527 -0.0650 -0.2714
 3756SOL    HW122727   3.539   2.005   6.676 -0.1612 -0.1591 -0.3193
 3756SOL    HW222728   3.458   2.056   6.794  0.4478 -0.6767  0.5247
 3757SOL     OW22729   3.960   4.328   5.901 -0.3422  0.3094 -0.2181
 3757SOL    HW122730   4.048   4.365   5.899 -0.8475  1.4941 -0.2784
 3757SOL    HW222731   3.928   4.370   5.981 -1.6564  3.3226 -2.2962
 3758SOL     OW22732   3.056   4.398   9.559 -0.1863  0.4648 -0.4027
 3758SOL    HW122733   3.100   4.319   9.526  0.7964 -0.1597  2.3956
 3758SOL    HW222734   3.120   4.457   9.599 -0.5288  0.5824 -0.0325
 3759SOL     OW22735   1.770   4.386   3.036  0.0362  0.3275 -0.0135
 3759SOL    HW122736   1.758   4.348   2.949 -0.0811  0.5540 -0.0960
 3759SOL    HW222737   1.857   4.353   3.054 -0.2934 -0.6256 -0.1799
 3760SOL     OW22738   1.762   0.207  12.343  0.1311  0.0450  0.2409
 3760SOL    HW122739   1.768   0.133  12.283 -1.1638  0.9819 -1.0509
 3760SOL    HW222740   1.836   0.189  12.400  1.0179  3.3752  0.1546
 3761SOL     OW22741   0.356   1.222  16.821 -0.1873  0.0547 -0.1336
 3761SOL    HW122742   0.430   1.162  16.816 -0.8444 -0.8153  0.4419
 3761SOL    HW222743   0.286   1.158  16.839 -0.4560  0.4602  0.2800
 3762SOL     OW22744   2.080   3.305   0.601 -0.2414 -0.1857 -0.0473
 3762SOL    HW122745   2.124   3.237   0.550  0.9686  1.0098 -0.6141
 3762SOL    HW222746   2.049   3.256   0.677  0.2603  0.2098  0.4167
 3763SOL     OW22747   2.727   0.413  17.566 -0.2756 -0.2829  0.1690
 3763SOL    HW122748   2.803   0.385  17.618 -0.0582  1.2799  0.6926
 3763SOL    HW222749   2.767   0.451  17.488  0.4954  0.0414  0.7223
 3764SOL     OW22750   1.465   4.641   2.236  0.1594  0.3612 -0.0296
 3764SOL    HW122751   1.403   4.604   2.173  0.3093 -0.3440  0.2395
 3764SOL    HW222752   1.440   0.010   2.245  0.7645  0.5922 -0.6660
 3765SOL     OW22753   2.721   4.466   1.987  0.1229  0.4025 -0.2318
 3765SOL    HW122754   2.722   4.554   2.025  2.0021  0.4085 -0.3103
 3765SOL    HW222755   2.804   4.427   2.013 -0.0620 -0.7046 -1.3277
 3766SOL     OW22756   1.305   4.558   4.032 -0.1543  0.3450  0.1400
 3766SOL    HW122757   1.351   4.640   4.051  1.8198 -1.0501  1.4534
 3766SOL    HW222758   1.355   4.525   3.957 -0.3862 -0.6820  0.4385
 3767SOL     OW22759   1.085   0.098  15.850  0.2215 -0.7687  0.1040
 3767SOL    HW122760   1.084   0.079  15.757  0.2299 -0.3572  0.0209
 3767SOL    HW222761   1.172   0.138  15.851 -0.3487  0.4250  3.9695
 3768SOL     OW22762   0.631   1.679   2.084 -0.1535 -0.6624 -0.7872
 3768SOL    HW122763   0.582   1.597   2.092  0.3319 -0.9714 -0.9227
 3768SOL    HW222764   0.639   1.678   1.989 -2.1016  1.7155 -0.9425
 3769SOL     OW22765   1.607   0.689  17.179 -0.4199  0.5611 -0.1136
 3769SOL    HW122766   1.699   0.686  17.204 -1.0557 -0.9729  2.0166
 3769SOL    HW222767   1.559   0.703  17.261 -0.1515 -2.3022  0.5266
 3770SOL     OW22768   0.372   4.269  15.993 -0.5414 -0.8451  0.1470
 3770SOL    HW122769   0.333   4.354  15.972  0.1888 -0.5266  0.0944
 3770SOL    HW222770   0.304   4.203  15.980 -1.0966 -0.3699  0.6131
 3771SOL     OW22771   4.513   0.726   3.718  0.2490 -0.4545 -0.0788
 3771SOL    HW122772   4.598   0.761   3.743  1.2014 -1.5433 -1.8470
 3771SOL    HW222773   4.455   0.784   3.768 -0.6993 -1.8945  0.5160
 3772SOL     OW22774   4.622   4.600   6.413  0.1144  0.2034  0.6515
 3772SOL    HW122775   4.663   4.664   6.471 -1.2357 -0.0679  1.9035
 3772SOL    HW222776   4.530   4.611   6.437  0.4193  1.6653  1.1868
 3773SOL     OW22777   1.824   4.560   4.206 -0.1121  0.0464  0.0292
 3773SOL    HW122778   1.889   4.558   4.136  0.2126 -1.6729  0.3729
 3773SOL    HW222779   1.873   4.541   4.286  0.3322  2.7571  0.3990
 3774SOL     OW22780   2.776   1.509  13.849 -0.2504  0.1914 -0.9206
 3774SOL    HW122781   2.694   1.461  13.861  0.5430 -1.1003 -0.7387
 3774SOL    HW222782   2.813   1.473  13.768  0.7182 -1.0036  0.0484
 3775SOL     OW22783   2.757   1.866   2.039  0.3361  0.1081 -0.2905
 3775SOL    HW122784   2.670   1.868   1.999  1.1709  1.0550 -2.0677
 3775SOL    HW222785   2.794   1.946   2.001  0.7306 -0.8058 -1.7990
 3776SOL     OW22786   0.852   4.266  11.337 -0.9224  0.0817 -0.1176
 3776SOL    HW122787   0.942   4.235  11.327 -1.4716 -1.3584 -0.6629
 3776SOL    HW222788   0.834   4.265  11.243 -1.8182  2.8929  0.0144
 3777SOL     OW22789   1.107   3.355  10.597  0.0564 -0.0467  0.3725
 3777SOL    HW122790   1.068   3.435  10.562 -2.5164 -1.6419 -0.4593
 3777SOL    HW222791   1.120   3.386  10.686  0.5340  1.5065 -0.2453
 3778SOL     OW22792   0.792   4.190  16.053 -0.1572  0.0344 -1.0127
 3778SOL    HW122793   0.761   4.266  16.102 -1.9440 -1.6571  0.4644
 3778SOL    HW222794   0.784   4.119  16.116 -1.0372  0.5821 -0.5124
 3779SOL     OW22795   0.217   3.381   2.105 -0.6241  0.2076 -0.7907
 3779SOL    HW122796   0.125   3.393   2.128 -0.6348 -2.9914  0.8234
 3779SOL    HW222797   0.200   3.322   2.031  0.9795 -2.0278  0.6193
 3780SOL     OW22798   4.195   0.433   8.374  0.3960 -0.0469  0.2194
 3780SOL    HW122799   4.219   0.517   8.414  0.2207  0.6453 -1.1375
 3780SOL    HW222800   4.229   0.374   8.441  0.5260 -2.2177 -1.7291
 3781SOL     OW22801   2.347   3.832   3.338  0.2686 -0.9649  0.0555
 3781SOL    HW122802   2.270   3.864   3.384  1.8567  0.3497  1.7816
 3781SOL    HW222803   2.370   3.771   3.407 -0.9901 -1.0884  0.3739
 3782SOL     OW22804   2.604   3.027  11.336  0.0275  0.2276 -0.2892
 3782SOL    HW122805   2.589   3.000  11.245 -0.4791 -0.0542 -0.1205
 3782SOL    HW222806   2.635   3.117  11.330  0.6172  0.0329 -0.2313
 3783SOL     OW22807   4.654   0.692  16.041  0.0685  0.3078  0.2832
 3783SOL    HW122808   0.017   0.712  16.080 -0.3080 -1.1659  1.8713
 3783SOL    HW222809   4.672   0.717  15.951  0.8781 -1.1138  0.0467
 3784SOL     OW22810   0.391   4.093   7.924  0.0833  0.0913 -0.0194
 3784SOL    HW122811   0.409   4.054   7.839  0.2004 -3.0500  1.4664
 3784SOL    HW222812   0.349   4.171   7.886  0.0206 -0.7906 -1.7374
 3785SOL     OW22813   3.326   1.513   5.515  0.4090 -0.8911  0.0829
 3785SOL    HW122814   3.301   1.582   5.576  1.3394  0.6394 -1.2656
 3785SOL    HW222815   3.276   1.441   5.555 -0.6116  0.3663  1.0724
 3786SOL     OW22816   1.823   4.095   5.187 -0.3866  0.1053  0.5314
 3786SOL    HW122817   1.838   4.045   5.107  2.6168 -0.7031  1.5866
 3786SOL    HW222818   1.751   4.150   5.158 -0.7293 -2.1935 -2.9610
 3787SOL     OW22819   2.880   4.099   0.976  0.5008  0.5503  0.5092
 3787SOL    HW122820   2.908   4.159   0.906  0.5812  0.3263  0.3502
 3787SOL    HW222821   2.861   4.164   1.043  2.1658  0.3870  1.1254
 3788SOL     OW22822   3.973   3.319   1.428  0.3382  0.1150  0.1762
 3788SOL    HW122823   4.063   3.329   1.396  0.9421  0.3072  1.8914
 3788SOL    HW222824   3.933   3.309   1.342 -0.7983 -0.2282  0.7506
 3789SOL     OW22825   2.759   4.145   3.834  0.2937 -0.0090  0.6472
 3789SOL    HW122826   2.723   4.212   3.892  3.1123  1.0450  1.1768
 3789SOL    HW222827   2.810   4.202   3.775  0.8676 -1.1092  0.0832
 3790SOL     OW22828   0.902   2.618   1.181  0.1798 -0.4641 -1.3344
 3790SOL    HW122829   0.967   2.574   1.126  2.2176  0.4602  0.3168
 3790SOL    HW222830   0.889   2.702   1.136 -0.6120 -0.2006 -0.6326
 3791SOL     OW22831   0.788   0.218   3.690  0.2734 -0.3707  0.2249
 3791SOL    HW122832   0.828   0.182   3.611 -1.2534 -0.8652 -0.3314
 3791SOL    HW222833   0.706   0.249   3.651 -0.9577 -3.9830 -0.0121
 3792SOL     OW22834   2.992   3.366   4.720  0.0855 -0.1861 -0.1006
 3792SOL    HW122835   3.053   3.367   4.795 -0.1532  0.8427  0.0832
 3792SOL    HW222836   2.918   3.322   4.762 -0.1194 -0.2344 -0.5154
 3793SOL     OW22837   3.740   3.212  13.023  0.1671 -0.5788 -0.1045
 3793SOL    HW122838   3.791   3.289  12.999 -0.5518  0.5987  2.2292
 3793SOL    HW222839   3.804   3.154  13.065  1.7645 -0.7509 -2.7790
 3794SOL     OW22840   1.900   2.287   6.289  0.5496  0.0827  0.1493
 3794SOL    HW122841   1.868   2.198   6.307 -1.0316  0.8386  1.1133
 3794SOL    HW222842   1.829   2.336   6.330  1.5732  0.3365  1.6245
 3795SOL     OW22843   4.223   2.050   8.734 -0.6970  0.1762  0.1843
 3795SOL    HW122844   4.185   2.120   8.681  1.9754  2.3167  1.1042
 3795SOL    HW222845   4.155   1.999   8.778 -0.7048 -2.6354 -3.0605
 3796SOL     OW22846   1.452   1.365   0.205 -0.0112 -0.5611  0.7349
 3796SOL    HW122847   1.495   1.448   0.189 -1.9764  0.1959 -0.6686
 3796SOL    HW222848   1.391   1.348   0.133  1.0668  1.5824 -0.6583
 3797SOL     OW22849   0.731   4.541   2.445  0.2001 -0.4736 -0.0675
 3797SOL    HW122850   0.707   4.564   2.535 -1.5847 -2.5842 -0.0040
 3797SOL    HW222851   0.696   4.617   2.398  0.7046 -0.4900 -0.4659
 3798SOL     OW22852   0.968   3.067   3.477 -0.1900  0.3820 -0.2581
 3798SOL    HW122853   0.971   3.014   3.397  0.1311  1.5749 -1.0393
 3798SOL    HW222854   1.011   3.145   3.441 -0.6965  0.1428 -1.3612
 3799SOL     OW22855   3.465   1.591   2.962 -0.1525  0.4866 -0.6389
 3799SOL    HW122856   3.526   1.585   2.889  0.7147 -1.9059  0.2737
 3799SOL    HW222857   3.380   1.593   2.917 -0.5538 -0.6245  0.0615
 3800SOL     OW22858   4.656   1.440   4.378 -0.1854  0.1431 -0.0620
 3800SOL    HW122859   4.692   1.353   4.366  1.6988  0.5155  2.8648
 3800SOL    HW222860   4.617   1.431   4.465  1.2990  0.1485  0.6107
 3801SOL     OW22861   0.492   2.349   1.288 -0.2357 -0.5178 -0.1733
 3801SOL    HW122862   0.506   2.423   1.229 -1.3452  0.2408  0.4987
 3801SOL    HW222863   0.402   2.359   1.320 -0.5398 -0.8432 -0.9351
 3802SOL     OW22864   0.613   3.531   5.202  0.2173  0.1388 -0.2366
 3802SOL    HW122865   0.585   3.472   5.132  0.3607  0.7152 -0.7842
 3802SOL    HW222866   0.533   3.579   5.222 -1.2885 -2.3586 -0.2596
 3803SOL     OW22867   2.471   0.713   6.402  0.3282 -0.2103  0.1129
 3803SOL    HW122868   2.472   0.619   6.422  1.7764 -0.0642  0.7217
 3803SOL    HW222869   2.387   0.733   6.442 -0.4788  2.1369 -2.8150
 3804SOL     OW22870   2.105   2.316   5.107 -0.3684 -1.0675 -0.5110
 3804SOL    HW122871   2.083   2.405   5.134  0.6136 -0.5405 -1.4384
 3804SOL    HW222872   2.060   2.318   5.022 -0.0722 -0.4420 -0.6541
 3805SOL     OW22873   3.429   3.839  14.691 -0.7857 -0.2315  0.6001
 3805SOL    HW122874   3.452   3.916  14.743 -0.9897 -0.3716  0.8902
 3805SOL    HW222875   3.367   3.872  14.625 -0.7199 -0.5136  0.3953
 3806SOL     OW22876   4.690   2.119   9.768  0.0575 -0.3019 -0.1073
 3806SOL    HW122877   4.716   2.035   9.731 -0.8568  0.0223 -1.4815
 3806SOL    HW222878   4.639   2.164   9.701 -1.0403 -2.5047 -0.7530
 3807SOL     OW22879   1.246   4.362   6.897  0.4322  0.2089  0.4872
 3807SOL    HW122880   1.274   4.425   6.964 -0.2295  2.0281 -0.9215
 3807SOL    HW222881   1.152   4.355   6.918  0.7834  0.4586  2.1344
 3808SOL     OW22882   3.456   1.638  14.728 -0.0634  0.1836  1.0309
 3808SOL    HW122883   3.531   1.585  14.756 -0.8232 -0.6592  1.4419
 3808SOL    HW222884   3.505   1.708  14.684 -2.7263 -0.6581 -3.2324
 3809SOL     OW22885   0.391   1.106   7.229 -0.5766 -0.5003  0.0166
 3809SOL    HW122886   0.426   1.136   7.313 -1.6649  2.2969 -0.5316
 3809SOL    HW222887   0.305   1.067   7.248 -0.3584  0.6475  3.4739
 3810SOL     OW22888   3.407   0.286  15.581  0.2242 -0.8618  0.2037
 3810SOL    HW122889   3.467   0.358  15.598 -1.1283 -0.2441  2.3151
 3810SOL    HW222890   3.418   0.253  15.670 -0.0593  2.0633  1.3175
 3811SOL     OW22891   2.781   2.513   8.348  0.2258 -0.5774 -0.6267
 3811SOL    HW122892   2.871   2.482   8.343  0.0098 -1.6821  1.9687
 3811SOL    HW222893   2.781   2.534   8.442 -0.8818 -0.3030 -0.6833
 3812SOL     OW22894   2.689   0.299  14.697 -0.3834  0.1417  0.2076
 3812SOL    HW122895   2.709   0.390  14.675 -0.3332  0.2942  0.8757
 3812SOL    HW222896   2.594   0.298  14.707 -0.2364 -0.7512  1.5239
 3813SOL     OW22897   3.769   4.012   9.308 -0.0622  0.6152  0.2011
 3813SOL    HW122898   3.694   3.980   9.358  0.5088  0.0334  0.6923
 3813SOL    HW222899   3.741   4.102   9.289  0.1628  0.6225 -0.0970
 3814SOL     OW22900   1.905   0.432   7.526  0.0999  0.6212 -0.3179
 3814SOL    HW122901   1.916   0.469   7.438  0.1185  3.3076  0.8157
 3814SOL    HW222902   1.922   0.339   7.509  2.9734  1.2533 -0.9351
 3815SOL     OW22903   4.630   0.087  17.591  0.4143  0.3807 -0.1319
 3815SOL    HW122904   4.542   0.124  17.592  0.1185 -0.3257 -0.4111
 3815SOL    HW222905   4.691   0.161  17.587  1.5330 -0.6840 -3.1147
 3816SOL     OW22906   3.809   1.686   1.583 -0.3181 -0.2663  0.3537
 3816SOL    HW122907   3.874   1.651   1.644  0.9569 -0.7618 -1.2607
 3816SOL    HW222908   3.834   1.636   1.505  0.8682  1.6979 -0.5329
 3817SOL     OW22909   0.933   2.074   4.820  0.1508  0.0962  0.7315
 3817SOL    HW122910   0.915   2.072   4.726 -0.9149 -1.3537  0.9678
 3817SOL    HW222911   1.028   2.075   4.822  0.1368  0.8194  1.0501
 3818SOL     OW22912   1.545   1.650  11.527  0.2304  0.1894  0.5795
 3818SOL    HW122913   1.548   1.745  11.526 -1.9369  0.2787  1.4864
 3818SOL    HW222914   1.586   1.618  11.608  0.1433 -2.9607 -0.5998
 3819SOL     OW22915   3.108   4.650   3.698  0.6088  0.2943  0.1220
 3819SOL    HW122916   3.153   4.624   3.618 -0.5278 -1.9568  0.2072
 3819SOL    HW222917   3.058   0.007   3.680  0.7062  0.6459  1.3921
 3820SOL     OW22918   2.636   0.760   3.816  0.2419 -0.2205  0.0139
 3820SOL    HW122919   2.568   0.781   3.752 -0.8165  1.0662  1.5369
 3820SOL    HW222920   2.704   0.823   3.792 -1.7828  3.0040  2.6007
 3821SOL     OW22921   3.275   4.210   0.176  0.3205 -0.0245 -0.3043
 3821SOL    HW122922   3.360   4.206   0.219 -0.3847 -0.2863  1.0762
 3821SOL    HW222923   3.271   4.121   0.142  0.8677  0.3762 -1.4371
 3822SOL     OW22924   1.616   1.376   8.717  0.5765 -0.0561 -0.5339
 3822SOL    HW122925   1.707   1.403   8.715  0.4635  0.2821 -1.2544
 3822SOL    HW222926   1.626   1.331   8.800  2.7761 -1.1881 -1.4140
 3823SOL     OW22927   3.803   3.170   1.235  0.3244  0.0698 -0.4711
 3823SOL    HW122928   3.734   3.139   1.175  0.1655  1.4917 -1.0298
 3823SOL    HW222929   3.880   3.120   1.211  0.2919  0.4477 -1.3702
 3824SOL     OW22930   2.131   0.110   1.165 -0.2398  0.0581 -0.1504
 3824SOL    HW122931   2.189   0.094   1.239 -1.1132  0.8349  0.6943
 3824SOL    HW222932   2.049   0.081   1.202 -0.5176  1.0245 -0.0015
 3825SOL     OW22933   3.337   0.661  10.764  0.3413 -0.7016 -0.4410
 3825SOL    HW122934   3.308   0.670  10.854 -4.3625  0.8378 -2.1292
 3825SOL    HW222935   3.369   0.571  10.753  1.0840 -0.6145  1.0231
 3826SOL     OW22936   1.940   1.139   9.811  0.0261 -0.0173  0.0120
 3826SOL    HW122937   1.922   1.189   9.891 -2.4010  0.6090 -0.9185
 3826SOL    HW222938   1.902   1.051   9.818  1.9759 -0.7200  1.6150
 3827SOL     OW22939   0.208   0.869   6.868  0.2126 -0.1853  1.0271
 3827SOL    HW122940   0.217   0.926   6.792 -0.0496 -2.2934 -0.5814
 3827SOL    HW222941   0.118   0.883   6.899  0.5753  0.8309  1.6310
 3828SOL     OW22942   0.072   3.970  10.966  0.0771 -0.3650 -0.6978
 3828SOL    HW122943   0.055   3.909  10.895 -1.1419 -0.4473 -0.3218
 3828SOL    HW222944   0.105   4.048  10.920  1.5714  0.1500  1.2197
 3829SOL     OW22945   1.748   3.770   4.196  0.1825  0.0199  0.0042
 3829SOL    HW122946   1.794   3.706   4.141 -0.8039 -0.4141 -0.3060
 3829SOL    HW222947   1.767   3.732   4.282 -2.2424 -0.7448  0.2030
 3830SOL     OW22948   2.212   3.647   7.288  0.3954  0.0121  0.4061
 3830SOL    HW122949   2.298   3.631   7.327  0.2406 -0.1610  0.6730
 3830SOL    HW222950   2.186   3.723   7.341 -0.2187  0.5468 -0.6656
 3831SOL     OW22951   4.146   0.440   9.937  0.0758 -0.1698 -0.0091
 3831SOL    HW122952   4.119   0.493   9.862 -1.3557 -1.6930 -0.5727
 3831SOL    HW222953   4.216   0.496   9.970  0.6265 -2.2101  2.2694
 3832SOL     OW22954   4.288   3.685   7.174 -0.0933 -0.2321  0.2135
 3832SOL    HW122955   4.372   3.641   7.166 -0.3280 -0.7296  0.4648
 3832SOL    HW222956   4.228   3.630   7.123  0.5835 -0.7656 -0.0099
 3833SOL     OW22957   2.556   1.607   6.465 -0.5796 -0.4461  0.1624
 3833SOL    HW122958   2.563   1.600   6.370  0.5681  0.3633  0.1785
 3833SOL    HW222959   2.619   1.540   6.493 -1.4323 -0.7390  1.3916
 3834SOL     OW22960   1.820   1.665   7.240 -0.4602 -0.1281  0.2096
 3834SOL    HW122961   1.807   1.572   7.254 -1.2460  0.4507  3.1791
 3834SOL    HW222962   1.906   1.663   7.197 -0.0705 -0.9929  1.0165
 3835SOL     OW22963   4.196   4.385   0.503  0.2814 -0.1143  0.1364
 3835SOL    HW122964   4.156   4.357   0.421  0.8655 -2.1445  0.5484
 3835SOL    HW222965   4.253   4.312   0.525 -0.3975 -0.9000 -0.7465
 3836SOL     OW22966   1.425   4.636   2.636  0.2848 -0.0669  0.0330
 3836SOL    HW122967   1.472   4.577   2.577 -0.0551 -0.2485 -0.0544
 3836SOL    HW222968   1.443   4.718   2.590 -1.3848  0.2170 -0.0874
 3837SOL     OW22969   1.529   1.977  11.684  0.0861  0.4785  0.3105
 3837SOL    HW122970   1.435   1.982  11.702  0.1080 -2.1258  1.1949
 3837SOL    HW222971   1.557   1.942  11.768  1.6407 -0.7997 -0.7460
 3838SOL     OW22972   4.684   0.227  15.342  0.2719  0.5075  0.0850
 3838SOL    HW122973   4.610   0.175  15.311  1.0744 -1.8035  2.0314
 3838SOL    HW222974   4.690   0.294  15.274  0.0436  3.0731  2.5996
 3839SOL     OW22975   1.021   3.916  13.665 -0.9688 -0.2286 -0.1278
 3839SOL    HW122976   1.022   3.833  13.713  0.5827 -1.1590 -1.8095
 3839SOL    HW222977   1.088   3.903  13.598 -2.0591  1.2447 -1.4984
 3840SOL     OW22978   2.728   0.300   2.795 -0.1958  0.3164  0.2369
 3840SOL    HW122979   2.727   0.395   2.797  1.1948  0.3483 -1.2660
 3840SOL    HW222980   2.635   0.290   2.816 -0.2599 -1.1851 -0.7518
 3841SOL     OW22981   4.481   1.823   9.220 -0.1909  0.4512  0.5799
 3841SOL    HW122982   4.489   1.728   9.208  2.2546  0.5024  1.8839
 3841SOL    HW222983   4.550   1.852   9.160 -1.8450  3.6232  0.2434
 3842SOL     OW22984   0.174   1.320   9.633 -0.6106  0.4359  0.9664
 3842SOL    HW122985   0.242   1.361   9.687  1.3759 -2.4883  0.7315
 3842SOL    HW222986   0.138   1.400   9.594 -1.1389 -1.1490 -1.7943
 3843SOL     OW22987   1.975   1.925   9.945  0.3326 -0.5178  0.3285
 3843SOL    HW122988   2.026   1.982  10.003  1.5833 -0.6597 -0.6303
 3843SOL    HW222989   1.906   1.893  10.002  0.7791  2.1775  2.3792
 3844SOL     OW22990   3.324   2.970   7.048 -0.1937  0.1100  0.2084
 3844SOL    HW122991   3.406   3.014   7.024 -0.5059  0.3215 -0.4622
 3844SOL    HW222992   3.326   2.995   7.141  0.2813 -0.3134  0.3104
 3845SOL     OW22993   1.605   2.401   2.798  0.1671  0.5961  0.0219
 3845SOL    HW122994   1.594   2.415   2.892  2.3875  1.0201  0.2189
 3845SOL    HW222995   1.576   2.310   2.794  0.8740  0.4083 -1.1111
 3846SOL     OW22996   0.057   3.728   7.462 -0.1361  0.2537  0.5538
 3846SOL    HW122997   0.132   3.669   7.449 -2.0907 -2.4374  1.3793
 3846SOL    HW222998   0.106   3.809   7.448  1.3773 -0.8605 -0.6205
 3847SOL     OW22999   3.691   1.397  12.520  0.5614 -0.2152 -0.0584
 3847SOL    HW123000   3.781   1.368  12.506 -0.0164 -1.0431 -2.1173
 3847SOL    HW223001   3.697   1.493  12.514 -0.0185 -0.1724  0.0778
 3848SOL     OW23002   2.962   1.681   8.460 -0.4724  0.2516  0.4967
 3848SOL    HW123003   2.912   1.651   8.537 -1.3405 -0.2688 -0.2688
 3848SOL    HW223004   2.952   1.610   8.397  0.5153  0.6851 -0.1316
 3849SOL     OW23005   2.945   3.751   3.876 -0.0188  0.0021 -0.1434
 3849SOL    HW123006   2.915   3.801   3.800 -0.4370 -2.0816 -1.3602
 3849SOL    HW223007   2.941   3.660   3.848 -1.3869 -0.8604  2.8687
 3850SOL     OW23008   1.224   4.232   7.523 -0.4923 -0.2585 -0.2623
 3850SOL    HW123009   1.268   4.250   7.606 -2.0752  1.5443  0.1951
 3850SOL    HW223010   1.298   4.204   7.470  2.4787  2.7868  2.2795
 3851SOL     OW23011   0.027   0.206   2.327  0.1517  0.5970  0.0655
 3851SOL    HW123012   0.054   0.237   2.241  0.3080 -2.2141 -0.9132
 3851SOL    HW223013   0.065   0.278   2.377  0.0132  0.8421 -0.1801
 3852SOL     OW23014   4.576   0.961  14.839  0.5478  0.1182 -0.0502
 3852SOL    HW123015   4.578   0.916  14.923  1.1557  0.1759 -0.0290
 3852SOL    HW223016   4.482   0.963  14.822  0.0907  0.1087  2.5098
 3853SOL     OW23017   0.434   1.540   9.964  0.4620  0.0919  0.2334
 3853SOL    HW123018   0.523   1.505   9.966  0.7627  0.8147 -0.2882
 3853SOL    HW223019   0.453   1.607  10.029  0.1171 -0.2195  0.6495
 3854SOL     OW23020   3.140   3.636  13.515  0.3457  0.3004  0.1602
 3854SOL    HW123021   3.184   3.603  13.594 -5.0101 -1.2513  2.4796
 3854SOL    HW223022   3.120   3.553  13.472  0.2622 -0.1947  1.1353
 3855SOL     OW23023   0.290   3.227  15.043 -0.2993  0.1028  0.6217
 3855SOL    HW123024   0.351   3.156  15.026  1.5233  1.9391 -0.5493
 3855SOL    HW223025   0.203   3.186  15.043  0.2390 -1.0443  1.5969
 3856SOL     OW23026   2.273   4.435   0.993  0.1776  0.1977 -0.0373
 3856SOL    HW123027   2.365   4.426   1.014  0.2523  0.1767 -0.3652
 3856SOL    HW223028   2.269   4.419   0.899 -2.6364 -0.0697  0.1106
 3857SOL     OW23029   3.574   4.258  11.263  0.1692 -0.4697  0.4119
 3857SOL    HW123030   3.545   4.257  11.172 -0.2578  2.8951  0.4978
 3857SOL    HW223031   3.611   4.170  11.264 -1.2576 -1.0698  0.6410
 3858SOL     OW23032   1.485   0.612  10.130  0.3799  0.3008  0.2977
 3858SOL    HW123033   1.555   0.573  10.183  0.3370  0.1694  0.2563
 3858SOL    HW223034   1.441   0.534  10.096  2.1393 -1.1278  1.2810
 3859SOL     OW23035   4.606   0.710   3.044 -0.4787 -0.3800  0.1654
 3859SOL    HW123036   4.544   0.649   3.082 -2.0691  0.0865 -1.6499
 3859SOL    HW223037   4.641   0.667   2.966 -0.2457 -0.4698  0.3219
 3860SOL     OW23038   2.851   1.093   4.865 -0.3826 -0.2409 -0.2391
 3860SOL    HW123039   2.875   1.003   4.846 -0.2628 -0.1394 -0.5593
 3860SOL    HW223040   2.817   1.124   4.781  0.7856 -2.4500 -1.5175
 3861SOL     OW23041   2.784   0.536   9.153 -0.2809  0.0697  0.5578
 3861SOL    HW123042   2.762   0.620   9.193  1.1307  1.1598 -0.9476
 3861SOL    HW223043   2.880   0.536   9.161 -0.1661 -2.1256 -0.7944
 3862SOL     OW23044   1.014   3.673  14.834  0.3323  0.6850 -0.1756
 3862SOL    HW123045   1.008   3.678  14.739 -0.5168 -0.0701 -0.1658
 3862SOL    HW223046   0.928   3.631  14.839  1.6017 -1.9004  0.3292
 3863SOL     OW23047   0.197   0.603   8.864 -0.2463  0.5682 -0.4855
 3863SOL    HW123048   0.267   0.551   8.903  0.0334  0.7945 -0.6768
 3863SOL    HW223049   0.243   0.687   8.872 -0.8468  1.0801 -2.3634
 3864SOL     OW23050   2.280   3.318  15.742  0.3852 -0.3792  0.4803
 3864SOL    HW123051   2.335   3.341  15.817  1.3808 -0.8204 -0.1121
 3864SOL    HW223052   2.244   3.231  15.757  1.5306 -1.0910 -0.8596
 3865SOL     OW23053   2.397   0.795   1.734  0.5092  0.0915  0.6079
 3865SOL    HW123054   2.401   0.727   1.801  0.4343  0.4091  0.9341
 3865SOL    HW223055   2.427   0.872   1.783  1.9180 -0.3921  0.5066
 3866SOL     OW23056   0.260   2.688  16.250  0.0056  0.2286 -0.4765
 3866SOL    HW123057   0.244   2.594  16.243 -0.4900  0.3654 -1.1751
 3866SOL    HW223058   0.286   2.721  16.164 -1.9457  2.3810 -0.2580
 3867SOL     OW23059   3.149   0.722   1.880  0.1064 -0.0589 -0.3346
 3867SOL    HW123060   3.161   0.784   1.809 -1.1251  0.5947  0.0324
 3867SOL    HW223061   3.151   0.799   1.937  1.6364 -0.3438  0.0222
 3868SOL     OW23062   0.502   0.185   5.052  0.5890  0.6850  0.2452
 3868SOL    HW123063   0.576   0.244   5.041  1.1592 -0.5105 -2.2171
 3868SOL    HW223064   0.436   0.231   5.104 -1.9055  0.0728 -2.3554
 3869SOL     OW23065   3.189   3.530  16.841  0.2516  0.1867  0.4327
 3869SOL    HW123066   3.123   3.553  16.906  0.6641 -0.0706  0.9373
 3869SOL    HW223067   3.178   3.435  16.833 -0.2294  0.0997  2.1799
 3870SOL     OW23068   2.823   0.787  12.064 -0.2570 -0.2778 -0.3347
 3870SOL    HW123069   2.837   0.876  12.030 -2.4919 -0.8281 -2.6650
 3870SOL    HW223070   2.768   0.812  12.138 -1.0597  1.0423 -1.3668
 3871SOL     OW23071   0.708   2.734  14.696  0.8070  0.5701  0.0714
 3871SOL    HW123072   0.732   2.646  14.666 -0.7606  0.4650 -0.8780
 3871SOL    HW223073   0.788   2.757  14.743  0.8569 -0.1911  0.3581
 3872SOL     OW23074   2.736   1.360   1.517 -0.2482  0.0913 -0.1263
 3872SOL    HW123075   2.663   1.386   1.461  0.1740  1.8600  0.1748
 3872SOL    HW223076   2.706   1.400   1.599 -0.0564  0.7046 -0.3600
 3873SOL     OW23077   2.733   3.817   7.545 -0.0652 -0.0896  0.4162
 3873SOL    HW123078   2.823   3.822   7.513 -0.3891 -1.9672 -0.7794
 3873SOL    HW223079   2.678   3.869   7.487 -0.4963 -2.0704 -0.9454
 3874SOL     OW23080   2.262   4.290   9.132  0.6568 -0.1017 -0.3654
 3874SOL    HW123081   2.354   4.294   9.104  0.6989 -0.3574 -0.2578
 3874SOL    HW223082   2.215   4.363   9.091  0.3078 -0.6083 -0.8639
 3875SOL     OW23083   1.578   1.850   7.967 -0.6425 -0.1992  0.1059
 3875SOL    HW123084   1.667   1.834   7.999 -1.4114 -0.5355  2.0813
 3875SOL    HW223085   1.552   1.787   7.899  0.7844 -0.1213 -0.5313
 3876SOL     OW23086   3.858   3.318   5.577  0.2277 -0.5870  0.4304
 3876SOL    HW123087   3.931   3.259   5.559  1.2174  0.3862  1.2171
 3876SOL    HW223088   3.901   3.373   5.643 -1.1995  0.2642  0.6454
 3877SOL     OW23089   3.431   1.520   1.236 -0.0219 -0.4191 -0.0467
 3877SOL    HW123090   3.462   1.605   1.206  0.6797 -1.1759 -1.4502
 3877SOL    HW223091   3.368   1.502   1.166  0.1297 -1.9783  0.2126
 3878SOL     OW23092   0.599   1.421   0.709 -0.1247 -0.1558 -0.2099
 3878SOL    HW123093   0.651   1.462   0.779 -0.5186  1.8412 -1.1030
 3878SOL    HW223094   0.521   1.475   0.716 -0.7789 -1.3927  2.0809
 3879SOL     OW23095   2.744   2.967   5.929  0.5524  0.1556 -0.1640
 3879SOL    HW123096   2.770   3.042   5.875  0.8334  0.7709  0.8323
 3879SOL    HW223097   2.827   2.962   5.976  0.3390  2.4301  0.4744
 3880SOL     OW23098   4.593   1.583  10.552 -0.5048  0.1159  0.3007
 3880SOL    HW123099   4.557   1.670  10.569  0.9652  0.8030 -0.1375
 3880SOL    HW223100   4.670   1.583  10.608  0.0821  1.1060 -0.5126
 3881SOL     OW23101   1.044   1.288   0.186  0.1857 -0.4787 -0.2001
 3881SOL    HW123102   1.010   1.378   0.193 -0.0164 -0.2803 -3.8329
 3881SOL    HW223103   1.114   1.297   0.122  0.8741 -0.8382  0.5043
 3882SOL     OW23104   3.049   0.655   4.663 -0.0155 -0.4705 -0.6289
 3882SOL    HW123105   3.117   0.719   4.644 -1.7237  1.6227  0.3028
 3882SOL    HW223106   3.026   0.635   4.572 -0.6974 -1.6131 -0.2183
 3883SOL     OW23107   2.598   2.123   6.604  0.8321 -0.2077  0.7289
 3883SOL    HW123108   2.634   2.165   6.682  1.8151 -0.0233  0.1693
 3883SOL    HW223109   2.512   2.094   6.635  1.5776 -1.3903  1.6967
 3884SOL     OW23110   0.080   2.461   2.019  0.0561  0.2151 -0.0333
 3884SOL    HW123111   0.005   2.401   2.012  0.2797 -0.1454  0.6886
 3884SOL    HW223112   0.135   2.408   2.077  0.6315  1.1260  0.2409
 3885SOL     OW23113   3.781   2.850   6.301  0.2171 -0.1765  0.3770
 3885SOL    HW123114   3.713   2.790   6.269 -0.5530  0.7966  0.2230
 3885SOL    HW223115   3.810   2.884   6.216  1.9501  0.1736  1.1075
 3886SOL     OW23116   2.278   0.257   9.239 -0.4220  0.2925  0.0366
 3886SOL    HW123117   2.193   0.252   9.195  0.7176  2.2199 -2.3965
 3886SOL    HW223118   2.285   0.353   9.240 -0.1852  0.2989 -3.9111
 3887SOL     OW23119   0.571   0.998  16.836 -0.2412  0.0930  0.4500
 3887SOL    HW123120   0.653   1.047  16.830 -1.2528  1.8687  0.9212
 3887SOL    HW223121   0.534   1.017  16.923  0.1487 -0.6877  0.7827
 3888SOL     OW23122   1.103   4.436   7.812  0.2818 -0.0856  0.3598
 3888SOL    HW123123   1.031   4.479   7.766  0.5030  0.9712  1.0109
 3888SOL    HW223124   1.073   4.345   7.817  0.1629 -0.1138 -0.8497
 3889SOL     OW23125   3.737   3.869  10.465 -0.1774  0.1428  0.3042
 3889SOL    HW123126   3.791   3.830  10.533 -0.3313 -1.1542 -0.3111
 3889SOL    HW223127   3.691   3.929  10.524  3.4432  1.5501  1.6439
 3890SOL     OW23128   2.171   1.348  14.242  0.6811 -0.1257 -0.4608
 3890SOL    HW123129   2.137   1.419  14.297  0.5968 -1.0551  0.6885
 3890SOL    HW223130   2.090   1.304  14.220  1.0781 -0.6194 -0.9197
 3891SOL     OW23131   0.724   2.876   0.539  0.1051  0.0244  0.1730
 3891SOL    HW123132   0.661   2.930   0.587 -1.8965 -1.6249 -0.5988
 3891SOL    HW223133   0.743   2.942   0.473  0.4210 -0.6153 -0.3788
 3892SOL     OW23134   2.786   3.981   9.721 -0.5704  0.1517  0.2128
 3892SOL    HW123135   2.850   3.913   9.700 -0.1352  0.4155  0.6747
 3892SOL    HW223136   2.827   4.056   9.677 -0.6371 -0.8412 -1.5112
 3893SOL     OW23137   0.903   3.017  13.722 -0.3158  0.1203 -0.2420
 3893SOL    HW123138   0.942   2.951  13.779  0.2985  0.0245 -0.7791
 3893SOL    HW223139   0.897   3.085  13.789  1.3015  0.9228 -0.9185
 3894SOL     OW23140   1.494   4.146   4.038 -0.2103 -0.8121  0.4780
 3894SOL    HW123141   1.553   4.211   4.075 -2.2396  2.7383 -2.4678
 3894SOL    HW223142   1.498   4.077   4.104 -1.8831 -0.6618  0.7441
 3895SOL     OW23143   1.325   1.577   4.954 -0.0126 -0.0615 -0.3021
 3895SOL    HW123144   1.396   1.613   5.007 -0.0230 -0.1064 -0.2580
 3895SOL    HW223145   1.267   1.650   4.935  0.7938  0.7809  0.5025
 3896SOL     OW23146   0.891   2.918   3.248  0.5318  0.2505  0.5327
 3896SOL    HW123147   0.916   2.844   3.193  0.6557 -1.7914  3.3097
 3896SOL    HW223148   0.851   2.981   3.189 -2.0008 -2.4132 -0.6264
 3897SOL     OW23149   1.959   3.767   8.941  0.2211  0.1429  0.2241
 3897SOL    HW123150   1.906   3.708   8.995 -1.5163 -1.5678 -3.3351
 3897SOL    HW223151   2.037   3.758   8.996 -0.2618 -3.7993  0.3066
 3898SOL     OW23152   4.190   0.261   0.571 -0.2874  0.0537 -0.0138
 3898SOL    HW123153   4.201   0.190   0.634  2.7575  1.1169  0.6577
 3898SOL    HW223154   4.112   0.231   0.526 -0.3964  1.0264 -0.4672
 3899SOL     OW23155   3.302   4.534   0.095 -0.5146  0.6823 -0.2727
 3899SOL    HW123156   3.380   4.488   0.127 -0.5695  1.7947  1.4734
 3899SOL    HW223157   3.350   4.617   0.095 -0.0029  0.3939  1.4770
 3900SOL     OW23158   2.413   0.435  10.126 -0.8256  0.0559  0.0451
 3900SOL    HW123159   2.379   0.521  10.152  2.1886  0.8638  1.2654
 3900SOL    HW223160   2.336   0.385  10.098 -2.5846  1.8818  1.6492
 3901SOL     OW23161   4.327   2.381   4.428 -0.1549 -0.2281  0.1940
 3901SOL    HW123162   4.313   2.320   4.500  0.1328  1.6841  1.8563
 3901SOL    HW223163   4.419   2.359   4.411  0.6687  0.7228  3.3748
 3902SOL     OW23164   3.016   0.029  12.041  0.1736 -0.1758 -0.1233
 3902SOL    HW123165   3.013   0.033  11.946  0.6014 -1.3736 -0.1791
 3902SOL    HW223166   2.944   4.699  12.077 -0.1050  0.2973  0.0211
 3903SOL     OW23167   3.921   2.369   6.961 -0.0936 -0.4052  0.2251
 3903SOL    HW123168   3.894   2.310   7.031 -2.4421 -1.2598 -1.4097
 3903SOL    HW223169   3.987   2.321   6.911  0.0293 -1.9350  1.8472
 3904SOL     OW23170   2.607   2.489   4.236 -0.3742 -0.0402 -0.0065
 3904SOL    HW123171   2.681   2.438   4.269  1.0083  1.4591 -0.7807
 3904SOL    HW223172   2.619   2.476   4.142  1.4161 -1.6915  0.4603
 3905SOL     OW23173   1.078   1.748   2.567  0.3216 -0.0780 -0.2657
 3905SOL    HW123174   1.078   1.832   2.522  3.7686 -0.7653 -1.5892
 3905SOL    HW223175   0.984   1.732   2.574  0.3710 -0.1760  0.1860
 3906SOL     OW23176   3.993   0.424   2.452 -0.4656  0.1079  0.5294
 3906SOL    HW123177   3.950   0.368   2.518 -0.8395  0.3298  0.4736
 3906SOL    HW223178   3.994   0.508   2.497 -0.5174 -0.5028  1.6712
 3907SOL     OW23179   4.164   1.352  16.269  0.0054  0.6748 -0.1076
 3907SOL    HW123180   4.083   1.391  16.303 -0.0971 -1.0092  1.6388
 3907SOL    HW223181   4.207   1.432  16.241 -1.4619  1.1684 -0.9375
 3908SOL     OW23182   0.150   0.615   5.858  0.1303  0.1176  0.0306
 3908SOL    HW123183   0.181   0.525   5.871  2.1858  0.6036 -1.4538
 3908SOL    HW223184   0.196   0.663   5.926 -0.2910 -0.2055  0.5389
 3909SOL     OW23185   2.658   0.621  15.400 -0.3529 -0.1787  0.4038
 3909SOL    HW123186   2.730   0.617  15.337  0.6601 -3.8083  1.7623
 3909SOL    HW223187   2.659   0.535  15.442  0.7882 -1.8519 -3.0617
 3910SOL     OW23188   4.552   1.616   5.706 -0.2758 -0.4720  0.0319
 3910SOL    HW123189   4.513   1.537   5.743  1.8910 -1.0663  1.0484
 3910SOL    HW223190   4.571   1.659   5.789 -0.9761  0.5125 -0.3291
 3911SOL     OW23191   1.845   0.991  11.313  0.0492 -0.2556 -0.4509
 3911SOL    HW123192   1.789   1.040  11.253 -0.4501  1.4202  1.4028
 3911SOL    HW223193   1.794   0.920  11.351  1.0798 -0.3148  0.8313
 3912SOL     OW23194   2.788   1.600   8.664 -0.0039  0.1585  0.0364
 3912SOL    HW123195   2.733   1.549   8.604  0.4016 -0.0754 -0.1381
 3912SOL    HW223196   2.743   1.581   8.747  0.0750  0.5401  0.1639
 3913SOL     OW23197   1.255   2.990   5.902 -0.1458  0.3739  0.3715
 3913SOL    HW123198   1.168   3.013   5.869 -1.0596  0.2725  2.7023
 3913SOL    HW223199   1.302   3.070   5.880 -0.7246  0.9435  1.1857
 3914SOL     OW23200   2.954   4.515   6.673  0.3228 -0.1072 -0.5159
 3914SOL    HW123201   2.963   4.589   6.733 -0.1714  1.0224 -1.8400
 3914SOL    HW223202   3.006   4.450   6.721  2.1425  0.8510 -1.1738
 3915SOL     OW23203   3.269   4.526   9.691 -0.6888  0.6974 -0.0743
 3915SOL    HW123204   3.298   4.593   9.753  1.1464 -0.0989 -0.0800
 3915SOL    HW223205   3.339   4.463   9.708 -1.0889  0.3356  0.2374
 3916SOL     OW23206   4.320   0.463   3.520 -0.2567  0.5007 -0.1401
 3916SOL    HW123207   4.263   0.538   3.536  1.6311  1.3181  2.7838
 3916SOL    HW223208   4.360   0.444   3.605  0.1117 -1.3207 -0.7231
 3917SOL     OW23209   1.563   0.992   5.144  0.2393  0.5472  0.4189
 3917SOL    HW123210   1.503   0.978   5.217 -0.1255 -1.8921 -0.3518
 3917SOL    HW223211   1.527   1.077   5.118 -2.7864 -1.4893 -2.0256
 3918SOL     OW23212   3.227   3.549   8.765 -0.2542 -0.4761  0.1708
 3918SOL    HW123213   3.199   3.461   8.792  0.0921 -1.0293 -1.2826
 3918SOL    HW223214   3.153   3.599   8.730  0.5360 -0.4347 -1.4423
 3919SOL     OW23215   2.956   0.899  14.058  0.2213 -0.4238 -0.0116
 3919SOL    HW123216   2.883   0.847  14.024 -0.9027  0.7398  0.6462
 3919SOL    HW223217   2.938   0.896  14.152 -1.1065 -0.2414 -0.2586
 3920SOL     OW23218   0.410   1.362   2.392  0.2327 -0.5835  0.4873
 3920SOL    HW123219   0.399   1.299   2.321 -0.4383 -1.6930  1.5748
 3920SOL    HW223220   0.332   1.352   2.447 -0.0671  2.8298  0.6766
 3921SOL     OW23221   3.142   0.720  14.907  0.3770  0.1826  0.3839
 3921SOL    HW123222   3.152   0.772  14.987 -0.8992 -0.0103  0.6697
 3921SOL    HW223223   3.131   0.635  14.951 -0.6204  0.9086  1.5502
 3922SOL     OW23224   1.736   0.247   9.725  0.4080 -0.1122 -0.5842
 3922SOL    HW123225   1.730   0.259   9.820  0.7541 -0.9263 -0.4589
 3922SOL    HW223226   1.643   0.246   9.702  0.5087 -1.0900 -0.9386
 3923SOL     OW23227   3.558   0.597  14.605  0.0317  0.2344  0.2654
 3923SOL    HW123228   3.497   0.623  14.674 -1.8377 -2.0579 -0.4916
 3923SOL    HW223229   3.600   0.680  14.582  2.9864 -1.4374 -0.3652
 3924SOL     OW23230   2.446   4.679   3.943 -0.3665  0.1102 -0.6424
 3924SOL    HW123231   2.520   0.011   3.919  0.1150 -0.5950 -0.7844
 3924SOL    HW223232   2.409   0.004   4.017  1.3623 -1.5893  1.3077
 3925SOL     OW23233   3.962   3.141   9.857  0.2999 -0.4417 -0.1397
 3925SOL    HW123234   3.959   3.059   9.808 -2.7409 -0.2924 -0.2332
 3925SOL    HW223235   4.001   3.101   9.935 -1.7455 -1.3487  0.4052
 3926SOL     OW23236   3.562   3.020   8.582 -0.2351  0.5189 -0.1002
 3926SOL    HW123237   3.587   2.935   8.616  0.4806  0.5072 -0.6534
 3926SOL    HW223238   3.583   2.999   8.491  1.9473 -0.8486  0.7169
 3927SOL     OW23239   4.032   1.858   3.199 -0.6067  0.2462  0.6534
 3927SOL    HW123240   4.060   1.767   3.186  0.7993  0.7687  0.1324
 3927SOL    HW223241   3.949   1.864   3.151 -1.2679  0.7284  1.8716
 3928SOL     OW23242   1.719   0.261   8.313 -0.1359  0.3130 -0.0002
 3928SOL    HW123243   1.771   0.249   8.393  0.7573 -0.9227 -0.7597
 3928SOL    HW223244   1.646   0.203   8.335 -0.1080  0.4128  0.3477
 3929SOL     OW23245   1.920   2.757   5.426  0.3945 -0.8312  0.0202
 3929SOL    HW123246   1.911   2.771   5.332 -1.4287  1.2319  0.5139
 3929SOL    HW223247   1.839   2.710   5.445 -0.5171 -0.0959 -2.0464
 3930SOL     OW23248   4.024   3.287  12.948 -0.3021 -0.0263 -0.0983
 3930SOL    HW123249   4.047   3.265  13.038 -1.8169  0.1636  0.3438
 3930SOL    HW223250   4.032   3.382  12.948 -2.1634  0.1430 -0.6167
 3931SOL     OW23251   0.920   2.952   6.422 -0.0440  0.1015  0.6018
 3931SOL    HW123252   0.951   2.877   6.474  0.4669  0.1612  0.3869
 3931SOL    HW223253   0.901   2.896   6.346 -0.8949  0.9320  0.2050
 3932SOL     OW23254   2.898   4.055  15.460 -0.4129 -0.1764 -0.0932
 3932SOL    HW123255   2.899   4.148  15.484  2.4256  0.5762 -3.0747
 3932SOL    HW223256   2.810   4.042  15.426 -0.9503  0.7112  0.9441
 3933SOL     OW23257   2.755   3.685  15.827 -0.1172  0.5719  0.0850
 3933SOL    HW123258   2.811   3.717  15.757  2.4210 -3.1984  0.3667
 3933SOL    HW223259   2.698   3.762  15.832 -0.6966  0.1550 -0.0857
 3934SOL     OW23260   1.597   2.636   2.244  0.0110 -0.4055 -0.1418
 3934SOL    HW123261   1.548   2.636   2.326 -0.0092  0.0791 -0.1561
 3934SOL    HW223262   1.682   2.622   2.286 -0.6184 -2.6686  0.3623
 3935SOL     OW23263   0.998   0.211  17.108  0.5666  0.0663 -0.6601
 3935SOL    HW123264   1.024   0.277  17.172  3.2367 -0.9876 -0.6568
 3935SOL    HW223265   0.994   0.254  17.022  0.0706  0.3693 -0.4849
 3936SOL     OW23266   1.549   3.462  11.722  0.1895  0.0368 -0.1571
 3936SOL    HW123267   1.605   3.526  11.677 -3.7205  2.4320 -1.6065
 3936SOL    HW223268   1.543   3.497  11.811  1.4688 -1.5339  0.5468
 3937SOL     OW23269   2.734   0.037  10.453  0.0807 -0.7525  1.0310
 3937SOL    HW123270   2.671   4.700  10.413  0.7306 -0.7521 -0.0084
 3937SOL    HW223271   2.670   0.087  10.504  1.0124 -1.4071  2.8305
 3938SOL     OW23272   1.977   3.323   1.817  0.3775  0.2708  0.1648
 3938SOL    HW123273   1.989   3.415   1.793 -0.5101 -0.3795 -2.8196
 3938SOL    HW223274   1.950   3.327   1.909  1.0121 -0.0718  0.3634
 3939SOL     OW23275   1.433   2.526   5.697 -0.5215 -0.6188  0.2680
 3939SOL    HW123276   1.443   2.621   5.690  3.2480 -1.1016 -0.4269
 3939SOL    HW223277   1.431   2.518   5.792 -0.3910 -1.8893  0.1600
 3940SOL     OW23278   4.586   3.334   3.072 -0.4150  0.6626  0.4843
 3940SOL    HW123279   4.667   3.284   3.083  0.3477  2.2108  1.8652
 3940SOL    HW223280   4.563   3.352   3.163 -0.2996 -4.7154  1.5983
 3941SOL     OW23281   1.645   2.572   4.332 -0.1204 -0.1770 -0.0303
 3941SOL    HW123282   1.655   2.566   4.237  0.4161  0.1083  0.0092
 3941SOL    HW223283   1.564   2.527   4.353 -0.3327  0.6538  0.9192
 3942SOL     OW23284   0.217   2.440   8.082 -0.3456  0.1552  0.4933
 3942SOL    HW123285   0.263   2.430   8.165  0.9114 -0.7174 -0.3084
 3942SOL    HW223286   0.177   2.354   8.076  1.7005 -0.7509 -0.3390
 3943SOL     OW23287   1.017   0.886   7.622  1.1106 -0.3389  0.1506
 3943SOL    HW123288   1.091   0.882   7.682  0.8391 -3.7784  0.2686
 3943SOL    HW223289   0.987   0.975   7.638  0.0017 -0.6013 -0.4677
 3944SOL     OW23290   0.309   1.971  11.594  0.0726 -0.4958  0.3838
 3944SOL    HW123291   0.316   2.057  11.554  1.2071 -0.9414 -0.3556
 3944SOL    HW223292   0.254   1.923  11.532  0.0633 -1.2150  0.9478
 3945SOL     OW23293   0.930   3.774   8.169 -0.1392  0.2590 -0.1486
 3945SOL    HW123294   0.910   3.701   8.227 -0.2401  0.2304 -0.2190
 3945SOL    HW223295   0.935   3.845   8.232 -0.2225  0.7139 -0.6518
 3946SOL     OW23296   4.023   4.254  16.136 -0.0038 -0.4913 -0.1891
 3946SOL    HW123297   4.012   4.337  16.091 -1.3286 -0.5640 -0.0119
 3946SOL    HW223298   3.980   4.279  16.218  1.0323  2.2131 -0.4615
 3947SOL     OW23299   1.581   0.791   0.403 -0.0940 -1.1630  0.0919
 3947SOL    HW123300   1.654   0.852   0.416  1.5647 -3.0582 -0.3106
 3947SOL    HW223301   1.619   0.715   0.359  1.9203  0.4205 -0.9082
 3948SOL     OW23302   2.141   1.953  11.401 -0.2231 -0.3658  0.1130
 3948SOL    HW123303   2.130   2.033  11.453  1.7858  0.9187 -1.4187
 3948SOL    HW223304   2.053   1.917  11.387  0.3483 -2.0831  1.0040
 3949SOL     OW23305   0.257   4.124   9.328 -0.6197  0.8739  0.4044
 3949SOL    HW123306   0.164   4.104   9.336  0.3006 -3.3113  0.5532
 3949SOL    HW223307   0.293   4.067   9.396  0.9962  1.0499 -0.3045
 3950SOL     OW23308   1.955   3.859  12.916  0.4446 -0.2447 -0.1116
 3950SOL    HW123309   2.024   3.919  12.942 -0.3609  1.3487 -1.7046
 3950SOL    HW223310   2.006   3.802  12.859  0.5222  3.1910 -3.4457
 3951SOL     OW23311   1.800   1.785   2.833 -0.6989 -0.3294 -0.8218
 3951SOL    HW123312   1.892   1.808   2.818 -1.1253  1.5640 -0.5094
 3951SOL    HW223313   1.812   1.713   2.894  0.0243  0.6881  0.2401
 3952SOL     OW23314   4.186   3.210   4.502  0.6223 -0.1791  0.2906
 3952SOL    HW123315   4.156   3.285   4.451  0.6872  1.6125  2.9267
 3952SOL    HW223316   4.108   3.168   4.538 -0.5577  2.6854  1.0709
 3953SOL     OW23317   0.490   3.865   1.793 -0.1379 -0.0116 -0.0084
 3953SOL    HW123318   0.536   3.910   1.722 -1.9575 -1.1770 -1.9571
 3953SOL    HW223319   0.401   3.901   1.792  1.1977  3.2670  1.6415
 3954SOL     OW23320   2.157   0.064   3.559  0.3785 -0.3947  0.1640
 3954SOL    HW123321   2.252   0.056   3.547  0.5103  2.0799 -0.3087
 3954SOL    HW223322   2.153   0.147   3.606 -3.2136 -0.1186 -0.6597
 3955SOL     OW23323   1.426   0.280   0.662  0.5111  0.0558  0.2765
 3955SOL    HW123324   1.418   0.326   0.745  0.5025  1.6578 -0.5992
 3955SOL    HW223325   1.469   0.347   0.608 -2.7357  2.4567  0.6376
 3956SOL     OW23326   1.719   0.437   2.172 -0.4849  0.2608 -0.0245
 3956SOL    HW123327   1.716   0.525   2.135 -0.2319  0.0065 -0.6648
 3956SOL    HW223328   1.742   0.392   2.091 -1.6543 -1.2083  0.4601
 3957SOL     OW23329   0.160   2.052   1.622 -0.3429  0.1559 -0.0179
 3957SOL    HW123330   0.254   2.033   1.615 -0.6896 -0.6314 -2.5363
 3957SOL    HW223331   0.151   2.122   1.686 -5.6586 -2.1278  1.7150
 3958SOL     OW23332   2.262   2.919   9.031 -0.5993  0.3907  0.4900
 3958SOL    HW123333   2.338   2.937   9.088  0.2176 -1.4442 -0.0215
 3958SOL    HW223334   2.208   2.880   9.099 -1.0275  1.0484  0.5285
 3959SOL     OW23335   0.672   1.952   6.270  0.3898  0.2157 -0.0433
 3959SOL    HW123336   0.661   1.912   6.184  1.0900 -0.2869  0.1014
 3959SOL    HW223337   0.725   1.892   6.322  1.5708  0.8596 -0.4900
 3960SOL     OW23338   2.891   0.268   6.621  0.2564 -0.1519 -0.0117
 3960SOL    HW123339   2.907   0.179   6.588  1.0133  0.0899 -0.2764
 3960SOL    HW223340   2.800   0.251   6.646 -0.1564  0.1923 -1.2883
 3961SOL     OW23341   2.288   0.161  14.454 -0.6236  0.4613 -0.2364
 3961SOL    HW123342   2.195   0.171  14.434 -0.7030  0.0398 -0.0887
 3961SOL    HW223343   2.334   0.172  14.371 -1.4255 -1.0760 -0.8984
 3962SOL     OW23344   1.777   0.899   4.415 -0.0898  0.0539  0.1637
 3962SOL    HW123345   1.845   0.920   4.479  0.8697  2.6095 -1.7202
 3962SOL    HW223346   1.707   0.944   4.462  0.5544  0.5812  0.6302
 3963SOL     OW23347   3.671   1.074   6.923 -0.4438 -0.1813 -0.2572
 3963SOL    HW123348   3.745   1.091   6.866 -0.3544  2.3799  0.6478
 3963SOL    HW223349   3.609   1.055   6.853 -2.1040 -1.5002  1.5398
 3964SOL     OW23350   0.798   1.219   8.611  0.1687 -0.1043  0.4465
 3964SOL    HW123351   0.819   1.275   8.536  0.4393 -0.9333 -0.0998
 3964SOL    HW223352   0.704   1.210   8.596  0.5972  0.8364 -2.7965
 3965SOL     OW23353   2.421   0.039   3.591  0.0687  0.7195 -0.6454
 3965SOL    HW123354   2.505   4.716   3.591 -1.0407 -1.3067  0.8693
 3965SOL    HW223355   2.456   0.120   3.628 -0.2842  0.5445  0.0715
 3966SOL     OW23356   0.448   3.957   9.675 -0.5733 -0.5720  0.1516
 3966SOL    HW123357   0.427   3.910   9.755 -0.7073  0.6687  0.8435
 3966SOL    HW223358   0.372   3.930   9.622 -1.3686  0.7105  0.6196
 3967SOL     OW23359   0.368   3.526   2.942  0.8487  0.3197 -0.3454
 3967SOL    HW123360   0.396   3.502   3.030 -0.1446  0.7035  0.0778
 3967SOL    HW223361   0.450   3.558   2.904  0.6980  0.2556 -0.7262
 3968SOL     OW23362   1.319   0.609   0.373  0.2114 -0.0817  0.4092
 3968SOL    HW123363   1.291   0.681   0.317  1.4194  1.2569  1.5305
 3968SOL    HW223364   1.310   0.534   0.314  0.6238  1.4692 -1.6363
 3969SOL     OW23365   1.675   4.250   3.616 -0.7279 -0.2149 -0.0494
 3969SOL    HW123366   1.611   4.257   3.544 -0.7309  2.3622  0.2049
 3969SOL    HW223367   1.688   4.343   3.638  0.1797 -0.2934 -0.2611
 3970SOL     OW23368   0.752   4.203   2.911 -0.9849  0.2802 -0.1192
 3970SOL    HW123369   0.838   4.166   2.929 -2.1560 -1.9207  0.9996
 3970SOL    HW223370   0.752   4.189   2.817 -1.8811  0.1565 -0.1057
 3971SOL     OW23371   0.234   4.425   1.795 -0.7204  0.4274  0.4014
 3971SOL    HW123372   0.313   4.407   1.743 -1.5633  2.5490 -1.6210
 3971SOL    HW223373   0.199   4.506   1.757  2.0153  0.7330 -1.4633
 3972SOL     OW23374   3.624   2.601  16.477 -0.6190  0.0683  0.2711
 3972SOL    HW123375   3.576   2.653  16.542 -1.9362  0.5554 -1.1015
 3972SOL    HW223376   3.700   2.659  16.473 -0.1633 -0.5888 -0.6789
 3973SOL     OW23377   0.603   1.234   8.390 -0.4242  0.3748 -0.6413
 3973SOL    HW123378   0.662   1.194   8.326  0.5839 -1.1160  1.2180
 3973SOL    HW223379   0.527   1.176   8.374 -0.8683  1.5248 -2.7378
 3974SOL     OW23380   1.287   2.341   0.611 -0.2093  0.0948  0.2785
 3974SOL    HW123381   1.315   2.250   0.607 -1.2962 -0.2178 -0.0721
 3974SOL    HW223382   1.319   2.361   0.523  0.5550  2.3531  1.0671
 3975SOL     OW23383   2.757   1.992  13.813 -0.0701 -0.6744 -0.7902
 3975SOL    HW123384   2.679   2.047  13.807  0.2733 -0.0691  0.3425
 3975SOL    HW223385   2.826   2.056  13.795  0.2286 -0.5332  0.9175
 3976SOL     OW23386   2.734   0.657  13.711 -0.3668 -0.1033  0.6943
 3976SOL    HW123387   2.689   0.580  13.678  2.0867  0.2830 -3.5531
 3976SOL    HW223388   2.811   0.648  13.655 -1.4039 -1.4152 -0.5090
 3977SOL     OW23389   2.338   2.269   2.736  0.2107  0.2090 -0.2625
 3977SOL    HW123390   2.263   2.272   2.677  0.8272 -1.1841 -1.1159
 3977SOL    HW223391   2.290   2.308   2.809 -0.2289 -0.3553 -0.2414
 3978SOL     OW23392   3.033   1.664   1.408 -0.1537 -0.2149  0.5047
 3978SOL    HW123393   3.036   1.756   1.434  0.8985 -0.3359  0.8287
 3978SOL    HW223394   3.074   1.631   1.488 -0.8184  1.0915  1.3649
 3979SOL     OW23395   1.446   0.337   9.673 -0.4754 -0.1081 -0.2299
 3979SOL    HW123396   1.371   0.286   9.705  1.3343 -1.1173  2.4459
 3979SOL    HW223397   1.426   0.344   9.580  0.0520  1.9060 -0.1946
 3980SOL     OW23398   2.532   3.947   7.410  0.0790 -0.1336 -0.4740
 3980SOL    HW123399   2.462   3.920   7.470 -0.3019 -0.1917 -0.9514
 3980SOL    HW223400   2.477   3.967   7.335 -1.0519 -0.5945  0.2215
 3981SOL     OW23401   3.878   4.433   9.213  0.2656 -0.9085 -0.0789
 3981SOL    HW123402   3.956   4.488   9.205  0.4263 -0.6940  2.7937
 3981SOL    HW223403   3.824   4.480   9.149  1.7618  1.0034  0.0616
 3982SOL     OW23404   2.484   1.276   4.670 -0.0582 -0.1211  0.2841
 3982SOL    HW123405   2.400   1.319   4.685 -0.6466 -0.9743 -0.5749
 3982SOL    HW223406   2.512   1.243   4.756  2.1497  2.3724  0.5117
 3983SOL     OW23407   4.385   1.799   9.496 -0.0680  0.4546  0.6166
 3983SOL    HW123408   4.429   1.804   9.411 -0.5612  1.3738  0.4098
 3983SOL    HW223409   4.347   1.712   9.485 -3.1175  2.1315 -2.2607
 3984SOL     OW23410   0.483   4.412  16.414 -0.4074 -0.7035 -0.0754
 3984SOL    HW123411   0.424   4.470  16.367 -0.9161 -1.2004 -0.0435
 3984SOL    HW223412   0.514   4.463  16.489  1.2391  1.2180 -2.0692
 3985SOL     OW23413   3.225   0.975   7.772  0.2343  0.1854 -0.4353
 3985SOL    HW123414   3.199   0.908   7.710 -1.7250  0.6046 -0.0633
 3985SOL    HW223415   3.245   1.054   7.721 -0.0124  2.2165  2.5753
 3986SOL     OW23416   4.193   4.474   3.828  0.0794  0.5017 -0.3493
 3986SOL    HW123417   4.249   4.539   3.785 -1.0415  0.2816 -2.1775
 3986SOL    HW223418   4.237   4.460   3.911  0.1669 -0.4324 -0.5464
 3987SOL     OW23419   0.918   4.602   7.695  0.4355  1.0431  0.0253
 3987SOL    HW123420   0.861   4.673   7.725  0.0499  2.3618 -3.8938
 3987SOL    HW223421   0.902   4.597   7.601  0.0067  0.0148  0.1548
 3988SOL     OW23422   4.004   2.551  13.755  0.3660 -0.0062  0.0150
 3988SOL    HW123423   4.005   2.542  13.660  0.6731  2.3137 -0.1812
 3988SOL    HW223424   3.935   2.487  13.772  0.5486 -0.5348 -1.2066
 3989SOL     OW23425   2.894   2.224  13.698  0.0776 -0.4656  0.1893
 3989SOL    HW123426   2.950   2.211  13.621 -2.0836 -0.7848 -1.3188
 3989SOL    HW223427   2.942   2.301  13.730  1.2685 -0.0447 -2.5714
 3990SOL     OW23428   0.280   3.477  14.821  0.6436  0.7915  0.1040
 3990SOL    HW123429   0.372   3.489  14.798  0.4311 -1.3773 -1.8739
 3990SOL    HW223430   0.230   3.554  14.795  1.0211  0.4737 -1.5264
 3991SOL     OW23431   3.435   2.137   9.393 -0.3767 -0.0444 -0.2754
 3991SOL    HW123432   3.449   2.231   9.384 -0.0294 -0.2618 -1.8475
 3991SOL    HW223433   3.340   2.135   9.407 -0.3603 -1.2043 -0.2849
 3992SOL     OW23434   0.423   3.427   6.913  0.1438 -0.4061  0.4494
 3992SOL    HW123435   0.490   3.360   6.901  2.3160  2.2081 -2.1390
 3992SOL    HW223436   0.378   3.383   6.985 -0.1475 -0.0995  0.4583
 3993SOL     OW23437   1.971   3.153   7.463 -0.2959  0.0699 -0.2318
 3993SOL    HW123438   2.065   3.145   7.448  0.1163 -0.2200  2.5312
 3993SOL    HW223439   1.965   3.124   7.554  1.3684  2.0020  0.5099
 3994SOL     OW23440   3.112   3.827  10.841  0.1647 -0.1300 -0.0226
 3994SOL    HW123441   3.045   3.770  10.803 -0.2534  0.3678 -0.0286
 3994SOL    HW223442   3.150   3.768  10.906 -0.6881 -0.1611  0.4439
 3995SOL     OW23443   4.061   1.826  10.886  0.2299  0.3826 -0.2807
 3995SOL    HW123444   4.141   1.813  10.835  0.0275  1.3230 -0.8388
 3995SOL    HW223445   4.058   1.921  10.888 -0.9455  0.3383 -0.3515
 3996SOL     OW23446   4.669   0.787   1.730  0.4419 -0.3219  0.1216
 3996SOL    HW123447   4.625   0.835   1.659 -2.8642 -3.9062 -0.2193
 3996SOL    HW223448   4.595   0.745   1.774  1.3591 -0.3375  1.6161
 3997SOL     OW23449   1.959   0.505  11.034  0.1857 -0.0399  0.0960
 3997SOL    HW123450   2.008   0.559  10.972  2.6509 -2.2777  0.0741
 3997SOL    HW223451   1.939   0.576  11.095 -1.0242 -0.4932  0.2262
 3998SOL     OW23452   4.471   0.135  10.711  0.4386  0.2396 -0.3400
 3998SOL    HW123453   4.454   0.208  10.771  0.9110  0.3764 -0.3707
 3998SOL    HW223454   4.390   0.145  10.661  1.0286 -1.7402 -1.7013
 3999SOL     OW23455   2.917   0.544   1.853 -0.8767 -0.4340  0.7534
 3999SOL    HW123456   2.910   0.543   1.758  2.4589 -2.2780  0.5490
 3999SOL    HW223457   2.993   0.599   1.873 -1.5085  0.9316 -0.6110
 4000SOL     OW23458   4.251   3.312   6.962  0.3056 -0.1043 -0.5666
 4000SOL    HW123459   4.191   3.365   6.909 -2.2510 -1.5648  0.8857
 4000SOL    HW223460   4.196   3.235   6.970  1.8827 -1.4244 -2.1586
 4001SOL     OW23461   4.062   4.228   7.383 -0.4238 -0.1335 -0.6212
 4001SOL    HW123462   4.060   4.251   7.291 -0.2342  2.6628  0.0976
 4001SOL    HW223463   4.024   4.307   7.422 -3.2001 -0.3357 -2.8975
 4002SOL     OW23464   1.122   0.222   7.226 -0.2742 -0.6068  0.0924
 4002SOL    HW123465   1.095   0.313   7.214 -0.5401 -0.7261 -0.2036
 4002SOL    HW223466   1.118   0.194   7.135  0.7409 -1.9306  0.4643
 4003SOL     OW23467   4.025   0.624   2.264 -0.2785 -0.3604 -0.2827
 4003SOL    HW123468   4.097   0.599   2.207  2.2650  1.5011  2.1113
 4003SOL    HW223469   4.034   0.549   2.323  1.7378  1.6789  1.9950
 4004SOL     OW23470   0.723   1.537   5.893  0.2685 -0.3724 -0.0225
 4004SOL    HW123471   0.709   1.455   5.941 -0.5603  1.2174  2.4536
 4004SOL    HW223472   0.817   1.526   5.877  0.4754 -1.5438  1.9042
 4005SOL     OW23473   1.246   4.100   8.107 -0.0171  0.2205  0.2740
 4005SOL    HW123474   1.315   4.151   8.065  0.0568 -0.3694 -0.3175
 4005SOL    HW223475   1.186   4.171   8.128  2.6836  2.1078  1.6948
 4006SOL     OW23476   4.494   0.482   4.645  0.1190 -0.0633 -0.4778
 4006SOL    HW123477   4.536   0.453   4.563  1.5761 -0.8625  0.5450
 4006SOL    HW223478   4.443   0.403   4.664 -0.1851 -0.0526 -1.2461
 4007SOL     OW23479   0.396   3.187  12.779 -0.2904 -0.2091  0.2359
 4007SOL    HW123480   0.407   3.092  12.787  0.7356 -0.3041 -2.2914
 4007SOL    HW223481   0.302   3.190  12.797 -0.8133 -2.0534 -2.1896
 4008SOL     OW23482   1.975   4.276   4.412  0.0688  0.4083 -0.1647
 4008SOL    HW123483   1.961   4.363   4.451 -1.1713 -1.0974  2.7805
 4008SOL    HW223484   2.069   4.280   4.397  0.2439  1.8926  1.3133
 4009SOL     OW23485   3.045   4.686   1.473 -0.0376 -0.4273  0.4919
 4009SOL    HW123486   3.090   4.638   1.404  0.3623  1.2780 -0.4537
 4009SOL    HW223487   3.009   0.049   1.449 -1.6902 -0.5506  2.4678
 4010SOL     OW23488   3.561   0.649   5.970 -0.1555 -0.0317  0.0932
 4010SOL    HW123489   3.633   0.639   5.908 -0.2636 -1.7689  0.2460
 4010SOL    HW223490   3.583   0.577   6.030  2.1735 -1.1352 -2.1069
 4011SOL     OW23491   2.757   2.253   4.986 -0.2341 -0.3712  0.0736
 4011SOL    HW123492   2.727   2.337   4.952 -0.1106 -0.9910 -1.5727
 4011SOL    HW223493   2.745   2.279   5.077 -2.6329  0.0094 -0.3624
 4012SOL     OW23494   1.934   2.876   9.379  0.0007  0.1806 -0.5532
 4012SOL    HW123495   1.854   2.866   9.430  0.0561 -3.9562 -1.3159
 4012SOL    HW223496   1.912   2.962   9.342 -1.3922 -0.0592 -0.2742
 4013SOL     OW23497   4.631   2.473   1.593  0.0275  0.0286  0.1819
 4013SOL    HW123498   4.643   2.385   1.556  1.7201  0.2171  0.2760
 4013SOL    HW223499   4.716   2.490   1.632  0.8867 -0.1605 -1.5948
 4014SOL     OW23500   2.178   2.812   1.733  0.0862  0.0732 -0.0906
 4014SOL    HW123501   2.239   2.881   1.761 -0.5755  0.4205  0.4906
 4014SOL    HW223502   2.121   2.816   1.809  0.7898  2.4708  0.3368
 4015SOL     OW23503   0.806   1.018   3.190 -0.1668  0.2697 -0.0777
 4015SOL    HW123504   0.881   1.044   3.243  0.9179 -2.2273 -0.3557
 4015SOL    HW223505   0.760   1.101   3.182  0.3971  0.6208  0.3870
 4016SOL     OW23506   2.736   0.246   7.051  0.3858  0.1998  0.2450
 4016SOL    HW123507   2.687   0.262   6.970 -0.5889  0.4821  0.8872
 4016SOL    HW223508   2.700   0.313   7.109 -1.9850 -1.3706  0.6114
 4017SOL     OW23509   3.341   1.242   7.294 -0.3210 -0.3077  0.5711
 4017SOL    HW123510   3.347   1.207   7.205 -0.4653  0.5731  0.2115
 4017SOL    HW223511   3.246   1.232   7.305 -0.1066 -1.5243  1.1845
 4018SOL     OW23512   2.217   2.077   7.228  0.0725 -0.4121  0.1594
 4018SOL    HW123513   2.134   2.103   7.187 -0.0799 -0.6634  0.3124
 4018SOL    HW223514   2.273   2.138   7.180  2.0185 -2.6671 -0.4116
 4019SOL     OW23515   0.788   2.935   6.835  0.3307  0.0842 -0.5936
 4019SOL    HW123516   0.852   2.905   6.770  0.1046 -0.0221 -0.7700
 4019SOL    HW223517   0.854   2.976   6.891 -0.4082  0.3947  0.0439
 4020SOL     OW23518   1.919   1.760   6.461  0.0587 -0.2627 -0.1946
 4020SOL    HW123519   1.974   1.815   6.405  0.9202  0.6267  1.5432
 4020SOL    HW223520   1.919   1.816   6.539  0.6930 -1.3087  0.5585
 4021SOL     OW23521   2.972   1.071   7.093 -0.3137  0.4108 -0.4642
 4021SOL    HW123522   3.016   1.077   7.178 -0.4934 -0.0072 -0.3433
 4021SOL    HW223523   3.033   1.134   7.054 -2.8874  3.2388  0.0149
 4022SOL     OW23524   2.801   0.174   0.815  0.6632  0.1963  0.3398
 4022SOL    HW123525   2.802   0.259   0.858 -0.4957 -0.1550  1.0627
 4022SOL    HW223526   2.721   0.181   0.764 -0.2994 -1.7532  1.5562
 4023SOL     OW23527   3.793   1.039   5.207  0.3047  0.5330 -0.0230
 4023SOL    HW123528   3.772   1.036   5.301 -3.0162  0.6196 -0.7662
 4023SOL    HW223529   3.850   1.115   5.212 -1.0579  1.6389 -1.4084
 4024SOL     OW23530   3.584   2.668   6.768 -0.4024  0.0631 -0.4074
 4024SOL    HW123531   3.575   2.578   6.800  0.5447  0.2527  0.4162
 4024SOL    HW223532   3.576   2.721   6.848 -1.2558  1.5145 -1.4635
 4025SOL     OW23533   0.373   3.477   8.912 -0.1439 -0.1540 -0.2980
 4025SOL    HW123534   0.456   3.513   8.941  0.4579 -0.4687 -1.6403
 4025SOL    HW223535   0.393   3.436   8.828  0.6169  1.4854 -0.9128
 4026SOL     OW23536   3.069   2.647  17.007  0.2879  0.1321  0.8701
 4026SOL    HW123537   3.093   2.558  17.032  0.4407  0.4532  1.8683
 4026SOL    HW223538   3.072   2.639  16.912  2.2759  1.7799  0.7993
 4027SOL     OW23539   1.729   1.398  12.192  0.6048  0.1362  0.4421
 4027SOL    HW123540   1.755   1.318  12.237 -0.2984  0.3097  1.2697
 4027SOL    HW223541   1.722   1.464  12.261  0.3650  0.8998 -0.3070
 4028SOL     OW23542   2.400   2.079   8.477 -0.1417  0.6875 -0.1571
 4028SOL    HW123543   2.480   2.034   8.503 -1.2839 -1.5576 -0.5119
 4028SOL    HW223544   2.383   2.039   8.392 -0.7386 -0.9352  0.7180
 4029SOL     OW23545   3.378   0.346   6.221  0.5848 -0.1239  1.1847
 4029SOL    HW123546   3.340   0.268   6.181  0.1700  0.3977  0.5637
 4029SOL    HW223547   3.323   0.340   6.299 -0.2171 -0.9007  0.5607
 4030SOL     OW23548   0.505   1.930   3.395  0.2272 -0.1105  0.3831
 4030SOL    HW123549   0.523   2.005   3.337  2.0906  0.4978  1.7538
 4030SOL    HW223550   0.444   1.880   3.340 -0.3830  1.5362 -0.4504
 4031SOL     OW23551   0.779   1.682   3.532 -0.4041 -0.2527 -0.3386
 4031SOL    HW123552   0.873   1.668   3.544 -0.1838  1.7046  0.1709
 4031SOL    HW223553   0.758   1.626   3.457  0.9103 -0.2325 -0.7231
 4032SOL     OW23554   1.676   1.557  14.632 -0.0408  0.1497  0.4683
 4032SOL    HW123555   1.599   1.500  14.621 -1.2869  1.8342  0.4475
 4032SOL    HW223556   1.752   1.508  14.602  0.2687  0.9575 -0.0796
 4033SOL     OW23557   3.232   0.743   5.299 -0.4305 -0.0482 -0.7844
 4033SOL    HW123558   3.223   0.728   5.205 -0.0948 -1.1563 -0.6354
 4033SOL    HW223559   3.152   0.702   5.331  0.4874 -0.7225  0.6305
 4034SOL     OW23560   3.274   3.671   7.109 -0.5827  0.3888  0.4930
 4034SOL    HW123561   3.257   3.709   7.023 -1.5766  2.3092  1.5439
 4034SOL    HW223562   3.368   3.651   7.100 -0.4795  0.8232  0.6145
 4035SOL     OW23563   0.040   3.109  14.906  0.0668  0.4509  0.4352
 4035SOL    HW123564   0.059   3.169  14.834 -0.4509 -2.1460 -1.8630
 4035SOL    HW223565   4.681   3.149  14.935 -0.1704  1.4936 -1.6124
 4036SOL     OW23566   3.193   0.357   7.684  0.1415  0.6482 -0.0327
 4036SOL    HW123567   3.178   0.409   7.763 -1.1881 -0.8651  0.7295
 4036SOL    HW223568   3.150   0.402   7.612 -0.4173  0.7981  0.3874
 4037SOL     OW23569   3.212   0.566   3.002  0.1126  0.2170 -0.2118
 4037SOL    HW123570   3.291   0.542   2.954  0.7427 -0.8960  1.3960
 4037SOL    HW223571   3.150   0.561   2.929 -2.0271  0.6797  1.5889
 4038SOL     OW23572   1.530   0.326   5.563 -0.1732  0.0940  0.4548
 4038SOL    HW123573   1.597   0.267   5.527 -0.1652 -0.4715  1.3894
 4038SOL    HW223574   1.585   0.395   5.600 -0.5646  1.3459 -1.2977
 4039SOL     OW23575   3.160   0.642  16.794 -0.1679  0.1854  0.4471
 4039SOL    HW123576   3.067   0.619  16.798  0.5248 -2.7458 -0.1034
 4039SOL    HW223577   3.213   0.579  16.843 -0.0700  1.0319  1.4139
 4040SOL     OW23578   1.580   4.404   9.272 -0.3267  0.8875 -0.2442
 4040SOL    HW123579   1.598   4.462   9.197 -0.2869 -3.1169 -3.3674
 4040SOL    HW223580   1.594   4.469   9.340  0.6319  1.8145 -1.3306
 4041SOL     OW23581   4.602   2.428   6.024 -0.2609 -0.4445  0.1042
 4041SOL    HW123582   4.697   2.433   6.010 -0.3475 -0.6790 -0.5790
 4041SOL    HW223583   4.572   2.492   5.959  0.7230 -2.2725 -2.1788
 4042SOL     OW23584   4.255   0.507   5.531 -0.4329  0.3192  0.0791
 4042SOL    HW123585   4.310   0.512   5.609  1.3214 -0.2279 -1.1192
 4042SOL    HW223586   4.325   0.501   5.466 -1.2513  1.5792 -0.9156
 4043SOL     OW23587   4.405   0.722   7.690 -0.5219 -0.0845  0.1124
 4043SOL    HW123588   4.363   0.753   7.770 -0.2935 -1.0453  0.6061
 4043SOL    HW223589   4.478   0.784   7.682  0.6856 -1.6189 -0.7493
 4044SOL     OW23590   0.154   0.620   2.531  0.3768 -0.3148  0.5374
 4044SOL    HW123591   0.156   0.682   2.458  2.1720 -1.3464 -0.2946
 4044SOL    HW223592   0.201   0.668   2.598 -2.2356  2.5874  0.2809
 4045SOL     OW23593   3.436   1.644   2.575 -0.3967 -0.6015  0.0356
 4045SOL    HW123594   3.374   1.668   2.645  0.4304 -0.7804  0.8367
 4045SOL    HW223595   3.409   1.704   2.506 -0.1478 -1.2728 -0.6440
 4046SOL     OW23596   2.246   0.538   3.745 -0.6521  0.1514 -0.1854
 4046SOL    HW123597   2.337   0.512   3.760 -0.2567  0.3752 -2.1461
 4046SOL    HW223598   2.235   0.601   3.816  2.4907 -0.2584  0.6562
 4047SOL     OW23599   0.660   3.341   0.457  0.2782  0.1429  0.1719
 4047SOL    HW123600   0.658   3.250   0.425 -0.2381  0.8971 -1.9339
 4047SOL    HW223601   0.756   3.338   0.460  0.3115  1.5305  0.1815
 4048SOL     OW23602   1.030   2.404  10.962 -0.0677  0.0179  0.5451
 4048SOL    HW123603   1.010   2.434  11.050  0.1850  1.0304  0.2520
 4048SOL    HW223604   1.120   2.372  10.964 -0.2123 -0.3882  0.5667
 4049SOL     OW23605   0.904   0.387   5.558 -0.1202 -0.0944  0.0690
 4049SOL    HW123606   0.815   0.375   5.590  1.2049 -1.8597  3.0461
 4049SOL    HW223607   0.927   0.294   5.554  0.6225  0.0497  1.0106
 4050SOL     OW23608   0.422   1.052   8.293  0.4226 -0.0010 -0.1808
 4050SOL    HW123609   0.371   1.026   8.370  0.0357  3.3155  0.6539
 4050SOL    HW223610   0.435   0.962   8.262 -1.5005 -0.3715  0.1310
 4051SOL     OW23611   2.700   1.323   5.577  0.1410 -0.6542  0.7754
 4051SOL    HW123612   2.674   1.338   5.487  0.9013 -0.3044  0.6153
 4051SOL    HW223613   2.754   1.401   5.588 -0.7465  0.0152  0.4338
 4052SOL     OW23614   1.242   0.926  11.249  0.0827 -0.1709  0.1203
 4052SOL    HW123615   1.256   0.845  11.299  3.0613 -0.3972 -1.0732
 4052SOL    HW223616   1.305   0.916  11.178  0.3667  2.6317 -0.0124
 4053SOL     OW23617   1.508   1.738   9.745  0.2782 -0.1119  0.2348
 4053SOL    HW123618   1.479   1.825   9.772 -1.1201 -0.5273  0.0539
 4053SOL    HW223619   1.466   1.719   9.661  0.9227  0.2359 -0.1758
 4054SOL     OW23620   4.582   3.822   4.047  0.1945 -0.0501  0.5004
 4054SOL    HW123621   4.498   3.795   4.085  1.2545 -0.7519  2.2770
 4054SOL    HW223622   4.552   3.892   3.988  1.7628 -0.4541 -0.7728
 4055SOL     OW23623   4.203   3.948   3.746  0.1009  0.0975  0.0114
 4055SOL    HW123624   4.137   3.914   3.805  0.9093  1.5761  1.7831
 4055SOL    HW223625   4.153   4.009   3.691  1.7925  1.3175 -0.1912
 4056SOL     OW23626   0.875   1.721   2.221 -0.0057 -0.4949 -0.1290
 4056SOL    HW123627   0.815   1.670   2.167  0.2363 -1.6818  0.7127
 4056SOL    HW223628   0.860   1.810   2.189  0.6153 -0.0296  0.8583
 4057SOL     OW23629   3.063   1.157   2.199  0.1919  0.4290  0.0535
 4057SOL    HW123630   3.005   1.086   2.171 -1.6791  1.5470  1.1690
 4057SOL    HW223631   2.999   1.228   2.200 -0.6446 -0.3463  0.9666
 4058SOL     OW23632   0.188   0.109  16.140 -0.7418 -0.4727  0.3201
 4058SOL    HW123633   0.256   0.077  16.080 -0.5992  1.4143 -0.5306
 4058SOL    HW223634   0.241   0.147  16.210  0.9076 -0.6238 -0.8339
 4059SOL     OW23635   4.612   3.253   5.793 -0.2754 -0.1326  0.3285
 4059SOL    HW123636   4.651   3.166   5.808  1.3712  0.3496 -1.1572
 4059SOL    HW223637   4.644   3.264   5.703 -2.1578  0.1389 -0.3124
 4060SOL     OW23638   2.727   3.327  10.444  0.0671  0.1328 -0.1873
 4060SOL    HW123639   2.711   3.260  10.510 -2.5104 -0.0458 -0.9616
 4060SOL    HW223640   2.749   3.269  10.372  0.2738 -0.9539  0.7544
 4061SOL     OW23641   3.871   3.738   7.498  0.3981 -0.1437  0.1248
 4061SOL    HW123642   3.884   3.789   7.417 -0.3481  1.2227  0.8698
 4061SOL    HW223643   3.944   3.775   7.548 -0.4065  1.8034 -0.1241
 4062SOL     OW23644   2.514   2.987  10.228 -0.0128 -0.3705  0.0150
 4062SOL    HW123645   2.442   3.015  10.171  0.2746  1.1249  0.3918
 4062SOL    HW223646   2.484   3.026  10.310 -0.7844  0.6896 -0.7689
 4063SOL     OW23647   1.863   3.085  16.766 -0.0081 -0.0115  0.1757
 4063SOL    HW123648   1.825   3.078  16.854  1.7378 -0.2471  0.9130
 4063SOL    HW223649   1.809   3.162  16.746  0.0002 -0.0048  0.1790
 4064SOL     OW23650   3.373   2.192   3.135  0.6407 -0.5021  0.1424
 4064SOL    HW123651   3.468   2.186   3.139  0.5492 -0.9751  1.6319
 4064SOL    HW223652   3.370   2.283   3.163  0.3142 -0.3177 -0.4772
 4065SOL     OW23653   0.518   2.692   0.517  0.0790  0.0606  0.1480
 4065SOL    HW123654   0.524   2.644   0.600  0.2444  0.6664  0.4892
 4065SOL    HW223655   0.586   2.759   0.526 -0.0773  0.0168  1.6639
 4066SOL     OW23656   1.656   1.813  11.919 -0.0334  0.0150  0.1329
 4066SOL    HW123657   1.603   1.833  11.996  0.7705 -1.0231  0.9630
 4066SOL    HW223658   1.730   1.874  11.929 -0.6148  0.8786 -0.8253
 4067SOL     OW23659   0.411   1.588   7.208  0.0696  0.3715 -0.1786
 4067SOL    HW123660   0.402   1.677   7.176  0.5825  0.1077 -1.0625
 4067SOL    HW223661   0.443   1.612   7.295  1.4308  0.9013 -0.8282
 4068SOL     OW23662   4.238   4.330  16.676  0.8223  0.0722 -0.4630
 4068SOL    HW123663   4.184   4.252  16.667  0.1163  0.4017  0.8171
 4068SOL    HW223664   4.236   4.357  16.585 -1.8357  0.6453 -0.2203
 4069SOL     OW23665   3.612   3.639   7.393  0.4445  0.3288 -0.2705
 4069SOL    HW123666   3.686   3.667   7.446 -0.3142  1.4104  0.2051
 4069SOL    HW223667   3.547   3.643   7.464  0.0324 -3.4234 -0.4046
 4070SOL     OW23668   3.406   0.036   6.831  0.0902  0.1052  0.4124
 4070SOL    HW123669   3.374   0.070   6.915 -1.1437 -2.2640  0.8926
 4070SOL    HW223670   3.381   0.099   6.764  1.1389  0.4077  0.3156
 4071SOL     OW23671   4.557   0.030   4.207 -0.1257 -0.1035  0.2195
 4071SOL    HW123672   4.567   0.122   4.183  0.2854  0.0670  1.0346
 4071SOL    HW223673   4.645   4.717   4.195  0.2019  0.7006  0.2397
 4072SOL     OW23674   3.470   3.319   8.847 -0.0497 -0.1159  0.1365
 4072SOL    HW123675   3.454   3.413   8.855 -1.1827 -0.3229  0.3138
 4072SOL    HW223676   3.417   3.294   8.771  0.5774 -2.0432  0.3374
 4073SOL     OW23677   2.250   3.416  15.061  0.0392 -0.5955  0.4898
 4073SOL    HW123678   2.191   3.352  15.022 -0.7182  1.3076 -1.4737
 4073SOL    HW223679   2.331   3.390  15.017  0.7193  2.3396 -0.0309
 4074SOL     OW23680   0.095   2.383   4.246 -0.3549 -0.4017  0.8151
 4074SOL    HW123681   0.109   2.442   4.172  2.3641 -0.1695  1.4991
 4074SOL    HW223682   0.105   2.310   4.184  1.8086  1.2784 -0.8423
 4075SOL     OW23683   0.934   3.965   8.682  0.0691  0.2331 -0.0558
 4075SOL    HW123684   0.912   3.950   8.590 -1.5035  1.4402  0.1219
 4075SOL    HW223685   0.995   3.892   8.692 -2.1480 -1.4512  1.1290
 4076SOL     OW23686   3.977   0.777  11.666  0.3140  0.0765  0.2921
 4076SOL    HW123687   3.904   0.798  11.725  1.2486 -0.1885  1.5360
 4076SOL    HW223688   3.936   0.781  11.579 -2.7149 -0.5829  1.7050
 4077SOL     OW23689   3.141   0.832   8.565 -0.4675  0.0865  0.5115
 4077SOL    HW123690   3.163   0.846   8.473  1.6443 -0.1667  0.9717
 4077SOL    HW223691   3.226   0.819   8.607 -0.0050 -0.0674 -0.4609
 4078SOL     OW23692   1.197   4.519   4.392  0.1791  0.5659 -0.3102
 4078SOL    HW123693   1.176   4.494   4.482  2.0312 -0.4323 -0.1605
 4078SOL    HW223694   1.271   4.460   4.379 -0.8198 -0.7772  0.1297
 4079SOL     OW23695   2.343   3.369   8.708 -0.4940 -0.3947  0.2768
 4079SOL    HW123696   2.275   3.323   8.660  1.6315 -3.0575 -0.1567
 4079SOL    HW223697   2.308   3.455   8.684 -1.3810 -0.4261  1.5037
 4080SOL     OW23698   1.507   1.305   4.562  0.2117  0.2297 -0.1876
 4080SOL    HW123699   1.562   1.369   4.516  0.6177  0.3388  0.4536
 4080SOL    HW223700   1.445   1.349   4.620 -1.2270 -1.5552 -0.3688
 4081SOL     OW23701   2.123   1.203   4.373  0.3676 -0.0744  0.3379
 4081SOL    HW123702   2.070   1.241   4.442  2.0452  1.6464  0.6660
 4081SOL    HW223703   2.157   1.129   4.423  2.8856  1.3903  0.7944
 4082SOL     OW23704   2.979   1.347   4.481  0.5044 -0.1937 -0.3454
 4082SOL    HW123705   2.885   1.331   4.493  0.4671  0.6234  0.4348
 4082SOL    HW223706   3.017   1.319   4.565  0.5675 -2.2399 -1.0703
 4083SOL     OW23707   2.335   2.145  10.281 -0.3524 -0.0836  0.2798
 4083SOL    HW123708   2.416   2.106  10.313 -0.7822 -1.0100  0.2463
 4083SOL    HW223709   2.321   2.219  10.341 -0.4359  0.3820 -0.3098
 4084SOL     OW23710   2.336   3.375   9.936  0.3682 -0.0673 -0.2663
 4084SOL    HW123711   2.413   3.417   9.899  0.2275  1.7757  1.5150
 4084SOL    HW223712   2.316   3.302   9.877  0.8436 -0.8263  0.5139
 4085SOL     OW23713   4.468   2.871  12.356 -0.3931  0.5214 -0.2994
 4085SOL    HW123714   4.521   2.793  12.337  2.0637  2.2532 -0.6343
 4085SOL    HW223715   4.391   2.853  12.302  0.0078 -0.0361 -0.6823
 4086SOL     OW23716   2.990   3.911   7.045  0.3787 -0.3563  0.1800
 4086SOL    HW123717   2.998   3.821   7.075 -0.1859 -0.2742  0.5755
 4086SOL    HW223718   3.002   3.895   6.951  0.7083  0.0510  0.1516
 4087SOL     OW23719   3.439   4.015   5.035 -0.2296 -0.1090 -0.3579
 4087SOL    HW123720   3.435   3.943   5.098  0.0004  0.8747  0.7866
 4087SOL    HW223721   3.511   3.986   4.979 -0.1309  2.0595 -1.3491
 4088SOL     OW23722   1.881   4.181   4.654 -0.2291 -0.5241 -0.5356
 4088SOL    HW123723   1.943   4.233   4.705 -0.2782  0.7548 -1.7663
 4088SOL    HW223724   1.904   4.203   4.564 -2.4522 -0.7342 -1.1507
 4089SOL     OW23725   1.840   3.883  12.298  0.1698 -0.1317 -0.0423
 4089SOL    HW123726   1.864   3.972  12.324  1.7976 -0.9661  1.2810
 4089SOL    HW223727   1.758   3.864  12.342  0.1736 -1.7173 -0.6953
 4090SOL     OW23728   4.653   4.001   7.484  0.6965  0.0676  0.7088
 4090SOL    HW123729   4.576   3.944   7.479  1.5912 -0.9568 -1.1866
 4090SOL    HW223730   4.718   3.934   7.504  1.6987  1.2379  1.3615
 4091SOL     OW23731   4.511   2.942   9.520  0.0100 -0.5270  0.2615
 4091SOL    HW123732   4.599   2.925   9.485 -0.0451 -0.1813 -0.0432
 4091SOL    HW223733   4.463   2.861   9.504  0.0487 -0.6077  0.5599
 4092SOL     OW23734   1.722   1.996   7.727 -0.3578 -0.2752  0.1119
 4092SOL    HW123735   1.703   1.905   7.752  0.5243  0.1014  2.2254
 4092SOL    HW223736   1.791   1.992   7.662 -1.3430 -0.9406 -0.8959
 4093SOL     OW23737   2.162   0.187   8.690 -0.1606  0.1284 -0.7169
 4093SOL    HW123738   2.155   0.277   8.722 -2.7834 -0.1654 -0.5365
 4093SOL    HW223739   2.086   0.150   8.733 -1.2159  3.8261  0.5745
 4094SOL     OW23740   4.013   2.103   2.287 -0.3737  0.1178  0.1246
 4094SOL    HW123741   3.974   2.191   2.289 -0.3675  0.1549 -1.4552
 4094SOL    HW223742   4.085   2.114   2.226 -1.2047 -1.0144 -1.0395
 4095SOL     OW23743   3.955   2.504  11.196 -1.1156 -0.3841 -0.6963
 4095SOL    HW123744   3.870   2.532  11.230 -0.9145  2.2135 -2.3686
 4095SOL    HW223745   4.015   2.511  11.270 -2.0916  0.2766  0.0450
 4096SOL     OW23746   2.429   1.593   8.053  0.1345  0.2726  0.3498
 4096SOL    HW123747   2.351   1.584   7.998 -0.1296  0.7674  0.6426
 4096SOL    HW223748   2.396   1.601   8.142 -0.5888 -0.7958  0.1847
 4097SOL     OW23749   2.136   1.852   7.379 -0.2027 -0.1793  0.3665
 4097SOL    HW123750   2.171   1.926   7.331  1.6541 -1.0299  0.3885
 4097SOL    HW223751   2.103   1.797   7.308 -1.9428  1.9337 -0.4407
 4098SOL     OW23752   0.668   3.692   6.371  0.2942  0.1652  0.4658
 4098SOL    HW123753   0.713   3.674   6.453 -1.6731 -3.1230  0.7970
 4098SOL    HW223754   0.580   3.660   6.392 -0.5065  1.4813 -0.8535
 4099SOL     OW23755   4.415   1.160  13.915 -0.0614 -0.2237  0.0527
 4099SOL    HW123756   4.405   1.095  13.846  1.5290  1.0814 -1.3976
 4099SOL    HW223757   4.374   1.236  13.872 -0.5328 -0.5093 -0.0053
 4100SOL     OW23758   2.577   1.043   5.952 -0.0150  0.0330 -0.2028
 4100SOL    HW123759   2.586   0.983   5.878  2.2969  0.4433 -0.2567
 4100SOL    HW223760   2.542   0.981   6.016  0.8395 -1.1527 -0.8954
 4101SOL     OW23761   3.467   0.169  17.123  0.4344 -0.2894 -0.4782
 4101SOL    HW123762   3.400   0.101  17.120 -0.8764  0.9801 -0.0944
 4101SOL    HW223763   3.522   0.155  17.200 -1.0689 -1.4910  0.3551
 4102SOL     OW23764   0.901   2.041  14.605 -0.0311 -0.5286  0.2263
 4102SOL    HW123765   0.841   1.999  14.667  0.6053  1.9514  2.5044
 4102SOL    HW223766   0.831   2.073  14.547  0.9625  2.6961  0.8067
 4103SOL     OW23767   1.094   0.100  10.155 -0.6530  0.3283 -0.5945
 4103SOL    HW123768   1.070   0.184  10.117 -1.5236 -0.7051 -2.3729
 4103SOL    HW223769   1.059   0.033  10.095  0.0785 -0.6179  0.0259
 4104SOL     OW23770   3.615   1.058   4.599 -0.1693 -0.1870  0.7267
 4104SOL    HW123771   3.649   1.143   4.628 -1.0553 -0.0294  1.2834
 4104SOL    HW223772   3.693   1.021   4.557 -0.3417  0.5260 -0.2391
 4105SOL     OW23773   0.918   1.730   4.820  0.5545 -0.1376  0.2942
 4105SOL    HW123774   0.823   1.723   4.831  0.5502 -0.0357  0.3261
 4105SOL    HW223775   0.924   1.706   4.727  0.9181  1.5464 -0.1136
 4106SOL     OW23776   3.910   1.518   8.204  0.0537  0.3975  0.4704
 4106SOL    HW123777   3.819   1.536   8.182 -0.3101  1.2237  2.6352
 4106SOL    HW223778   3.960   1.533   8.124  0.3193  0.7858  0.7056
 4107SOL     OW23779   2.471   4.174   2.916  0.2452  0.2438 -0.5834
 4107SOL    HW123780   2.440   4.105   2.858 -0.3062  0.4491 -0.5286
 4107SOL    HW223781   2.474   4.134   3.002 -0.8406 -0.4702 -0.8891
 4108SOL     OW23782   2.259   1.410  11.012  0.1993  0.1028 -0.3686
 4108SOL    HW123783   2.265   1.492  10.964  2.7332 -1.6503 -3.1203
 4108SOL    HW223784   2.327   1.354  10.972  1.6537  1.3849  0.3137
 4109SOL     OW23785   4.597   2.392   4.458  0.0653  0.3491 -0.3548
 4109SOL    HW123786   4.641   2.447   4.522  1.1634  0.2908 -1.0667
 4109SOL    HW223787   4.668   2.381   4.395 -1.1652  1.4661 -1.9203
 4110SOL     OW23788   2.659   0.155   6.756  0.3468 -0.6217 -0.3925
 4110SOL    HW123789   2.727   0.137   6.820  2.2750  0.9601 -2.0112
 4110SOL    HW223790   2.647   0.062   6.735  2.9655 -1.0652  0.1301
 4111SOL     OW23791   0.419   2.868   4.065  0.1976 -0.2745 -0.4901
 4111SOL    HW123792   0.423   2.872   3.970 -1.4957  0.8876 -0.5199
 4111SOL    HW223793   0.362   2.943   4.082  0.4109  0.1476 -1.6358
 4112SOL     OW23794   2.578   2.259   4.734 -0.4837  0.0782  0.0404
 4112SOL    HW123795   2.584   2.317   4.658 -2.8550 -0.1465 -0.3419
 4112SOL    HW223796   2.592   2.175   4.689 -0.8489  0.0964 -0.1078
 4113SOL     OW23797   2.062   4.280   7.469  0.0364  0.2615 -0.3763
 4113SOL    HW123798   2.016   4.339   7.529  0.2179 -1.0931  1.1065
 4113SOL    HW223799   2.151   4.284   7.504  0.0607 -1.1084 -0.2702
 4114SOL     OW23800   2.257   3.238   5.498 -0.3008 -0.1169  0.0653
 4114SOL    HW123801   2.207   3.254   5.418 -0.5965  0.6917  0.4143
 4114SOL    HW223802   2.287   3.149   5.480 -0.7607 -0.4153  0.8020
 4115SOL     OW23803   2.318   4.553   5.949  0.5609 -0.0486  0.2227
 4115SOL    HW123804   2.351   4.605   5.875 -0.7893 -0.9991 -1.0414
 4115SOL    HW223805   2.400   4.553   5.999  0.1609  0.7498  0.8576
 4116SOL     OW23806   0.099   3.067   9.713 -0.2708  0.0210 -0.8368
 4116SOL    HW123807   0.183   3.104   9.739 -0.9889  0.3824  0.9908
 4116SOL    HW223808   0.131   3.036   9.629  1.1204  1.5241 -0.8485
 4117SOL     OW23809   4.273   1.591   5.073  0.0275  0.5896  0.1855
 4117SOL    HW123810   4.248   1.595   4.980  1.8200 -1.4140 -0.3782
 4117SOL    HW223811   4.366   1.567   5.068  0.1949  1.4525 -0.8858
 4118SOL     OW23812   1.570   0.833  17.643 -0.2753  0.0798  0.3391
 4118SOL    HW123813   1.642   0.879  17.686 -0.9409  3.4979 -2.2198
 4118SOL    HW223814   1.612   0.747  17.647 -1.8592 -0.6868  0.2812
 4119SOL     OW23815   4.593   1.334   8.557  0.3624 -0.1718  0.2256
 4119SOL    HW123816   4.508   1.314   8.516  1.2982  1.8534 -2.7130
 4119SOL    HW223817   4.565   1.342   8.648 -0.9729  0.7047 -0.2499
 4120SOL     OW23818   0.061   4.157  16.154  0.1631 -0.4060 -0.0769
 4120SOL    HW123819   0.115   4.176  16.231 -0.7234 -1.5826  0.8275
 4120SOL    HW223820   4.696   4.180  16.185 -0.3525 -1.1569 -0.9655
 4121SOL     OW23821   2.747   2.326   3.670 -0.2037  0.4077  0.7112
 4121SOL    HW123822   2.739   2.347   3.577  0.6817  0.9519  0.7578
 4121SOL    HW223823   2.785   2.239   3.669  0.5709  0.7631 -0.8986
 4122SOL     OW23824   4.500   4.614   3.459  0.9458 -0.0557 -0.0318
 4122SOL    HW123825   4.486   4.585   3.369 -0.1005 -0.1478  0.1585
 4122SOL    HW223826   4.492   4.709   3.451  1.1623 -0.3014 -2.9351
 4123SOL     OW23827   3.764   0.473   5.584 -0.3577 -0.0814 -0.1947
 4123SOL    HW123828   3.669   0.471   5.593 -0.2165 -4.0128  0.3779
 4123SOL    HW223829   3.777   0.523   5.664  1.2673 -2.6788  1.1434
 4124SOL     OW23830   0.795   1.243  17.258  0.4048  0.2364  0.1034
 4124SOL    HW123831   0.732   1.244  17.331 -0.9848  2.9158 -1.1437
 4124SOL    HW223832   0.850   1.318  17.282 -0.0691 -0.1762  2.4637
 4125SOL     OW23833   3.605   1.117   1.872  1.2027  0.0488  0.1816
 4125SOL    HW123834   3.590   1.209   1.847 -2.4942 -0.5388  0.2153
 4125SOL    HW223835   3.601   1.082   1.783 -0.6670 -1.5753  0.9102
 4126SOL     OW23836   1.765   0.921   4.976 -0.0998  0.1228 -0.0703
 4126SOL    HW123837   1.696   0.956   5.032  1.5770  1.2512  1.2707
 4126SOL    HW223838   1.790   0.838   5.018  1.6778  0.1963 -0.9602
 4127SOL     OW23839   1.192   0.968   7.393  0.3107  0.0013  0.4691
 4127SOL    HW123840   1.127   0.941   7.458  2.9513  1.9548  3.8868
 4127SOL    HW223841   1.140   1.041   7.362 -1.9433 -1.3878  0.9646
 4128SOL     OW23842   3.242   2.548   4.402 -0.0533 -1.2288 -0.6216
 4128SOL    HW123843   3.166   2.535   4.458  1.9795 -2.7990  1.7875
 4128SOL    HW223844   3.217   2.493   4.328 -2.3658 -0.4125 -0.4348
 4129SOL     OW23845   3.517   0.415   8.401 -0.1600 -0.1274 -0.1518
 4129SOL    HW123846   3.540   0.350   8.468  0.7857  0.0269 -0.3233
 4129SOL    HW223847   3.438   0.447   8.446  0.7026  1.5125  0.2044
 4130SOL     OW23848   1.033   4.701   8.274 -0.6926  0.2586  0.1075
 4130SOL    HW123849   1.007   4.638   8.206 -0.2647  0.4006 -0.1897
 4130SOL    HW223850   0.956   4.690   8.329 -1.7265  0.7004 -1.2608
 4131SOL     OW23851   4.497   4.560   8.467 -0.1400  0.5674  0.5800
 4131SOL    HW123852   4.569   4.521   8.419 -1.8043  0.2277 -1.6684
 4131SOL    HW223853   4.541   4.629   8.516 -2.0821  0.9446  1.8048
 4132SOL     OW23854   1.398   3.032  13.831  0.0713 -0.0851  0.5316
 4132SOL    HW123855   1.468   2.999  13.775 -2.3523 -2.2866 -1.1654
 4132SOL    HW223856   1.337   2.959  13.835  1.1036 -1.0522 -1.3195
 4133SOL     OW23857   3.598   2.294   3.540 -0.0260  0.2917 -0.6411
 4133SOL    HW123858   3.632   2.383   3.548  0.0958  0.3451 -1.6554
 4133SOL    HW223859   3.634   2.242   3.611  0.9698  0.3453 -1.1158
 4134SOL     OW23860   0.912   0.800  12.295  0.0680 -0.2521 -0.3235
 4134SOL    HW123861   0.894   0.844  12.212  0.3732 -0.3451 -0.4397
 4134SOL    HW223862   0.826   0.759  12.300 -0.0801  0.1587  0.4889
 4135SOL     OW23863   3.132   3.221   3.787  0.1747 -0.1323  0.3339
 4135SOL    HW123864   3.137   3.296   3.727  0.0097 -2.2644 -2.3634
 4135SOL    HW223865   3.057   3.170   3.754  0.5064 -0.5358  0.2059
 4136SOL     OW23866   2.916   2.675   8.566  0.2168  0.0605 -0.6581
 4136SOL    HW123867   2.892   2.584   8.584 -2.2458  0.1100 -3.6503
 4136SOL    HW223868   2.828   2.709   8.547 -1.4261 -3.2963  0.9821
 4137SOL     OW23869   4.668   0.996   8.747  0.0413  0.0926 -0.3660
 4137SOL    HW123870   4.594   0.998   8.686 -1.3572  0.5475  1.3458
 4137SOL    HW223871   0.005   0.928   8.714 -1.8072 -0.3152 -2.8834
 4138SOL     OW23872   4.355   4.020   0.308  0.0269  0.3372 -0.1805
 4138SOL    HW123873   4.297   3.975   0.370  0.1332  0.5714  0.0909
 4138SOL    HW223874   4.367   3.949   0.244 -1.1316 -1.0219  1.1229
 4139SOL     OW23875   2.423   0.081   6.971  0.5393 -0.2800 -0.1666
 4139SOL    HW123876   2.357   0.013   6.955 -1.3755  1.4507  0.3837
 4139SOL    HW223877   2.473   0.037   7.040  0.8226  0.3413  0.0237
 4140SOL     OW23878   4.052   0.657  15.654 -0.4910 -0.3958 -0.2336
 4140SOL    HW123879   4.006   0.738  15.679  0.6816  0.3383 -0.4455
 4140SOL    HW223880   3.977   0.605  15.626 -0.6962  0.1817 -0.7727
 4141SOL     OW23881   1.853   3.371   6.565 -0.3827 -0.0118 -0.2682
 4141SOL    HW123882   1.910   3.424   6.508  0.5647 -0.3230  0.3944
 4141SOL    HW223883   1.822   3.441   6.622  1.1628  0.0296  0.5107
 4142SOL     OW23884   0.761   2.075   5.032 -0.2429 -0.0722  0.2984
 4142SOL    HW123885   0.838   2.065   4.975  0.0777 -2.2498  1.0995
 4142SOL    HW223886   0.696   2.026   4.981 -0.9995  2.3207 -1.0134
 4143SOL     OW23887   2.516   4.160   4.200  0.2998  0.4685  0.0064
 4143SOL    HW123888   2.558   4.198   4.277  0.9231 -0.2455  0.0186
 4143SOL    HW223889   2.472   4.082   4.234  2.4207 -0.1399  1.3819
 4144SOL     OW23890   0.277   3.599   8.334 -0.0597  0.2304  0.0784
 4144SOL    HW123891   0.240   3.656   8.401 -2.7305 -0.6700 -0.6511
 4144SOL    HW223892   0.358   3.647   8.316 -1.6656  3.7346  2.0603
 4145SOL     OW23893   3.623   1.533   8.156 -0.3666  0.0567  0.2746
 4145SOL    HW123894   3.601   1.441   8.167 -0.8911  0.1034 -0.3780
 4145SOL    HW223895   3.553   1.554   8.093 -0.4935 -0.6893  0.1632
 4146SOL     OW23896   3.386   3.514   3.531 -0.2059 -0.2062 -0.5743
 4146SOL    HW123897   3.359   3.545   3.445  0.2688  0.1414 -0.5980
 4146SOL    HW223898   3.470   3.470   3.515  2.1795  3.2187  2.3437
 4147SOL     OW23899   2.899   2.716  14.317  0.0088  0.2361 -0.3431
 4147SOL    HW123900   2.828   2.663  14.280  1.0105 -1.5158  0.2628
 4147SOL    HW223901   2.974   2.693  14.264 -0.8012 -0.1003 -1.3498
 4148SOL     OW23902   1.609   4.390   8.192  0.0456  0.6441  0.2727
 4148SOL    HW123903   1.660   4.420   8.268 -0.1127  0.6314  0.3842
 4148SOL    HW223904   1.538   4.450   8.215 -0.3776 -0.3997  1.7180
 4149SOL     OW23905   3.934   1.782   6.011  0.2062 -0.0803  0.1071
 4149SOL    HW123906   3.992   1.828   6.073 -1.3980  1.0668  0.7707
 4149SOL    HW223907   3.986   1.780   5.931  0.5355 -0.9529  0.3527
 4150SOL     OW23908   3.633   3.591  10.558  0.3983 -0.8743  0.1825
 4150SOL    HW123909   3.570   3.658  10.531 -1.1010 -1.0582  3.2670
 4150SOL    HW223910   3.649   3.558  10.470  0.0052  0.0170 -0.2223
 4151SOL     OW23911   0.567   1.634   4.632 -0.3389 -0.0773  0.6600
 4151SOL    HW123912   0.535   1.559   4.582  2.1283 -0.7136  0.0721
 4151SOL    HW223913   0.515   1.707   4.598  2.0261  1.1391 -0.2957
 4152SOL     OW23914   4.286   1.459  13.269 -0.1594  0.1895 -0.0971
 4152SOL    HW123915   4.373   1.495  13.290 -1.8292  2.3914  2.9843
 4152SOL    HW223916   4.220   1.493  13.328 -0.6515  0.1889 -0.6487
 4153SOL     OW23917   1.404   2.371   6.812  0.9095 -0.1257 -0.2692
 4153SOL    HW123918   1.422   2.464   6.806  3.0227 -0.5630 -0.7555
 4153SOL    HW223919   1.472   2.334   6.870  0.5970 -0.4312 -0.0936
 4154SOL     OW23920   3.909   1.258  10.413  0.3669 -0.6294 -0.1379
 4154SOL    HW123921   3.947   1.171  10.428  2.6881  0.4610  0.2593
 4154SOL    HW223922   3.925   1.308  10.493 -1.2739 -1.2580  0.5696
 4155SOL     OW23923   1.603   0.496   1.112  0.0499 -0.0678 -0.6369
 4155SOL    HW123924   1.587   0.588   1.135  0.0915  0.0727 -1.1664
 4155SOL    HW223925   1.547   0.454   1.177 -0.1645 -0.2058 -0.9099
 4156SOL     OW23926   1.596   0.947   1.005 -0.5290  0.3684 -0.1556
 4156SOL    HW123927   1.557   0.877   1.057  2.7213 -1.9241 -0.7741
 4156SOL    HW223928   1.615   0.903   0.922 -0.5450 -3.4029  1.8854
 4157SOL     OW23929   0.839   0.498   7.607  0.3884  0.2166  0.1852
 4157SOL    HW123930   0.807   0.447   7.533 -0.9199 -1.1382  1.6771
 4157SOL    HW223931   0.932   0.498   7.583 -0.4253  1.6606 -3.0074
 4158SOL     OW23932   2.724   0.941   3.374  0.1711 -0.4285  0.1288
 4158SOL    HW123933   2.741   1.002   3.446 -0.9520 -0.1607  0.1556
 4158SOL    HW223934   2.810   0.926   3.334  1.1729  4.2703  0.5065
 4159SOL     OW23935   0.679   3.070   6.494 -0.2449 -0.2539  0.0563
 4159SOL    HW123936   0.682   3.041   6.585 -1.4798  1.7452  0.7285
 4159SOL    HW223937   0.768   3.043   6.471 -0.1254 -1.3473  1.7929
 4160SOL     OW23938   1.663   4.559   3.335 -0.0228 -0.2835  0.1954
 4160SOL    HW123939   1.708   4.630   3.290 -1.3292  0.2728 -0.2390
 4160SOL    HW223940   1.580   4.565   3.286 -0.4161 -0.2532  0.8678
 4161SOL     OW23941   0.262   4.226   3.488 -0.2767  0.3358 -0.4324
 4161SOL    HW123942   0.351   4.250   3.516 -0.2257  0.0160 -0.3173
 4161SOL    HW223943   0.267   4.191   3.399 -1.4284  0.2934 -0.4824
 4162SOL     OW23944   1.676   0.150   5.433  0.2873  0.0487 -0.1171
 4162SOL    HW123945   1.643   0.071   5.474  0.4895  1.1397  2.1101
 4162SOL    HW223946   1.666   0.107   5.348 -0.2723  0.0941 -0.0687
 4163SOL     OW23947   2.868   1.333   9.645 -0.1134 -0.5514  0.2494
 4163SOL    HW123948   2.952   1.367   9.615 -0.0951  0.2983  1.2840
 4163SOL    HW223949   2.893   1.242   9.629  0.2280 -0.7554  1.9827
 4164SOL     OW23950   2.041   0.783   4.837 -0.0354  0.2409  0.6379
 4164SOL    HW123951   2.113   0.719   4.840 -1.5452 -1.3795  1.8454
 4164SOL    HW223952   2.016   0.789   4.929 -1.1938 -0.9515  0.3971
 4165SOL     OW23953   2.096   2.798   0.857 -0.0496  0.3445  0.7241
 4165SOL    HW123954   2.158   2.822   0.926  0.3129  1.6659 -0.0631
 4165SOL    HW223955   2.139   2.835   0.780  0.3858 -1.7759 -0.0542
 4166SOL     OW23956   0.055   4.200   8.534  0.4592  0.6177  0.0687
 4166SOL    HW123957   0.074   4.277   8.480  1.4843  0.4597  0.2061
 4166SOL    HW223958   0.133   4.201   8.590  1.6026 -0.7722 -1.4894
 4167SOL     OW23959   0.118   1.666  10.892 -0.5125  0.3372  0.1099
 4167SOL    HW123960   0.194   1.715  10.861 -1.7166  1.7097 -0.6675
 4167SOL    HW223961   0.073   1.661  10.807  0.3455  0.2148 -0.3461
 4168SOL     OW23962   4.332   4.375   8.832  0.0454 -0.4831 -0.2595
 4168SOL    HW123963   4.389   4.342   8.763 -1.1281 -2.0640 -0.4570
 4168SOL    HW223964   4.292   4.292   8.859 -1.3542 -0.1783 -1.4151
 4169SOL     OW23965   1.659   1.898  17.461 -0.0840 -0.0758 -0.5816
 4169SOL    HW123966   1.699   1.815  17.489  2.3741  1.5043  0.5452
 4169SOL    HW223967   1.581   1.888  17.515  1.2765 -0.8018  1.2381
 4170SOL     OW23968   2.729   4.473  11.005 -0.0687  0.4499  0.4624
 4170SOL    HW123969   2.640   4.508  11.008 -1.0138 -1.7507 -1.6510
 4170SOL    HW223970   2.772   4.558  11.016  0.8799 -0.1363  1.2993
 4171SOL     OW23971   2.880   4.266   8.238  0.2260 -0.0490 -0.4989
 4171SOL    HW123972   2.939   4.339   8.257 -0.3303  0.4601 -0.7110
 4171SOL    HW223973   2.843   4.247   8.324 -0.8788 -0.0459 -0.9707
 4172SOL     OW23974   3.714   4.010   3.969  0.0508 -0.7501  0.2812
 4172SOL    HW123975   3.672   4.091   3.940 -0.9346 -0.7109  1.7846
 4172SOL    HW223976   3.637   3.953   3.974 -0.4925  0.3586  4.7874
 4173SOL     OW23977   3.825   4.392   2.475  0.4632 -0.3768 -0.2455
 4173SOL    HW123978   3.919   4.404   2.470  0.6397 -2.1165 -1.3127
 4173SOL    HW223979   3.816   4.345   2.391 -2.0871  0.7952 -0.6452
 4174SOL     OW23980   2.082   4.142   5.586  0.5669 -0.2374  0.3784
 4174SOL    HW123981   2.079   4.085   5.509  0.5407  0.1518  0.0908
 4174SOL    HW223982   2.158   4.200   5.574 -0.2983  0.4738 -1.7884
 4175SOL     OW23983   2.479   0.579  16.436  0.4816  0.0811 -0.4311
 4175SOL    HW123984   2.515   0.609  16.353  0.5326 -1.0005 -0.8017
 4175SOL    HW223985   2.411   0.515  16.413 -0.4010  0.7641  0.2445
 4176SOL     OW23986   3.972   2.851   4.713  0.0792  0.2033  0.3628
 4176SOL    HW123987   3.945   2.930   4.665  0.4875 -0.8436 -1.5870
 4176SOL    HW223988   4.068   2.854   4.707  0.1498 -0.2515  1.3513
 4177SOL     OW23989   3.621   4.526   4.467  0.0624 -0.1555 -0.6780
 4177SOL    HW123990   3.582   4.610   4.443 -2.4017 -1.2644 -0.5944
 4177SOL    HW223991   3.609   4.480   4.383  0.4456  1.8528 -1.8229
 4178SOL     OW23992   2.630   0.653   6.002 -0.1600  0.8480 -0.2114
 4178SOL    HW123993   2.636   0.583   6.066  2.3132 -0.6976 -2.1491
 4178SOL    HW223994   2.707   0.633   5.949 -0.6300 -2.3617  0.3025
 4179SOL     OW23995   2.860   2.444  17.152 -0.1009 -0.2694 -0.1306
 4179SOL    HW123996   2.933   2.407  17.101 -0.0876  2.2804 -1.9505
 4179SOL    HW223997   2.905   2.479  17.228 -2.7133  1.0508  0.8044
 4180SOL     OW23998   2.318   1.204   5.984 -0.4599  0.0711  0.2367
 4180SOL    HW123999   2.288   1.257   5.910 -2.0750  1.4375  1.9033
 4180SOL    HW224000   2.395   1.160   5.946 -2.3215 -0.9365 -2.3956
 4181SOL     OW24001   1.778   0.139   3.623 -0.3257  0.1964 -0.4729
 4181SOL    HW124002   1.694   0.133   3.577 -0.5437 -0.4839  0.0139
 4181SOL    HW224003   1.819   0.197   3.559 -3.4006  0.6013 -2.0712
 4182SOL     OW24004   2.270   3.583   6.679  0.4949  0.1012  0.1403
 4182SOL    HW124005   2.356   3.625   6.669  0.6877 -0.3190  0.0416
 4182SOL    HW224006   2.209   3.633   6.733 -0.5322 -0.1177 -0.7985
 4183SOL     OW24007   3.444   0.738   6.845  0.0059  0.6022  0.3287
 4183SOL    HW124008   3.393   0.757   6.923  1.0749 -0.3540  1.2668
 4183SOL    HW224009   3.473   0.823   6.811  2.8039  0.0003  1.2161
 4184SOL     OW24010   2.395   3.121  10.435  0.1374 -0.2573  0.5330
 4184SOL    HW124011   2.400   3.216  10.440  0.1346 -0.1881 -1.0745
 4184SOL    HW224012   2.355   3.108  10.521  0.3513 -0.2616  0.6327
 4185SOL     OW24013   2.866   1.124   5.660 -0.5577 -0.2475 -0.4531
 4185SOL    HW124014   2.826   1.206   5.632  2.7436  0.7562 -2.1847
 4185SOL    HW224015   2.955   1.132   5.627 -0.3476  1.3226  0.5234
 4186SOL     OW24016   4.107   0.687  12.444 -0.0072  0.0508  0.4623
 4186SOL    HW124017   4.088   0.633  12.521  1.9368  0.9331  1.5541
 4186SOL    HW224018   4.031   0.654  12.396  0.9491 -1.1698 -0.2057
 4187SOL     OW24019   3.180   0.104   7.594  0.3836 -0.3943 -0.2573
 4187SOL    HW124020   3.161   0.195   7.620  0.6484 -0.3294 -0.2941
 4187SOL    HW224021   3.209   0.067   7.677 -0.3730 -1.2366 -0.3731
 4188SOL     OW24022   4.359   3.389   7.214 -0.0512  1.0632 -0.3937
 4188SOL    HW124023   4.328   3.384   7.123  0.2921 -0.8168 -0.4117
 4188SOL    HW224024   4.280   3.406   7.266 -0.0286 -1.0637  0.3130
 4189SOL     OW24025   3.599   1.960   4.551 -0.4007  0.3452  0.2022
 4189SOL    HW124026   3.540   2.024   4.513  0.7948  0.0400 -2.1521
 4189SOL    HW224027   3.532   1.894   4.568  0.1053 -0.4652 -0.9208
 4190SOL     OW24028   0.878   1.710  12.335 -0.1973  0.2244  0.2459
 4190SOL    HW124029   0.945   1.777  12.347  0.4394 -0.0942 -1.5122
 4190SOL    HW224030   0.930   1.653  12.279 -0.7989  0.2748 -0.3648
 4191SOL     OW24031   0.142   0.802   4.554  0.7028 -0.1108  0.8976
 4191SOL    HW124032   0.207   0.828   4.620 -0.1339  0.1920  1.5939
 4191SOL    HW224033   0.087   0.749   4.611  0.5474  0.6977  1.4891
 4192SOL     OW24034   1.996   4.712   0.040  0.2479  0.3149 -0.2697
 4192SOL    HW124035   1.925   4.720   0.104  0.3214  0.1420 -0.1665
 4192SOL    HW224036   2.056   4.662   0.095  0.7716  0.3888 -0.7770
 4193SOL     OW24037   2.049   4.141   9.005 -0.3159  0.2771  0.1320
 4193SOL    HW124038   1.982   4.169   9.068 -0.2608 -1.9931  1.2241
 4193SOL    HW224039   2.125   4.148   9.063 -0.3174 -0.7475  0.2698
 4194SOL     OW24040   4.102   2.899  14.865  0.0994 -0.0657  0.0585
 4194SOL    HW124041   4.180   2.854  14.897  0.9029 -0.3878 -2.3884
 4194SOL    HW224042   4.068   2.933  14.948  1.2120 -1.4901  1.0811
 4195SOL     OW24043   4.551   1.954  11.667  0.6572 -0.4135 -0.6167
 4195SOL    HW124044   4.525   1.878  11.614  1.2748 -0.5470 -0.7319
 4195SOL    HW224045   4.503   1.936  11.748 -0.2398  2.6945 -0.4636
 4196SOL     OW24046   0.563   3.011   2.653 -0.4704  0.3860 -0.3450
 4196SOL    HW124047   0.579   3.018   2.559  1.0017  3.3848  0.1078
 4196SOL    HW224048   0.519   3.094   2.670 -2.0049 -0.4472 -0.2270
 4197SOL     OW24049   0.711   1.059  12.401 -0.0819 -0.5391  0.1026
 4197SOL    HW124050   0.704   1.154  12.405  4.0066 -0.1683 -1.8785
 4197SOL    HW224051   0.760   1.034  12.323  0.4624 -0.3968  0.3968
 4198SOL     OW24052   4.653   4.418  12.009 -0.4080  0.1133 -0.3419
 4198SOL    HW124053   4.703   4.383  11.936  1.3184  1.0554  0.3947
 4198SOL    HW224054   4.718   4.463  12.063 -0.3143 -1.9579  1.2601
 4199SOL     OW24055   4.405   3.378   8.138  0.1370 -0.4551 -0.4312
 4199SOL    HW124056   4.313   3.362   8.119  0.6977 -5.1791  0.7719
 4199SOL    HW224057   4.409   3.417   8.225 -1.1701 -0.2572 -0.4743
 4200SOL     OW24058   3.144   0.233  16.151 -0.3934  0.0420 -0.1577
 4200SOL    HW124059   3.239   0.225  16.140 -0.3362 -1.6659  1.6085
 4200SOL    HW224060   3.136   0.221  16.246  1.3439  0.9394  0.0990
 4201SOL     OW24061   1.979   2.107   7.747  0.2434  0.3993 -0.0275
 4201SOL    HW124062   1.991   2.077   7.657 -0.7156 -0.1778  0.0362
 4201SOL    HW224063   1.967   2.028   7.801  0.0389 -0.2979 -1.0915
 4202SOL     OW24064   3.644   3.350  11.558  0.2539  0.2151 -0.1628
 4202SOL    HW124065   3.713   3.367  11.622 -0.0895  1.7433 -0.2004
 4202SOL    HW224066   3.700   3.302  11.496  2.1662  1.1497  0.8500
 4203SOL     OW24067   4.477   4.711   5.723 -0.1676 -0.1145  0.2922
 4203SOL    HW124068   4.381   4.707   5.721 -0.1505  0.1851 -1.1758
 4203SOL    HW224069   4.487   4.670   5.809  1.8340 -0.1949  0.0251
 4204SOL     OW24070   3.352   0.103   3.511 -0.6191  0.0181  0.1811
 4204SOL    HW124071   3.423   0.079   3.451  0.0003  3.2526 -0.4100
 4204SOL    HW224072   3.291   0.030   3.497  0.3405 -0.5479 -1.1107
 4205SOL     OW24073   3.734   4.645   5.888  0.7319 -0.1972  0.1113
 4205SOL    HW124074   3.750   0.017   5.886 -0.5889  0.0041 -1.1395
 4205SOL    HW224075   3.780   4.619   5.968  0.3467 -1.3727 -0.0469
 4206SOL     OW24076   1.412   4.358  14.016  0.0817 -0.4858  0.0337
 4206SOL    HW124077   1.438   4.307  14.093  1.0466  0.7637  0.5362
 4206SOL    HW224078   1.451   4.442  14.043  1.1835 -1.8189  2.6146
 4207SOL     OW24079   2.692   1.513  14.867 -0.4497 -0.4177  0.4250
 4207SOL    HW124080   2.666   1.597  14.828 -0.5371 -1.3833 -1.5763
 4207SOL    HW224081   2.671   1.449  14.800  2.3699 -0.8135 -0.1028
 4208SOL     OW24082   3.016   3.938   7.479  0.1196 -0.1672  0.1212
 4208SOL    HW124083   3.075   3.864   7.493 -0.6266 -0.5551  1.2320
 4208SOL    HW224084   3.037   4.000   7.549 -1.0029 -0.3351  0.6122
 4209SOL     OW24085   2.435   0.908   9.275 -0.1393  0.8217  0.4922
 4209SOL    HW124086   2.520   0.868   9.261 -0.1085  0.9265  0.3751
 4209SOL    HW224087   2.412   0.866   9.358  0.0090  1.6506  0.9590
 4210SOL     OW24088   0.259   2.375   5.030  0.3691 -0.0809  0.0370
 4210SOL    HW124089   0.187   2.436   5.017  1.4713  0.9137 -1.2824
 4210SOL    HW224090   0.313   2.400   4.955  1.0952 -1.6002  0.0549
 4211SOL     OW24091   1.593   4.245  11.556 -0.4558  0.3610  0.0707
 4211SOL    HW124092   1.569   4.157  11.585  1.6909 -0.7262 -1.3986
 4211SOL    HW224093   1.524   4.300  11.591 -0.8956 -0.6159  0.7363
 4212SOL     OW24094   2.958   1.588  10.927 -0.4925 -0.5405  0.6142
 4212SOL    HW124095   2.918   1.513  10.970 -0.5704  0.6673  2.6462
 4212SOL    HW224096   2.910   1.664  10.960  1.7130  0.7352  0.8921
 4213SOL     OW24097   2.463   3.995   5.598 -0.2977  0.0741  0.4805
 4213SOL    HW124098   2.443   4.040   5.516  1.1326 -1.0362 -0.4724
 4213SOL    HW224099   2.535   3.937   5.572 -0.3085  0.4276 -0.3251
 4214SOL     OW24100   2.505   0.491  14.140  0.1728  0.8196 -0.4923
 4214SOL    HW124101   2.514   0.586  14.141  0.2412  0.8117 -0.2760
 4214SOL    HW224102   2.521   0.473  14.047 -0.8465 -0.2544 -0.4668
 4215SOL     OW24103   3.945   0.644  15.969  0.1032  0.9012  0.1037
 4215SOL    HW124104   3.977   0.734  15.969 -0.1333  0.9794 -0.6188
 4215SOL    HW224105   4.027   0.613  15.931 -0.4998 -1.5094  0.7822
 4216SOL     OW24106   1.797   3.477   7.245  0.7258 -0.1940 -0.5977
 4216SOL    HW124107   1.833   3.391   7.223  1.5911  0.4104 -1.5791
 4216SOL    HW224108   1.852   3.507   7.318  0.6768 -0.6024 -0.3962
 4217SOL     OW24109   0.578   1.175   0.836  0.6012  0.0143 -0.0096
 4217SOL    HW124110   0.603   1.254   0.788  0.5908  1.1226  1.8526
 4217SOL    HW224111   0.511   1.208   0.896  1.4224 -0.1741  1.0042
 4218SOL     OW24112   1.546   4.135   7.109  0.2955 -0.3182  0.4137
 4218SOL    HW124113   1.573   4.101   7.023  1.7326 -0.9859  1.1355
 4218SOL    HW224114   1.452   4.116   7.109  0.2969 -0.3240  0.9153
 4219SOL     OW24115   4.380   1.293   6.408 -0.1166 -0.4389  0.6688
 4219SOL    HW124116   4.382   1.339   6.324  1.0616  1.6471  1.8397
 4219SOL    HW224117   4.403   1.359   6.474  0.9007 -0.1552  0.0340
 4220SOL     OW24118   0.919   2.777   2.103  0.0946  0.2968  0.7680
 4220SOL    HW124119   0.912   2.808   2.193 -0.5352 -0.6918  1.0625
 4220SOL    HW224120   1.003   2.731   2.103 -0.5083 -0.8049  2.3548
 4221SOL     OW24121   2.981   4.322   5.944 -0.4306 -0.1143 -0.4864
 4221SOL    HW124122   2.986   4.369   6.027 -1.1266 -0.4777 -0.2480
 4221SOL    HW224123   3.060   4.355   5.900  0.1320 -0.6898  0.0865
 4222SOL     OW24124   1.162   2.881   1.767  0.2674  0.0461  0.2318
 4222SOL    HW124125   1.104   2.807   1.753  1.1462 -0.5660 -0.2150
 4222SOL    HW224126   1.150   2.915   1.678 -0.1842  0.7063  0.5401
 4223SOL     OW24127   0.518   0.552  17.565  0.0930 -0.2106  0.0387
 4223SOL    HW124128   0.581   0.621  17.586  1.6041 -1.6398  0.2505
 4223SOL    HW224129   0.475   0.583  17.485  3.9288  2.0718 -1.1252
 4224SOL     OW24130   2.568   1.578   5.349 -0.4725 -0.3721  0.4412
 4224SOL    HW124131   2.621   1.499   5.333  3.6395  2.1961  1.3976
 4224SOL    HW224132   2.625   1.643   5.308 -1.4885 -0.3754 -1.0017
 4225SOL     OW24133   2.339   3.810   2.543  0.1022  0.0457 -0.6479
 4225SOL    HW124134   2.253   3.847   2.558  0.6000  0.3932  1.4226
 4225SOL    HW224135   2.318   3.719   2.563  2.3942 -0.2583  0.4628
 4226SOL     OW24136   3.575   4.128   0.040  0.1789 -0.1652  0.0427
 4226SOL    HW124137   3.647   4.067   0.055  0.5619  0.0736 -0.8046
 4226SOL    HW224138   3.504   4.069   0.015 -1.0030  1.0245  0.6024
 4227SOL     OW24139   2.817   0.776  16.551 -0.2188 -0.2950 -0.1208
 4227SOL    HW124140   2.832   0.692  16.508 -0.5818 -0.2590 -0.3230
 4227SOL    HW224141   2.909   0.801  16.558 -0.2544 -0.4491  0.8604
 4228SOL     OW24142   0.625   4.442   0.609  0.0163  0.1365 -0.3338
 4228SOL    HW124143   0.692   4.420   0.545  0.8973 -0.6364  0.8526
 4228SOL    HW224144   0.562   4.374   0.588 -0.6773  0.6155  0.2078
 4229SOL     OW24145   2.438   2.321  11.767 -0.6090 -0.2365  0.0096
 4229SOL    HW124146   2.508   2.348  11.707  1.0233 -0.5452  1.7593
 4229SOL    HW224147   2.362   2.364  11.728 -0.7482 -1.0250 -0.5997
 4230SOL     OW24148   4.647   3.689   8.840 -0.1549  0.3102 -0.3444
 4230SOL    HW124149   4.712   3.655   8.778 -2.0210 -4.2658  0.1963
 4230SOL    HW224150   4.710   3.724   8.903  0.3594  1.2897 -1.3893
 4231SOL     OW24151   3.888   2.783   8.339  0.5791 -0.1501 -0.1441
 4231SOL    HW124152   3.909   2.868   8.377  0.4702 -0.0935 -0.2090
 4231SOL    HW224153   3.915   2.727   8.412 -1.9605 -2.7226 -1.1324
 4232SOL     OW24154   2.944   2.946   4.468  0.0603  0.0790 -0.0338
 4232SOL    HW124155   2.936   3.028   4.419 -2.0583  0.0333  0.2469
 4232SOL    HW224156   3.032   2.912   4.452  0.6721  0.8270  1.6845
 4233SOL     OW24157   2.016   4.067   8.286  0.4702  0.0775 -0.3500
 4233SOL    HW124158   2.053   4.156   8.285 -1.0190  0.7008 -0.5061
 4233SOL    HW224159   2.002   4.051   8.379 -0.0998  3.2579  0.1375
 4234SOL     OW24160   4.539   1.840   6.749  0.2696 -0.2716 -0.2008
 4234SOL    HW124161   4.542   1.912   6.812  0.1394  0.5688 -1.1447
 4234SOL    HW224162   4.537   1.891   6.668  0.4479  1.8178  1.1137
 4235SOL     OW24163   3.715   3.253   0.101 -0.7403  0.1934  0.3743
 4235SOL    HW124164   3.778   3.183   0.118 -0.4643  0.2871 -0.2800
 4235SOL    HW224165   3.738   3.315   0.170 -0.4446 -0.3780  0.7843
 4236SOL     OW24166   4.357   3.760   1.947  0.2244 -0.0425 -0.2069
 4236SOL    HW124167   4.316   3.747   1.861 -3.1924 -0.3955  1.4553
 4236SOL    HW224168   4.350   3.854   1.961 -0.1602 -0.2376  0.9630
 4237SOL     OW24169   0.941   1.986   8.213 -0.1703 -0.2758 -0.0809
 4237SOL    HW124170   0.955   2.051   8.282  4.9470 -0.3189 -1.0236
 4237SOL    HW224171   0.954   1.911   8.271 -0.5526 -2.4681 -2.8011
 4238SOL     OW24172   1.517   4.149   2.988  0.0819  0.1061 -0.4158
 4238SOL    HW124173   1.521   4.066   2.942  0.9532  0.1114 -0.3579
 4238SOL    HW224174   1.542   4.216   2.924 -1.5137 -0.1302 -1.2629
 4239SOL     OW24175   2.448   0.672   5.134  0.0618 -0.7982 -0.5899
 4239SOL    HW124176   2.540   0.669   5.109 -0.0275  1.7153 -1.2534
 4239SOL    HW224177   2.434   0.757   5.176 -0.4287 -0.6188 -1.1048
 4240SOL     OW24178   3.918   0.016  15.192 -0.1350 -0.4151 -0.3864
 4240SOL    HW124179   3.913   0.061  15.276  1.1456 -2.3126  0.7034
 4240SOL    HW224180   4.010   0.024  15.166 -0.3591  1.3232 -0.6248
 4241SOL     OW24181   1.966   2.311   1.054 -0.0224 -0.0769 -0.3421
 4241SOL    HW124182   2.052   2.269   1.046 -0.6763 -1.3818 -0.5106
 4241SOL    HW224183   1.989   2.392   1.098  1.4253 -0.6877  0.0296
 4242SOL     OW24184   1.261   4.706   8.072 -0.4896 -0.2585  0.2410
 4242SOL    HW124185   1.282   0.061   8.021  0.5255 -2.2270 -2.2958
 4242SOL    HW224186   1.167   4.715   8.090 -1.1496  0.1580 -3.5261
 4243SOL     OW24187   2.107   0.136  11.235  0.2283  0.2019 -0.1157
 4243SOL    HW124188   2.013   0.148  11.222 -0.0588  0.8749  2.6910
 4243SOL    HW224189   2.135   0.227  11.243 -0.0634  0.4398 -1.7315
 4244SOL     OW24190   1.364   3.543   1.875 -0.1465  0.1088  0.5153
 4244SOL    HW124191   1.362   3.555   1.780  1.9331  0.9564  0.5909
 4244SOL    HW224192   1.401   3.455   1.875 -3.2922 -1.2178 -0.6931
 4245SOL     OW24193   1.813   2.175   5.342 -0.1246 -0.0471  0.0076
 4245SOL    HW124194   1.884   2.132   5.295 -0.8281  0.2532 -1.3140
 4245SOL    HW224195   1.863   2.249   5.378  0.9159 -0.2372 -1.0464
 4246SOL     OW24196   1.550   2.899  14.125  0.1129  0.2867 -1.0945
 4246SOL    HW124197   1.541   2.892  14.030  0.0451  1.0205 -1.1350
 4246SOL    HW224198   1.471   2.863  14.165  0.7450  1.2510  1.0205
 4247SOL     OW24199   4.499   1.819   8.247  0.0305  0.2623 -0.1403
 4247SOL    HW124200   4.462   1.803   8.334 -1.2031 -1.1697 -0.9070
 4247SOL    HW224201   4.591   1.806   8.268  0.0477 -0.3250 -0.5900
 4248SOL     OW24202   2.594   4.451  12.491  0.6577 -0.2311  0.6516
 4248SOL    HW124203   2.557   4.365  12.509  0.2438 -0.3722 -0.8782
 4248SOL    HW224204   2.671   4.439  12.547  1.2111 -0.1881 -0.1108
 4249SOL     OW24205   4.682   1.148   4.840 -0.3418  0.0540  0.4463
 4249SOL    HW124206   4.702   1.062   4.876 -1.3499 -0.9874 -1.4904
 4249SOL    HW224207   4.716   1.142   4.751  2.1269  2.4635  1.2499
 4250SOL     OW24208   1.041   2.320   0.208 -0.8949  0.1953  0.0360
 4250SOL    HW124209   1.099   2.381   0.164  0.5467 -1.6688 -0.6478
 4250SOL    HW224210   0.960   2.331   0.158 -2.0223  1.8129  2.2462
 4251SOL     OW24211   1.838   4.021   2.956  0.1402 -0.0724  0.6194
 4251SOL    HW124212   1.888   4.018   2.875  0.5831  0.1751  0.8798
 4251SOL    HW224213   1.871   4.106   2.986 -0.1722  0.1773  0.2496
 4252SOL     OW24214   2.821   1.898   6.796 -0.0823  0.4264 -0.0004
 4252SOL    HW124215   2.755   1.868   6.733  1.0060 -1.5544 -0.2018
 4252SOL    HW224216   2.845   1.820   6.847  2.2468  0.2330 -1.4000
 4253SOL     OW24217   2.684   4.246  13.898 -0.0811 -0.1071 -0.2962
 4253SOL    HW124218   2.691   4.193  13.978 -1.6201 -0.1170 -0.1687
 4253SOL    HW224219   2.702   4.180  13.831  0.7417  1.3095 -1.4667
 4254SOL     OW24220   0.328   2.365   6.303  0.5544 -1.0497 -0.6833
 4254SOL    HW124221   0.333   2.271   6.318 -0.0176 -1.6021 -3.8544
 4254SOL    HW224222   0.379   2.400   6.375 -1.7335  2.3072 -0.6888
 4255SOL     OW24223   1.853   2.836   5.795 -0.4469 -0.4303  0.2218
 4255SOL    HW124224   1.915   2.875   5.856  0.3997 -0.4522 -0.6288
 4255SOL    HW224225   1.778   2.815   5.850  2.1875 -0.1574  3.9271
 4256SOL     OW24226   4.402   0.562   5.738 -0.0795 -0.2165  0.0908
 4256SOL    HW124227   4.369   0.631   5.795  2.3202  0.6908  0.3555
 4256SOL    HW224228   4.495   0.581   5.749  0.6817 -2.1517 -3.0213
 4257SOL     OW24229   2.046   3.518   3.805  0.9964 -0.5096 -0.1482
 4257SOL    HW124230   1.996   3.482   3.732 -0.0456 -0.1820  0.4148
 4257SOL    HW224231   2.064   3.436   3.850 -0.6170 -1.0263 -0.4806
 4258SOL     OW24232   4.462   4.511  10.593 -0.0321  0.2233  0.2000
 4258SOL    HW124233   4.375   4.490  10.626  0.4391 -1.3175  0.4524
 4258SOL    HW224234   4.427   4.538  10.507 -1.2536  1.6955  1.1598
 4259SOL     OW24235   1.545   2.233   4.638 -0.2474  0.2382  0.0053
 4259SOL    HW124236   1.466   2.225   4.692 -0.3687 -0.0114 -0.2053
 4259SOL    HW224237   1.571   2.143   4.620  3.9990  1.7504 -1.3333
 4260SOL     OW24238   1.682   2.267  12.449  0.3408 -0.4827  0.2631
 4260SOL    HW124239   1.770   2.245  12.481  1.1054  2.8783  0.4266
 4260SOL    HW224240   1.643   2.301  12.530 -1.2650  0.0056 -0.7301
 4261SOL     OW24241   1.793   4.104  10.647 -0.1982 -0.0032  0.0249
 4261SOL    HW124242   1.790   4.028  10.588 -1.5922  0.5039 -0.5730
 4261SOL    HW224243   1.698   4.117  10.641 -0.0537  0.9740 -0.0607
 4262SOL     OW24244   2.060   2.076  13.177  0.0466 -0.0219  0.4393
 4262SOL    HW124245   2.088   2.154  13.224 -0.0048 -0.4753  1.2236
 4262SOL    HW224246   2.024   2.024  13.248  0.2488 -1.2478 -0.3650
 4263SOL     OW24247   1.623   1.624  13.501  0.1311 -0.1349 -0.1441
 4263SOL    HW124248   1.680   1.555  13.535  0.7848 -0.4523 -1.8990
 4263SOL    HW224249   1.684   1.672  13.446  0.4770 -2.8103 -2.1069
 4264SOL     OW24250   0.772   2.313   2.506  0.7546 -0.1830  0.5500
 4264SOL    HW124251   0.855   2.347   2.541  0.6556 -0.3044  0.9100
 4264SOL    HW224252   0.786   2.220   2.528  2.2433  0.0854  0.7624
 4265SOL     OW24253   2.170   2.190   6.238  0.0479 -0.4366  0.0084
 4265SOL    HW124254   2.186   2.220   6.328  1.3572 -0.6817 -0.1385
 4265SOL    HW224255   2.076   2.204   6.240  0.0532 -0.3854 -0.1023
 4266SOL     OW24256   0.725   3.491   2.006  0.1434  0.3943 -0.2067
 4266SOL    HW124257   0.634   3.468   2.025  1.0861 -3.1951 -0.1553
 4266SOL    HW224258   0.726   3.585   2.023  0.2907  0.1450  1.1103
 4267SOL     OW24259   1.503   1.450   9.506  0.0919 -0.4185 -0.3692
 4267SOL    HW124260   1.478   1.425   9.595  2.1712 -3.7947 -0.7476
 4267SOL    HW224261   1.464   1.537   9.494  0.0402  0.1208  3.7304
 4268SOL     OW24262   2.215   3.372   6.517 -0.7443 -0.5535 -0.1452
 4268SOL    HW124263   2.164   3.412   6.447  0.3124 -1.8775 -1.6686
 4268SOL    HW224264   2.223   3.448   6.574 -1.3936 -0.2607 -0.4429
 4269SOL     OW24265   0.494   3.029  15.009  0.0357 -0.2405  0.3626
 4269SOL    HW124266   0.572   3.038  15.064 -1.0867  0.6239  1.8085
 4269SOL    HW224267   0.499   2.945  14.962  1.5092 -0.3577  0.7192
 4270SOL     OW24268   4.594   1.240  14.115 -0.4831  0.3910 -0.4454
 4270SOL    HW124269   4.531   1.206  14.051  0.7906  1.4578 -2.2397
 4270SOL    HW224270   4.564   1.190  14.191 -0.9655  2.9813  1.0803
 4271SOL     OW24271   2.151   4.258  12.727 -0.0388 -0.3480  0.0536
 4271SOL    HW124272   2.178   4.226  12.813 -1.0581  1.2283  0.9636
 4271SOL    HW224273   2.154   4.177  12.677  0.4453  0.8003 -1.7567
 4272SOL     OW24274   2.999   1.150   4.285 -0.1674  0.4313 -0.1667
 4272SOL    HW124275   2.911   1.114   4.282  0.1085 -0.3836  1.7693
 4272SOL    HW224276   2.996   1.218   4.352  0.7105  0.2303  0.0831
 4273SOL     OW24277   3.178   0.820   7.325  0.3367  0.1965  0.0279
 4273SOL    HW124278   3.098   0.814   7.377 -1.0295 -1.4674 -2.2375
 4273SOL    HW224279   3.205   0.730   7.342  5.0892  1.3688 -1.3043
 4274SOL     OW24280   1.540   3.053   0.130 -0.5078  0.6533  0.0728
 4274SOL    HW124281   1.466   3.031   0.186 -0.6034 -1.2130 -0.7762
 4274SOL    HW224282   1.597   2.976   0.141 -0.1328  1.0131  0.6184
 4275SOL     OW24283   3.331   3.904   6.271 -0.4658  0.8892 -0.1709
 4275SOL    HW124284   3.368   3.884   6.184 -1.0193 -3.1485  0.5131
 4275SOL    HW224285   3.404   3.895   6.333  1.5705 -1.4575 -2.8445
 4276SOL     OW24286   1.629   2.978   2.761 -0.8856 -0.3363  0.5502
 4276SOL    HW124287   1.550   2.967   2.709 -0.4547  2.3483 -0.6638
 4276SOL    HW224288   1.576   3.023   2.827 -1.6989  1.2257 -1.1906
 4277SOL     OW24289   2.315   4.209   7.712  0.5068 -0.2805  0.1496
 4277SOL    HW124290   2.368   4.153   7.655  0.8215  0.6838 -0.5091
 4277SOL    HW224291   2.255   4.146   7.753  0.3760 -2.0437 -2.7345
 4278SOL     OW24292   0.241   0.852   8.147  0.2888 -0.1282  0.1293
 4278SOL    HW124293   0.172   0.892   8.199  0.4357 -0.5552  0.6551
 4278SOL    HW224294   0.209   0.762   8.155 -1.5463  0.4817 -0.5658
 4279SOL     OW24295   3.849   3.601   6.498  0.2001 -0.1541 -0.2309
 4279SOL    HW124296   3.863   3.533   6.431 -1.3529  0.1519 -0.8806
 4279SOL    HW224297   3.759   3.569   6.512 -0.1398  0.8958 -0.0441
 4280SOL     OW24298   0.197   2.222  10.299 -0.0720  0.5354  0.3419
 4280SOL    HW124299   0.139   2.200  10.226 -0.1523 -3.5341  1.6513
 4280SOL    HW224300   0.272   2.166  10.278  1.9092  3.1373  0.5586
 4281SOL     OW24301   1.296   0.226  10.772 -0.8074 -0.6687  0.3559
 4281SOL    HW124302   1.316   0.140  10.734 -0.5367  0.1577 -1.3651
 4281SOL    HW224303   1.274   0.192  10.859 -0.0990 -1.9508  0.0328
 4282SOL     OW24304   1.357   2.508   5.963 -0.2013 -0.0730 -0.6107
 4282SOL    HW124305   1.262   2.517   5.956 -0.2462 -1.3662 -1.7889
 4282SOL    HW224306   1.385   2.597   5.985  0.3912 -0.6149  0.8329
 4283SOL     OW24307   1.828   2.306   7.630  0.1857 -0.2593  0.0782
 4283SOL    HW124308   1.859   2.265   7.549  1.4509 -1.1151  1.0032
 4283SOL    HW224309   1.880   2.255   7.692 -1.0623 -1.0149  0.4850
 4284SOL     OW24310   2.320   1.543   6.585 -0.4340  0.5199 -0.4726
 4284SOL    HW124311   2.329   1.616   6.645 -0.7057  1.2923 -1.3683
 4284SOL    HW224312   2.392   1.562   6.526 -0.6179  1.2697 -0.4499
 4285SOL     OW24313   3.940   4.523   3.089  0.5144 -0.3883  0.4834
 4285SOL    HW124314   3.928   4.505   3.183 -4.1115  0.0585 -0.0205
 4285SOL    HW224315   4.014   4.584   3.090 -1.8939  2.4838  1.8400
 4286SOL     OW24316   1.616   0.843   5.787 -0.2411 -0.0671  0.6454
 4286SOL    HW124317   1.635   0.926   5.831  4.3928 -1.7823  1.8960
 4286SOL    HW224318   1.558   0.804   5.853  0.4480 -0.9393  0.7435
 4287SOL     OW24319   4.443   2.416   9.171 -0.7191  0.0430 -0.1269
 4287SOL    HW124320   4.512   2.399   9.106 -0.2879 -0.0933  0.3697
 4287SOL    HW224321   4.386   2.474   9.120  0.2571  0.9825 -0.1536
 4288SOL     OW24322   4.204   0.041   5.750  0.1110 -0.4770  0.2091
 4288SOL    HW124323   4.212   0.070   5.841 -1.6903  0.4737  0.0491
 4288SOL    HW224324   4.151   0.113   5.717 -1.7311 -2.5363 -1.3255
 4289SOL     OW24325   2.326   1.058  11.145 -0.5218 -0.5505 -0.0538
 4289SOL    HW124326   2.300   0.994  11.211  1.8872 -0.6787  0.7617
 4289SOL    HW224327   2.421   1.055  11.158 -0.4295  0.6659 -0.4421
 4290SOL     OW24328   0.623   0.055  12.581  0.3853 -0.0073 -0.1600
 4290SOL    HW124329   0.715   0.031  12.586  1.1992  3.4624  1.6101
 4290SOL    HW224330   0.589   4.706  12.527  2.1972 -0.6772 -0.4043
 4291SOL     OW24331   4.049   3.666  15.292 -0.4888 -0.4201 -0.0147
 4291SOL    HW124332   3.995   3.594  15.259 -0.3917  0.0748 -1.2551
 4291SOL    HW224333   4.137   3.636  15.273 -1.1713 -0.8296 -2.6339
 4292SOL     OW24334   0.216   0.181  17.003 -0.1649 -0.4504 -0.2076
 4292SOL    HW124335   0.258   0.154  16.922 -2.1477  1.9400 -2.0353
 4292SOL    HW224336   0.276   0.141  17.066 -1.2958 -0.7165  0.6947
 4293SOL     OW24337   3.261   1.482   8.227 -0.2144 -0.1388  0.1849
 4293SOL    HW124338   3.234   1.434   8.149 -2.4837  0.9840  0.2962
 4293SOL    HW224339   3.198   1.553   8.231 -0.8111 -0.6861  0.5599
 4294SOL     OW24340   0.851   1.370   2.733 -0.2488  0.0313  0.1878
 4294SOL    HW124341   0.881   1.284   2.763  0.2257  0.7821  1.8285
 4294SOL    HW224342   0.921   1.391   2.671 -1.2206 -1.4140 -1.4014
 4295SOL     OW24343   3.276   3.923   0.780  0.4699  0.5618  0.5543
 4295SOL    HW124344   3.290   3.930   0.685 -1.8785 -0.2930  0.1516
 4295SOL    HW224345   3.345   3.981   0.814  1.0983  0.2102 -0.1217
 4296SOL     OW24346   4.588   2.089   4.463  0.1840 -0.2826  0.1262
 4296SOL    HW124347   4.615   2.152   4.530 -1.1362  0.2299  0.1642
 4296SOL    HW224348   4.608   2.006   4.507 -2.8710 -1.3194 -0.4578
 4297SOL     OW24349   1.371   2.684   8.946 -0.3951 -0.6386  0.2205
 4297SOL    HW124350   1.445   2.666   8.888 -0.3943  0.7381 -0.1956
 4297SOL    HW224351   1.414   2.675   9.031  1.5397  0.2492 -0.6941
 4298SOL     OW24352   0.607   3.406   4.704  0.4467 -0.2883  0.0939
 4298SOL    HW124353   0.657   3.456   4.639  1.3308 -1.0674  0.1752
 4298SOL    HW224354   0.559   3.346   4.647 -1.2833  1.4451 -0.3110
 4299SOL     OW24355   4.662   1.299   2.688 -0.1209  0.1262  0.7739
 4299SOL    HW124356   4.715   1.222   2.707 -0.1528  0.0652  0.6185
 4299SOL    HW224357   4.637   1.270   2.600 -1.2492  0.7859  0.8841
 4300SOL     OW24358   2.340   0.236  13.133 -0.4510 -0.1669  0.0772
 4300SOL    HW124359   2.384   0.220  13.216  1.2127  0.5996 -0.6424
 4300SOL    HW224360   2.381   0.164  13.085 -0.3989  0.2507 -0.5081
 4301SOL     OW24361   2.009   0.569   3.319 -0.2410 -0.3581 -0.2136
 4301SOL    HW124362   2.101   0.548   3.303 -0.4448 -0.1682 -1.6815
 4301SOL    HW224363   2.021   0.635   3.387 -1.4852 -0.3983  0.0449
 4302SOL     OW24364   0.293   2.694   2.552 -0.1922  0.1100  0.1154
 4302SOL    HW124365   0.294   2.779   2.508  1.6522 -0.4773 -0.9809
 4302SOL    HW224366   0.311   2.631   2.482  0.4480  0.4525 -0.0303
 4303SOL     OW24367   0.711   1.670   6.351  0.2473 -0.4054 -0.1765
 4303SOL    HW124368   0.687   1.578   6.343 -2.1559  0.1523  0.3813
 4303SOL    HW224369   0.801   1.647   6.372  0.0741  0.3678  1.3548
 4304SOL     OW24370   1.107   4.148   7.802 -0.5244 -0.4207  0.0886
 4304SOL    HW124371   1.079   4.067   7.843  0.9735 -1.0082 -0.0348
 4304SOL    HW224372   1.202   4.136   7.806 -0.6163 -0.8646  0.9464
 4305SOL     OW24373   2.173   0.573   4.976  0.3615 -0.4266  0.7674
 4305SOL    HW124374   2.108   0.503   4.973 -1.2693  1.1648 -0.9914
 4305SOL    HW224375   2.140   0.615   5.056 -0.5599  0.5900 -0.1439
 4306SOL     OW24376   2.512   2.428   5.167 -0.2538  0.0225  0.2470
 4306SOL    HW124377   2.478   2.414   5.079 -0.0609 -0.0832  0.1896
 4306SOL    HW224378   2.533   2.521   5.159  1.1817 -0.2722  0.6280
 4307SOL     OW24379   2.656   2.168   8.052 -0.2109 -0.4421 -0.3333
 4307SOL    HW124380   2.690   2.256   8.037 -1.4950  0.2714  0.9812
 4307SOL    HW224381   2.612   2.153   7.969  0.0777 -1.1701 -0.3578
 4308SOL     OW24382   2.889   3.469   3.967 -0.8987 -0.5484 -0.4589
 4308SOL    HW124383   2.859   3.414   3.894 -0.7890 -0.6736 -0.4091
 4308SOL    HW224384   2.836   3.433   4.038  1.1610  2.1406  2.4338
 4309SOL     OW24385   3.016   0.658   0.025 -0.3314 -0.1696  0.0733
 4309SOL    HW124386   2.957   0.698  17.653  0.5085  1.0735  0.0624
 4309SOL    HW224387   3.095   0.707   0.001 -0.3441 -0.6516 -0.9541
 4310SOL     OW24388   2.175   2.986  12.730  0.3422  0.0017  0.4717
 4310SOL    HW124389   2.156   3.020  12.818 -0.3638  1.8428 -0.3895
 4310SOL    HW224390   2.263   2.951  12.744 -0.1627  0.0365  3.7773
 4311SOL     OW24391   2.278   3.138   7.447 -0.7710 -0.1949 -0.0249
 4311SOL    HW124392   2.295   3.182   7.531 -0.1402 -0.4935  0.0027
 4311SOL    HW224393   2.319   3.052   7.453  0.7057  0.6823  2.3770
 4312SOL     OW24394   0.682   3.254   7.279  0.0081 -0.1700  0.1717
 4312SOL    HW124395   0.759   3.231   7.332 -0.0623 -0.4992  0.1296
 4312SOL    HW224396   0.613   3.209   7.327 -1.1775  0.4630 -0.9426
 4313SOL     OW24397   3.843   2.793   2.444  0.0267  0.1386  0.5539
 4313SOL    HW124398   3.903   2.850   2.397  1.7882 -0.9031  1.5322
 4313SOL    HW224399   3.777   2.860   2.462 -0.3416 -0.2038  0.4817
 4314SOL     OW24400   4.436   0.733   0.204 -0.1810  0.2152 -1.1697
 4314SOL    HW124401   4.487   0.686   0.270  1.3831  2.2549 -0.8979
 4314SOL    HW224402   4.416   0.665   0.140 -0.2026  0.2433 -1.1932
 4315SOL     OW24403   0.228   2.370   1.724 -0.3775 -0.0320 -0.0494
 4315SOL    HW124404   0.166   2.347   1.793  1.4439  0.1693  1.6247
 4315SOL    HW224405   0.301   2.406   1.774 -1.2987  0.4480  0.9452
 4316SOL     OW24406   2.819   1.885   8.737 -0.1597  0.3359 -0.3255
 4316SOL    HW124407   2.813   1.897   8.832  0.3736 -2.0647  0.0118
 4316SOL    HW224408   2.792   1.793   8.739  2.4131 -0.3865  1.7199
 4317SOL     OW24409   2.038   2.402   3.070  0.0271 -0.4012  0.0300
 4317SOL    HW124410   2.086   2.416   2.988 -3.3331 -1.1059 -2.0770
 4317SOL    HW224411   1.959   2.451   3.047 -0.0240 -0.3416  0.3395
 4318SOL     OW24412   3.200   2.266   8.299  0.0189 -0.0313 -0.3697
 4318SOL    HW124413   3.170   2.175   8.304  1.1563 -0.2713  2.4329
 4318SOL    HW224414   3.267   2.268   8.368 -0.7846  1.1353  0.3835
 4319SOL     OW24415   3.329   1.559   1.956  0.4776 -0.4167  0.2619
 4319SOL    HW124416   3.395   1.617   1.919 -1.6260  1.4808 -0.4970
 4319SOL    HW224417   3.298   1.622   2.021 -0.8847 -1.4642  0.6366
 4320SOL     OW24418   1.486   2.049  12.307 -0.0333  0.3802 -0.0908
 4320SOL    HW124419   1.577   2.073  12.327 -0.1783 -0.7797  2.0756
 4320SOL    HW224420   1.476   1.971  12.362 -1.2379  0.2336 -0.5308
 4321SOL     OW24421   3.341   2.496   4.086 -0.4569 -0.1009 -0.2287
 4321SOL    HW124422   3.407   2.447   4.037  0.5877  0.7094  0.3682
 4321SOL    HW224423   3.400   2.544   4.144 -2.1419 -0.6711  1.9255
 4322SOL     OW24424   2.082   0.959   3.719 -0.5577 -0.1010  0.2454
 4322SOL    HW124425   1.996   0.941   3.757  0.2658 -0.6326  1.8556
 4322SOL    HW224426   2.149   0.923   3.777 -1.2282 -1.3230  0.2856
 4323SOL     OW24427   4.439   2.428   2.884  0.1297  0.3784 -0.1402
 4323SOL    HW124428   4.427   2.445   2.791  1.9115 -0.0212 -0.4299
 4323SOL    HW224429   4.424   2.513   2.926  2.3597 -0.0041  1.4260
 4324SOL     OW24430   0.306   2.729   3.817 -0.9022 -0.1799 -0.2287
 4324SOL    HW124431   0.253   2.711   3.894  1.5702  0.0743  1.5099
 4324SOL    HW224432   0.325   2.639   3.790  2.3118  0.3877  0.1811
 4325SOL     OW24433   3.004   1.398   5.366 -0.0087 -0.1525 -0.1331
 4325SOL    HW124434   2.998   1.493   5.362  0.3037 -0.0005  2.6393
 4325SOL    HW224435   3.015   1.367   5.276  0.5669 -0.5188  0.0585
 4326SOL     OW24436   4.662   2.082   6.912 -1.2097 -0.4715  0.6219
 4326SOL    HW124437   4.669   2.120   6.999  0.7134  2.7991 -0.9292
 4326SOL    HW224438   4.697   1.999   6.944 -1.3327 -0.7189  0.1269
 4327SOL     OW24439   3.571   3.626   8.155 -0.6567 -0.2925  0.0077
 4327SOL    HW124440   3.495   3.612   8.212 -0.7803 -3.1465 -0.8548
 4327SOL    HW224441   3.638   3.560   8.175 -0.6016  0.2737  1.6771
 4328SOL     OW24442   2.135   2.707   1.487  0.2776  0.1723  0.7212
 4328SOL    HW124443   2.140   2.758   1.568 -3.4110 -0.7193  1.5045
 4328SOL    HW224444   2.062   2.649   1.508  0.0273  0.3693  0.3946
 4329SOL     OW24445   0.690   2.605   1.420 -0.6067 -0.1627 -0.1759
 4329SOL    HW124446   0.778   2.568   1.406  0.4122  1.6797  1.2961
 4329SOL    HW224447   0.654   2.607   1.332 -0.5741  0.9072 -0.1574
 4330SOL     OW24448   2.248   2.558   4.840 -0.1079  0.0419 -0.1183
 4330SOL    HW124449   2.196   2.605   4.775  1.2305 -0.4522 -1.5421
 4330SOL    HW224450   2.209   2.471   4.832 -1.5081  0.5308  1.2417
 4331SOL     OW24451   4.084   1.537   4.865 -0.0411  0.3442 -0.2242
 4331SOL    HW124452   4.043   1.555   4.950  1.1012  0.0465  0.3868
 4331SOL    HW224453   4.011   1.558   4.807  0.7910  0.5205 -1.1933
 4332SOL     OW24454   0.694   2.664   8.528 -0.1749 -0.2670  0.1722
 4332SOL    HW124455   0.706   2.597   8.461 -1.8490 -0.6044  0.2113
 4332SOL    HW224456   0.783   2.675   8.562  0.1734 -1.5754 -0.3383
 4333SOL     OW24457   1.801   4.504   0.988  0.2989 -0.6494  0.7802
 4333SOL    HW124458   1.795   4.579   1.047 -1.1714 -1.2635  1.4169
 4333SOL    HW224459   1.817   4.543   0.902  0.3621 -1.4930  0.4121
 4334SOL     OW24460   0.986   0.850   9.741 -0.4472  0.0113  0.1740
 4334SOL    HW124461   1.017   0.920   9.798 -0.9440  0.3194  0.0654
 4334SOL    HW224462   0.949   0.897   9.666 -1.2215  1.5923  1.5675
 4335SOL     OW24463   4.576   2.704   3.197 -0.6500  0.0916  0.5387
 4335SOL    HW124464   4.658   2.751   3.181 -1.9841  2.5525  0.8407
 4335SOL    HW224465   4.515   2.714   3.124  2.8762  4.1799 -1.8108
 4336SOL     OW24466   0.421   0.009   2.200  0.2817  0.4910  0.2096
 4336SOL    HW124467   0.427   0.101   2.175  1.9991  0.1800 -0.5484
 4336SOL    HW224468   0.331   0.004   2.230  0.4091  0.6384  0.6160
 4337SOL     OW24469   0.431   2.414   6.835  0.7235 -0.3722 -0.3169
 4337SOL    HW124470   0.393   2.326   6.827  0.0003 -0.1453  0.7011
 4337SOL    HW224471   0.388   2.436   6.917  0.7793  1.7246 -0.8476
 4338SOL     OW24472   4.214   3.487   2.651 -0.2089  0.3109  0.0510
 4338SOL    HW124473   4.255   3.414   2.605  0.5482  1.4029 -0.9950
 4338SOL    HW224474   4.127   3.449   2.663  0.5738 -1.3846  0.3163
 4339SOL     OW24475   3.252   0.941  13.918  0.1251  0.0047  0.0367
 4339SOL    HW124476   3.272   0.855  13.882 -1.5365 -0.2607 -0.2597
 4339SOL    HW224477   3.159   0.949  13.897  0.7873  1.5111 -2.4024
 4340SOL     OW24478   2.596   3.776   4.119  0.3854 -0.6564 -0.1028
 4340SOL    HW124479   2.668   3.828   4.082 -0.2351  0.5590  0.4085
 4340SOL    HW224480   2.535   3.846   4.141 -0.2203 -0.9560 -0.8214
 4341SOL     OW24481   2.193   0.421   1.597  0.2765  0.4359  0.2616
 4341SOL    HW124482   2.171   0.373   1.517 -0.5665 -1.8650  1.8624
 4341SOL    HW224483   2.124   0.386   1.654 -0.0309 -2.1389 -1.7017
 4342SOL     OW24484   3.362   2.986  14.565  0.7993  0.3239 -0.1523
 4342SOL    HW124485   3.304   2.988  14.641  2.1007  0.4461  0.8421
 4342SOL    HW224486   3.321   2.918  14.514 -0.0788  1.1307 -0.5115
 4343SOL     OW24487   4.235   0.169  10.607  0.7867  0.0342  0.1608
 4343SOL    HW124488   4.177   0.207  10.540 -0.2657 -0.9410  0.5168
 4343SOL    HW224489   4.187   0.176  10.690 -1.0648  0.4526 -0.9386
 4344SOL     OW24490   0.510   1.335   9.038  0.6076  0.3654  0.4336
 4344SOL    HW124491   0.566   1.293   8.972  1.4299  2.3019 -0.0775
 4344SOL    HW224492   0.482   1.418   8.999  2.5601  0.5175 -0.6252
 4345SOL     OW24493   0.554   0.635  16.538  0.1680  0.7141 -0.6191
 4345SOL    HW124494   0.521   0.724  16.553 -0.5052  0.6882 -1.9705
 4345SOL    HW224495   0.632   0.642  16.593 -0.0086 -0.5714 -0.1858
 4346SOL     OW24496   1.601   3.608  16.627 -0.3178  0.4192 -0.2846
 4346SOL    HW124497   1.692   3.579  16.630 -0.3660 -0.0167 -2.9797
 4346SOL    HW224498   1.564   3.524  16.598  1.4972 -0.7073  0.6880
 4347SOL     OW24499   2.597   0.830  17.690 -0.6498  0.1749 -0.4395
 4347SOL    HW124500   2.576   0.918   0.029  2.3689  0.5956  0.3963
 4347SOL    HW224501   2.527   0.811  17.628 -0.5710  1.9707 -1.0810
 4348SOL     OW24502   4.430   0.508  11.138  0.7011 -0.0795  0.1189
 4348SOL    HW124503   4.411   0.487  11.229  1.8781  0.8177  0.5667
 4348SOL    HW224504   4.493   0.580  11.137  0.1174  0.4080 -2.2224
 4349SOL     OW24505   0.221   2.879  14.894 -0.5997 -0.0449 -0.4176
 4349SOL    HW124506   0.268   2.947  14.942 -1.5261 -0.0825  0.5590
 4349SOL    HW224507   0.299   2.857  14.844 -0.2415  0.3969 -0.0475
 4350SOL     OW24508   2.691   4.706  14.591 -0.1886 -0.1908 -0.2998
 4350SOL    HW124509   2.643   0.023  14.518  0.9673  0.7750 -0.5330
 4350SOL    HW224510   2.683   4.614  14.565 -0.1569 -0.3177  0.1431
 4351SOL     OW24511   3.941   3.129   6.744  0.3051  0.4575  0.0984
 4351SOL    HW124512   3.898   3.081   6.673 -0.0638 -0.8676  1.1962
 4351SOL    HW224513   3.942   3.219   6.711  1.0069  0.6054  0.5393
 4352SOL     OW24514   2.798   2.464  16.681  0.1100 -0.0888  0.1352
 4352SOL    HW124515   2.797   2.548  16.635  0.6994 -1.0929 -1.6835
 4352SOL    HW224516   2.743   2.486  16.757 -2.4825  1.2601 -2.1457
 4353SOL     OW24517   4.318   2.545   8.628  0.1911 -0.0426  0.2485
 4353SOL    HW124518   4.393   2.603   8.646  0.3317 -0.2859  0.4332
 4353SOL    HW224519   4.355   2.463   8.660  1.2771  0.2324 -0.2915
 4354SOL     OW24520   2.644   3.182   9.003  0.5061  0.5659  0.2066
 4354SOL    HW124521   2.587   3.258   8.990  0.6129  0.8561  1.4731
 4354SOL    HW224522   2.607   3.126   8.935  0.2869 -0.7347  1.4124
 4355SOL     OW24523   0.139   2.091   5.122 -0.9340  0.2460  0.1621
 4355SOL    HW124524   0.086   2.149   5.066 -1.5972  0.0505  0.5864
 4355SOL    HW224525   0.161   2.151   5.193  1.2619 -0.1999 -0.1610
 4356SOL     OW24526   4.112   0.502   4.495 -0.2315 -0.2788 -0.2589
 4356SOL    HW124527   4.141   0.535   4.410 -1.7260 -0.9872 -1.0535
 4356SOL    HW224528   4.095   0.582   4.545  1.4878  1.3039 -2.2333
 4357SOL     OW24529   4.513   2.101   2.148  0.2128 -0.3047  0.0141
 4357SOL    HW124530   4.466   2.018   2.139  0.6639 -0.6001  0.3861
 4357SOL    HW224531   4.512   2.109   2.243 -1.2694 -0.7173  0.0346
 4358SOL     OW24532   2.549   4.314   0.162 -0.5553 -0.7528 -0.2596
 4358SOL    HW124533   2.522   4.374   0.092  0.3518 -0.9131 -0.7478
 4358SOL    HW224534   2.631   4.280   0.125 -1.3328 -1.0131 -1.7622
 4359SOL     OW24535   4.672   3.686   0.227  0.0916 -0.8906 -0.2537
 4359SOL    HW124536   4.684   3.751   0.158 -0.5189 -1.4787 -0.9158
 4359SOL    HW224537   4.693   3.606   0.179 -0.1041 -0.1865 -1.5231
 4360SOL     OW24538   4.485   3.415   6.208 -0.5824 -0.3545  0.1697
 4360SOL    HW124539   4.448   3.327   6.208  0.5407 -0.8303  1.5369
 4360SOL    HW224540   4.418   3.462   6.257  0.2399  0.8637  0.1416
 4361SOL     OW24541   0.386   2.090   5.438  0.5417 -0.2014 -0.1315
 4361SOL    HW124542   0.340   2.020   5.392  1.0205  0.2393 -1.2768
 4361SOL    HW224543   0.392   2.161   5.375 -0.1622  0.6142  0.7134
 4362SOL     OW24544   3.383   0.706   8.104 -0.0112 -0.1003 -0.5641
 4362SOL    HW124545   3.402   0.771   8.036  0.6977 -2.4341 -2.6286
 4362SOL    HW224546   3.447   0.728   8.172 -1.0011 -1.7193  0.8906
 4363SOL     OW24547   1.396   0.085   4.138 -0.3008 -0.4539 -0.0586
 4363SOL    HW124548   1.461   0.081   4.067 -0.5559 -1.4790 -0.2298
 4363SOL    HW224549   1.441   0.145   4.197  3.4415 -1.1891 -2.1652
 4364SOL     OW24550   1.643   0.261   2.387 -0.2456 -0.0044  0.4066
 4364SOL    HW124551   1.733   0.253   2.419 -0.2936 -0.3256  0.4601
 4364SOL    HW224552   1.662   0.299   2.301 -1.1961 -0.8762 -0.1939
 4365SOL     OW24553   4.089   4.123  17.243 -0.0335  0.1304  0.1251
 4365SOL    HW124554   4.005   4.078  17.256 -0.1013  0.3190  0.3583
 4365SOL    HW224555   4.075   4.174  17.163  0.4719 -0.4122 -0.3029
 4366SOL     OW24556   1.513   1.098   8.396  0.6324  0.5118 -0.0166
 4366SOL    HW124557   1.515   1.051   8.479  0.1458  0.1449 -0.2146
 4366SOL    HW224558   1.560   1.034   8.343  0.1900  1.0070 -1.0026
 4367SOL     OW24559   0.110   2.223  13.593  0.7086 -0.0884 -0.0414
 4367SOL    HW124560   0.030   2.273  13.602  2.1473  2.4140 -1.1028
 4367SOL    HW224561   0.140   2.209  13.683  0.9533 -0.7381 -0.2181
 4368SOL     OW24562   1.176   0.053   7.718  0.0645  0.6326 -0.1504
 4368SOL    HW124563   1.104   0.003   7.679  1.1186  0.7828 -2.2900
 4368SOL    HW224564   1.134   0.136   7.741 -0.8767  0.5497 -1.5584
 4369SOL     OW24565   3.735   4.537   5.649  0.7066 -0.5539 -0.2304
 4369SOL    HW124566   3.715   4.608   5.587  1.6052  1.1107  1.3713
 4369SOL    HW224567   3.771   4.585   5.724 -0.1430  0.9777 -0.8019
 4370SOL     OW24568   3.902   0.876  15.685 -0.5575 -0.2426 -0.3253
 4370SOL    HW124569   3.872   0.965  15.701 -0.5683 -0.0334 -1.4811
 4370SOL    HW224570   3.900   0.882  15.590  3.4515  0.4936 -0.3788
 4371SOL     OW24571   3.283   1.404   7.548  0.4968 -0.6873  0.7242
 4371SOL    HW124572   3.259   1.401   7.455 -0.7951 -0.4845  1.0416
 4371SOL    HW224573   3.339   1.481   7.540 -1.4700  0.5634 -1.1886
 4372SOL     OW24574   3.164   4.383  11.536 -0.2328 -0.5219  0.2687
 4372SOL    HW124575   3.169   4.405  11.443  1.9020 -1.0349  0.2691
 4372SOL    HW224576   3.163   4.287  11.544 -1.2230 -0.4871  0.6346
 4373SOL     OW24577   4.245   2.081  13.049  0.0329  0.1723 -0.0965
 4373SOL    HW124578   4.242   2.023  13.126  3.2219  1.0740  0.7111
 4373SOL    HW224579   4.241   2.010  12.985  2.4143  2.4254 -2.6993
 4374SOL     OW24580   4.617   0.263   4.044 -0.1462  0.5542 -0.3080
 4374SOL    HW124581   4.600   0.357   4.048 -1.3342  0.3747 -1.0699
 4374SOL    HW224582   4.597   0.251   3.951 -1.9992  1.3393 -0.0249
 4375SOL     OW24583   0.719   3.591   3.357 -0.1245  0.5516 -0.1340
 4375SOL    HW124584   0.739   3.613   3.448 -0.3236 -1.6750  0.4445
 4375SOL    HW224585   0.805   3.584   3.315  1.3518 -1.3807  3.1980
 4376SOL     OW24586   0.825   2.827   2.398  0.2240  0.0211 -0.2265
 4376SOL    HW124587   0.764   2.901   2.398  0.6427  0.3622 -1.4670
 4376SOL    HW224588   0.760   2.759   2.378 -0.8217  0.8923  0.2128
 4377SOL     OW24589   2.291   2.785   6.543  0.3460 -0.0099 -0.0841
 4377SOL    HW124590   2.322   2.838   6.616  0.1700 -0.2559  0.1727
 4377SOL    HW224591   2.343   2.705   6.553  1.2025  0.5762  0.0910
 4378SOL     OW24592   2.863   3.901   3.661 -0.1811  0.5883  0.0680
 4378SOL    HW124593   2.776   3.940   3.647 -0.2697 -0.0920 -1.3271
 4378SOL    HW224594   2.917   3.951   3.599  1.4517 -1.9945 -0.5621
 4379SOL     OW24595   1.840   3.706   2.401 -0.3344  0.3147 -0.1243
 4379SOL    HW124596   1.840   3.744   2.313 -3.7970  1.6928  0.4454
 4379SOL    HW224597   1.903   3.766   2.442 -0.4450  0.3167  0.0435
 4380SOL     OW24598   3.690   3.386   7.141 -0.6660  0.3038  0.6749
 4380SOL    HW124599   3.620   3.448   7.121 -1.5678 -0.4509  1.4462
 4380SOL    HW224600   3.658   3.336   7.216 -0.1976  1.0993  1.3881
 4381SOL     OW24601   2.116   4.159  12.354  0.7614  0.1658  0.3062
 4381SOL    HW124602   2.163   4.102  12.415 -0.9519 -1.4262  0.1529
 4381SOL    HW224603   2.116   4.108  12.273  0.8456  0.1505  0.3162
 4382SOL     OW24604   4.674   3.000   8.680 -0.3435  0.2046  0.1822
 4382SOL    HW124605   4.714   3.084   8.704 -3.5450  2.0177 -0.8102
 4382SOL    HW224606   0.002   2.947   8.741 -1.4645 -0.7126  0.2897
 4383SOL     OW24607   0.972   2.615  13.607  0.7208  0.0533 -0.7287
 4383SOL    HW124608   0.895   2.615  13.663  0.1995 -1.7629 -1.4491
 4383SOL    HW224609   0.928   2.656  13.532 -0.7755 -1.4302 -0.6552
 4384SOL     OW24610   2.244   3.250  16.412 -0.4247 -0.4632 -0.1942
 4384SOL    HW124611   2.214   3.181  16.471 -0.0290  0.6218  1.2596
 4384SOL    HW224612   2.177   3.259  16.345 -1.3310 -1.1703  0.6232
 4385SOL     OW24613   0.095   4.384   3.142  0.1743  0.3198 -0.0947
 4385SOL    HW124614   0.079   4.310   3.083  2.5496 -0.9668  0.9029
 4385SOL    HW224615   0.147   4.333   3.204  1.4482  1.5492 -0.1506
 4386SOL     OW24616   2.237   3.514   7.563  0.0877  0.0924 -0.1700
 4386SOL    HW124617   2.324   3.524   7.523 -0.7392  0.6064 -1.8407
 4386SOL    HW224618   2.244   3.421   7.586 -0.2457 -0.1356 -1.0134
 4387SOL     OW24619   1.795   4.208   8.525 -0.4617  0.1012 -0.6543
 4387SOL    HW124620   1.714   4.188   8.479 -0.3153  0.4318 -1.0618
 4387SOL    HW224621   1.787   4.297   8.560 -4.2486 -1.2970  2.0377
 4388SOL     OW24622   1.515   3.834   5.370 -0.7621 -0.2406 -0.1494
 4388SOL    HW124623   1.533   3.831   5.276  1.2532 -2.2513  0.2860
 4388SOL    HW224624   1.551   3.748   5.393  1.2233  0.7304  0.4288
 4389SOL     OW24625   1.787   1.170   0.646  0.1781  0.1521  0.5791
 4389SOL    HW124626   1.745   1.241   0.694 -2.4617 -0.3551 -1.0110
 4389SOL    HW224627   1.796   1.109   0.719 -3.5571 -0.1687  0.7537
 4390SOL     OW24628   2.530   2.945   3.808  0.5628 -0.0391  0.4297
 4390SOL    HW124629   2.513   3.022   3.754  2.7072  0.5907  0.6429
 4390SOL    HW224630   2.579   2.983   3.881 -0.9204  1.2129  0.7669
 4391SOL     OW24631   2.895   2.097   3.265  0.5608 -0.0678  0.1074
 4391SOL    HW124632   2.815   2.066   3.223 -0.5554  1.5466  1.0399
 4391SOL    HW224633   2.924   2.157   3.196 -0.2370 -1.2378 -1.2470
 4392SOL     OW24634   1.986   1.831   5.778  0.2536 -0.3882  0.4059
 4392SOL    HW124635   2.079   1.853   5.781 -0.1721  1.5835 -1.0713
 4392SOL    HW224636   1.951   1.910   5.819 -0.8410 -1.9484  2.4631
 4393SOL     OW24637   3.092   3.024  15.972  0.0998 -0.3626  0.2648
 4393SOL    HW124638   3.104   2.949  15.914 -0.5588 -2.2276  2.4984
 4393SOL    HW224639   3.117   2.978  16.053 -2.5690 -0.1857  1.2229
 4394SOL     OW24640   2.979   3.191   0.907  0.0581  0.3356 -0.1631
 4394SOL    HW124641   2.890   3.206   0.939 -0.2768 -0.8099 -0.5587
 4394SOL    HW224642   3.031   3.230   0.977  3.4159  1.4010 -3.2299
 4395SOL     OW24643   2.756   3.485  11.947 -0.6318  0.3881  0.3307
 4395SOL    HW124644   2.698   3.416  11.979  3.1084 -1.3129  3.4280
 4395SOL    HW224645   2.744   3.553  12.014  1.3065  0.3388  0.7490
 4396SOL     OW24646   0.232   1.330   0.910 -0.0780 -0.4993 -0.0120
 4396SOL    HW124647   0.184   1.293   0.984 -1.0598  0.9974  0.1009
 4396SOL    HW224648   0.316   1.351   0.949 -0.1445  1.1693 -0.7654
 4397SOL     OW24649   3.874   0.864   5.036 -0.3653 -0.6485 -0.2057
 4397SOL    HW124650   3.833   0.920   5.102 -0.1351 -0.5789 -0.1201
 4397SOL    HW224651   3.966   0.886   5.051 -0.3274 -0.9642  0.0343
 4398SOL     OW24652   0.855   1.507  17.457  0.1523 -0.1855  0.2365
 4398SOL    HW124653   0.942   1.545  17.472  0.0943 -0.4982  1.3232
 4398SOL    HW224654   0.863   1.416  17.486  0.0081 -1.0079 -2.2995
 4399SOL     OW24655   1.894   3.737   3.031 -0.4187  0.2130  0.2632
 4399SOL    HW124656   1.877   3.825   2.998 -1.9609 -0.3607 -0.4598
 4399SOL    HW224657   1.990   3.730   3.028 -0.4912 -0.2434 -1.4385
 4400SOL     OW24658   3.346   0.749   9.000 -0.5727 -0.4654 -0.1063
 4400SOL    HW124659   3.264   0.799   9.000 -0.8880 -0.9966  1.5971
 4400SOL    HW224660   3.374   0.752   8.908 -0.7559 -0.0793 -0.1526
 4401SOL     OW24661   1.972   3.355  13.838 -0.9668  0.4176  0.4613
 4401SOL    HW124662   2.066   3.361  13.822 -0.7509 -0.3442  1.4355
 4401SOL    HW224663   1.968   3.284  13.902  1.6971  0.4507  0.6552
 4402SOL     OW24664   0.449   2.501   1.853 -0.2988 -0.2531 -0.3826
 4402SOL    HW124665   0.507   2.562   1.808 -1.0777  0.5710 -0.2786
 4402SOL    HW224666   0.479   2.413   1.830  0.3241  0.1994 -1.2991
 4403SOL     OW24667   1.353   2.132   5.789 -0.9103 -0.4193 -0.1775
 4403SOL    HW124668   1.283   2.194   5.810 -2.8103 -2.1058 -1.5740
 4403SOL    HW224669   1.417   2.189   5.746 -3.0808  0.6392 -2.0011
 4404SOL     OW24670   4.016   0.283   8.844 -0.3515  0.1793 -0.1801
 4404SOL    HW124671   4.096   0.255   8.799  0.2225  2.9064 -0.9066
 4404SOL    HW224672   3.949   0.247   8.786 -0.8475 -0.0796  0.5581
 4405SOL     OW24673   1.894   1.714   4.606 -0.0192 -0.8512  1.1298
 4405SOL    HW124674   1.918   1.787   4.549 -1.5751 -0.9134  0.4071
 4405SOL    HW224675   1.892   1.760   4.691 -0.7733 -0.5735  0.9642
 4406SOL     OW24676   0.537   2.119   6.990  0.1209 -0.1476 -0.2239
 4406SOL    HW124677   0.621   2.154   6.960  0.0997  1.1096  1.1438
 4406SOL    HW224678   0.511   2.077   6.908  2.1343  1.7661 -1.8095
 4407SOL     OW24679   0.735   3.611  17.523  0.0751  0.1394 -0.3938
 4407SOL    HW124680   0.724   3.534  17.579 -0.9619  0.0364 -0.7499
 4407SOL    HW224681   0.644   3.633  17.503  0.6720  2.2044 -0.8699
 4408SOL     OW24682   3.433   1.199   1.435 -0.2298  0.2572  0.2955
 4408SOL    HW124683   3.472   1.285   1.453  1.6429 -0.4222 -0.5626
 4408SOL    HW224684   3.466   1.179   1.348 -0.1404 -2.3797  0.9578
 4409SOL     OW24685   0.870   0.692  14.536  0.5608  0.0671  0.3083
 4409SOL    HW124686   0.923   0.739  14.599  2.7411 -1.2471 -0.5479
 4409SOL    HW224687   0.859   0.609  14.582  0.7311 -1.1025 -1.7238
 4410SOL     OW24688   0.481   1.662  17.108  0.1781  0.1696 -0.0484
 4410SOL    HW124689   0.566   1.618  17.112  0.3525  0.3659 -1.3983
 4410SOL    HW224690   0.416   1.592  17.101  1.6250 -1.1074 -0.6202
 4411SOL     OW24691   3.229   2.911   2.762 -0.3847 -0.4854 -0.0165
 4411SOL    HW124692   3.301   2.912   2.698  0.4052  0.8492  0.8808
 4411SOL    HW224693   3.165   2.969   2.721 -1.1155 -1.6746 -0.5452
 4412SOL     OW24694   3.179   0.214   8.888  0.5543 -0.1770 -0.1340
 4412SOL    HW124695   3.217   0.126   8.886 -0.6970 -0.7037 -0.7757
 4412SOL    HW224696   3.203   0.251   8.803  1.9768 -1.0406 -0.1158
 4413SOL     OW24697   0.345   4.098  16.675  0.5079  0.2184 -0.1912
 4413SOL    HW124698   0.278   4.092  16.744 -0.3954 -1.2163 -1.1910
 4413SOL    HW224699   0.305   4.050  16.603 -0.8497  0.2296  0.5463
 4414SOL     OW24700   4.065   4.454   6.254  0.2810 -0.0476 -0.0277
 4414SOL    HW124701   4.105   4.412   6.330  2.3649 -1.6573 -2.0145
 4414SOL    HW224702   4.019   4.373   6.230  1.2133 -0.4786 -0.3403
 4415SOL     OW24703   0.885   3.354  10.823 -0.9589  0.1693 -0.2116
 4415SOL    HW124704   0.856   3.263  10.835  0.1431  0.0010  1.1400
 4415SOL    HW224705   0.887   3.351  10.727 -0.0353  0.6067 -0.2011
 4416SOL     OW24706   2.172   1.534  10.067 -0.6270 -0.0740  0.0084
 4416SOL    HW124707   2.094   1.589  10.055 -0.8712 -0.6397 -0.9338
 4416SOL    HW224708   2.194   1.531   9.974  1.0486 -0.4500  0.4286
 4417SOL     OW24709   2.485   3.868   8.269 -0.3347 -0.0933  0.2340
 4417SOL    HW124710   2.396   3.854   8.303  0.4503  0.9621  2.7127
 4417SOL    HW224711   2.488   3.963   8.281 -1.3523  0.1421 -1.4827
 4418SOL     OW24712   1.170   2.079  15.552  0.2103  0.0289  0.1194
 4418SOL    HW124713   1.239   2.081  15.618  0.0593 -1.1108  0.3124
 4418SOL    HW224714   1.219   2.033  15.484 -0.7104 -1.5848  0.5540
 4419SOL     OW24715   0.697   2.354  13.217 -0.0088  0.5780  0.3998
 4419SOL    HW124716   0.663   2.287  13.157 -2.3811  0.9362  1.3567
 4419SOL    HW224717   0.787   2.347  13.186  0.0773  0.8243  0.6033
 4420SOL     OW24718   2.247   1.258   8.093 -0.3104  0.2206 -0.2174
 4420SOL    HW124719   2.224   1.327   8.155  0.5361  1.4362 -1.2498
 4420SOL    HW224720   2.213   1.178   8.132  0.4984  0.5875  1.2320
 4421SOL     OW24721   4.655   1.576   2.729 -0.0174  0.6723  0.3076
 4421SOL    HW124722   4.661   1.482   2.714 -1.1227  1.0064 -2.1650
 4421SOL    HW224723   4.589   1.603   2.665  1.7386 -0.4839 -1.9928
 4422SOL     OW24724   0.570   3.098   5.560 -0.1269  0.1377  0.3107
 4422SOL    HW124725   0.579   3.128   5.469  0.5658  0.2252  0.4085
 4422SOL    HW224726   0.526   3.169   5.606 -3.4068 -0.8503 -1.2914
 4423SOL     OW24727   3.331   1.982   3.292 -0.0428  0.2298  0.0394
 4423SOL    HW124728   3.256   1.999   3.349 -0.2504 -0.3747 -0.0549
 4423SOL    HW224729   3.315   2.051   3.228 -1.6204 -0.9620 -0.8329
 4424SOL     OW24730   3.399   0.582  14.339 -0.1658 -0.4499 -0.0201
 4424SOL    HW124731   3.429   0.618  14.423  2.4026 -2.7179  0.0368
 4424SOL    HW224732   3.322   0.530  14.361 -1.2511  1.3337  0.3637
 4425SOL     OW24733   3.059   1.576   4.139 -0.0402  0.6081  0.4124
 4425SOL    HW124734   3.023   1.489   4.153 -0.8006  0.4893 -2.3184
 4425SOL    HW224735   3.108   1.591   4.220 -2.2944  2.3078  1.4404
 4426SOL     OW24736   2.871   2.841   4.697  0.5049  0.0754 -0.3570
 4426SOL    HW124737   2.930   2.770   4.674  0.7743  0.3340 -0.4657
 4426SOL    HW224738   2.892   2.896   4.621  2.2753  1.2227  0.9318
 4427SOL     OW24739   1.385   3.296   2.109  0.1197  0.2195 -0.2760
 4427SOL    HW124740   1.458   3.340   2.066 -0.2364  0.9088 -0.1729
 4427SOL    HW224741   1.385   3.222   2.048 -1.7511  0.0126 -0.0360
 4428SOL     OW24742   3.273   4.313   3.422  0.2100 -0.8047  0.1666
 4428SOL    HW124743   3.239   4.373   3.354 -0.2788 -1.8641 -0.5346
 4428SOL    HW224744   3.361   4.294   3.390 -0.2716  0.2907 -1.8475
 4429SOL     OW24745   1.992   1.289   4.591 -0.9291 -0.6196 -0.4037
 4429SOL    HW124746   1.924   1.354   4.577 -1.1481 -0.6275  0.6597
 4429SOL    HW224747   1.973   1.261   4.681  1.8370 -1.3072 -0.0338
 4430SOL     OW24748   0.789   2.257  10.972 -0.1148  0.3275 -0.0803
 4430SOL    HW124749   0.842   2.177  10.977  0.7386  1.0107  1.6611
 4430SOL    HW224750   0.853   2.327  10.971 -2.5396  2.5767  1.2100
 4431SOL     OW24751   1.608   3.731   2.598  0.1062  0.3830  0.2218
 4431SOL    HW124752   1.560   3.763   2.522  0.9457 -1.4373 -1.0944
 4431SOL    HW224753   1.642   3.652   2.554 -0.4165 -0.4691  1.3481
 4432SOL     OW24754   3.414   1.550  10.578 -0.5599 -0.1394  0.1690
 4432SOL    HW124755   3.471   1.502  10.637 -0.5170 -0.2200  0.0620
 4432SOL    HW224756   3.435   1.494  10.503 -1.5469  0.5677 -0.6500
 4433SOL     OW24757   1.184   3.844   2.543  0.1258  0.6191  0.0728
 4433SOL    HW124758   1.227   3.758   2.540 -2.1147 -0.5323  0.6116
 4433SOL    HW224759   1.208   3.858   2.634  1.0787 -1.5540  0.1630
 4434SOL     OW24760   2.211   4.295   2.753  0.4559 -0.7684 -0.0028
 4434SOL    HW124761   2.287   4.353   2.754  1.4160 -2.0358 -0.7212
 4434SOL    HW224762   2.165   4.334   2.828  1.8596  2.0975 -0.6159
 4435SOL     OW24763   2.249   3.712   0.124 -0.7181  0.0437  0.5545
 4435SOL    HW124764   2.164   3.678   0.099  0.1336 -2.3039  0.8555
 4435SOL    HW224765   2.233   3.766   0.202 -1.3308  0.7957 -0.0967
 4436SOL     OW24766   1.112   1.434   5.007 -0.1583 -0.3968  0.3945
 4436SOL    HW124767   1.199   1.474   4.995  0.0220 -1.4272 -1.7025
 4436SOL    HW224768   1.081   1.499   5.070 -0.6545 -1.2212  0.9955
 4437SOL     OW24769   0.239   2.986   8.175 -0.2335 -0.3075  0.2067
 4437SOL    HW124770   0.241   2.987   8.271  2.9194 -0.2951  0.1454
 4437SOL    HW224771   0.215   3.074   8.144 -2.0721 -1.2430 -1.0343
 4438SOL     OW24772   4.387   0.602   9.096  0.2133 -0.2682 -0.0579
 4438SOL    HW124773   4.341   0.520   9.075 -0.2468  0.7815 -3.0342
 4438SOL    HW224774   4.473   0.587   9.059 -0.7413  0.2184 -2.4365
 4439SOL     OW24775   0.329   3.722   2.728 -0.3570 -0.7339  0.1511
 4439SOL    HW124776   0.416   3.761   2.736 -0.6304  0.0351 -0.5795
 4439SOL    HW224777   0.351   3.640   2.772 -0.4854 -1.4770 -1.1552
 4440SOL     OW24778   0.887   1.482  10.934 -0.6094 -0.4230  0.4314
 4440SOL    HW124779   0.916   1.416  10.872  0.6636  1.4266 -0.9172
 4440SOL    HW224780   0.853   1.552  10.879  0.1987 -0.0827  0.3763
 4441SOL     OW24781   2.846   4.016   7.847  0.1754 -0.0781 -0.3566
 4441SOL    HW124782   2.858   3.921   7.846 -2.3381 -0.4056  1.9520
 4441SOL    HW224783   2.928   4.036   7.800 -0.6144 -0.0306 -1.7161
 4442SOL     OW24784   2.713   1.043   6.305  0.0719  0.0043 -0.4341
 4442SOL    HW124785   2.675   1.021   6.391  1.0914  2.2440  0.5922
 4442SOL    HW224786   2.630   1.044   6.257 -1.6581  1.5240  2.5414
 4443SOL     OW24787   1.200   4.674  16.729 -0.1869 -0.6651 -0.4672
 4443SOL    HW124788   1.276   4.705  16.778  0.2670 -1.1546 -0.8659
 4443SOL    HW224789   1.242   4.661  16.644 -1.3113 -1.2088 -0.9407
 4444SOL     OW24790   0.849   0.687   1.601 -0.1838 -0.1852 -0.0273
 4444SOL    HW124791   0.821   0.771   1.636 -0.9864 -0.9441  1.1496
 4444SOL    HW224792   0.912   0.719   1.537  1.4920 -0.6275  1.4031
 4445SOL     OW24793   3.820   3.237   5.320 -0.4715 -0.0087 -0.3892
 4445SOL    HW124794   3.792   3.293   5.393 -0.2513  2.3066 -2.0719
 4445SOL    HW224795   3.745   3.178   5.325  1.7340 -2.7103  0.6282
 4446SOL     OW24796   2.228   3.228   7.204 -0.1438  0.1840 -0.4994
 4446SOL    HW124797   2.201   3.207   7.293  1.9452 -2.9486 -0.5803
 4446SOL    HW224798   2.247   3.142   7.165  1.7969  0.0191  0.8069
 4447SOL     OW24799   1.864   1.567   2.974  0.1629  0.2509  0.0021
 4447SOL    HW124800   1.911   1.489   2.945 -0.3989  0.2661 -0.9382
 4447SOL    HW224801   1.928   1.601   3.038 -1.9420  2.7991  0.7430
 4448SOL     OW24802   3.796   1.763   0.031  0.2708  0.6611  0.1047
 4448SOL    HW124803   3.849   1.696  17.680  0.1060 -0.0539  1.0096
 4448SOL    HW224804   3.714   1.717   0.048  1.2421 -1.3201 -0.5553
 4449SOL     OW24805   2.573   1.401  10.619 -0.0343  0.0463  0.0400
 4449SOL    HW124806   2.613   1.451  10.548  1.7247  1.6822  2.1931
 4449SOL    HW224807   2.485   1.371  10.596 -0.3803  0.0802  1.2961
 4450SOL     OW24808   4.252   3.950   1.737  0.6624 -0.1040  0.2792
 4450SOL    HW124809   4.213   3.863   1.727  0.5510  0.1108 -1.1503
 4450SOL    HW224810   4.174   4.005   1.744  1.0378  0.1141  2.9892
 4451SOL     OW24811   3.053   0.368  15.284  0.3656  0.0418  0.6005
 4451SOL    HW124812   3.064   0.461  15.264 -2.2772  0.1174 -0.4816
 4451SOL    HW224813   3.146   0.347  15.284  0.3643  0.0246  1.1108
 4452SOL     OW24814   1.051   4.436   4.104  0.3730  0.4407 -0.4927
 4452SOL    HW124815   1.145   4.438   4.083  0.1350  1.7980 -1.4157
 4452SOL    HW224816   1.039   4.528   4.127 -0.2006  0.4983 -1.0404
 4453SOL     OW24817   1.035   4.213  11.581  0.3060 -0.4532 -0.4568
 4453SOL    HW124818   0.967   4.281  11.585  1.1746  0.3504  0.7334
 4453SOL    HW224819   1.021   4.185  11.490 -2.3603 -0.1469 -0.1550
 4454SOL     OW24820   4.074   3.186  11.831  0.4485  0.1243 -0.1409
 4454SOL    HW124821   4.023   3.266  11.821 -2.0628 -1.5288 -0.4672
 4454SOL    HW224822   4.026   3.132  11.894  0.9854 -0.1374  0.0459
 4455SOL     OW24823   1.974   2.883   6.238 -0.5837 -0.0262 -0.8836
 4455SOL    HW124824   2.021   2.920   6.311 -0.2600  0.0108 -1.1117
 4455SOL    HW224825   1.898   2.941   6.233 -0.1078  0.6418 -0.2136
 4456SOL     OW24826   3.007   1.231  10.289 -0.0066  0.2472  0.2973
 4456SOL    HW124827   3.034   1.243  10.198 -0.0884 -1.0202  0.0964
 4456SOL    HW224828   2.958   1.150  10.276  1.8547 -0.6043 -1.3421
 4457SOL     OW24829   4.366   3.164   6.173 -0.0532 -0.5131 -0.3240
 4457SOL    HW124830   4.373   3.155   6.078  0.3117  0.1786 -0.3667
 4457SOL    HW224831   4.421   3.092   6.202  1.1123  0.8724  0.9562
 4458SOL     OW24832   1.193   0.564  14.084 -0.3133  0.2160  0.1670
 4458SOL    HW124833   1.156   0.651  14.073  0.1901  0.6230  1.7294
 4458SOL    HW224834   1.118   0.514  14.117  0.5823 -1.8626 -0.9101
 4459SOL     OW24835   2.239   2.495   2.376  0.3496  0.0629  0.0236
 4459SOL    HW124836   2.167   2.432   2.386  2.0077 -1.8924 -0.2760
 4459SOL    HW224837   2.208   2.545   2.301 -0.1786 -0.7361 -0.2921
 4460SOL     OW24838   2.991   1.926   1.465  0.6319 -0.3224 -0.3103
 4460SOL    HW124839   2.935   1.950   1.539  0.6115  0.5488 -0.6158
 4460SOL    HW224840   2.957   1.984   1.398  0.8076 -0.6256 -0.6602
 4461SOL     OW24841   2.850   2.438   7.681 -0.5946  0.6314  0.2431
 4461SOL    HW124842   2.759   2.469   7.687 -0.3836  1.4955 -0.9401
 4461SOL    HW224843   2.877   2.431   7.772  1.4840 -0.8182 -0.5098
 4462SOL     OW24844   1.920   0.407   3.051 -0.3868  0.3088 -0.2120
 4462SOL    HW124845   1.928   0.433   3.142 -0.9183  2.1939 -0.7044
 4462SOL    HW224846   1.986   0.339   3.040 -0.4716  0.4447 -1.6182
 4463SOL     OW24847   1.913   0.387   1.149 -0.5277 -0.9134 -0.2338
 4463SOL    HW124848   1.826   0.425   1.152 -0.9416 -1.8555 -0.2400
 4463SOL    HW224849   1.898   0.334   1.070  1.4304 -3.1883  0.9189
 4464SOL     OW24850   2.899   3.098  10.825 -0.5111  0.1449  0.4059
 4464SOL    HW124851   2.843   3.129  10.754 -1.7019 -1.3513  0.6832
 4464SOL    HW224852   2.848   3.120  10.904 -0.5577 -2.8001  1.2365
 4465SOL     OW24853   2.657   2.852  10.006  0.4287  0.2955 -0.2555
 4465SOL    HW124854   2.605   2.874  10.083 -0.6293  0.7114 -1.0889
 4465SOL    HW224855   2.712   2.777  10.029  0.8232  0.5072 -0.5131
 4466SOL     OW24856   1.017   2.707   4.763 -0.4052 -0.0896  0.2304
 4466SOL    HW124857   0.983   2.738   4.847 -0.0821  2.2591 -0.4932
 4466SOL    HW224858   0.963   2.750   4.697 -1.0676 -1.2410  0.0249
 4467SOL     OW24859   0.584   3.319  13.048  0.2325 -0.2643 -0.0147
 4467SOL    HW124860   0.648   3.248  13.042  0.4921 -0.0097 -0.1978
 4467SOL    HW224861   0.631   3.384  13.099 -2.3203  1.1140  0.5994
 4468SOL     OW24862   1.288   1.274  14.628 -0.5294 -0.3339 -0.3118
 4468SOL    HW124863   1.211   1.268  14.571  0.3448  3.1199 -1.8781
 4468SOL    HW224864   1.316   1.184  14.613  0.5045  0.0904 -0.9682
 4469SOL     OW24865   3.790   4.193   4.270 -0.3190  0.1181 -0.8083
 4469SOL    HW124866   3.711   4.141   4.254  0.0017 -0.9165  0.9998
 4469SOL    HW224867   3.751   4.278   4.250 -1.6441 -0.3596 -0.2788
 4470SOL     OW24868   2.183   0.322   3.578  0.1818  0.2449  0.3064
 4470SOL    HW124869   2.222   0.300   3.493 -0.1640  0.0265  0.2040
 4470SOL    HW224870   2.235   0.400   3.599 -0.3924  0.7060  0.0225
 4471SOL     OW24871   2.077   2.230   2.636  0.1021  0.0133 -0.2344
 4471SOL    HW124872   2.018   2.160   2.664  1.5949 -1.6866 -1.3081
 4471SOL    HW224873   2.121   2.176   2.571 -1.4558 -0.8551 -0.5886
 4472SOL     OW24874   1.381   4.095  12.675  0.1264  0.4203  0.0276
 4472SOL    HW124875   1.396   4.135  12.589  0.8025  3.2221  1.4412
 4472SOL    HW224876   1.450   4.132  12.730 -0.7506  2.9125 -0.5491
 4473SOL     OW24877   0.561   1.210   2.969 -0.2566 -0.4503  0.4797
 4473SOL    HW124878   0.572   1.301   2.939  1.2051 -1.3977 -1.9212
 4473SOL    HW224879   0.570   1.221   3.064 -1.8963  2.9095  0.2445
 4474SOL     OW24880   0.732   3.103   4.740 -0.2250 -0.2812 -0.1216
 4474SOL    HW124881   0.821   3.137   4.734 -0.1683 -0.5225 -0.5991
 4474SOL    HW224882   0.715   3.086   4.648 -1.0535  1.8655 -0.3650
 4475SOL     OW24883   0.385   0.554   5.178  0.0266 -0.1407 -0.4568
 4475SOL    HW124884   0.296   0.546   5.213 -0.3055 -1.3667 -1.5521
 4475SOL    HW224885   0.435   0.497   5.236  0.5729 -1.5292 -2.2696
 4476SOL     OW24886   0.809   4.385   0.422  0.0696  0.0767  0.2295
 4476SOL    HW124887   0.822   4.405   0.329 -0.0304 -0.2966  0.1365
 4476SOL    HW224888   0.755   4.310   0.399  0.5053 -0.5387  1.2159
 4477SOL     OW24889   2.494   3.976   9.398 -0.3141 -0.4115  0.0002
 4477SOL    HW124890   2.540   4.013   9.473 -0.7624  2.0372 -0.9029
 4477SOL    HW224891   2.407   4.014   9.408 -1.9276 -3.8071 -1.3408
 4478SOL     OW24892   0.164   3.482  14.433 -0.0109  0.2937 -0.2126
 4478SOL    HW124893   0.237   3.425  14.411  1.0219  2.2544 -1.9052
 4478SOL    HW224894   0.204   3.568  14.421  0.8153 -0.0108  0.3968
 4479SOL     OW24895   4.208   2.102   4.988 -0.2968  0.0619  0.0949
 4479SOL    HW124896   4.163   2.075   4.908  1.7663 -0.2972 -0.9454
 4479SOL    HW224897   4.174   2.191   4.991 -0.7213 -0.1200  0.5604
 4480SOL     OW24898   2.048   3.619  14.136 -0.2172  0.3162  0.3436
 4480SOL    HW124899   2.120   3.609  14.073 -2.2712  0.6738 -2.0978
 4480SOL    HW224900   2.068   3.558  14.206  0.0327  1.5011  1.2952
 4481SOL     OW24901   4.201   4.475   9.082  0.1308  0.1266  0.5823
 4481SOL    HW124902   4.294   4.479   9.104 -0.4323  0.1335  2.9423
 4481SOL    HW224903   4.222   4.477   8.988 -0.2520  1.9956  0.5321
 4482SOL     OW24904   2.196   3.696   6.337 -0.5202  0.0675 -0.0858
 4482SOL    HW124905   2.254   3.630   6.300 -0.7650 -0.0453 -0.2711
 4482SOL    HW224906   2.237   3.770   6.291  1.1002  0.4526  1.9747
 4483SOL     OW24907   4.687   4.217  13.749 -0.3016 -0.1593  0.3653
 4483SOL    HW124908   4.650   4.254  13.669  0.1721  1.0722  0.7155
 4483SOL    HW224909   4.676   4.285  13.816  0.1719  0.2266  0.0533
 4484SOL     OW24910   4.314   2.353  16.607 -0.8427 -0.1447 -0.5551
 4484SOL    HW124911   4.286   2.299  16.534 -0.3495 -1.3622  0.1573
 4484SOL    HW224912   4.358   2.415  16.549  0.3120  0.0976  0.5833
 4485SOL     OW24913   0.919   4.572  15.576  0.2452 -0.0723 -0.0708
 4485SOL    HW124914   0.913   4.525  15.660  1.6339 -0.8985 -0.4343
 4485SOL    HW224915   0.826   4.588  15.557  0.1329  0.2162  0.6856
 4486SOL     OW24916   1.755   2.462   3.032 -0.3963 -0.4255  0.2219
 4486SOL    HW124917   1.743   2.380   3.079  3.9767 -2.0119 -1.4680
 4486SOL    HW224918   1.689   2.516   3.076 -0.9791 -0.6905 -0.3192
 4487SOL     OW24919   1.246   1.534   8.465 -0.1317  0.5533 -0.3186
 4487SOL    HW124920   1.261   1.618   8.508 -1.4125  0.0508  1.1548
 4487SOL    HW224921   1.329   1.492   8.489 -1.2710 -1.8635 -0.5443
 4488SOL     OW24922   1.537   1.775  15.718 -0.9460 -0.2139 -0.3582
 4488SOL    HW124923   1.511   1.809  15.633  0.9171 -1.3901 -1.4195
 4488SOL    HW224924   1.621   1.821  15.719 -1.1439  0.1239  0.4816
 4489SOL     OW24925   1.448   4.348   4.410 -0.2210  0.4925 -0.9196
 4489SOL    HW124926   1.514   4.365   4.342  1.3591 -0.7075  0.3484
 4489SOL    HW224927   1.442   4.254   4.396  0.7612  0.4696 -1.1965
 4490SOL     OW24928   3.293   1.622  11.163  0.0999  0.0507  0.0343
 4490SOL    HW124929   3.266   1.602  11.073  0.7239  0.1001 -0.1685
 4490SOL    HW224930   3.365   1.681  11.139  0.8103 -0.6328  0.4998
 4491SOL     OW24931   0.402   0.679   2.421  0.1062 -0.4170 -0.6597
 4491SOL    HW124932   0.393   0.614   2.352 -0.4982  1.3847 -2.2451
 4491SOL    HW224933   0.329   0.643   2.472  0.0678  0.2697 -0.2232
 4492SOL     OW24934   4.429   4.304   8.428 -0.0627 -0.0103 -0.0946
 4492SOL    HW124935   4.405   4.302   8.335  1.7166  1.4303 -0.5837
 4492SOL    HW224936   4.421   4.395   8.457 -0.5982  0.1405 -0.7320
 4493SOL     OW24937   2.695   0.636  15.713  0.2309  0.0336 -0.6688
 4493SOL    HW124938   2.648   0.599  15.638  1.4224 -2.5554 -0.1717
 4493SOL    HW224939   2.755   0.700  15.675 -0.2999  1.6182  1.1951
 4494SOL     OW24940   0.942   0.728   6.339 -0.2323 -0.3667  0.7740
 4494SOL    HW124941   0.868   0.670   6.322 -0.5940  0.2699  0.2142
 4494SOL    HW224942   0.902   0.812   6.362 -0.4787 -0.1014 -0.6646
 4495SOL     OW24943   1.585   1.564   3.024  0.3310 -0.7493  0.5872
 4495SOL    HW124944   1.555   1.546   2.935  0.3645 -0.8468  0.5965
 4495SOL    HW224945   1.678   1.553   3.008  0.3958  2.5761 -1.2736
 4496SOL     OW24946   1.143   0.860   0.768  0.3057  0.7654  0.0994
 4496SOL    HW124947   1.195   0.939   0.779 -1.3804  1.8125  0.4935
 4496SOL    HW224948   1.096   0.882   0.687  0.3293  0.4660  0.0030
 4497SOL     OW24949   3.336   4.507   8.223 -0.1783  0.2114  0.5714
 4497SOL    HW124950   3.388   4.587   8.220 -0.6988  0.4996 -0.7574
 4497SOL    HW224951   3.396   4.435   8.239  0.4762  0.0436 -2.5796
 4498SOL     OW24952   0.731   1.270  11.099 -0.4036  0.3318 -0.1060
 4498SOL    HW124953   0.665   1.322  11.144 -1.0357 -0.5390 -0.0240
 4498SOL    HW224954   0.772   1.337  11.045 -0.8174  1.9868  1.6426
 4499SOL     OW24955   4.219   1.349   2.171  0.1216  0.0357  0.0198
 4499SOL    HW124956   4.127   1.324   2.180 -0.3717  1.3151 -1.3311
 4499SOL    HW224957   4.244   1.284   2.106  0.1805  0.1218 -0.0445
 4500SOL     OW24958   1.216   2.835  13.852  0.0716 -0.3543  0.1555
 4500SOL    HW124959   1.120   2.833  13.845  0.2906 -0.3625 -2.9482
 4500SOL    HW224960   1.217   2.823  13.947  0.5787  0.1941  0.2185
 4501SOL     OW24961   3.599   1.366   7.104 -0.1424  0.0238 -0.1284
 4501SOL    HW124962   3.666   1.401   7.045  0.8644 -2.4826 -0.4573
 4501SOL    HW224963   3.538   1.438   7.120 -0.6453 -0.6807  1.1945
 4502SOL     OW24964   4.372   1.986   2.987  0.3941  0.0754  0.5314
 4502SOL    HW124965   4.370   2.074   2.949  2.1614  0.6710  1.8186
 4502SOL    HW224966   4.296   1.938   2.955  1.0583  0.0790 -1.0916
 4503SOL     OW24967   2.537   0.671   5.555  0.1567  0.1047  0.0281
 4503SOL    HW124968   2.463   0.626   5.594  0.6194 -1.4610 -0.8853
 4503SOL    HW224969   2.597   0.597   5.547  1.1382  0.7925  1.0105
 4504SOL     OW24970   2.870   0.612  15.199  0.0031  0.1980  0.0485
 4504SOL    HW124971   2.852   0.593  15.107  1.2325  2.9922 -0.7909
 4504SOL    HW224972   2.876   0.708  15.194  1.8641  0.1430  1.1108
 4505SOL     OW24973   3.923   1.169  10.799 -0.3451  0.4196  0.2334
 4505SOL    HW124974   3.979   1.211  10.864 -1.2795  3.6558 -1.0256
 4505SOL    HW224975   3.901   1.234  10.731  0.4636  0.3240 -0.1129
 4506SOL     OW24976   0.417   4.334   1.596  0.1026  0.0849 -0.6593
 4506SOL    HW124977   0.379   4.248   1.578  1.5315 -0.1174 -2.7476
 4506SOL    HW224978   0.426   4.378   1.512  3.1166 -0.2807 -0.5303
 4507SOL     OW24979   0.669   1.539   0.129  0.1473 -1.0158  0.4407
 4507SOL    HW124980   0.762   1.524   0.147  0.9747  1.1613 -2.0791
 4507SOL    HW224981   0.630   1.574   0.209 -0.0206 -1.0290  0.3642
 4508SOL     OW24982   0.405   0.055   1.749  0.2848 -0.3710 -0.4830
 4508SOL    HW124983   0.346   0.122   1.784  0.5158 -0.2262 -0.3767
 4508SOL    HW224984   0.332   0.005   1.711 -1.2643  0.9793  0.6918
 4509SOL     OW24985   0.501   3.999  16.072 -0.3105  0.4710 -0.0923
 4509SOL    HW124986   0.540   4.076  16.032 -0.7189  1.8578  2.1292
 4509SOL    HW224987   0.405   4.005  16.066 -0.2731 -0.6631 -1.5226
 4510SOL     OW24988   2.430   0.598   1.924 -0.3519 -0.0359  0.3909
 4510SOL    HW124989   2.360   0.533   1.917  0.9338 -1.5683  1.4563
 4510SOL    HW224990   2.452   0.598   2.017  1.4822  1.2675 -0.0290
 4511SOL     OW24991   2.802   0.322   2.539 -0.4768  0.5002 -0.1955
 4511SOL    HW124992   2.898   0.315   2.542 -0.3878  0.1623 -3.3928
 4511SOL    HW224993   2.774   0.337   2.629  0.5295 -1.4399  0.4399
 4512SOL     OW24994   3.752   0.438   7.705 -0.7824  0.2114  0.4048
 4512SOL    HW124995   3.679   0.378   7.692 -0.3775 -0.1703 -0.1165
 4512SOL    HW224996   3.778   0.416   7.795  0.9936  0.3628 -0.0643
 4513SOL     OW24997   0.200   0.271   1.720 -0.5749  0.2452 -0.5642
 4513SOL    HW124998   0.110   0.240   1.718  0.7429 -3.6816  0.6586
 4513SOL    HW224999   0.213   0.322   1.640  0.4417 -1.3971 -1.4514
 4514SOL     OW25000   2.613   4.045  17.528  0.0949  0.2382 -0.0481
 4514SOL    HW125001   2.577   4.053  17.440  1.5627  0.5750 -0.6315
 4514SOL    HW225002   2.552   3.980  17.562  1.4998 -0.2604  1.5343
 4515SOL     OW25003   1.965   0.808   1.781  0.0890 -0.3167  0.3396
 4515SOL    HW125004   2.044   0.765   1.814 -0.1353  0.7753  2.2451
 4515SOL    HW225005   1.998   0.891   1.747  1.7326 -0.9847  0.2728
 4516SOL     OW25006   3.239   2.078   4.254 -0.6274 -0.0687  0.0662
 4516SOL    HW125007   3.307   2.064   4.188  1.0753 -0.1297  1.8110
 4516SOL    HW225008   3.169   2.021   4.223 -0.6482  0.2486 -0.4661
 4517SOL     OW25009   1.905   4.274   9.239 -0.1304  0.2954 -0.8029
 4517SOL    HW125010   1.936   4.203   9.295  0.5483  0.0921 -1.4398
 4517SOL    HW225011   1.810   4.272   9.252 -0.3138 -0.6468 -2.3038
 4518SOL     OW25012   3.356   0.182  12.846 -0.4417 -0.5460 -0.0474
 4518SOL    HW125013   3.448   0.177  12.874 -0.8621  2.3442  1.8077
 4518SOL    HW225014   3.346   0.277  12.851 -0.2665 -0.6323  1.9453
 4519SOL     OW25015   0.272   2.858   1.977 -0.1666  0.2608  0.0701
 4519SOL    HW125016   0.363   2.834   1.963  0.2512  1.4448  0.7827
 4519SOL    HW225017   0.252   2.914   1.902 -0.4801 -2.0564 -1.6065
 4520SOL     OW25018   0.440   3.639   5.442 -0.1771 -0.0208  0.2199
 4520SOL    HW125019   0.462   3.726   5.475  0.8859 -0.1486 -0.1535
 4520SOL    HW225020   0.418   3.661   5.351 -0.7596 -2.2015 -0.1831
 4521SOL     OW25021   2.067   3.542  15.805 -0.7636 -0.0219 -0.3414
 4521SOL    HW125022   2.161   3.559  15.809 -1.0582  1.7614 -1.2022
 4521SOL    HW225023   2.065   3.450  15.778  1.7640 -0.6423  1.5032
 4522SOL     OW25024   4.417   0.149   5.517 -0.2364 -0.6319  0.2959
 4522SOL    HW125025   4.427   0.091   5.593  1.9483 -0.2108  0.3433
 4522SOL    HW225026   4.427   0.081   5.451  0.6317 -1.6483  1.4533
 4523SOL     OW25027   0.996   4.181   2.530  0.2585  0.1209  0.0631
 4523SOL    HW125028   1.054   4.254   2.550 -0.9509  0.9181  0.6449
 4523SOL    HW225029   1.025   4.156   2.442 -1.6434  1.2594 -0.8728
 4524SOL     OW25030   0.410   2.028   4.652  0.5841  0.1019  0.3285
 4524SOL    HW125031   0.491   2.024   4.602  0.5532 -2.8488  0.5040
 4524SOL    HW225032   0.362   1.948   4.626 -1.2248  1.0420  0.7653
 4525SOL     OW25033   3.360   1.275  16.194 -0.1985 -0.1676 -0.2805
 4525SOL    HW125034   3.448   1.250  16.165  0.0239  1.8958 -1.4365
 4525SOL    HW225035   3.310   1.210  16.145  0.2066 -0.7790  0.1171
 4526SOL     OW25036   2.624   4.288   4.395  0.0234  0.6851  0.1356
 4526SOL    HW125037   2.718   4.304   4.402  0.2715 -0.0889 -1.3262
 4526SOL    HW225038   2.599   4.352   4.461 -1.2847  0.6776 -0.3557
 4527SOL     OW25039   0.897   0.835   2.977 -0.6968  0.5297 -0.3519
 4527SOL    HW125040   0.875   0.868   3.064  1.5482 -1.0984  0.8510
 4527SOL    HW225041   0.866   0.744   2.973  2.1185 -0.5721  2.4797
 4528SOL     OW25042   2.205   1.039   3.215 -0.0191  0.0157  0.2401
 4528SOL    HW125043   2.135   1.078   3.162 -0.9814 -1.4255  0.4452
 4528SOL    HW225044   2.276   1.058   3.154 -0.2730  0.2432  0.0109
 4529SOL     OW25045   1.934   3.735   2.151 -0.2719 -0.4324 -0.5306
 4529SOL    HW125046   2.028   3.731   2.134 -0.0604  1.4842  0.1732
 4529SOL    HW225047   1.898   3.795   2.086 -0.3568  1.2909  1.1086
 4530SOL     OW25048   0.288   2.716   4.243  0.2371 -0.3888 -0.4127
 4530SOL    HW125049   0.329   2.766   4.173 -1.8091 -2.2915 -2.9622
 4530SOL    HW225050   0.318   2.629   4.217  1.0428 -0.2207 -0.0416
 4531SOL     OW25051   1.441   3.931   5.949 -0.4440 -0.6054 -0.1104
 4531SOL    HW125052   1.491   4.008   5.923 -0.8993 -0.1848  0.2619
 4531SOL    HW225053   1.413   3.902   5.863 -1.0596  1.1427 -0.4837
 4532SOL     OW25054   3.475   2.148   4.390 -0.0012  0.6896  0.1072
 4532SOL    HW125055   3.545   2.144   4.325 -2.3790  0.2027 -2.4227
 4532SOL    HW225056   3.393   2.150   4.340  0.3311 -0.3446 -0.4742
 4533SOL     OW25057   1.816   0.623   6.698  0.2938  0.0659  0.7580
 4533SOL    HW125058   1.840   0.538   6.734 -0.1284 -1.0992 -1.6899
 4533SOL    HW225059   1.890   0.651   6.644  1.5513  0.3060  2.6298
 4534SOL     OW25060   3.628   4.411   4.205  0.2229  0.6710  0.6899
 4534SOL    HW125061   3.573   4.403   4.127  0.3638  0.0459  0.6542
 4534SOL    HW225062   3.691   4.478   4.179 -0.8586  2.1195  1.8807
 4535SOL     OW25063   4.629   2.894  13.826 -0.5195 -0.0089 -0.3140
 4535SOL    HW125064   4.546   2.847  13.819 -0.8509  0.3751  0.9338
 4535SOL    HW225065   4.621   2.958  13.756 -0.2642 -0.5210 -0.8080
 4536SOL     OW25066   3.078   3.701  12.871 -0.5826  0.9795 -0.0214
 4536SOL    HW125067   3.113   3.696  12.782  1.8547 -1.7222  1.0867
 4536SOL    HW225068   3.099   3.789  12.901 -2.5356  1.1295  0.9234
 4537SOL     OW25069   3.338   3.104  15.719 -0.5235 -0.3101  0.7265
 4537SOL    HW125070   3.404   3.071  15.780  0.1365  0.0047  0.1773
 4537SOL    HW225071   3.391   3.169  15.673 -1.5538 -1.7951 -2.5073
 4538SOL     OW25072   4.089   0.802   0.446 -0.1289  0.0748  0.4205
 4538SOL    HW125073   4.020   0.860   0.415  0.3021 -0.1497 -0.9705
 4538SOL    HW225074   4.044   0.754   0.516  0.9543 -1.2431  0.2212
 4539SOL     OW25075   3.373   4.619   7.163 -0.0164 -0.7019  0.1747
 4539SOL    HW125076   3.369   4.677   7.239  2.2984  0.2475 -0.4255
 4539SOL    HW225077   3.339   4.675   7.093 -1.5561 -2.3132 -0.3707
 4540SOL     OW25078   0.219   4.665   3.629 -0.0520 -0.0222  0.4486
 4540SOL    HW125079   0.222   0.003   3.555 -1.0589 -2.8622 -1.9551
 4540SOL    HW225080   0.308   4.676   3.661  0.1600  1.4094 -0.6808
 4541SOL     OW25081   0.571   3.327   6.546 -0.1513 -0.6412 -1.2693
 4541SOL    HW125082   0.639   3.276   6.501 -0.0233  0.3542 -2.2057
 4541SOL    HW225083   0.577   3.307   6.639  0.0508  0.6363 -1.0137
 4542SOL     OW25084   0.106   0.903   6.018 -0.1210 -0.4702 -0.0023
 4542SOL    HW125085   0.117   0.823   6.069 -2.2832 -1.5283 -1.2339
 4542SOL    HW225086   0.045   0.955   6.071  0.5263  0.2817  0.0107
 4543SOL     OW25087   0.459   4.371   4.446  0.0515  0.2151  0.4411
 4543SOL    HW125088   0.386   4.418   4.407 -0.2699 -2.2939 -2.0119
 4543SOL    HW225089   0.411   4.290   4.465 -0.3566  0.7741  1.7670
 4544SOL     OW25090   3.053   1.512   2.838 -0.0434  0.2063  0.1659
 4544SOL    HW125091   3.084   1.432   2.881  1.1555 -0.0269 -1.1113
 4544SOL    HW225092   3.123   1.576   2.851  0.9997 -0.9414  0.2407
 4545SOL     OW25093   3.318   3.899  14.450 -0.7052  0.3116  1.0165
 4545SOL    HW125094   3.302   3.807  14.428 -1.7048  0.5259  0.8501
 4545SOL    HW225095   3.402   3.919  14.409 -0.9615 -0.9534 -0.1327
 4546SOL     OW25096   2.032   3.959   8.031  0.2000  0.4241  0.1833
 4546SOL    HW125097   2.021   4.004   8.114 -0.5430 -2.8088  1.8684
 4546SOL    HW225098   2.071   4.032   7.984 -1.6140  1.3285  0.0609
 4547SOL     OW25099   3.682   3.431  16.829  0.3024 -0.2373 -0.5861
 4547SOL    HW125100   3.597   3.472  16.813 -0.1779 -1.0443 -0.1529
 4547SOL    HW225101   3.691   3.369  16.757 -0.5793 -0.3743 -0.5812
 4548SOL     OW25102   2.627   1.954   5.163 -0.0443 -0.3024  0.4681
 4548SOL    HW125103   2.548   1.905   5.141  0.6950 -0.1382 -2.5846
 4548SOL    HW225104   2.644   1.997   5.079 -0.9554 -2.4780 -0.8186
 4549SOL     OW25105   2.307   2.915  17.339 -0.2941  1.2385 -0.5862
 4549SOL    HW125106   2.274   2.941  17.424  0.1291 -0.1889  0.0140
 4549SOL    HW225107   2.235   2.856  17.317  1.8663 -1.7654  0.4382
 4550SOL     OW25108   0.332   2.767  16.805 -0.4311  0.0848  0.5863
 4550SOL    HW125109   0.355   2.679  16.834 -0.0492 -0.1138 -0.3381
 4550SOL    HW225110   0.271   2.760  16.732 -0.6436 -0.4360  0.8110
 4551SOL     OW25111   3.561   2.649  13.338 -0.5480 -0.0233 -0.5330
 4551SOL    HW125112   3.656   2.657  13.330 -0.2649 -1.4373  1.3868
 4551SOL    HW225113   3.538   2.737  13.307  0.5845  1.1037  1.8293
 4552SOL     OW25114   2.075   4.535   9.280  0.2111 -0.3637 -0.0402
 4552SOL    HW125115   2.079   4.451   9.235  0.7276 -1.8200  2.7268
 4552SOL    HW225116   1.998   4.526   9.335  0.6239 -1.1384  0.4102
 4553SOL     OW25117   0.874   1.764   1.052  0.5335  0.1089  0.2719
 4553SOL    HW125118   0.799   1.791   1.106 -1.2298  0.5640 -2.3584
 4553SOL    HW225119   0.934   1.733   1.119  2.7736  0.9748 -1.3250
 4554SOL     OW25120   0.168   2.285   5.294 -0.7826  0.0952  0.1167
 4554SOL    HW125121   0.209   2.338   5.225 -1.7762  1.9138  0.9053
 4554SOL    HW225122   0.105   2.346   5.333  1.2843  2.1936  0.2507
 4555SOL     OW25123   4.503   0.669   0.718 -0.3925  0.4712  0.1679
 4555SOL    HW125124   4.538   0.710   0.639  1.1411  0.6241  0.9248
 4555SOL    HW225125   4.444   0.599   0.692  3.5530 -1.9480 -2.3459
 4556SOL     OW25126   0.903   2.495   0.535 -0.2599  0.4014 -0.1418
 4556SOL    HW125127   0.893   2.400   0.525 -2.3027  0.5158  0.7812
 4556SOL    HW225128   0.990   2.500   0.576  0.6716  0.5522 -2.1491
 4557SOL     OW25129   2.995   1.528  13.987  0.1557 -0.3798  0.0919
 4557SOL    HW125130   2.911   1.506  13.945  0.2026  0.4046 -0.4291
 4557SOL    HW225131   3.034   1.573  13.912 -1.9781  1.0414 -0.1895
 4558SOL     OW25132   0.833   2.354   4.768 -0.4862 -0.1149 -0.2348
 4558SOL    HW125133   0.883   2.274   4.783 -2.2071 -0.9123  1.3056
 4558SOL    HW225134   0.901   2.420   4.776  0.9350 -1.4744 -1.0268
 4559SOL     OW25135   3.392   3.204  11.571 -0.6644  0.0080 -0.5645
 4559SOL    HW125136   3.341   3.222  11.650  2.4294  1.1473  1.1486
 4559SOL    HW225137   3.466   3.264  11.580 -0.5827 -0.2140  0.2438
 4560SOL     OW25138   1.569   3.301   9.202  0.3472 -0.7161 -0.2682
 4560SOL    HW125139   1.533   3.361   9.137  2.1112  1.3078  0.6058
 4560SOL    HW225140   1.620   3.233   9.158  0.2727 -0.6549 -0.4452
 4561SOL     OW25141   4.101   3.447   3.972  0.0502 -0.2428 -0.5906
 4561SOL    HW125142   4.144   3.392   4.038 -1.5226  0.5046  1.0646
 4561SOL    HW225143   4.182   3.492   3.949 -0.9648  1.4298 -0.8505
 4562SOL     OW25144   1.861   1.130   7.386  0.3503 -0.2106  0.3523
 4562SOL    HW125145   1.769   1.148   7.404  0.5188  0.1987  0.8432
 4562SOL    HW225146   1.906   1.196   7.440 -1.7582  0.9809  0.6519
 4563SOL     OW25147   4.133   2.627   6.007  0.0202 -0.7267 -0.1600
 4563SOL    HW125148   4.182   2.706   5.983 -1.1730 -0.1578 -0.7205
 4563SOL    HW225149   4.199   2.560   5.991 -1.4660 -1.6547 -2.3758
 4564SOL     OW25150   0.589   0.803   2.035 -0.0111  0.3362  0.2640
 4564SOL    HW125151   0.497   0.828   2.033  0.3597  1.7266  0.5569
 4564SOL    HW225152   0.629   0.868   1.977  0.8439 -1.3390 -1.0109
 4565SOL     OW25153   4.522   0.093  11.036  0.3262 -0.1446  0.3005
 4565SOL    HW125154   4.498   0.013  10.990  0.2769  0.5226 -0.8231
 4565SOL    HW225155   4.456   0.149  10.996 -0.2408  1.5490  3.6262
 4566SOL     OW25156   0.254   2.206  12.848 -0.1241 -0.0581  0.3577
 4566SOL    HW125157   0.186   2.159  12.800  0.1153 -0.1421  0.1031
 4566SOL    HW225158   0.329   2.175  12.798 -1.1931  1.7860 -2.3801
 4567SOL     OW25159   0.510   4.685   9.019  0.1753 -0.4568  0.5354
 4567SOL    HW125160   0.555   0.027   9.073  0.7156  0.5358 -1.0875
 4567SOL    HW225161   0.450   0.022   8.973  0.7503  0.3813  0.8712
 4568SOL     OW25162   4.692   1.342   3.684 -0.0441  0.2634 -0.0283
 4568SOL    HW125163   4.693   1.430   3.648  1.1982  0.0504 -0.5176
 4568SOL    HW225164   4.610   1.346   3.734  0.1114 -0.5568  0.2935
 4569SOL     OW25165   2.506   4.450   3.802  0.5537 -0.6394 -0.4004
 4569SOL    HW125166   2.556   4.394   3.861  0.1581 -0.0889  0.4655
 4569SOL    HW225167   2.458   4.505   3.864 -1.6596 -2.3562 -0.5565
 4570SOL     OW25168   1.692   3.934   8.144 -0.3605  0.0220 -0.0161
 4570SOL    HW125169   1.735   4.013   8.178  1.6469 -0.6121 -1.0858
 4570SOL    HW225170   1.745   3.869   8.189  1.0038  0.8182 -0.4641
 4571SOL     OW25171   2.043   1.444   6.003 -0.3338  0.1577 -0.0412
 4571SOL    HW125172   2.112   1.510   6.018 -1.2652  1.1701 -0.2316
 4571SOL    HW225173   2.059   1.401   6.087 -0.2977  0.7245  0.2439
 4572SOL     OW25174   1.275   2.209   9.363 -0.2133 -0.5610  0.0342
 4572SOL    HW125175   1.367   2.186   9.351 -1.1243 -3.1121 -1.8380
 4572SOL    HW225176   1.226   2.141   9.317 -0.5250  0.2687 -0.8665
 4573SOL     OW25177   1.472   0.621   8.618 -0.0628  0.5713 -0.0962
 4573SOL    HW125178   1.393   0.583   8.656  0.6971  1.1072  2.0257
 4573SOL    HW225179   1.457   0.715   8.613 -0.6165  0.2557 -4.0436
 4574SOL     OW25180   4.010   0.056   4.226 -0.1016 -0.0423  0.2896
 4574SOL    HW125181   4.089   0.003   4.244 -0.1608  0.4017  1.8903
 4574SOL    HW225182   4.049   0.140   4.201  0.2773 -0.0341  0.9007
 4575SOL     OW25183   0.753   4.106   2.617 -0.5384 -0.1236  0.4367
 4575SOL    HW125184   0.709   4.084   2.535  3.1931 -2.7156 -0.8439
 4575SOL    HW225185   0.837   4.140   2.588 -0.8818 -0.7954 -1.3239
 4576SOL     OW25186   2.367   0.388   0.851  0.1778  0.2303  0.0606
 4576SOL    HW125187   2.374   0.360   0.760 -0.4060  1.5063 -0.3690
 4576SOL    HW225188   2.278   0.423   0.853  0.4978  0.9837  1.4661
 4577SOL     OW25189   0.893   4.199   2.162 -0.1542 -0.1468 -0.0666
 4577SOL    HW125190   0.852   4.233   2.083 -1.4592 -0.2307  0.5727
 4577SOL    HW225191   0.913   4.112   2.126 -4.1541 -0.6066 -1.1844
 4578SOL     OW25192   1.163   0.042   3.127 -0.9158 -0.3735 -0.2989
 4578SOL    HW125193   1.230   0.026   3.061  1.1216 -1.4550  2.0230
 4578SOL    HW225194   1.091   0.071   3.071 -1.1112  0.8913  0.6034
 4579SOL     OW25195   2.080   1.552   2.377  0.4270 -0.1595  0.4099
 4579SOL    HW125196   2.048   1.535   2.465 -1.3061  1.9334  0.2056
 4579SOL    HW225197   2.046   1.483   2.320  0.8949 -0.3611  0.3765
 4580SOL     OW25198   1.042   3.945  14.875 -0.2026  0.0946  0.7582
 4580SOL    HW125199   0.997   3.967  14.794 -0.9155 -1.9126  0.6072
 4580SOL    HW225200   1.033   3.850  14.871  1.6075 -0.0682  0.4983
 4581SOL     OW25201   1.886   4.390   0.611 -0.1426 -0.1886  0.4260
 4581SOL    HW125202   1.889   4.471   0.662  1.7312 -0.4285  0.7030
 4581SOL    HW225203   1.796   4.385   0.580  0.7605 -1.4975 -1.9494
 4582SOL     OW25204   1.851   2.473   2.769 -0.0181  0.3292  0.4780
 4582SOL    HW125205   1.792   2.419   2.716  0.8406 -0.4064  0.2675
 4582SOL    HW225206   1.803   2.494   2.849  2.2684  2.7086  1.2108
 4583SOL     OW25207   0.095   3.824   3.893  0.3665  0.2611 -0.5218
 4583SOL    HW125208   0.022   3.821   3.954  1.4248  1.1224  0.8039
 4583SOL    HW225209   0.136   3.901   3.934 -0.7472 -0.1227  1.2990
 4584SOL     OW25210   1.142   2.973   2.869  0.3642  0.2346  0.1806
 4584SOL    HW125211   1.094   3.038   2.921 -0.2302  1.3180 -1.7211
 4584SOL    HW225212   1.079   2.905   2.846  1.4504 -0.7711  0.2227
 4585SOL     OW25213   1.380   4.036   2.241 -0.0684 -0.2724 -0.6441
 4585SOL    HW125214   1.321   3.995   2.178  0.3171 -0.2610 -1.0093
 4585SOL    HW225215   1.310   4.054   2.304  2.5902 -0.9051  2.4990
 4586SOL     OW25216   0.570   3.329   7.541  0.1343  0.1202 -0.0726
 4586SOL    HW125217   0.518   3.344   7.620 -0.6816 -2.1700 -0.1705
 4586SOL    HW225218   0.533   3.247   7.508 -2.1533  1.0728  0.1148
 4587SOL     OW25219   0.015   2.624   2.439  0.3982 -0.1465  0.4293
 4587SOL    HW125220   4.696   2.698   2.484  1.1496  1.4055 -1.4388
 4587SOL    HW225221   0.091   2.661   2.396 -0.6531  0.8978 -0.5380
 4588SOL     OW25222   4.512   2.948   0.482  0.3646 -0.1018  0.3376
 4588SOL    HW125223   4.420   2.939   0.509  0.8497 -2.7228  1.1063
 4588SOL    HW225224   4.556   2.923   0.563 -2.1217  0.9001  2.0251
 4589SOL     OW25225   2.241   4.208   2.138  0.2196 -0.5766 -0.4789
 4589SOL    HW125226   2.173   4.255   2.186 -0.1570 -0.5005 -1.0848
 4589SOL    HW225227   2.242   4.118   2.171  1.9745 -0.3290  0.1782
 4590SOL     OW25228   2.898   0.152   8.114 -0.0834  0.2061  0.4164
 4590SOL    HW125229   2.917   0.240   8.147 -3.1156  0.1268  2.3142
 4590SOL    HW225230   2.954   0.103   8.173  0.5191 -0.2806 -0.5473
 4591SOL     OW25231   0.230   2.587   6.176 -0.0142 -0.0937 -0.1768
 4591SOL    HW125232   0.284   2.530   6.230 -0.4900 -1.8250 -1.5242
 4591SOL    HW225233   0.157   2.612   6.233  0.0980  0.4273 -0.2604
 4592SOL     OW25234   0.750   0.178   3.220 -0.5494 -0.5041 -0.1390
 4592SOL    HW125235   0.768   0.127   3.299 -0.5332 -0.4885 -0.1328
 4592SOL    HW225236   0.694   0.245   3.257  1.0176  0.6028  0.2235
 4593SOL     OW25237   4.177   2.521  14.262  0.3828  0.0553  0.1910
 4593SOL    HW125238   4.084   2.521  14.284  0.1584  0.5722 -0.7635
 4593SOL    HW225239   4.179   2.543  14.169 -3.4116 -1.3526 -0.1967
 4594SOL     OW25240   4.706   4.227   9.101  0.0466  0.4034 -0.0502
 4594SOL    HW125241   0.019   4.300   9.151  1.8071 -1.9480  2.1757
 4594SOL    HW225242   4.711   4.264   9.013  0.3823 -0.7379 -0.5175
 4595SOL     OW25243   2.962   0.834   4.873 -0.0782 -0.1435 -0.0097
 4595SOL    HW125244   3.017   0.792   4.806 -0.4353 -0.1015 -0.3329
 4595SOL    HW225245   2.995   0.781   4.946  1.5260  1.8685  0.7140
 4596SOL     OW25246   0.930   2.285   8.042 -0.3531 -0.0492 -0.3961
 4596SOL    HW125247   1.016   2.249   8.067 -2.0222 -3.3077  0.6183
 4596SOL    HW225248   0.916   2.349   8.112 -2.1380 -0.0519 -0.7592
 4597SOL     OW25249   2.297   3.996   4.283 -0.5115 -0.1414 -0.8487
 4597SOL    HW125250   2.203   4.008   4.273 -0.6006  0.1839  0.3751
 4597SOL    HW225251   2.301   3.904   4.258 -0.1531  0.0094 -1.3434
 4598SOL     OW25252   3.894   0.019   2.078  0.0470  0.5982  0.0451
 4598SOL    HW125253   3.923   0.047   2.165  0.2605  1.4743 -0.3067
 4598SOL    HW225254   3.927   0.083   2.014 -0.2583  0.5134 -0.1983
 4599SOL     OW25255   3.588   4.081  11.663 -0.5710  0.7564  0.2905
 4599SOL    HW125256   3.612   4.160  11.615 -0.1255  0.7064  0.4310
 4599SOL    HW225257   3.657   4.059  11.726 -0.8538 -2.8517 -0.6559
 4600SOL     OW25258   2.785   3.422   0.021 -0.6680 -0.3316  0.3096
 4600SOL    HW125259   2.698   3.463   0.018  0.0522  1.0510 -1.5545
 4600SOL    HW225260   2.851   3.487  17.691  2.3020 -3.4761  0.0337
 4601SOL     OW25261   2.147   2.069  10.104 -0.2621 -0.2582 -1.0856
 4601SOL    HW125262   2.226   2.085  10.156 -1.3916 -1.4003  0.9681
 4601SOL    HW225263   2.084   2.036  10.167  1.4084  2.0998  1.8299
 4602SOL     OW25264   0.746   4.259   1.922 -0.4114  0.4574  0.2127
 4602SOL    HW125265   0.712   4.225   1.839 -0.0562  2.6917 -0.8341
 4602SOL    HW225266   0.681   4.328   1.937 -2.2196 -1.0906 -0.5617
 4603SOL     OW25267   0.124   2.726  16.604 -0.4414  0.5674  0.3986
 4603SOL    HW125268   0.043   2.758  16.643 -0.4602  0.3044  0.5791
 4603SOL    HW225269   0.106   2.639  16.568 -0.2768 -0.8818  3.8686
 4604SOL     OW25270   0.381   3.328   5.778  0.0582  0.1378  0.0511
 4604SOL    HW125271   0.302   3.361   5.819  0.2705  1.2423 -0.4499
 4604SOL    HW225272   0.435   3.299   5.852 -0.2153  2.2259  1.0620
 4605SOL     OW25273   0.636   3.406  12.790  0.9256  0.0765  0.4099
 4605SOL    HW125274   0.623   3.358  12.872  1.6229 -1.7593 -0.5454
 4605SOL    HW225275   0.710   3.458  12.819  0.4560  0.1126  1.5299
 4606SOL     OW25276   2.112   3.056   2.818  0.4192  0.3891  0.0963
 4606SOL    HW125277   2.127   3.051   2.723 -0.6428 -0.1230 -0.0467
 4606SOL    HW225278   2.042   2.995   2.841 -0.7349  0.9074 -2.0054
 4607SOL     OW25279   3.053   4.121  16.231 -0.0665 -0.2293  0.0710
 4607SOL    HW125280   3.145   4.101  16.248  0.0256  2.3361  2.6937
 4607SOL    HW225281   3.017   4.033  16.238  0.7810 -0.5769 -0.0115
 4608SOL     OW25282   1.008   0.174   4.606 -0.1893  0.1541  0.5007
 4608SOL    HW125283   1.095   0.157   4.570 -1.0504  0.1852 -1.6311
 4608SOL    HW225284   0.949   0.130   4.544 -0.4480  0.2123  0.7073
 4609SOL     OW25285   1.485   0.252   2.980  0.1877  0.4471 -0.1359
 4609SOL    HW125286   1.425   0.178   2.975  0.5885  0.0315  1.2554
 4609SOL    HW225287   1.549   0.227   2.913  1.5001  2.2038  0.4613
 4610SOL     OW25288   1.253   3.433   2.917  0.6703  0.5205  0.1274
 4610SOL    HW125289   1.284   3.491   2.847  0.7189  2.4108  1.7190
 4610SOL    HW225290   1.160   3.440   2.893  0.7956  1.8319  0.0204
 4611SOL     OW25291   3.010   2.710  15.105  0.4089 -0.5286  0.4972
 4611SOL    HW125292   3.023   2.678  15.016  0.9879 -0.0136  0.4038
 4611SOL    HW225293   3.002   2.625  15.150  1.4430  0.3650  2.3780
 4612SOL     OW25294   3.495   2.903   3.239  0.4699 -0.1779  0.2259
 4612SOL    HW125295   3.467   2.878   3.151 -0.5937 -1.1627  0.8394
 4612SOL    HW225296   3.446   2.840   3.292  1.7339 -2.1456 -0.9628
 4613SOL     OW25297   3.611   3.743   3.690 -0.0559 -0.3222 -0.4609
 4613SOL    HW125298   3.672   3.810   3.661  0.2341 -0.0091  0.9001
 4613SOL    HW225299   3.619   3.677   3.621 -2.2007  2.0447 -2.9884
 4614SOL     OW25300   3.663   1.615   7.800  0.3033  0.0106  0.1112
 4614SOL    HW125301   3.582   1.599   7.849  0.0800  3.1354  0.7674
 4614SOL    HW225302   3.673   1.530   7.756  2.6098  0.8118 -0.8816
 4615SOL     OW25303   2.968   0.427   8.569  0.3989 -0.1716 -0.3197
 4615SOL    HW125304   3.014   0.471   8.497 -1.5198  1.5911 -0.4911
 4615SOL    HW225305   2.888   0.474   8.590 -0.3281 -1.2273 -0.6890
 4616SOL     OW25306   3.516   0.998   1.598 -0.3778 -0.4040 -0.7987
 4616SOL    HW125307   3.474   1.071   1.553  1.1644  0.0225 -1.5504
 4616SOL    HW225308   3.464   0.923   1.568 -1.5420  1.5712 -3.7748
 4617SOL     OW25309   2.249   4.583   1.846  0.1330 -0.2130 -0.6772
 4617SOL    HW125310   2.328   4.530   1.836 -0.7940 -1.9840  1.4860
 4617SOL    HW225311   2.250   4.594   1.941  1.8962 -0.8791 -0.6117
 4618SOL     OW25312   0.460   1.497   3.685 -0.1367  0.4531 -0.3790
 4618SOL    HW125313   0.450   1.583   3.643  3.3165 -0.1706 -2.4804
 4618SOL    HW225314   0.553   1.502   3.705 -0.0267 -0.8361 -0.5530
 4619SOL     OW25315   4.419   4.551   2.415  0.0146 -0.1066 -0.3912
 4619SOL    HW125316   4.380   4.600   2.487 -0.2073 -0.1884 -0.4572
 4619SOL    HW225317   4.343   4.510   2.373  1.0890 -0.3316 -2.1287
 4620SOL     OW25318   1.512   2.649   7.430 -0.3440 -0.4678 -0.2828
 4620SOL    HW125319   1.509   2.565   7.477  0.0032 -1.3032 -1.7789
 4620SOL    HW225320   1.440   2.632   7.369 -0.2672  1.7982 -0.9790
 4621SOL     OW25321   2.603   1.795   6.647  0.0626 -0.3646 -0.1953
 4621SOL    HW125322   2.558   1.760   6.570  1.2351 -2.9780  0.2786
 4621SOL    HW225323   2.540   1.862   6.673 -1.2275 -2.0226  0.9284
 4622SOL     OW25324   2.320   2.529   8.841 -0.0234 -0.0397  0.4284
 4622SOL    HW125325   2.259   2.490   8.778  0.3632 -0.3250  0.2361
 4622SOL    HW225326   2.299   2.622   8.828  0.0011  0.0742  1.2030
 4623SOL     OW25327   3.382   0.193   5.143  0.4471  0.0029 -0.1723
 4623SOL    HW125328   3.420   0.238   5.068  0.0388  0.6195 -0.0070
 4623SOL    HW225329   3.445   0.121   5.154 -0.0134 -0.5621 -1.2439
 4624SOL     OW25330   1.567   0.595   9.545 -0.1067  0.5972  0.2476
 4624SOL    HW125331   1.656   0.629   9.536  0.6043 -1.1593  0.6372
 4624SOL    HW225332   1.586   0.511   9.503  2.4840  0.4827  1.6263
 4625SOL     OW25333   4.077   0.706   5.529 -0.1307  0.5844 -0.2949
 4625SOL    HW125334   4.091   0.735   5.619 -0.1017 -0.1249 -0.0720
 4625SOL    HW225335   4.150   0.646   5.517 -0.3544  0.5841 -1.6533
 4626SOL     OW25336   2.194   3.261   9.036  0.6386  0.1168 -0.0567
 4626SOL    HW125337   2.187   3.168   9.013  0.0471 -0.1283  1.1263
 4626SOL    HW225338   2.176   3.250   9.129  0.9472 -0.3938 -0.0565
 4627SOL     OW25339   0.600   2.535   9.097 -0.6238  0.1076 -0.1106
 4627SOL    HW125340   0.611   2.629   9.082 -0.0310 -0.0204 -0.4997
 4627SOL    HW225341   0.647   2.506   9.019  0.4635  2.2332 -0.2494
 4628SOL     OW25342   3.437   2.617   4.564  0.1021  0.6812 -0.7547
 4628SOL    HW125343   3.359   2.596   4.512  0.4583  0.1827 -1.0873
 4628SOL    HW225344   3.487   2.535   4.556  0.4521  1.2247 -4.2417
 4629SOL     OW25345   1.908   4.167   2.484 -0.3942  0.1982  0.5854
 4629SOL    HW125346   1.824   4.151   2.441 -0.6136  0.9388  0.7347
 4629SOL    HW225347   1.883   4.148   2.574 -0.3275  0.6949  0.7084
 4630SOL     OW25348   3.155   0.644   8.264 -0.8249 -0.4087  0.3803
 4630SOL    HW125349   3.225   0.660   8.200 -1.3045  1.1857  0.2346
 4630SOL    HW225350   3.145   0.738   8.284 -0.7516 -0.2712 -0.2183
 4631SOL     OW25351   3.024   2.352  12.550 -0.1899 -0.0582  0.3439
 4631SOL    HW125352   3.036   2.405  12.471 -1.5021  2.1644  1.6202
 4631SOL    HW225353   3.040   2.421  12.614  2.1187 -0.8751  0.6300
 4632SOL     OW25354   3.312   1.116   6.012  0.2718 -0.2685 -0.1792
 4632SOL    HW125355   3.258   1.112   6.091  0.1817 -1.7246 -0.3148
 4632SOL    HW225356   3.282   1.041   5.962 -1.1808 -0.2103  0.6192
 4633SOL     OW25357   0.229   4.418   0.280 -0.3859 -0.2802  0.2622
 4633SOL    HW125358   0.179   4.372   0.347  0.4237  0.9695  1.7069
 4633SOL    HW225359   0.182   4.500   0.269  2.0310  1.0492 -0.0854
 4634SOL     OW25360   4.562   3.911   8.078  0.0041  0.6115  0.1089
 4634SOL    HW125361   4.579   3.816   8.076 -0.5793  0.4718  1.7983
 4634SOL    HW225362   4.503   3.922   8.153 -1.4900  2.6757 -1.4016
 4635SOL     OW25363   0.225   4.097   2.625 -0.0287  0.1751  0.3370
 4635SOL    HW125364   0.286   4.083   2.553 -1.2767 -1.2091 -0.4376
 4635SOL    HW225365   0.159   4.033   2.601 -0.3629  1.2609 -1.6490
 4636SOL     OW25366   2.824   1.594   5.649 -0.0277 -0.6323  0.0881
 4636SOL    HW125367   2.847   1.638   5.731 -0.0406 -0.6031  0.0762
 4636SOL    HW225368   2.909   1.568   5.613  0.5128 -1.4617  1.9492
 4637SOL     OW25369   1.904   1.722   4.271  0.0753 -0.2269 -0.0101
 4637SOL    HW125370   1.967   1.699   4.203 -2.5429 -0.7004 -2.2995
 4637SOL    HW225371   1.912   1.817   4.273  1.7087 -0.3839  1.5741
 4638SOL     OW25372   0.769   0.177   2.831 -0.1991 -0.3997  0.4297
 4638SOL    HW125373   0.855   0.135   2.824 -0.4875 -0.4651 -2.5623
 4638SOL    HW225374   0.726   0.114   2.888 -0.4110  1.1086  1.9452
 4639SOL     OW25375   1.170   0.838  12.122  0.4944  0.3000  0.3567
 4639SOL    HW125376   1.093   0.821  12.177 -1.3170  0.2001 -2.2477
 4639SOL    HW225377   1.249   0.817  12.172  0.4227 -1.7127 -0.3816
 4640SOL     OW25378   1.608   3.095  15.486  0.2855 -0.0736  0.3377
 4640SOL    HW125379   1.546   3.105  15.557 -0.0921 -2.2406  0.3293
 4640SOL    HW225380   1.681   3.141  15.528  0.1432  1.5681 -1.1892
 4641SOL     OW25381   1.151   3.016   4.085 -0.0249  0.2614  0.5996
 4641SOL    HW125382   1.235   3.046   4.121  0.0592 -0.1981  0.7759
 4641SOL    HW225383   1.158   3.048   3.995 -0.0956 -0.5881  0.2930
 4642SOL     OW25384   3.283   4.593   9.426  0.2879  0.2546 -0.4478
 4642SOL    HW125385   3.273   4.582   9.521  0.9362  0.1363 -0.3952
 4642SOL    HW225386   3.219   4.663   9.415  0.6496  0.2982 -2.2128
 4643SOL     OW25387   1.998   0.645   2.738 -0.1486  0.3239  0.0460
 4643SOL    HW125388   1.928   0.706   2.717 -0.7914 -0.4897 -0.1842
 4643SOL    HW225389   2.051   0.655   2.659 -0.5798  2.8234  0.1041
 4644SOL     OW25390   2.105   4.647   3.014  0.4660 -0.5033  0.0129
 4644SOL    HW125391   2.148   4.562   2.999  2.1077  0.7700 -2.4060
 4644SOL    HW225392   2.056   4.657   2.933  0.7043  2.0568  0.2048
 4645SOL     OW25393   1.468   4.532   4.837 -0.0932  0.3860 -0.6194
 4645SOL    HW125394   1.507   4.604   4.787  1.8316 -0.1812  0.0519
 4645SOL    HW225395   1.410   4.587   4.888 -0.4371 -1.1485  0.6307
 4646SOL     OW25396   1.490   4.079   4.373 -0.3895  0.2868  0.1719
 4646SOL    HW125397   1.453   4.018   4.437  2.3813 -1.6738 -0.1269
 4646SOL    HW225398   1.570   4.103   4.420  0.5680 -1.7954 -0.4310
 4647SOL     OW25399   2.054   1.077   5.088  0.0067  0.2783  0.3095
 4647SOL    HW125400   2.067   1.134   5.164 -1.0226 -0.3811  0.9831
 4647SOL    HW225401   1.965   1.102   5.063  0.8266  1.6009 -1.2812
 4648SOL     OW25402   1.879   1.678   5.991 -0.1553 -0.0549  0.4444
 4648SOL    HW125403   1.917   1.591   5.997  0.1295  0.1264  1.1738
 4648SOL    HW225404   1.898   1.700   5.899  2.9659 -0.8536  0.9025
 4649SOL     OW25405   1.304   0.146   6.145 -0.1482 -0.2931  0.2764
 4649SOL    HW125406   1.333   0.231   6.177 -2.4064  1.1181 -1.4431
 4649SOL    HW225407   1.259   0.115   6.224 -1.5941 -0.0038 -0.4346
 4650SOL     OW25408   0.373   3.604   5.983 -0.3399  0.1959  0.3959
 4650SOL    HW125409   0.318   3.537   5.942  0.1689 -0.4982  0.8432
 4650SOL    HW225410   0.341   3.605   6.074 -0.3386  0.2708  0.3961
 4651SOL     OW25411   0.739   0.386  15.084 -0.1373 -0.2158  0.6954
 4651SOL    HW125412   0.678   0.458  15.068  2.1285  0.9168 -2.8509
 4651SOL    HW225413   0.758   0.410  15.175 -0.8606  1.9286  0.2716
 4652SOL     OW25414   3.546   4.019  15.135  0.0148  0.0472 -0.0413
 4652SOL    HW125415   3.508   4.001  15.221  1.0243 -1.4893  0.0818
 4652SOL    HW225416   3.489   3.976  15.071  0.8959 -0.2475 -0.6282
 4653SOL     OW25417   3.966   0.672  16.515 -0.5352 -0.3863 -0.5809
 4653SOL    HW125418   3.960   0.611  16.442  2.7216 -0.2002 -0.9758
 4653SOL    HW225419   3.928   0.751  16.477  0.6651  0.2107 -0.5279
 4654SOL     OW25420   2.779   0.650   3.178 -0.0390 -0.3418 -0.2412
 4654SOL    HW125421   2.872   0.647   3.199  0.0430  0.2983 -0.5174
 4654SOL    HW225422   2.764   0.560   3.150  0.0853 -0.9920  1.7188
 4655SOL     OW25423   1.570   4.174   8.364 -0.1541  0.5374  0.0396
 4655SOL    HW125424   1.537   4.088   8.337  0.8442 -0.5918  2.3688
 4655SOL    HW225425   1.513   4.233   8.315 -0.9250  0.0428  0.3397
 4656SOL     OW25426   0.632   0.652   6.968  0.4191  0.2675  0.6935
 4656SOL    HW125427   0.664   0.606   7.046 -0.5189  1.6129  1.8669
 4656SOL    HW225428   0.704   0.708   6.939 -1.4403  2.6259  0.6762
 4657SOL     OW25429   1.148   3.020   1.505 -0.1561 -0.0879 -0.0287
 4657SOL    HW125430   1.152   3.104   1.459 -0.8078 -0.1559 -0.2178
 4657SOL    HW225431   1.053   3.006   1.516 -0.3020  0.2093 -0.9368
 4658SOL     OW25432   1.442   1.252  11.026  0.8420  0.8333 -0.1035
 4658SOL    HW125433   1.373   1.281  11.086  1.5443 -1.3799  1.7628
 4658SOL    HW225434   1.426   1.311  10.953  2.5886  0.9430 -0.3819
 4659SOL     OW25435   2.868   2.570  11.255 -0.3140 -0.9198  0.4240
 4659SOL    HW125436   2.784   2.524  11.250 -1.5562  1.3954  0.2184
 4659SOL    HW225437   2.869   2.630  11.181  1.9512  0.0351  1.2067
 4660SOL     OW25438   4.355   1.117  16.175  0.7674  0.3391  0.3283
 4660SOL    HW125439   4.299   1.181  16.220 -1.9841 -2.2099  0.4994
 4660SOL    HW225440   4.412   1.171  16.120 -0.7066  1.2861 -0.2609
 4661SOL     OW25441   3.381   3.958   2.259  0.1221  0.1120 -0.5007
 4661SOL    HW125442   3.446   4.016   2.300 -0.8755  0.5872  0.4090
 4661SOL    HW225443   3.309   3.967   2.322  1.0363  0.8330  0.4532
 4662SOL     OW25444   4.370   2.637   7.838  0.2489 -0.3480 -0.2608
 4662SOL    HW125445   4.329   2.723   7.829 -1.0926 -0.8846  0.8424
 4662SOL    HW225446   4.441   2.663   7.896 -1.0177 -2.1432  2.1015
 4663SOL     OW25447   3.582   4.498   7.843  0.0604  0.2249 -0.3812
 4663SOL    HW125448   3.514   4.454   7.893  0.4912  0.3454  0.3179
 4663SOL    HW225449   3.658   4.442   7.862  2.0378  3.2671  0.5801
 4664SOL     OW25450   2.037   1.969   7.996  0.5651  0.2001 -0.4810
 4664SOL    HW125451   2.096   1.912   8.046  0.0425  0.2384  0.1810
 4664SOL    HW225452   2.087   2.050   7.988 -1.2363  1.1311 -2.3145
 4665SOL     OW25453   2.373   3.102  17.137  0.0330 -0.0752 -0.4566
 4665SOL    HW125454   2.298   3.161  17.146  0.3598  0.4871 -1.3629
 4665SOL    HW225455   2.370   3.045  17.214 -2.1795  0.1570 -0.3854
 4666SOL     OW25456   0.180   3.035   6.921 -0.3701  0.8565  0.3911
 4666SOL    HW125457   0.205   2.943   6.920 -2.1790  0.4041 -2.6687
 4666SOL    HW225458   0.171   3.057   6.829  2.2425 -0.2909 -0.1145
 4667SOL     OW25459   3.115   1.347  10.762  0.3543  0.5616  0.0624
 4667SOL    HW125460   3.155   1.351  10.849  1.5523  0.9212 -0.4940
 4667SOL    HW225461   3.022   1.357  10.780  0.2771  0.1007 -0.0954
 4668SOL     OW25462   3.846   2.804  13.406  0.0355  0.1448 -0.6926
 4668SOL    HW125463   3.855   2.839  13.495  0.8147 -1.6426 -0.0544
 4668SOL    HW225464   3.929   2.822  13.364 -1.1468  0.5446 -2.8564
 4669SOL     OW25465   0.414   1.588   5.655  0.4601 -0.1979 -0.7301
 4669SOL    HW125466   0.448   1.513   5.606 -0.8996 -2.1093  1.2106
 4669SOL    HW225467   0.322   1.564   5.652  1.3648 -3.8004  0.1090
 4670SOL     OW25468   0.865   2.614   7.460 -0.7050 -0.0056 -0.3729
 4670SOL    HW125469   0.774   2.585   7.458 -1.1505  1.3921 -0.1586
 4670SOL    HW225470   0.841   2.703   7.485  1.1034  0.5235 -0.5038
 4671SOL     OW25471   2.862   4.364   4.913 -0.1033 -0.1723  0.2583
 4671SOL    HW125472   2.767   4.368   4.905 -0.1312 -2.3530 -0.3785
 4671SOL    HW225473   2.887   4.303   4.845  0.8841  1.2687 -0.6623
 4672SOL     OW25474   1.600   3.390   0.060  0.1260 -0.4392  0.1194
 4672SOL    HW125475   1.547   3.315   0.086 -1.7721  0.9573  0.2618
 4672SOL    HW225476   1.687   3.350   0.060  0.6867  0.7891 -1.2247
 4673SOL     OW25477   3.883   3.911   4.222 -0.1190  0.5979 -0.2556
 4673SOL    HW125478   3.924   3.997   4.235  0.1721  0.2738  0.9671
 4673SOL    HW225479   3.812   3.928   4.161  0.1828  0.3510 -0.6774
 4674SOL     OW25480   3.848   3.764   8.994  0.1332 -0.0064 -0.1184
 4674SOL    HW125481   3.793   3.702   8.946  1.0898 -1.1591  0.2876
 4674SOL    HW225482   3.832   3.843   8.943 -1.0411  0.2064  0.5904
 4675SOL     OW25483   2.238   0.376  10.742  0.2897 -0.0314  0.6502
 4675SOL    HW125484   2.284   0.292  10.744  1.1278  0.3865 -1.3537
 4675SOL    HW225485   2.152   0.343  10.768  0.0421 -0.1735 -0.3452
 4676SOL     OW25486   0.350   2.428   2.104  0.9919 -0.5062  0.4611
 4676SOL    HW125487   0.405   2.455   2.030  1.2509 -2.9769 -0.2581
 4676SOL    HW225488   0.331   2.337   2.082 -0.8536  0.3661 -1.5466
 4677SOL     OW25489   0.920   2.581   0.123 -0.2477 -0.0093 -0.2842
 4677SOL    HW125490   0.852   2.515   0.127  1.4175 -1.7356 -0.4919
 4677SOL    HW225491   0.883   2.646   0.064  1.2440  0.6618 -0.4740
 4678SOL     OW25492   2.454   4.688  17.381 -0.3681 -0.3323  0.0235
 4678SOL    HW125493   2.359   4.698  17.377 -0.4647 -0.7753  1.2587
 4678SOL    HW225494   2.462   4.593  17.368  2.6056 -0.5315  3.4187
 4679SOL     OW25495   3.787   1.357   6.261 -0.0675  0.2521  0.3005
 4679SOL    HW125496   3.832   1.428   6.214  3.5385 -1.4941  1.1389
 4679SOL    HW225497   3.766   1.303   6.185  3.3018 -0.0248 -0.4205
 4680SOL     OW25498   3.105   0.885   3.630  0.1885  0.3531  0.1260
 4680SOL    HW125499   3.169   0.906   3.698 -1.0123  0.5462  1.2051
 4680SOL    HW225500   3.138   0.798   3.609  0.6105  0.3317  0.8595
 4681SOL     OW25501   2.828   4.340  15.463  0.2046 -0.4632 -0.3241
 4681SOL    HW125502   2.847   4.432  15.480 -2.3467  0.0103 -0.0884
 4681SOL    HW225503   2.749   4.321  15.513 -0.1667  1.4413 -0.2149
 4682SOL     OW25504   2.952   3.548   5.387 -0.0615  0.0328 -0.4368
 4682SOL    HW125505   2.980   3.639   5.377 -2.8545  1.1411  1.8252
 4682SOL    HW225506   2.858   3.555   5.369 -0.2662 -1.2958  0.1111
 4683SOL     OW25507   0.623   3.868   6.146 -0.4426 -0.3468  0.1069
 4683SOL    HW125508   0.704   3.920   6.141  0.6613 -1.9813  0.9747
 4683SOL    HW225509   0.640   3.815   6.224  1.3057 -1.6969 -1.1963
 4684SOL     OW25510   3.411   1.957   3.624  0.2976  0.5152 -0.7789
 4684SOL    HW125511   3.395   1.989   3.535  0.6405  4.2030  0.4792
 4684SOL    HW225512   3.431   1.865   3.606 -1.8214 -0.0582 -0.1225
 4685SOL     OW25513   1.528   2.683   4.715  0.4007 -0.1197 -0.5235
 4685SOL    HW125514   1.502   2.656   4.803  0.3497 -0.6634 -0.7083
 4685SOL    HW225515   1.532   2.778   4.731  0.7066 -0.0427 -1.0552
 4686SOL     OW25516   2.079   1.861   3.952  0.6840 -0.1329 -0.1879
 4686SOL    HW125517   2.174   1.865   3.944  0.7018  0.4833  0.3906
 4686SOL    HW225518   2.054   1.950   3.975 -0.5631 -0.0940 -1.7142
 4687SOL     OW25519   2.609   3.171   4.568 -0.3189 -0.4681 -0.8930
 4687SOL    HW125520   2.695   3.169   4.609  1.4927  0.2743 -4.7088
 4687SOL    HW225521   2.581   3.080   4.577 -0.1062 -0.6390 -2.0266
 4688SOL     OW25522   2.225   4.604   4.293  0.0179 -0.4813 -0.2995
 4688SOL    HW125523   2.242   4.517   4.328  2.2087  0.1611  0.2158
 4688SOL    HW225524   2.169   4.576   4.221  1.8173 -1.1464 -1.4373
 4689SOL     OW25525   1.834   3.281   0.052  0.3279  0.2818 -0.4743
 4689SOL    HW125526   1.862   3.191   0.067  0.3017  0.4905  0.8473
 4689SOL    HW225527   1.912   3.324   0.087 -1.4474  2.9998  0.1400
 4690SOL     OW25528   0.492   2.660  13.618 -0.0452  0.0225  0.0272
 4690SOL    HW125529   0.409   2.643  13.664  0.9936  0.4583  2.0691
 4690SOL    HW225530   0.507   2.576  13.576  1.9002  0.9662 -1.1801
 4691SOL     OW25531   2.299   1.581   2.753 -0.1654  0.0460 -0.3350
 4691SOL    HW125532   2.276   1.634   2.829 -1.3362 -1.4378  0.3623
 4691SOL    HW225533   2.359   1.638   2.706  1.1892 -1.2316 -0.1695
 4692SOL     OW25534   1.023   0.511  15.672  0.7027  0.1342  0.4058
 4692SOL    HW125535   0.951   0.499  15.734  0.1984 -0.0958 -0.2261
 4692SOL    HW225536   1.100   0.486  15.723  0.3220  3.1870  2.5070
 4693SOL     OW25537   2.549   1.002   0.798  0.3579  0.1040  0.2738
 4693SOL    HW125538   2.512   1.050   0.872  1.5488 -0.7493  1.4246
 4693SOL    HW225539   2.472   1.019   0.744  0.2045 -1.1906  0.0754
 4694SOL     OW25540   0.684   1.193   5.729  0.2332 -0.4042 -0.0935
 4694SOL    HW125541   0.670   1.107   5.690  2.2874 -1.5762  1.7545
 4694SOL    HW225542   0.745   1.237   5.671 -1.5029  1.2437 -0.6634
 4695SOL     OW25543   1.631   2.686   8.855  0.1996  0.1738 -0.9309
 4695SOL    HW125544   1.644   2.781   8.861  1.2722 -0.0005 -0.6229
 4695SOL    HW225545   1.720   2.662   8.878 -0.2420 -1.9955 -1.5349
 4696SOL     OW25546   2.064   0.309   2.090 -0.2245 -0.9203 -0.0655
 4696SOL    HW125547   2.008   0.299   2.013 -0.0660  0.3972 -0.3505
 4696SOL    HW225548   2.145   0.271   2.055  0.0624  0.2427 -0.6652
 4697SOL     OW25549   4.305   3.488  15.294 -0.9703 -0.2546  0.1732
 4697SOL    HW125550   4.258   3.462  15.373 -1.0647  0.8087  0.4660
 4697SOL    HW225551   4.371   3.547  15.332  0.0894 -1.6861  0.5431
 4698SOL     OW25552   1.734   4.331   6.487 -0.4183  0.4530  0.8557
 4698SOL    HW125553   1.718   4.264   6.554  0.0020 -0.0095  0.5004
 4698SOL    HW225554   1.766   4.286   6.409 -0.3794 -0.0673  1.1711
 4699SOL     OW25555   3.701   3.960  14.521 -0.0858 -0.1937 -0.1717
 4699SOL    HW125556   3.627   3.949  14.580  1.0427  0.5366  1.3818
 4699SOL    HW225557   3.769   3.994  14.580  1.1181 -3.7189  0.4210
 4700SOL     OW25558   2.973   1.299  15.764 -0.1036  0.1913  0.4170
 4700SOL    HW125559   3.010   1.298  15.853 -1.8027  0.8606  1.1271
 4700SOL    HW225560   2.884   1.266  15.778 -0.0582  0.3263  1.0581
 4701SOL     OW25561   1.640   0.296   3.217  0.1719 -0.2415 -0.1036
 4701SOL    HW125562   1.662   0.389   3.202 -2.6778  0.7110  1.6365
 4701SOL    HW225563   1.596   0.265   3.138 -0.9984  1.4216 -0.1118
 4702SOL     OW25564   0.865   2.718  13.384 -0.0924  0.0417 -0.0344
 4702SOL    HW125565   0.796   2.673  13.336 -1.1083 -0.4164  1.8498
 4702SOL    HW225566   0.915   2.756  13.312 -1.8017  1.2663 -0.5943
 4703SOL     OW25567   1.677   0.408   4.901 -0.4631 -0.3746 -0.2110
 4703SOL    HW125568   1.591   0.420   4.942 -0.6375 -0.0563 -0.6713
 4703SOL    HW225569   1.653   0.426   4.810 -0.2088  3.7977  0.5416
 4704SOL     OW25570   1.534   2.101   9.604  0.5821  0.3736  0.1255
 4704SOL    HW125571   1.547   2.086   9.510 -3.8192  1.3449 -0.6220
 4704SOL    HW225572   1.476   2.177   9.598 -0.6460 -0.6515 -1.0062
 4705SOL     OW25573   1.067   4.480  10.194  0.0736  0.6005  0.2453
 4705SOL    HW125574   1.065   4.549  10.128  0.3233  1.4828  1.1585
 4705SOL    HW225575   1.095   4.527  10.272 -0.1867 -0.2588  0.8608
 4706SOL     OW25576   3.623   3.901   1.254 -0.0480 -0.1533 -0.1139
 4706SOL    HW125577   3.586   3.816   1.277 -2.3764  0.9732  0.2578
 4706SOL    HW225578   3.606   3.896   1.160  1.4107 -1.0384 -0.3436
 4707SOL     OW25579   3.644   1.457   0.188 -0.4018 -0.3543 -0.5219
 4707SOL    HW125580   3.581   1.474   0.258 -1.7751 -2.1440 -1.3075
 4707SOL    HW225581   3.719   1.505   0.223 -0.1665 -0.0919 -1.3915
 4708SOL     OW25582   2.518   3.355  11.155 -0.2987  0.4303 -0.1387
 4708SOL    HW125583   2.508   3.450  11.162  0.5665  0.4658  0.5924
 4708SOL    HW225584   2.435   3.332  11.114 -0.3823  0.9983 -0.2864
 4709SOL     OW25585   1.144   2.572   8.607 -0.6756  0.0936  0.2549
 4709SOL    HW125586   1.067   2.629   8.614  0.2549  1.1916  1.4880
 4709SOL    HW225587   1.214   2.636   8.598  1.5953 -2.2328  1.4760
 4710SOL     OW25588   2.749   2.529   2.533  0.1615  0.0300 -0.0481
 4710SOL    HW125589   2.654   2.538   2.545  0.3598 -1.6884  2.7868
 4710SOL    HW225590   2.748   2.518   2.438 -4.1355  0.6482 -0.0873
 4711SOL     OW25591   3.522   4.076   6.045 -0.2433  0.1712  0.3111
 4711SOL    HW125592   3.566   4.007   5.995 -2.0561  0.5983 -1.8366
 4711SOL    HW225593   3.597   4.136   6.054 -0.2815 -0.0428  2.2149
 4712SOL     OW25594   0.233   3.045   5.548 -0.1241 -0.2816  0.1186
 4712SOL    HW125595   0.281   3.116   5.505 -1.6035  0.4954 -0.2413
 4712SOL    HW225596   0.147   3.049   5.507  0.0282 -1.5065 -0.3279
 4713SOL     OW25597   4.662   4.192   6.275 -0.3775  0.3526 -0.0500
 4713SOL    HW125598   4.641   4.124   6.211 -0.0783 -0.8726  1.1675
 4713SOL    HW225599   4.575   4.222   6.301  0.8076  1.6270  2.4778
 4714SOL     OW25600   4.030   3.131   5.520  0.3864  0.1960 -0.7846
 4714SOL    HW125601   4.039   3.055   5.578 -0.7883 -0.8894 -2.0328
 4714SOL    HW225602   4.039   3.098   5.431  2.2369  2.2048 -1.3625
 4715SOL     OW25603   2.829   3.071   3.009 -0.7212  0.5117 -0.1170
 4715SOL    HW125604   2.735   3.077   3.029 -1.2614 -1.0918 -2.1270
 4715SOL    HW225605   2.846   3.162   2.983 -1.7483  1.1671  1.5021
 4716SOL     OW25606   1.172   3.117  14.981 -0.0682  0.0127  0.1315
 4716SOL    HW125607   1.204   3.201  14.948 -1.6464 -0.0581 -1.5886
 4716SOL    HW225608   1.084   3.144  15.010  0.9385  1.4849  1.8048
 4717SOL     OW25609   1.433   1.186  15.527  0.1218  0.2553  0.3338
 4717SOL    HW125610   1.516   1.232  15.516 -0.8140  1.4659 -1.6708
 4717SOL    HW225611   1.439   1.126  15.453 -3.2236 -1.1421  1.1954
 4718SOL     OW25612   1.942   1.863  16.697 -0.6129  0.2951  0.6171
 4718SOL    HW125613   1.963   1.805  16.771  0.4895  0.5084  0.4610
 4718SOL    HW225614   1.902   1.800  16.636 -1.6463 -0.9859  2.6123
 4719SOL     OW25615   2.296   0.980   0.702 -0.0122 -0.1588  0.2311
 4719SOL    HW125616   2.258   0.921   0.767  0.8646 -0.9712  0.0043
 4719SOL    HW225617   2.235   0.975   0.628  0.6885  1.2368 -0.4465
 4720SOL     OW25618   2.147   4.459   1.633 -0.3437  0.7273  0.3631
 4720SOL    HW125619   2.114   4.387   1.687 -2.1142  2.1302  1.1495
 4720SOL    HW225620   2.178   4.520   1.699  0.0504  0.7975  0.1171
 4721SOL     OW25621   2.281   1.877   5.820  0.3127  0.2308  0.6043
 4721SOL    HW125622   2.308   1.929   5.895  1.8978  0.4306 -0.0961
 4721SOL    HW225623   2.265   1.791   5.859 -1.4913  0.5537  0.5641
 4722SOL     OW25624   4.628   4.316   0.207 -0.4102 -0.3450 -0.0340
 4722SOL    HW125625   4.645   4.408   0.227  4.5003 -0.5038 -3.5140
 4722SOL    HW225626   4.620   4.278   0.294  2.7832 -1.4131 -0.1923
 4723SOL     OW25627   3.331   0.759   1.540  0.5040  0.0327 -0.5758
 4723SOL    HW125628   3.337   0.675   1.586  0.0565 -0.9030 -2.2215
 4723SOL    HW225629   3.280   0.805   1.607  0.1723  0.4026 -1.0860
 4724SOL     OW25630   1.451   2.610   2.721  0.8165  0.2660 -0.2595
 4724SOL    HW125631   1.513   2.541   2.741  0.3741  0.0123  0.2420
 4724SOL    HW225632   1.452   2.662   2.801  0.4007 -1.2567  0.7270
 4725SOL     OW25633   2.253   1.182   7.607  0.3240 -0.6089  0.4282
 4725SOL    HW125634   2.295   1.232   7.676  0.5547 -0.6603  0.3250
 4725SOL    HW225635   2.180   1.144   7.657 -0.2750  0.0617  0.0616
 4726SOL     OW25636   1.330   4.050  13.581  0.6686 -0.2043  0.3627
 4726SOL    HW125637   1.385   4.104  13.524 -0.7157 -0.3164 -1.0824
 4726SOL    HW225638   1.289   3.993  13.516  0.2852  2.1176 -1.4560
 4727SOL     OW25639   2.503   2.895   2.358  0.2180  0.4570 -0.0971
 4727SOL    HW125640   2.431   2.874   2.417 -0.7569 -3.0281 -2.5400
 4727SOL    HW225641   2.499   2.821   2.298  0.1104  1.5911 -1.5008
 4728SOL     OW25642   0.805   1.850   5.155  0.1096 -0.1070 -0.4535
 4728SOL    HW125643   0.733   1.842   5.217  2.5727 -0.1602  2.4237
 4728SOL    HW225644   0.789   1.934   5.113 -2.4828 -0.4469 -0.1247
 4729SOL     OW25645   1.747   0.676   5.110 -0.3658  0.7383 -0.9218
 4729SOL    HW125646   1.808   0.625   5.163 -0.6050  1.0396 -0.3665
 4729SOL    HW225647   1.666   0.626   5.124  0.2523  0.1001  0.4032
 4730SOL     OW25648   0.458   1.875  16.101  0.0380 -0.2102 -0.0716
 4730SOL    HW125649   0.373   1.872  16.145 -0.1960 -1.6814 -0.6526
 4730SOL    HW225650   0.445   1.904  16.010 -0.6403 -0.2533  0.0067
 4731SOL     OW25651   4.334   3.395   2.948  0.4918  0.0365  0.0131
 4731SOL    HW125652   4.426   3.370   2.939  1.0420  1.6232  1.2375
 4731SOL    HW225653   4.293   3.350   2.874  0.8849  2.0694 -1.4245
 4732SOL     OW25654   4.220   3.265  16.331 -0.2748 -0.2322  0.7302
 4732SOL    HW125655   4.242   3.190  16.275 -2.6210  0.0511 -0.5496
 4732SOL    HW225656   4.131   3.240  16.351 -0.0681 -1.2928  0.3073
 4733SOL     OW25657   4.241   3.667   7.994  0.0804 -0.0482  0.1376
 4733SOL    HW125658   4.307   3.601   7.971  0.1254 -0.4712  1.4743
 4733SOL    HW225659   4.259   3.722   7.918 -0.5593  3.1525  2.3164
 4734SOL     OW25660   1.445   4.598   6.346  0.0752 -0.0288 -0.0974
 4734SOL    HW125661   1.365   4.591   6.398  0.3757 -1.2325  0.1782
 4734SOL    HW225662   1.509   4.556   6.403  0.8427  2.7100  1.0461
 4735SOL     OW25663   1.575   0.462  14.837 -0.0963 -0.2144  0.0191
 4735SOL    HW125664   1.577   0.460  14.741 -0.3520 -1.6673  0.0450
 4735SOL    HW225665   1.653   0.410  14.858  0.3262  0.4252  0.0397
 4736SOL     OW25666   4.668   4.692   1.620 -0.2164  0.5361  0.0795
 4736SOL    HW125667   4.645   0.057   1.649  0.1499  0.8444 -0.5552
 4736SOL    HW225668   4.619   4.639   1.683  0.8520 -0.7979 -0.2102
 4737SOL     OW25669   2.570   0.179  12.800  0.0252 -0.0328  0.0892
 4737SOL    HW125670   2.611   0.106  12.753  0.5603 -0.9354  1.9557
 4737SOL    HW225671   2.535   0.133  12.877 -0.7802  0.3509 -0.0486
 4738SOL     OW25672   2.936   1.499  17.093 -0.6044 -0.2358  0.3732
 4738SOL    HW125673   2.971   1.587  17.082  0.6661 -0.7748  0.1067
 4738SOL    HW225674   2.863   1.504  17.032  2.0016  1.0998 -2.6852
 4739SOL     OW25675   3.429   0.266  14.878  0.0587  0.1559  0.5643
 4739SOL    HW125676   3.465   0.337  14.930 -0.5322  1.1559 -0.3697
 4739SOL    HW225677   3.482   0.197  14.918  0.8179  0.3926 -0.0369
 4740SOL     OW25678   1.506   4.561   7.171 -0.3983  0.5273  0.7143
 4740SOL    HW125679   1.426   4.569   7.119 -0.0008  1.0295  0.1690
 4740SOL    HW225680   1.479   4.503   7.242  0.5589 -1.0358 -0.1778
 4741SOL     OW25681   2.900   3.809  15.612  0.1574  0.6244  0.1222
 4741SOL    HW125682   2.898   3.892  15.564  1.4003  0.5614 -0.0419
 4741SOL    HW225683   2.947   3.758  15.546  1.0456 -0.3444  1.5192
 4742SOL     OW25684   3.090   3.076   4.036  0.1210 -0.1098 -0.0619
 4742SOL    HW125685   3.168   3.023   4.024  0.1208 -0.5348  1.7181
 4742SOL    HW225686   3.100   3.142   3.968  0.1811 -1.4559 -1.3359
 4743SOL     OW25687   1.605   0.954   9.208 -0.6852 -0.5482 -0.3589
 4743SOL    HW125688   1.526   1.003   9.231 -0.7262 -1.1001  0.6784
 4743SOL    HW225689   1.580   0.875   9.257 -0.4878 -0.3650  0.0405
 4744SOL     OW25690   1.726   2.730  13.882  0.1737 -0.3788 -0.4194
 4744SOL    HW125691   1.644   2.726  13.832 -0.6412  2.2496  0.6566
 4744SOL    HW225692   1.699   2.688  13.964  0.7364  0.5090  0.2235
 4745SOL     OW25693   1.274   0.084  11.028 -0.0248 -0.2899 -0.6797
 4745SOL    HW125694   1.354   0.062  11.074 -0.2939  0.5784  0.2235
 4745SOL    HW225695   1.260   0.165  11.078  0.8834  0.7183 -2.0800
 4746SOL     OW25696   3.976   3.305   0.245 -0.0497  0.4436 -1.2184
 4746SOL    HW125697   3.988   3.298   0.339  2.0899  0.3504 -1.4991
 4746SOL    HW225698   3.948   3.215   0.226 -0.5715  0.3857 -0.1307
 4747SOL     OW25699   0.517   3.908  14.962  0.5523  0.3157  0.5859
 4747SOL    HW125700   0.425   3.928  14.944 -0.1518 -0.8541  2.9342
 4747SOL    HW225701   0.512   3.824  15.008 -0.7167  0.7199  1.1764
 4748SOL     OW25702   3.929   1.039   6.075  0.0186 -0.4538 -0.2757
 4748SOL    HW125703   3.902   0.974   6.139 -0.3625  0.7315  0.7638
 4748SOL    HW225704   3.839   1.072   6.066  0.2861  0.1608 -0.6837
 4749SOL     OW25705   1.626   3.598   9.551  0.2002 -0.1125  0.8316
 4749SOL    HW125706   1.634   3.647   9.632  1.1884 -0.7968  1.1516
 4749SOL    HW225707   1.536   3.610   9.519  0.4937  0.0265  0.0683
 4750SOL     OW25708   0.407   1.797   2.878  0.2224 -0.1838  0.3384
 4750SOL    HW125709   0.320   1.792   2.839  0.1351  2.1172  0.2400
 4750SOL    HW225710   0.391   1.862   2.947 -0.3166  0.2855 -0.2258
 4751SOL     OW25711   3.392   0.571   1.769 -0.0571  0.1685  0.0742
 4751SOL    HW125712   3.400   0.485   1.730 -0.4119  0.6319 -1.0235
 4751SOL    HW225713   3.313   0.557   1.822  0.7044 -0.7460  0.9616
 4752SOL     OW25714   2.767   4.128   2.382  0.0602 -0.3854 -0.1374
 4752SOL    HW125715   2.685   4.113   2.428 -0.8710 -2.1428 -2.4123
 4752SOL    HW225716   2.797   4.040   2.362  0.8049 -0.5650  1.7749
 4753SOL     OW25717   0.933   3.223  13.912  0.1085 -0.2546  0.2084
 4753SOL    HW125718   1.008   3.272  13.945 -0.6643  0.3081  1.1533
 4753SOL    HW225719   0.924   3.270  13.830  0.3566 -0.5236  0.0284
 4754SOL     OW25720   0.226   1.918  16.229 -0.6022 -0.3358 -0.1126
 4754SOL    HW125721   0.225   2.007  16.264  2.1006 -0.8193  1.1569
 4754SOL    HW225722   0.156   1.916  16.164  0.8539 -2.3356 -1.6449
 4755SOL     OW25723   0.207   4.508   6.042 -0.1139 -0.6132  0.0875
 4755SOL    HW125724   0.165   4.497   5.956  0.1758 -0.8189 -0.0282
 4755SOL    HW225725   0.142   4.467   6.099 -0.2031 -0.3771  0.1548
 4756SOL     OW25726   0.931   2.108   8.774  0.0157 -0.4920 -0.7959
 4756SOL    HW125727   0.928   2.190   8.725 -1.1148 -0.0232  0.0474
 4756SOL    HW225728   0.887   2.044   8.718 -0.3252 -1.3507  0.4427
 4757SOL     OW25729   1.810   1.862  15.704  0.0727  0.3053  0.1535
 4757SOL    HW125730   1.874   1.890  15.639 -1.3098  0.0652 -1.2976
 4757SOL    HW225731   1.864   1.821  15.772 -0.3245  0.4613  0.5608
 4758SOL     OW25732   3.352   0.601   4.396 -0.3361  0.0810  0.1774
 4758SOL    HW125733   3.338   0.553   4.477 -0.7913 -1.0298 -0.5593
 4758SOL    HW225734   3.406   0.675   4.425 -1.6107  0.4742  1.5226
 4759SOL     OW25735   2.265   1.637   3.772 -0.6046  0.1726  0.3186
 4759SOL    HW125736   2.299   1.698   3.838  0.6315  1.1483 -1.2399
 4759SOL    HW225737   2.259   1.692   3.694 -1.7198 -1.8177 -0.9905
 4760SOL     OW25738   2.965   2.116   6.908 -0.0729  0.2803 -0.2492
 4760SOL    HW125739   2.939   2.032   6.870  2.4992  0.0862 -1.5483
 4760SOL    HW225740   3.018   2.144   6.833  1.2654 -0.0249  0.5986
 4761SOL     OW25741   3.163   0.745   2.524  0.4524  0.1005 -0.2637
 4761SOL    HW125742   3.074   0.762   2.493  0.1744 -0.5058  0.2038
 4761SOL    HW225743   3.212   0.754   2.442 -1.0979  1.1150 -1.0741
 4762SOL     OW25744   1.034   1.089   3.799  0.2025  0.2323  0.3211
 4762SOL    HW125745   1.008   1.023   3.735  0.4925  0.4070  0.0237
 4762SOL    HW225746   1.025   1.166   3.743  3.8200  1.0206  0.8019
 4763SOL     OW25747   3.461   1.212   4.274 -0.2316 -0.5623 -0.0876
 4763SOL    HW125748   3.545   1.173   4.250  0.2960  0.6812 -0.2563
 4763SOL    HW225749   3.441   1.257   4.192  0.5198  0.2557  0.1684
 4764SOL     OW25750   0.450   2.387   4.435  0.6047 -0.4682 -0.0854
 4764SOL    HW125751   0.495   2.345   4.361 -0.1592  1.1525 -1.4684
 4764SOL    HW225752   0.527   2.404   4.489  0.2881  0.6944 -0.0156
 4765SOL     OW25753   0.717   3.062   4.458 -0.7333 -0.4945  1.0781
 4765SOL    HW125754   0.782   3.116   4.412 -0.4683 -1.8635 -0.1480
 4765SOL    HW225755   0.676   3.004   4.394 -0.0779 -1.2009  1.2969
 4766SOL     OW25756   3.191   3.367   2.832  0.3270  0.5416 -0.5677
 4766SOL    HW125757   3.196   3.349   2.738 -2.4235 -2.0515 -0.2415
 4766SOL    HW225758   3.266   3.314   2.858  0.5407  1.6217  0.9935
 4767SOL     OW25759   2.874   4.287  16.380 -0.3405  0.1470 -0.0269
 4767SOL    HW125760   2.899   4.292  16.473 -2.3437 -1.2869  0.5922
 4767SOL    HW225761   2.937   4.225  16.344  3.2202  4.2391 -0.7959
 4768SOL     OW25762   0.306   3.284   9.728 -0.1607  0.6944 -0.0299
 4768SOL    HW125763   0.365   3.241   9.666 -0.1667  0.9204 -0.1948
 4768SOL    HW225764   0.359   3.342   9.783  2.8530 -1.3358 -0.7938
 4769SOL     OW25765   2.874   3.954   4.280 -0.2072  0.0917  0.1863
 4769SOL    HW125766   2.958   3.945   4.236 -0.9127 -1.2223 -0.9126
 4769SOL    HW225767   2.825   3.948   4.198 -2.3979  2.3413  1.3621
 4770SOL     OW25768   0.227   3.558   6.197  0.6742 -0.3493  0.5633
 4770SOL    HW125769   0.215   3.480   6.251  0.3549 -1.6916 -1.4670
 4770SOL    HW225770   0.179   3.620   6.251  1.7154  0.9510  0.0187
 4771SOL     OW25771   3.102   0.559  17.305 -0.0778  0.7712 -0.0147
 4771SOL    HW125772   3.131   0.647  17.328 -0.6468  1.1905 -0.8894
 4771SOL    HW225773   3.177   0.520  17.260 -0.6414 -0.9000  0.4966
 4772SOL     OW25774   2.552   3.519  10.509  0.0944 -0.1578 -0.1088
 4772SOL    HW125775   2.620   3.458  10.482 -0.9304  0.0936 -3.2158
 4772SOL    HW225776   2.476   3.482  10.463  1.4053 -1.0813 -1.5174
 4773SOL     OW25777   0.727   1.611   2.768  0.3261 -0.1344 -0.3654
 4773SOL    HW125778   0.730   1.644   2.678 -1.5220 -0.4201 -0.5180
 4773SOL    HW225779   0.768   1.524   2.762  1.1835  0.1465  1.3222
 4774SOL     OW25780   0.669   0.100   6.798  0.9243  0.4246 -0.4583
 4774SOL    HW125781   0.758   0.117   6.828  0.3236  1.2710  0.8616
 4774SOL    HW225782   0.613   0.150   6.858  0.3680  0.9221 -1.3865
 4775SOL     OW25783   2.946   0.193   5.742  0.3231 -0.0028  0.1766
 4775SOL    HW125784   2.859   0.173   5.709  0.3354 -1.6686  1.1830
 4775SOL    HW225785   2.990   0.149   5.669 -0.0064  2.5432 -1.5762
 4776SOL     OW25786   3.334   3.809  13.788  0.8395  0.2892  0.3138
 4776SOL    HW125787   3.290   3.734  13.748  1.9662 -1.0953  1.6437
 4776SOL    HW225788   3.268   3.861  13.834 -0.3761 -0.1650 -0.9034
 4777SOL     OW25789   3.311   0.056   6.246  0.0902 -0.1808 -0.5826
 4777SOL    HW125790   3.322   0.023   6.157 -0.4701 -0.0216 -0.7116
 4777SOL    HW225791   3.273   4.698   6.280 -0.9443  0.0260 -1.2439
 4778SOL     OW25792   1.768   4.661   8.287 -0.4789  0.2498 -0.1323
 4778SOL    HW125793   1.734   0.026   8.272 -0.1670  0.4421  0.2859
 4778SOL    HW225794   1.722   4.633   8.367 -1.2082 -0.1717 -0.6952
 4779SOL     OW25795   2.116   1.312   1.729 -0.0271  0.4373  0.6639
 4779SOL    HW125796   2.061   1.391   1.722 -0.6771  0.0741  1.6686
 4779SOL    HW225797   2.183   1.353   1.782  0.5265  1.3692 -0.7526
 4780SOL     OW25798   3.517   2.038   6.428 -0.6712 -0.3162  0.3033
 4780SOL    HW125799   3.500   1.947   6.451 -0.9214 -0.0167  1.2900
 4780SOL    HW225800   3.471   2.032   6.343  0.9040 -1.9096 -0.4349
 4781SOL     OW25801   4.228   1.796   5.242 -0.2211  0.0556  0.1136
 4781SOL    HW125802   4.289   1.852   5.194 -2.6118  2.0213 -0.7020
 4781SOL    HW225803   4.216   1.722   5.183  0.7828  0.5355 -0.6853
 4782SOL     OW25804   0.552   1.267   3.456  0.3683 -0.0631 -0.4991
 4782SOL    HW125805   0.482   1.330   3.470  0.6433 -0.3667  2.4172
 4782SOL    HW225806   0.518   1.180   3.477  1.6373 -0.6080 -0.6794
 4783SOL     OW25807   2.365   2.982   6.719 -0.1186  0.0865  0.2011
 4783SOL    HW125808   2.423   3.057   6.733 -0.5591  0.3218  0.7246
 4783SOL    HW225809   2.312   3.015   6.647  0.7849 -0.3888 -0.6906
 4784SOL     OW25810   1.612   4.601   9.445 -0.0241  0.0327  0.1703
 4784SOL    HW125811   1.519   4.621   9.441  0.5713  2.1622 -2.6198
 4784SOL    HW225812   1.635   4.643   9.528 -1.2067  0.6682  0.1743
 4785SOL     OW25813   0.100   1.816   6.658 -0.6302  0.4481  0.0130
 4785SOL    HW125814   0.046   1.738   6.648 -1.0610  0.2925  3.3908
 4785SOL    HW225815   0.039   1.883   6.630 -2.2863 -1.2441 -0.4278
 4786SOL     OW25816   2.808   3.077  15.063 -0.1753  0.7173 -0.3755
 4786SOL    HW125817   2.778   3.042  15.147  0.9341 -1.1046 -0.7340
 4786SOL    HW225818   2.875   3.137  15.094  0.1232 -0.1905  0.7295
 4787SOL     OW25819   0.994   0.342  16.550  0.1296  0.8189  0.4384
 4787SOL    HW125820   0.923   0.365  16.490 -0.5140 -1.9611  0.1334
 4787SOL    HW225821   1.025   0.430  16.570 -1.9247  0.9836  2.9110
 4788SOL     OW25822   4.672   4.698   5.544 -0.0535  0.5067 -0.0877
 4788SOL    HW125823   4.612   4.710   5.617  0.1013 -1.6459  0.3706
 4788SOL    HW225824   0.033   4.710   5.587 -0.3714 -2.9596  1.4628
 4789SOL     OW25825   1.941   4.319   3.331  0.9539  0.5600  0.1151
 4789SOL    HW125826   1.936   4.412   3.309 -0.8371 -0.0295 -2.0483
 4789SOL    HW225827   1.959   4.334   3.423  0.2219 -1.0887  0.5332
 4790SOL     OW25828   2.873   3.513   9.792  0.1286  0.0393  0.0003
 4790SOL    HW125829   2.905   3.488   9.879 -3.5495 -1.1061  1.0276
 4790SOL    HW225830   2.822   3.435   9.768  1.4145 -0.7130 -0.2938
 4791SOL     OW25831   0.135   0.286   6.391  0.2221  0.4444 -0.2380
 4791SOL    HW125832   0.134   0.191   6.380  0.1815  0.1935  2.1087
 4791SOL    HW225833   0.104   0.304   6.479 -0.6708 -2.8457  0.1250
 4792SOL     OW25834   3.858   2.040   7.510  0.1721  0.3284  0.2307
 4792SOL    HW125835   3.856   1.962   7.565  1.3496 -0.2011 -0.4896
 4792SOL    HW225836   3.820   2.100   7.575 -0.4867  0.6411 -0.4478
 4793SOL     OW25837   0.838   0.071   6.510 -0.6514 -0.5286 -0.3554
 4793SOL    HW125838   0.823   4.713   6.461 -0.5972 -0.5581 -0.3241
 4793SOL    HW225839   0.801   0.132   6.447 -1.4708 -0.6643 -0.0091
 4794SOL     OW25840   3.124   4.332   0.910 -0.4279 -0.5005 -0.3126
 4794SOL    HW125841   3.191   4.302   0.971 -0.1480  2.4480  0.8016
 4794SOL    HW225842   3.095   4.413   0.951 -0.3224 -0.4577 -0.3234
 4795SOL     OW25843   3.228   2.098   3.885 -0.2652  0.0278 -0.3734
 4795SOL    HW125844   3.226   2.190   3.913  0.7287 -0.8040  2.4724
 4795SOL    HW225845   3.215   2.109   3.791  0.7765  0.2136 -0.4971
 4796SOL     OW25846   0.718   4.608  14.111  0.1774  0.0508  0.2187
 4796SOL    HW125847   0.678   4.521  14.121  0.2975 -0.1014 -0.6435
 4796SOL    HW225848   0.647   4.668  14.131  0.1435  1.4900 -4.3232
 4797SOL     OW25849   2.130   2.324   7.834  0.1136  0.1908 -0.5171
 4797SOL    HW125850   2.136   2.297   7.926 -0.0412  0.0407 -0.5520
 4797SOL    HW225851   2.091   2.250   7.790  2.4466 -0.6467 -1.1802
 4798SOL     OW25852   1.723   2.999   3.197  0.3583  0.1747  0.1135
 4798SOL    HW125853   1.642   3.028   3.238  1.3582  1.3030  1.2921
 4798SOL    HW225854   1.741   3.069   3.135 -0.4628  0.0574 -0.2545
 4799SOL     OW25855   1.466   0.526  15.161 -0.1392  0.1418 -0.2492
 4799SOL    HW125856   1.497   0.563  15.244 -2.6048  0.2344  0.6420
 4799SOL    HW225857   1.425   0.449  15.202  2.1345 -0.6501  0.5574
 4800SOL     OW25858   4.333   2.602   8.996 -0.4245 -0.1057  0.2166
 4800SOL    HW125859   4.415   2.610   8.947 -0.3807  2.7220  0.7522
 4800SOL    HW225860   4.337   2.681   9.051 -2.1947 -0.6235  1.0841
 4801SOL     OW25861   0.188   0.791  16.154  0.1041  0.2277 -0.6418
 4801SOL    HW125862   0.209   0.701  16.181  0.1942  1.0371  1.9610
 4801SOL    HW225863   0.264   0.834  16.191  0.8672  0.8382 -2.9037
 4802SOL     OW25864   3.495   1.890   7.670 -0.1492 -0.4612 -0.2192
 4802SOL    HW125865   3.456   1.969   7.634  1.4552  0.7088  0.5958
 4802SOL    HW225866   3.448   1.885   7.753  0.7613  1.5739  0.4155
 4803SOL     OW25867   1.697   0.776   1.852  0.2051 -0.7880  0.2967
 4803SOL    HW125868   1.781   0.771   1.807 -0.0879  0.2200 -0.3723
 4803SOL    HW225869   1.723   0.752   1.940 -1.9359 -1.0967  0.8630
 4804SOL     OW25870   2.939   3.013   7.733 -0.7330 -0.5739 -0.3817
 4804SOL    HW125871   2.921   3.107   7.724 -0.9172 -0.7292 -1.6213
 4804SOL    HW225872   2.979   3.000   7.819 -0.9228  1.0077 -0.0520
 4805SOL     OW25873   1.417   2.539   4.509 -0.2137 -0.5772  0.2481
 4805SOL    HW125874   1.469   2.601   4.561 -1.9022 -0.3573  1.6818
 4805SOL    HW225875   1.425   2.457   4.557  0.1738 -1.8120 -1.9124
 4806SOL     OW25876   3.712   1.368   4.101  0.0615  0.1670 -0.2033
 4806SOL    HW125877   3.725   1.444   4.157 -4.2174 -1.0783  2.5275
 4806SOL    HW225878   3.717   1.298   4.167  0.0846 -0.7649 -1.1852
 4807SOL     OW25879   2.370   1.016   6.388  0.3464  0.2040 -0.0828
 4807SOL    HW125880   2.409   1.002   6.475  0.9055  0.2919 -0.3248
 4807SOL    HW225881   2.288   0.971   6.407  1.5574 -1.0779  2.1524
 4808SOL     OW25882   1.262   0.358   5.554  0.7990  0.7131 -0.8079
 4808SOL    HW125883   1.353   0.336   5.576  0.6891  2.3080  1.2439
 4808SOL    HW225884   1.240   0.283   5.499  0.0662 -0.9142  1.7138
 4809SOL     OW25885   1.627   4.050  13.384 -0.5801  0.1029 -0.2784
 4809SOL    HW125886   1.617   3.959  13.412 -0.3992 -0.6096 -2.5119
 4809SOL    HW225887   1.538   4.067  13.354 -0.3123  0.5263 -0.8333
 4810SOL     OW25888   0.797   0.019   1.193 -1.2405 -0.3864  0.2645
 4810SOL    HW125889   0.804   4.701   1.279  1.6525 -0.9183 -0.2295
 4810SOL    HW225890   0.865   4.687   1.154  0.4154  0.7190  1.6385
 4811SOL     OW25891   0.681   4.528   3.581 -0.3792  0.0337  1.1424
 4811SOL    HW125892   0.644   4.440   3.588 -0.5163  0.2611  3.1992
 4811SOL    HW225893   0.768   4.507   3.613 -0.4191  1.0384  1.9091
 4812SOL     OW25894   3.035   4.307   9.099 -0.6302  0.2078  0.4782
 4812SOL    HW125895   2.957   4.342   9.142 -1.0148 -0.3464  0.2387
 4812SOL    HW225896   2.992   4.230   9.062  0.1321 -0.1088  0.2654
 4813SOL     OW25897   4.015   3.616  13.998  0.4566  0.3018 -0.2230
 4813SOL    HW125898   4.028   3.614  13.904 -3.0519 -0.3097 -0.7158
 4813SOL    HW225899   3.966   3.699  14.001  2.0072  1.2227 -0.4226
 4814SOL     OW25900   0.663   4.614  15.575 -0.0794  0.6526 -0.0809
 4814SOL    HW125901   0.670   4.692  15.630  1.2601  0.4960 -0.0367
 4814SOL    HW225902   0.626   4.646  15.492 -1.3674 -1.5335 -0.3550
 4815SOL     OW25903   1.640   4.046   2.667  0.6337  0.1577 -0.8993
 4815SOL    HW125904   1.628   3.960   2.627  0.4026  0.2614 -1.0585
 4815SOL    HW225905   1.558   4.079   2.631  0.5591  1.1676  0.2021
 4816SOL     OW25906   3.651   1.817   8.164 -0.9272  0.7257  0.2436
 4816SOL    HW125907   3.688   1.760   8.098 -3.3895  0.2645 -0.7381
 4816SOL    HW225908   3.607   1.752   8.218  0.4879 -1.0175 -0.7172
 4817SOL     OW25909   0.488   4.145   6.758 -0.3243  0.6277  0.0146
 4817SOL    HW125910   0.396   4.126   6.736 -0.2522 -1.5687  1.5845
 4817SOL    HW225911   0.504   4.223   6.705  0.0012  0.9501  0.5977
 4818SOL     OW25912   2.869   3.159   6.261 -0.7584  0.7096 -0.3881
 4818SOL    HW125913   2.860   3.066   6.284 -1.5360  0.7245 -0.6174
 4818SOL    HW225914   2.943   3.162   6.200 -1.0296  4.9866 -0.4638
 4819SOL     OW25915   3.496   4.098   0.929  0.0171  0.2941 -0.2919
 4819SOL    HW125916   3.549   4.154   0.987 -1.8596 -0.5384  2.2107
 4819SOL    HW225917   3.535   4.012   0.944  0.7410  0.4599 -1.2155
 4820SOL     OW25918   0.206   3.040   9.463  0.2786 -0.4586  0.0449
 4820SOL    HW125919   0.272   3.035   9.393  1.4292  1.3953  1.0013
 4820SOL    HW225920   0.146   3.104   9.426  0.2931 -0.9555 -0.8377
 4821SOL     OW25921   1.265   1.329   8.945  0.5695  0.0725 -0.0239
 4821SOL    HW125922   1.171   1.339   8.930  0.0978 -1.3198  2.0013
 4821SOL    HW225923   1.276   1.389   9.019  3.0910  0.3808 -0.6525
 4822SOL     OW25924   4.176   4.010  10.742 -0.0251 -0.0639 -0.5038
 4822SOL    HW125925   4.175   4.029  10.649 -2.0835 -0.9275 -0.6487
 4822SOL    HW225926   4.085   3.981  10.745  0.0301 -0.1282  0.6637
 4823SOL     OW25927   0.369   4.659   5.869  0.3602  0.3081  0.6120
 4823SOL    HW125928   0.453   4.616   5.884 -0.6551 -1.8052  0.1772
 4823SOL    HW225929   0.331   4.633   5.953  0.9952 -0.0076  0.8040
 4824SOL     OW25930   4.317   0.190   3.718 -0.5390 -0.3533 -0.4748
 4824SOL    HW125931   4.237   0.172   3.667  0.3715 -2.4198 -1.1611
 4824SOL    HW225932   4.294   0.179   3.810 -0.5264 -0.6683 -0.5077
 4825SOL     OW25933   3.800   2.407   5.650  0.2530  0.5622 -0.0164
 4825SOL    HW125934   3.860   2.404   5.575  1.5245 -0.8178  1.0358
 4825SOL    HW225935   3.854   2.443   5.720 -1.8218 -0.6986  2.2429
 4826SOL     OW25936   2.288   4.388  15.545 -0.2494  0.3240 -0.4204
 4826SOL    HW125937   2.314   4.364  15.457 -0.4261 -2.5778  0.3201
 4826SOL    HW225938   2.354   4.457  15.554  2.0934 -2.1472  1.5524
 4827SOL     OW25939   3.558   2.742   8.653 -0.4280 -0.0050  0.3920
 4827SOL    HW125940   3.581   2.701   8.569 -0.3030  0.3556  0.2516
 4827SOL    HW225941   3.616   2.706   8.721 -0.3530 -1.1804 -0.2953
 4828SOL     OW25942   4.714   2.995   5.822  0.4158 -0.5877 -0.1540
 4828SOL    HW125943   4.634   2.944   5.832  0.2043  0.1563  2.0116
 4828SOL    HW225944   0.049   2.920   5.840  1.1664  0.3550  1.3784
 4829SOL     OW25945   4.133   3.822   9.309  0.4624 -0.5357 -0.4806
 4829SOL    HW125946   4.156   3.779   9.392 -1.9554  1.2847  1.1419
 4829SOL    HW225947   4.208   3.881   9.299  1.3676 -1.8159 -1.1855
 4830SOL     OW25948   1.934   1.404   1.020  0.1502  0.4263 -0.9270
 4830SOL    HW125949   1.969   1.320   0.993  0.1891  0.2515 -0.3327
 4830SOL    HW225950   1.875   1.380   1.091 -2.2562  3.4554 -1.9037
 4831SOL     OW25951   2.083   0.126   4.299 -0.1238  0.0662  0.0048
 4831SOL    HW125952   2.141   0.050   4.307  1.8093  1.3292 -2.0543
 4831SOL    HW225953   2.104   0.140   4.207 -0.9915 -0.1750 -0.2239
 4832SOL     OW25954   1.468   3.368   6.589  0.4243  0.0601  0.3851
 4832SOL    HW125955   1.539   3.402   6.643  1.3633 -0.4304 -0.5587
 4832SOL    HW225956   1.406   3.330   6.651 -1.2706  1.6170 -0.3494
 4833SOL     OW25957   4.245   0.805   6.698  0.0129  0.2005  0.5219
 4833SOL    HW125958   4.330   0.762   6.693  1.0448  2.3268  0.1128
 4833SOL    HW225959   4.219   0.795   6.790 -1.3721 -0.5720  0.0505
 4834SOL     OW25960   3.742   4.199   8.890 -0.2011 -1.0935  0.5376
 4834SOL    HW125961   3.805   4.186   8.961  0.1868  0.4306  0.4852
 4834SOL    HW225962   3.716   4.291   8.895  0.3924 -0.9832  1.9366
 4835SOL     OW25963   3.562   4.513   6.373  0.1728  0.2402 -0.2710
 4835SOL    HW125964   3.486   4.456   6.386  0.0687  0.7891  1.5023
 4835SOL    HW225965   3.528   4.594   6.413 -1.4236  0.4649 -2.0721
 4836SOL     OW25966   3.706   0.833  13.006 -0.4262  0.2887 -0.1497
 4836SOL    HW125967   3.666   0.858  12.923  1.2593  1.6292 -0.5531
 4836SOL    HW225968   3.750   0.915  13.029 -0.8103 -0.2017  2.3905
 4837SOL     OW25969   0.949   3.300  12.111 -0.4587  0.0614 -0.1915
 4837SOL    HW125970   0.995   3.309  12.194 -0.6771 -2.0598  0.1447
 4837SOL    HW225971   0.941   3.395  12.097 -0.5600 -0.0032 -0.5686
 4838SOL     OW25972   1.545   1.347   7.798  0.3100 -0.1657 -0.5240
 4838SOL    HW125973   1.547   1.373   7.706  2.5945 -0.5106 -0.5726
 4838SOL    HW225974   1.583   1.259   7.789  0.3857 -0.1980  0.1145
 4839SOL     OW25975   4.232   2.743  13.414 -0.1215  0.0546  0.2534
 4839SOL    HW125976   4.222   2.660  13.368 -0.9666  0.6254 -0.5945
 4839SOL    HW225977   4.321   2.763  13.384 -0.8927  0.4544 -1.7906
 4840SOL     OW25978   0.820   3.813   4.718 -0.1449  0.1344 -0.6005
 4840SOL    HW125979   0.902   3.849   4.753 -0.0270  0.4430 -1.2079
 4840SOL    HW225980   0.773   3.892   4.695  1.3089  1.1580 -0.0619
 4841SOL     OW25981   3.589   4.298   5.092  0.0669 -0.3529  0.0339
 4841SOL    HW125982   3.676   4.264   5.069  1.5110  1.3931  2.8892
 4841SOL    HW225983   3.592   4.384   5.050  1.3980  0.2134  1.2595
 4842SOL     OW25984   4.494   0.196   6.866 -0.3113 -0.6926  0.5596
 4842SOL    HW125985   4.421   0.252   6.891 -0.8745 -1.2201  0.1012
 4842SOL    HW225986   4.455   0.139   6.799 -1.4353  0.2972  0.3798
 4843SOL     OW25987   4.415   1.542   2.249 -0.2994  0.4287 -0.5786
 4843SOL    HW125988   4.485   1.495   2.204 -0.0472 -0.0021  0.2733
 4843SOL    HW225989   4.347   1.477   2.229  0.6238 -0.9311  0.6674
 4844SOL     OW25990   2.117   3.637   8.259  0.7232  0.0442 -0.3525
 4844SOL    HW125991   2.150   3.560   8.306 -1.6323 -1.3963 -1.1056
 4844SOL    HW225992   2.177   3.701   8.299  0.1021 -0.0462  0.7223
 4845SOL     OW25993   3.083   3.304  10.850 -0.2192  0.4046  0.0192
 4845SOL    HW125994   3.055   3.214  10.836 -0.9865  0.7437 -0.6587
 4845SOL    HW225995   3.048   3.312  10.938  0.8927  1.6779  0.3436
 4846SOL     OW25996   2.001   4.377   6.867 -0.3104  0.1359 -0.0305
 4846SOL    HW125997   2.024   4.351   6.956  2.0275  0.0294 -0.6509
 4846SOL    HW225998   2.086   4.362   6.825 -0.6226 -2.5727  0.3467
 4847SOL     OW25999   0.581   0.124  15.727 -0.2140 -0.6651 -0.3866
 4847SOL    HW126000   0.594   0.218  15.716  0.4929 -0.8810 -1.3483
 4847SOL    HW226001   0.615   0.115  15.816 -1.8394 -0.6872  0.2344
 4848SOL     OW26002   0.823   0.498   8.675 -0.1660 -0.0335 -0.4462
 4848SOL    HW126003   0.899   0.527   8.625 -0.6664 -0.9436 -1.7062
 4848SOL    HW226004   0.769   0.575   8.658 -0.8457 -0.4170 -0.0534
 4849SOL     OW26005   0.154   2.438   3.708 -0.2246 -0.2495  0.2032
 4849SOL    HW126006   0.249   2.430   3.713 -0.1990  0.8812  1.3095
 4849SOL    HW226007   0.142   2.441   3.613 -1.8584  0.6297  0.4279
 4850SOL     OW26008   2.385   4.120   4.775  0.2321 -0.1239 -0.2421
 4850SOL    HW126009   2.339   4.055   4.723 -1.5497 -1.3834  2.8681
 4850SOL    HW226010   2.320   4.130   4.845  0.6855  0.1243  0.1472
 4851SOL     OW26011   0.031   2.696   7.752 -0.0696  0.0912 -0.2441
 4851SOL    HW126012   0.081   2.618   7.775 -1.1313 -1.2027 -2.3904
 4851SOL    HW226013   0.014   2.741   7.835  2.4623  2.2928 -0.9280
 4852SOL     OW26014   1.832   1.870  12.405 -0.3653 -0.4531  0.1734
 4852SOL    HW126015   1.799   1.885  12.494  1.5984  1.6338  0.5574
 4852SOL    HW226016   1.911   1.824  12.432  0.0356  1.4146  2.1811
 4853SOL     OW26017   0.787   3.827   3.858  0.0532 -0.4354  0.1365
 4853SOL    HW126018   0.856   3.890   3.876  0.2602 -0.2148 -1.3809
 4853SOL    HW226019   0.752   3.813   3.946 -0.0057  3.5591  0.7261
 4854SOL     OW26020   3.094   3.652   4.770 -0.0050  0.5552  0.0633
 4854SOL    HW126021   2.999   3.655   4.780 -0.0520  0.7370 -0.4900
 4854SOL    HW226022   3.116   3.672   4.861 -3.1018 -2.1297  1.4202
 4855SOL     OW26023   2.958   0.878   7.507 -0.8209  0.1919  0.0250
 4855SOL    HW126024   2.921   0.928   7.580 -0.3485  0.6856 -0.0787
 4855SOL    HW226025   2.896   0.898   7.437 -0.2308  0.5651 -0.3865
 4856SOL     OW26026   0.972   2.160   3.513  0.2868 -0.6554  0.5699
 4856SOL    HW126027   0.983   2.096   3.442  0.9533  1.4695 -1.2370
 4856SOL    HW226028   1.028   2.117   3.577  0.7472 -0.4822  0.2874
 4857SOL     OW26029   2.518   4.414  11.470 -0.9720  1.1694 -0.6717
 4857SOL    HW126030   2.508   4.321  11.486  1.2811  0.8452 -1.2239
 4857SOL    HW226031   2.599   4.404  11.420 -0.2404  0.3197  0.7109
 4858SOL     OW26032   2.080   0.117   0.886 -0.4014  0.6867  0.2696
 4858SOL    HW126033   2.059   0.210   0.874  1.7308  0.9954 -0.9260
 4858SOL    HW226034   2.076   0.103   0.981 -1.5252 -0.2935  0.0794
 4859SOL     OW26035   1.356   2.038   3.563  0.2692  0.1175  0.1423
 4859SOL    HW126036   1.298   2.036   3.639 -0.6485  1.3618 -0.5434
 4859SOL    HW226037   1.357   2.127   3.528 -1.6857 -0.1982 -0.6488
 4860SOL     OW26038   1.107   1.058   9.899 -0.0430 -0.2495 -0.1062
 4860SOL    HW126039   1.157   1.100   9.829  0.3848  1.3783  1.1724
 4860SOL    HW226040   1.171   1.066   9.969  1.0227  0.9307 -1.2117
 4861SOL     OW26041   3.997   2.354   8.369 -0.0316 -0.0408  0.4371
 4861SOL    HW126042   4.045   2.349   8.451  1.2249  0.2008 -0.2855
 4861SOL    HW226043   4.065   2.390   8.313  0.7690 -2.7477 -0.3266
 4862SOL     OW26044   2.528   4.247   3.282 -0.6610 -0.3846  0.2660
 4862SOL    HW126045   2.465   4.177   3.265 -0.4523 -0.6646  0.6576
 4862SOL    HW226046   2.490   4.327   3.245  1.3065  0.8335  0.8314
 4863SOL     OW26047   1.989   3.220   4.596  0.3912 -0.4525  0.6767
 4863SOL    HW126048   1.909   3.167   4.592  1.5532 -2.0342 -2.5566
 4863SOL    HW226049   1.980   3.250   4.686  0.3579  1.3340  0.0627
 4864SOL     OW26050   1.475   4.581   0.152 -0.0050 -0.3274 -0.3147
 4864SOL    HW126051   1.509   4.601   0.240  2.5527  0.2373 -1.4311
 4864SOL    HW226052   1.483   4.486   0.148 -0.7374 -0.3990 -0.0164
 4865SOL     OW26053   1.947   2.065   7.483  0.2944 -0.2121  0.2166
 4865SOL    HW126054   1.990   1.981   7.470  0.2965 -0.3719  1.2442
 4865SOL    HW226055   1.868   2.062   7.430  1.7183  1.3235 -1.9629
 4866SOL     OW26056   1.771   2.747   8.173 -0.1002 -0.4725 -0.1905
 4866SOL    HW126057   1.758   2.652   8.173  0.7336 -0.5889  1.0333
 4866SOL    HW226058   1.757   2.758   8.267  1.8615 -0.9297  0.1628
 4867SOL     OW26059   4.021   4.284   8.965  0.2158 -0.3902 -0.0246
 4867SOL    HW126060   4.072   4.357   8.999  0.0526 -0.1250 -0.3584
 4867SOL    HW226061   4.032   4.282   8.870 -1.1506  2.2990 -0.2163
 4868SOL     OW26062   2.511   0.986   1.884  0.2711 -0.1195 -1.0282
 4868SOL    HW126063   2.444   0.985   1.952  1.1440  0.2517 -0.1641
 4868SOL    HW226064   2.503   1.077   1.856  1.9536  0.4396  0.3040
 4869SOL     OW26065   2.454   4.581  11.134  0.4387  0.9858 -0.2349
 4869SOL    HW126066   2.464   4.485  11.139  3.7302  1.3424 -0.1138
 4869SOL    HW226067   2.363   4.588  11.105 -0.5161  1.4519  2.8932
 4870SOL     OW26068   4.428   2.979   5.455 -0.0873 -0.2695 -0.1423
 4870SOL    HW126069   4.414   3.038   5.381 -2.5610 -0.9416 -0.1887
 4870SOL    HW226070   4.344   2.934   5.451 -1.0498  1.7610 -2.7898
 4871SOL     OW26071   3.095   0.600  14.192  0.7522 -0.3969  0.0578
 4871SOL    HW126072   3.139   0.684  14.194  1.0785 -0.5688  0.0916
 4871SOL    HW226073   3.080   0.595  14.287 -0.2354 -1.2417 -0.1376
 4872SOL     OW26074   4.064   4.263   0.307  0.3270  0.2111  0.2456
 4872SOL    HW126075   4.102   4.186   0.264  2.7358  1.4051  0.2315
 4872SOL    HW226076   3.993   4.293   0.250 -2.2909 -1.1085  2.8412
 4873SOL     OW26077   1.427   4.288   3.452  0.3287 -0.0390 -0.4539
 4873SOL    HW126078   1.476   4.296   3.370  1.0220  0.7714  0.0461
 4873SOL    HW226079   1.394   4.377   3.461  0.7685  0.2902 -2.1588
 4874SOL     OW26080   0.906   0.902   3.664 -0.2357 -0.2998  0.1094
 4874SOL    HW126081   0.938   0.907   3.574  3.1433 -0.6184  1.2568
 4874SOL    HW226082   0.825   0.952   3.655  0.5324  0.7623 -0.9104
 4875SOL     OW26083   1.016   2.643  10.181 -0.1453  0.0004 -0.1311
 4875SOL    HW126084   0.964   2.717  10.149  0.1523 -0.2250 -1.1284
 4875SOL    HW226085   1.028   2.669  10.273  1.8351 -0.6384 -0.2065
 4876SOL     OW26086   4.257   4.712  16.951 -0.3423 -0.1488 -0.6454
 4876SOL    HW126087   4.220   4.683  16.868  0.6888  0.3398 -1.2781
 4876SOL    HW226088   4.345   4.674  16.940 -0.3196 -0.8845  2.0675
 4877SOL     OW26089   3.762   2.439   6.099  0.2576  0.3840 -0.9612
 4877SOL    HW126090   3.688   2.394   6.139 -0.5086  1.2563 -1.3911
 4877SOL    HW226091   3.811   2.448   6.181  0.1474  1.1067 -0.9716
 4878SOL     OW26092   1.704   4.604   5.980 -0.6685  0.2033  0.2955
 4878SOL    HW126093   1.678   4.520   5.942 -1.0023  1.2354 -1.7782
 4878SOL    HW226094   1.702   4.575   6.071 -0.8789 -1.8573 -0.3777
 4879SOL     OW26095   4.230   1.122   9.710 -0.2075 -0.2176  0.0079
 4879SOL    HW126096   4.145   1.149   9.675 -1.0051  0.6088  2.5327
 4879SOL    HW226097   4.192   1.069   9.781  1.0234  2.4561  2.6458
 4880SOL     OW26098   0.670   0.145  16.975  0.4460  0.0927 -0.0610
 4880SOL    HW126099   0.692   0.221  16.921 -1.6650  0.8194  0.1280
 4880SOL    HW226100   0.575   0.142  16.967  0.4342  0.8682 -0.2309
 4881SOL     OW26101   3.925   3.631   3.865 -0.6470  0.3464  0.1079
 4881SOL    HW126102   3.953   3.564   3.926 -0.3325  0.2730 -0.1196
 4881SOL    HW226103   3.985   3.702   3.887  0.3340 -0.8335  1.1668
 4882SOL     OW26104   4.513   0.591  12.632 -0.0666 -0.2923  0.0001
 4882SOL    HW126105   4.516   0.665  12.692  1.4215 -0.1450 -0.2643
 4882SOL    HW226106   4.509   0.521  12.697  1.6733 -1.1316 -0.7933
 4883SOL     OW26107   3.556   0.690   3.202 -0.2201 -0.1472 -0.2909
 4883SOL    HW126108   3.647   0.664   3.215 -0.0673  1.8451  2.6548
 4883SOL    HW226109   3.524   0.618   3.147 -1.6197 -2.1185  3.1131
 4884SOL     OW26110   1.771   4.479  10.579  0.2923  0.2835 -0.1074
 4884SOL    HW126111   1.819   4.419  10.521 -1.3419  0.0681 -1.2510
 4884SOL    HW226112   1.707   4.520  10.522 -2.6098 -2.2056  1.3565
 4885SOL     OW26113   0.743   3.847   7.216 -0.4873  0.1257 -0.0684
 4885SOL    HW126114   0.693   3.867   7.137 -2.8958  0.2391  1.4896
 4885SOL    HW226115   0.812   3.786   7.190  1.6210  1.4714  2.3376
 4886SOL     OW26116   0.466   1.878   7.212 -0.1412  0.1112  0.5932
 4886SOL    HW126117   0.497   1.891   7.301  1.2989  0.1948  0.0852
 4886SOL    HW226118   0.412   1.954   7.189 -0.7765 -0.9170 -1.3718
 4887SOL     OW26119   0.983   0.250   3.053  0.4484  0.1922  0.1108
 4887SOL    HW126120   0.947   0.322   3.002  1.7895  0.5944 -0.2737
 4887SOL    HW226121   0.910   0.230   3.112 -0.4853  0.8647 -0.8359
 4888SOL     OW26122   3.397   2.067   0.312 -0.1883  0.7869  0.1359
 4888SOL    HW126123   3.466   2.020   0.265  0.5904 -1.1833  3.2490
 4888SOL    HW226124   3.392   2.002   0.381  0.0629  0.8671  0.2281
 4889SOL     OW26125   2.874   3.956  14.375  0.1233  0.4059 -0.4125
 4889SOL    HW126126   2.922   3.979  14.296 -2.7311 -0.8819 -2.5380
 4889SOL    HW226127   2.944   3.983  14.435  0.5543  0.4292 -0.9303
 4890SOL     OW26128   3.771   1.711   2.398 -0.3326 -0.0455 -0.1692
 4890SOL    HW126129   3.710   1.784   2.412  0.8281  0.5160  1.9737
 4890SOL    HW226130   3.726   1.666   2.327  1.6096 -0.4910 -1.1329
 4891SOL     OW26131   1.240   3.322   1.418  0.7384  0.2228 -0.2093
 4891SOL    HW126132   1.155   3.362   1.402  0.2954 -0.8415 -0.5295
 4891SOL    HW226133   1.296   3.387   1.375  0.4488 -0.9196 -2.3521
 4892SOL     OW26134   2.612   2.407   4.499 -0.0222  0.0114 -0.0685
 4892SOL    HW126135   2.586   2.498   4.511 -1.9678 -0.5750  0.2272
 4892SOL    HW226136   2.560   2.406   4.418  1.8882  0.3637 -1.3020
 4893SOL     OW26137   2.322   2.152   4.226 -0.3002 -0.3603 -0.1640
 4893SOL    HW126138   2.409   2.148   4.186  1.2839  1.6705  2.9652
 4893SOL    HW226139   2.320   2.057   4.217 -1.8928 -0.4277  0.8706
 4894SOL     OW26140   4.422   0.442   2.360  0.1315 -0.1335  0.3660
 4894SOL    HW126141   4.431   0.347   2.351 -1.9781 -0.2125 -0.8356
 4894SOL    HW226142   4.426   0.462   2.453 -3.8090  1.0853  0.2599
 4895SOL     OW26143   2.071   1.231   5.700  0.8019  0.2013 -0.3051
 4895SOL    HW126144   2.029   1.244   5.616  1.7633  1.9772 -0.5130
 4895SOL    HW226145   2.130   1.304   5.719 -0.6653  0.7233  2.2589
 4896SOL     OW26146   0.647   3.785   4.438  0.0806 -0.3481 -0.2386
 4896SOL    HW126147   0.569   3.745   4.399 -0.9036  0.0536  1.2718
 4896SOL    HW226148   0.628   3.878   4.430 -3.4521 -1.0935 -0.7021
 4897SOL     OW26149   1.871   1.131   8.014  0.4122  0.7274 -0.7309
 4897SOL    HW126150   1.909   1.113   8.100 -3.1307  0.2390  0.7335
 4897SOL    HW226151   1.781   1.111   8.040  0.6723  2.6352  1.6378
 4898SOL     OW26152   1.243   1.736   1.155 -0.1386  0.3579  0.8032
 4898SOL    HW126153   1.187   1.812   1.169 -1.2432 -0.1963 -0.6105
 4898SOL    HW226154   1.256   1.718   1.248  1.1570 -0.4682  0.4653
 4899SOL     OW26155   4.707   0.474   2.680 -0.1153  0.0688  0.0822
 4899SOL    HW126156   4.671   0.405   2.624  0.0675  0.3384 -0.3652
 4899SOL    HW226157   0.035   0.527   2.619 -0.8275  1.6765  0.9039
 4900SOL     OW26158   2.499   4.677   4.805 -0.4130 -0.1511 -0.3263
 4900SOL    HW126159   2.584   4.704   4.839  0.3248 -2.3147 -0.4067
 4900SOL    HW226160   2.441   0.030   4.807 -1.7721 -1.1895 -0.2316
 4901SOL     OW26161   1.241   4.143   2.826  0.2397 -0.4091 -0.4579
 4901SOL    HW126162   1.231   4.156   2.920 -0.8274 -0.1027 -0.6219
 4901SOL    HW226163   1.202   4.226   2.797  0.5403 -0.0617  0.1370
 4902SOL     OW26164   4.291   4.191   5.876 -0.0875  0.3695 -0.2183
 4902SOL    HW126165   4.297   4.127   5.947  1.9873 -1.2206 -1.8257
 4902SOL    HW226166   4.358   4.257   5.893  0.0332 -0.2996  1.9405
 4903SOL     OW26167   0.326   2.043   3.947  0.1646  0.0275 -0.7342
 4903SOL    HW126168   0.269   2.066   3.874 -0.4398  0.2254 -0.2006
 4903SOL    HW226169   0.366   1.964   3.911 -2.8423 -0.8178 -2.2516
 4904SOL     OW26170   3.696   3.550   7.762 -0.3636 -0.1615 -0.0929
 4904SOL    HW126171   3.723   3.509   7.679 -0.3832  0.1032 -0.2278
 4904SOL    HW226172   3.643   3.477   7.795  1.8567 -1.7031  0.1129
 4905SOL     OW26173   4.701   4.507   3.646  0.1649 -0.0562  0.1185
 4905SOL    HW126174   0.058   4.557   3.663 -0.4705  0.9872  0.0361
 4905SOL    HW226175   4.648   4.568   3.595 -0.6635 -2.2038 -1.6091
 4906SOL     OW26176   4.264   3.923   9.717  0.1093 -0.8297  0.2075
 4906SOL    HW126177   4.268   3.834   9.751 -2.2697 -0.7099  0.8126
 4906SOL    HW226178   4.253   3.898   9.625 -0.8863  2.1729 -0.4971
 4907SOL     OW26179   4.668   1.340   0.773  0.2918 -0.5701  0.3188
 4907SOL    HW126180   4.707   1.262   0.733 -0.9588 -1.9060  1.7178
 4907SOL    HW226181   4.604   1.297   0.829 -0.6064 -0.4432 -0.6150
 4908SOL     OW26182   2.670   0.056   2.683 -0.5357 -0.0514  0.6340
 4908SOL    HW126183   2.719   4.713   2.733  0.0670  0.4027  0.6370
 4908SOL    HW226184   2.719   0.136   2.701  0.8882 -0.9682  0.8614
 4909SOL     OW26185   3.548   3.245   5.178  0.0905  0.2017  0.3852
 4909SOL    HW126186   3.631   3.240   5.132 -0.1161  0.8331 -0.0578
 4909SOL    HW226187   3.569   3.171   5.235 -0.7517  0.1532  0.6374
 4910SOL     OW26188   3.602   2.829   9.648  0.4859 -0.1198  0.3784
 4910SOL    HW126189   3.691   2.798   9.632 -0.2300 -1.2683 -1.4491
 4910SOL    HW226190   3.560   2.751   9.686 -1.7042  0.5721 -0.6266
 4911SOL     OW26191   4.082   3.979   2.047 -0.3975  0.1226  0.3273
 4911SOL    HW126192   4.132   3.917   2.100 -0.1107 -0.6684 -0.8832
 4911SOL    HW226193   4.057   3.922   1.974 -0.5336 -0.0851  0.5346
 4912SOL     OW26194   4.432   3.780   5.272  0.2300 -0.4950 -0.3053
 4912SOL    HW126195   4.475   3.763   5.188  0.4708 -0.5092 -0.1805
 4912SOL    HW226196   4.512   3.786   5.324  1.2868 -1.5194 -1.7820
 4913SOL     OW26197   1.133   1.046  17.562 -0.2727 -0.0389  0.3881
 4913SOL    HW126198   1.226   1.038  17.584  0.5209  2.4288 -2.1778
 4913SOL    HW226199   1.094   1.017  17.645  0.1594 -0.3551  0.4822
 4914SOL     OW26200   4.343   2.810  14.980  0.3738  1.0480 -0.8192
 4914SOL    HW126201   4.358   2.716  14.969  0.0410  0.7809  0.9693
 4914SOL    HW226202   4.431   2.841  14.959  0.2117  0.9812 -1.6101
 4915SOL     OW26203   0.251   0.558   5.443 -0.3807  0.3013 -0.2525
 4915SOL    HW126204   0.281   0.490   5.504 -0.1037  0.5123 -0.1547
 4915SOL    HW226205   0.169   0.563   5.493 -0.5617  1.1603 -0.6320
 4916SOL     OW26206   1.408   3.465   3.914  0.5200  0.1192 -0.2117
 4916SOL    HW126207   1.439   3.555   3.914 -0.3575  0.4196  0.8285
 4916SOL    HW226208   1.457   3.432   3.838  0.3258 -1.2539  0.2683
 4917SOL     OW26209   3.659   1.628   5.183 -0.4620  0.7791  0.1665
 4917SOL    HW126210   3.574   1.586   5.194 -0.0871  0.2615  1.1834
 4917SOL    HW226211   3.685   1.661   5.269 -0.0438 -0.3076  0.4670
 4918SOL     OW26212   3.292   4.515   9.164  0.4812 -0.7035  0.6730
 4918SOL    HW126213   3.291   4.546   9.254 -1.3272  1.9697 -0.2781
 4918SOL    HW226214   3.215   4.459   9.177  0.5327 -1.0000 -0.2654
 4919SOL     OW26215   1.403   1.134   1.959  0.3921 -0.0928  0.3118
 4919SOL    HW126216   1.406   1.225   1.988  0.4513  0.2338 -0.7032
 4919SOL    HW226217   1.480   1.132   1.902 -0.9166 -0.5578 -1.4570
 4920SOL     OW26218   3.435   0.767   9.264  0.5781 -0.0748  0.0805
 4920SOL    HW126219   3.420   0.774   9.170  0.5988  1.3990  0.1881
 4920SOL    HW226220   3.371   0.699   9.286  0.7536  0.2762  1.6691
 4921SOL     OW26221   4.482   2.557  10.848 -0.2948 -0.3670  0.3104
 4921SOL    HW126222   4.482   2.491  10.918 -1.2121 -0.1163  0.5405
 4921SOL    HW226223   4.562   2.608  10.865  0.5728 -2.9856  3.9976
 4922SOL     OW26224   1.779   0.032   5.742 -0.2547  0.1820  0.3183
 4922SOL    HW126225   1.735   4.685   5.694  1.6410 -0.7571 -0.0643
 4922SOL    HW226226   1.796   4.714   5.826 -0.3291 -0.0381  0.2260
 4923SOL     OW26227   1.143   0.891   6.215  0.0114 -0.0028 -0.3223
 4923SOL    HW126228   1.070   0.877   6.155 -0.0845  0.9925 -0.4517
 4923SOL    HW226229   1.163   0.804   6.250 -0.7854  0.8090  2.1882
 4924SOL     OW26230   3.140   1.961   4.529 -0.4184 -0.5595 -0.8700
 4924SOL    HW126231   3.161   2.009   4.449  1.5513 -0.5795 -0.3618
 4924SOL    HW226232   3.089   1.889   4.492 -0.9897  0.6751 -2.4502
 4925SOL     OW26233   0.375   0.147  16.342 -0.3679 -0.2363  0.2641
 4925SOL    HW126234   0.456   0.104  16.315  0.8678  2.5012 -0.4120
 4925SOL    HW226235   0.413   0.229  16.373 -1.0655 -0.1062  0.7875
 4926SOL     OW26236   0.515   1.740   0.949 -0.1586 -0.2105 -0.0979
 4926SOL    HW126237   0.436   1.695   0.920  0.7235 -0.9985 -1.2705
 4926SOL    HW226238   0.496   1.736   1.043  0.4495 -2.3279 -0.0481
 4927SOL     OW26239   1.746   3.253   3.058 -0.2657  0.2707  0.2362
 4927SOL    HW126240   1.775   3.338   3.024  0.2655 -0.7317 -1.7864
 4927SOL    HW226241   1.654   3.256   3.030  0.3499 -1.8032 -2.0177
 4928SOL     OW26242   0.028   1.920   7.371 -0.0673 -0.0008  0.2808
 4928SOL    HW126243   4.714   1.835   7.350  1.3405 -0.4508 -0.3521
 4928SOL    HW226244   0.013   1.929   7.466 -0.0078 -0.6848  0.3524
 4929SOL     OW26245   4.083   2.533   8.783  0.1812  0.0772 -0.0909
 4929SOL    HW126246   4.123   2.598   8.725 -0.9807  1.9982  1.2909
 4929SOL    HW226247   4.136   2.547   8.861  0.1701  1.4088 -0.3316
 4930SOL     OW26248   4.487   2.236  13.722 -0.4989  0.9146 -0.1097
 4930SOL    HW126249   4.420   2.289  13.678  0.5248  0.1161 -2.6323
 4930SOL    HW226250   4.489   2.274  13.810  1.8091  1.4755 -0.4200
 4931SOL     OW26251   3.632   2.329   2.830 -0.1781  0.2622 -0.3340
 4931SOL    HW126252   3.686   2.251   2.835 -0.2713  0.2220  0.1069
 4931SOL    HW226253   3.564   2.286   2.778  0.6590 -1.5343  0.0768
 4932SOL     OW26254   4.401   2.838   7.094  0.0222 -0.1735 -0.4390
 4932SOL    HW126255   4.493   2.814   7.102 -0.1578 -0.8886 -0.4581
 4932SOL    HW226256   4.378   2.834   7.001  1.0747  1.1129 -0.7523
 4933SOL     OW26257   2.578   3.901  17.022 -0.4851 -0.2332 -0.0267
 4933SOL    HW126258   2.563   3.962  16.950  1.8623  0.9378  0.4718
 4933SOL    HW226259   2.510   3.913  17.088 -0.3760  0.7698 -0.1006
 4934SOL     OW26260   3.796   0.467  16.128 -0.4245  0.3386 -0.5887
 4934SOL    HW126261   3.732   0.523  16.172 -2.0789 -0.0533 -2.4549
 4934SOL    HW226262   3.829   0.533  16.066 -1.8214  0.1927 -1.4905
 4935SOL     OW26263   0.223   0.044  11.345 -0.0436 -0.2945  0.0037
 4935SOL    HW126264   0.138   0.033  11.302 -0.8118 -0.4367  1.5539
 4935SOL    HW226265   0.193   0.082  11.428  0.3461 -2.4232  1.1464
 4936SOL     OW26266   4.253   1.288   2.448  0.4890  0.1202  0.0354
 4936SOL    HW126267   4.267   1.199   2.414 -0.4380  1.0117 -2.7133
 4936SOL    HW226268   4.229   1.330   2.366 -1.4751 -0.6661  0.2227
 4937SOL     OW26269   1.176   1.329   6.155 -0.2131 -0.2752  0.1816
 4937SOL    HW126270   1.238   1.271   6.200 -1.3422 -0.3264  1.6731
 4937SOL    HW226271   1.206   1.330   6.064 -0.6971 -0.7766  0.0120
 4938SOL     OW26272   1.012   4.002   5.079  0.1532  0.3736 -0.0248
 4938SOL    HW126273   0.969   3.928   5.122 -0.4695  1.8861  1.8924
 4938SOL    HW226274   1.101   3.969   5.092  0.3901  0.7049 -0.8099
 4939SOL     OW26275   2.018   3.832   4.511  0.3289 -0.1614 -0.6943
 4939SOL    HW126276   2.028   3.888   4.434  0.7405  1.5435  0.6001
 4939SOL    HW226277   2.017   3.745   4.472 -1.2435 -2.1429  3.7132
 4940SOL     OW26278   4.202   2.155   7.413  0.3164 -0.0245  0.0125
 4940SOL    HW126279   4.151   2.210   7.473  0.8592 -2.5991  2.8548
 4940SOL    HW226280   4.215   2.078   7.468  0.6872  1.0897  1.5087
 4941SOL     OW26281   3.572   0.506  13.709 -0.1867  0.1694  0.0043
 4941SOL    HW126282   3.589   0.477  13.798 -3.0785  0.6367  0.7096
 4941SOL    HW226283   3.605   0.431  13.658 -2.2436  0.7604 -2.2293
 4942SOL     OW26284   4.324   0.372   8.103  0.2754 -0.2331  0.7865
 4942SOL    HW126285   4.264   0.386   8.176 -0.1492  0.9213  0.2171
 4942SOL    HW226286   4.322   0.277   8.096  0.8017 -0.2241  0.4634
 4943SOL     OW26287   0.167   0.922   5.454 -0.5573 -0.0475 -0.3265
 4943SOL    HW126288   0.114   0.843   5.448 -2.0355  0.8693  0.5143
 4943SOL    HW226289   0.188   0.936   5.547  2.4425  1.5292 -1.2348
 4944SOL     OW26290   4.661   1.659   3.002 -0.0928 -0.5563 -0.1390
 4944SOL    HW126291   4.656   1.735   2.944 -0.0968 -0.4112  0.0504
 4944SOL    HW226292   4.691   1.597   2.936  1.9900 -1.5380  1.7079
 4945SOL     OW26293   3.964   0.008   5.443  0.0714  0.4981 -0.2028
 4945SOL    HW126294   3.939   4.685   5.362  0.4985  1.0662 -0.6554
 4945SOL    HW226295   3.911   0.087   5.435 -1.8449 -0.5021  2.7440
 4946SOL     OW26296   2.057   4.565   6.161  0.0583 -0.3243 -0.5562
 4946SOL    HW126297   2.027   4.626   6.094 -2.8188 -0.2674  0.8126
 4946SOL    HW226298   2.042   4.483   6.113 -0.8185 -0.6111  0.2192
 4947SOL     OW26299   0.594   2.330   5.518  0.4100  0.0484 -0.4296
 4947SOL    HW126300   0.535   2.361   5.449  1.3108 -1.0057 -1.6819
 4947SOL    HW226301   0.667   2.388   5.498 -0.9886  2.2729  0.9521
 4948SOL     OW26302   1.624   0.539  11.015 -0.7464 -0.1967 -1.0889
 4948SOL    HW126303   1.662   0.503  11.095  0.7439  2.3291 -0.6604
 4948SOL    HW226304   1.666   0.625  11.004 -1.4641  0.2843 -0.0808
 4949SOL     OW26305   1.256   3.095   7.948 -0.6035 -0.1696  0.5193
 4949SOL    HW126306   1.292   3.176   7.910  2.0880 -0.8358  1.6588
 4949SOL    HW226307   1.237   3.053   7.864 -0.1633  0.9889 -0.1654
 4950SOL     OW26308   3.057   0.623   2.169 -0.2475 -0.4855  0.1007
 4950SOL    HW126309   2.992   0.560   2.138  1.3926 -2.1884  0.1298
 4950SOL    HW226310   3.132   0.599   2.115  0.2393 -0.0305  0.5782
 4951SOL     OW26311   4.686   3.362   2.171  0.3752  0.3487 -0.2907
 4951SOL    HW126312   4.615   3.412   2.131 -0.1583  0.4012  0.6980
 4951SOL    HW226313   4.646   3.275   2.169 -0.2297  0.5958  0.9721
 4952SOL     OW26314   1.695   3.187  11.745 -0.2043  0.1617 -0.1751
 4952SOL    HW126315   1.675   3.280  11.745  0.1125  0.2441 -3.2911
 4952SOL    HW226316   1.607   3.150  11.744 -0.1775  0.1482 -2.7514
 4953SOL     OW26317   2.560   1.814   4.823 -0.6524 -0.4990 -0.3281
 4953SOL    HW126318   2.515   1.801   4.906  1.1857  3.2032  1.2480
 4953SOL    HW226319   2.626   1.877   4.853 -0.0210  0.4350 -3.6960
 4954SOL     OW26320   0.267   3.309   5.380 -0.3096  0.0387 -0.0973
 4954SOL    HW126321   0.289   3.256   5.304 -0.6407  3.3340 -2.4974
 4954SOL    HW226322   0.353   3.314   5.420  0.0786 -1.1669 -0.7922
 4955SOL     OW26323   2.278   3.549   0.462 -0.2292  0.1976  0.4025
 4955SOL    HW126324   2.210   3.536   0.528  0.2354 -0.9523  0.6576
 4955SOL    HW226325   2.349   3.572   0.522  0.4225 -2.1578  0.5431
 4956SOL     OW26326   1.791   3.244   4.807  0.1676  0.2788  0.3606
 4956SOL    HW126327   1.792   3.270   4.899 -1.4956  2.2576 -0.1851
 4956SOL    HW226328   1.713   3.191   4.824 -0.7949  2.3449  2.5412
 4957SOL     OW26329   1.078   0.602   6.862  0.3585  1.1182  0.3076
 4957SOL    HW126330   1.048   0.532   6.919  0.2548 -0.8129 -2.1077
 4957SOL    HW226331   1.000   0.621   6.810  0.8378  0.3881 -0.6838
 4958SOL     OW26332   1.991   2.746   3.375  0.6427  0.2620  0.2760
 4958SOL    HW126333   1.958   2.780   3.291  0.0023  0.7088  0.7099
 4958SOL    HW226334   2.047   2.671   3.356 -0.0931 -0.3929  0.6793
 4959SOL     OW26335   2.245   0.732   3.268  0.3829 -0.3131 -0.4398
 4959SOL    HW126336   2.218   0.806   3.322  0.9250 -0.3684 -0.0901
 4959SOL    HW226337   2.306   0.778   3.210  0.4749 -0.8935 -0.7996
 4960SOL     OW26338   3.978   1.929  13.749 -0.4573 -0.7249  0.1641
 4960SOL    HW126339   4.055   1.986  13.757 -0.5465 -0.4872 -0.6401
 4960SOL    HW226340   3.992   1.868  13.821 -1.7442  1.8512  2.5944
 4961SOL     OW26341   2.897   4.339   2.245 -0.1824  0.8393 -0.1287
 4961SOL    HW126342   2.972   4.318   2.300 -0.3847  1.1308  0.2587
 4961SOL    HW226343   2.827   4.291   2.290  0.6931 -0.7033 -0.4119
 4962SOL     OW26344   0.077   1.261   5.676 -0.1608  0.6008  0.3364
 4962SOL    HW126345   0.124   1.191   5.720 -0.1103  0.8838  0.7360
 4962SOL    HW226346   0.009   1.224   5.620  0.5438 -1.0720  0.6068
 4963SOL     OW26347   2.043   2.574  16.487  0.3827  0.2227  0.4938
 4963SOL    HW126348   2.021   2.589  16.579 -0.2209  0.7097  0.2663
 4963SOL    HW226349   2.109   2.506  16.502  0.9544  1.4621  3.8470
 4964SOL     OW26350   0.612   3.803   9.533  0.7383 -0.3196  0.2104
 4964SOL    HW126351   0.553   3.864   9.576 -0.1754 -0.1552 -1.2625
 4964SOL    HW226352   0.599   3.720   9.578  0.5505  0.4192  1.4925
 4965SOL     OW26353   3.490   2.271   0.484  0.4240 -0.0018  0.3822
 4965SOL    HW126354   3.465   2.187   0.523  1.1447 -0.5963 -0.4521
 4965SOL    HW226355   3.484   2.247   0.392 -0.3928 -1.4819  0.8285
 4966SOL     OW26356   0.791   3.938   7.633 -0.7431 -0.1296 -0.4974
 4966SOL    HW126357   0.854   4.001   7.598 -0.8696 -0.2877 -1.0144
 4966SOL    HW226358   0.843   3.868   7.674 -0.1702 -0.8035 -2.3654
 4967SOL     OW26359   2.475   0.133   9.643  0.6935  0.0697  0.0490
 4967SOL    HW126360   2.454   0.053   9.595 -0.5215  0.6141 -0.3376
 4967SOL    HW226361   2.568   0.125   9.626  1.1682  0.5210  2.4778
 4968SOL     OW26362   2.618   4.518   2.315  0.2532 -0.0092 -0.1068
 4968SOL    HW126363   2.566   4.456   2.366  2.9909 -0.6393  1.8527
 4968SOL    HW226364   2.559   4.522   2.239  0.0447 -0.6971  0.0221
 4969SOL     OW26365   4.368   4.391   3.988 -0.1879  0.1975 -0.3395
 4969SOL    HW126366   4.415   4.370   4.068  0.1331  2.6559  0.1184
 4969SOL    HW226367   4.429   4.364   3.919 -0.8505 -1.2509 -0.3545
 4970SOL     OW26368   0.098   1.175   7.003  0.4248  0.3268  0.0456
 4970SOL    HW126369   0.170   1.113   6.988 -0.7246 -1.4243  1.8284
 4970SOL    HW226370   0.137   1.226   7.075 -1.0160 -1.3685  2.0131
 4971SOL     OW26371   4.609   0.600   5.918 -0.0606 -0.0211  0.1983
 4971SOL    HW126372   4.590   0.681   5.966  0.3079  0.0970  0.1447
 4971SOL    HW226373   4.703   0.617   5.912  0.1177 -2.2286 -3.0775
 4972SOL     OW26374   1.765   1.833   6.868  0.4242 -0.4954  0.3156
 4972SOL    HW126375   1.728   1.749   6.842 -1.7224  0.3243  0.7019
 4972SOL    HW226376   1.689   1.890   6.870  0.0745 -0.9978  1.7087
 4973SOL     OW26377   3.761   1.246   3.557  0.0306  0.2958 -0.0736
 4973SOL    HW126378   3.807   1.306   3.616  0.9529  0.0474 -0.5558
 4973SOL    HW226379   3.671   1.277   3.570 -0.4034 -0.3991 -1.4857
 4974SOL     OW26380   3.733   2.394   7.366  0.1918  0.5299  0.1522
 4974SOL    HW126381   3.750   2.465   7.304  1.1158  0.0813 -0.1003
 4974SOL    HW226382   3.639   2.403   7.382  0.0785 -1.5012  0.6483
 4975SOL     OW26383   1.418   3.511   1.619  0.0661  0.4252 -0.2034
 4975SOL    HW126384   1.503   3.523   1.661  0.4481 -0.5622 -0.6872
 4975SOL    HW226385   1.429   3.536   1.528  0.5511 -0.0206 -0.2657
 4976SOL     OW26386   0.058   3.430   7.640 -0.6756 -0.1620  0.3165
 4976SOL    HW126387   0.136   3.478   7.611 -0.3914 -1.1919 -0.6005
 4976SOL    HW226388   0.050   3.456   7.732 -2.5795 -0.8469  0.3418
 4977SOL     OW26389   4.002   0.118  14.824  0.0940  0.0510  0.4468
 4977SOL    HW126390   3.911   0.141  14.840  1.1232  4.0618  0.6081
 4977SOL    HW226391   3.999   0.028  14.856  2.9628  0.2516  1.3248
 4978SOL     OW26392   4.527   2.627   5.004  0.1655  0.3208 -0.2086
 4978SOL    HW126393   4.609   2.666   4.974 -0.8894  1.2698 -1.8633
 4978SOL    HW226394   4.549   2.534   5.005 -1.5117 -0.0822 -1.3048
 4979SOL     OW26395   3.825   4.077   5.849  0.1699  0.1337 -0.5582
 4979SOL    HW126396   3.885   4.141   5.888  0.2334 -0.4456  0.2938
 4979SOL    HW226397   3.851   3.992   5.883 -0.7253 -0.6866 -1.9478
 4980SOL     OW26398   3.335   4.068   6.788  0.1568 -0.2300 -0.5253
 4980SOL    HW126399   3.265   4.026   6.738  0.1258 -1.1606  0.2972
 4980SOL    HW226400   3.380   4.126   6.727  1.5130  0.5128  1.1701
 4981SOL     OW26401   1.442   4.138   9.169 -0.0518  0.6860  0.3326
 4981SOL    HW126402   1.423   4.232   9.171  0.0609  0.7117  0.2425
 4981SOL    HW226403   1.524   4.143   9.218  0.4477 -0.5531 -0.3721
 4982SOL     OW26404   3.545   4.678  11.565 -0.0641  0.9029  0.3576
 4982SOL    HW126405   3.605   4.635  11.503 -0.7312 -1.1414  1.1478
 4982SOL    HW226406   3.483   4.608  11.583  1.3054  0.0080  1.6023
 4983SOL     OW26407   1.225   3.491   5.949 -0.5415 -0.7960  0.6955
 4983SOL    HW126408   1.203   3.519   6.038  2.2469 -0.0183  1.1536
 4983SOL    HW226409   1.306   3.445   5.971 -1.4301 -1.4439  2.5752
 4984SOL     OW26410   0.824   3.779  13.191  0.1549 -0.0671 -0.2944
 4984SOL    HW126411   0.763   3.792  13.264 -0.6864  0.0178 -1.0162
 4984SOL    HW226412   0.768   3.767  13.114 -0.3574 -0.9362  0.2171
 4985SOL     OW26413   3.283   2.783   4.074 -0.2929 -0.3646  0.2142
 4985SOL    HW126414   3.269   2.699   4.030 -0.2113 -0.5301  0.5038
 4985SOL    HW226415   3.226   2.778   4.151  0.0244 -1.0436  0.4054
 4986SOL     OW26416   1.910   4.691  10.985 -0.6568  0.2399 -0.0800
 4986SOL    HW126417   1.866   0.013  10.912 -1.8036 -1.7865 -0.6428
 4986SOL    HW226418   1.885   0.023  11.060 -1.3731  1.6994 -1.3738
 4987SOL     OW26419   3.470   4.600  11.917 -0.2391  0.7310 -0.1354
 4987SOL    HW126420   3.556   4.566  11.941 -0.9626 -1.1997 -0.3123
 4987SOL    HW226421   3.452   4.538  11.847  2.7505  1.5893 -1.6638
 4988SOL     OW26422   0.506   2.863   8.582 -0.1607  0.5264 -0.3199
 4988SOL    HW126423   0.559   2.808   8.524 -0.9128 -0.5003 -0.0233
 4988SOL    HW226424   0.467   2.801   8.643  1.0993 -1.6837 -1.7510
 4989SOL     OW26425   1.956   1.864   4.876 -0.1657  0.0439 -0.2453
 4989SOL    HW126426   1.894   1.921   4.829  0.0893  0.8734  0.4188
 4989SOL    HW226427   1.920   1.854   4.964  1.3934  1.7119  0.5863
 4990SOL     OW26428   0.029   0.995  16.268 -0.0652 -0.1981  0.6433
 4990SOL    HW126429   0.097   0.939  16.230 -0.4612  0.3278 -0.8320
 4990SOL    HW226430   0.032   1.067  16.204  2.0959 -0.6357  0.2303
 4991SOL     OW26431   0.058   1.349   7.582  0.0919 -0.2045 -0.4935
 4991SOL    HW126432   0.063   1.444   7.569  0.7770 -0.2786 -0.7382
 4991SOL    HW226433   0.089   1.345   7.673  0.3926 -2.3468 -0.7001
 4992SOL     OW26434   0.717   1.146   0.233  0.5037 -0.4275  0.1328
 4992SOL    HW126435   0.733   1.202   0.309 -0.6103  0.1108 -0.0176
 4992SOL    HW226436   0.671   1.205   0.173 -1.3554 -0.4358  1.5321
 4993SOL     OW26437   1.821   1.791   2.098  0.1133  0.2278  0.9466
 4993SOL    HW126438   1.876   1.818   2.172  1.7739  2.0474 -0.9417
 4993SOL    HW226439   1.781   1.875   2.074  0.3729  0.7355  2.2800
 4994SOL     OW26440   3.733   1.856  10.766 -0.3581 -0.0061  0.0761
 4994SOL    HW126441   3.653   1.867  10.714  1.2418 -0.0065 -2.3960
 4994SOL    HW226442   3.731   1.930  10.827  0.7938  0.5377 -0.5427
 4995SOL     OW26443   4.474   1.721   6.341  0.0939 -0.4599  0.0634
 4995SOL    HW126444   4.413   1.677   6.282  1.5890  0.0190 -1.8488
 4995SOL    HW226445   4.486   1.791   6.277 -0.6754 -1.8555 -1.5944
 4996SOL     OW26446   3.811   3.526   4.280 -0.4702 -0.1497 -0.5142
 4996SOL    HW126447   3.744   3.501   4.217 -1.0101  0.0070 -0.0054
 4996SOL    HW226448   3.753   3.532   4.357 -0.2054 -0.7298 -0.2680
 4997SOL     OW26449   3.060   1.691   6.727 -0.1960 -0.0682  0.2623
 4997SOL    HW126450   3.092   1.751   6.660  1.4897  0.4173  1.5075
 4997SOL    HW226451   2.972   1.676   6.692 -0.7256 -1.9705  2.4287
 4998SOL     OW26452   4.627   1.899   9.577  0.7688  0.0011 -0.0687
 4998SOL    HW126453   4.670   1.831   9.629 -0.2259  1.1486  2.2416
 4998SOL    HW226454   4.538   1.866   9.571  0.3012  1.2547 -0.0341
 4999SOL     OW26455   4.462   4.497  15.335  0.3048  0.2486 -0.0617
 4999SOL    HW126456   4.371   4.476  15.355  0.2313  0.5517 -0.0721
 4999SOL    HW226457   4.471   4.474  15.243  1.8632 -3.0762  0.9259
 5000SOL     OW26458   1.153   2.684   7.020  0.0609 -0.1434 -0.7908
 5000SOL    HW126459   1.145   2.589   7.033 -2.1563 -0.1863 -2.4154
 5000SOL    HW226460   1.117   2.684   6.931 -1.1829 -0.0581 -0.2916
 5001SOL     OW26461   2.545   3.331   2.485  0.4529 -0.8053  0.0573
 5001SOL    HW126462   2.574   3.292   2.567  0.6851 -0.5515  0.0951
 5001SOL    HW226463   2.450   3.331   2.494  0.4484 -0.2155  0.0208
 5002SOL     OW26464   2.874   2.734  11.459 -0.0260 -0.2408 -0.0393
 5002SOL    HW126465   2.967   2.714  11.470  0.5258  1.2403 -1.9396
 5002SOL    HW226466   2.846   2.675  11.388 -0.1426 -0.2783  0.0371
 5003SOL     OW26467   1.153   3.596   7.580  0.4733 -0.0539 -0.0395
 5003SOL    HW126468   1.212   3.540   7.632  0.8073 -1.1781 -1.6426
 5003SOL    HW226469   1.225   3.647   7.544  0.0235  1.9598  1.9160
 5004SOL     OW26470   3.981   2.227  16.656 -0.2828  0.0140 -0.3105
 5004SOL    HW126471   3.915   2.220  16.725 -0.7121  1.2114 -0.5908
 5004SOL    HW226472   4.058   2.211  16.710 -1.9554 -0.7034  1.8421
 5005SOL     OW26473   0.127   0.146   6.102  0.0637 -0.7098  0.2357
 5005SOL    HW126474   0.115   0.189   6.017  0.2240 -1.9433 -0.4072
 5005SOL    HW226475   0.036   0.148   6.131  0.6104 -1.4143  1.9871
 5006SOL     OW26476   4.007   4.625  17.062  0.0549 -0.1236 -0.0110
 5006SOL    HW126477   4.018   4.591  16.973 -0.1466  2.8039 -1.1711
 5006SOL    HW226478   4.071   4.696  17.066 -0.2628  0.1444  0.3140
 5007SOL     OW26479   4.529   0.682   2.288 -0.4789 -0.0727 -0.1595
 5007SOL    HW126480   4.506   0.733   2.366  0.1669  0.8651 -0.5892
 5007SOL    HW226481   4.478   0.601   2.300 -1.5160  0.6197  0.1404
 5008SOL     OW26482   3.989   4.540  13.380  0.2863 -0.5761 -0.5767
 5008SOL    HW126483   3.967   4.615  13.324 -0.2067 -0.2773  0.0199
 5008SOL    HW226484   3.915   4.487  13.352 -0.9866  0.0034  1.7082
 5009SOL     OW26485   4.167   2.547   4.610 -0.1169 -0.0680 -0.1464
 5009SOL    HW126486   4.092   2.604   4.623 -0.3645 -0.0468 -1.7513
 5009SOL    HW226487   4.199   2.581   4.527  0.9317 -0.7025 -0.0069
 5010SOL     OW26488   4.476   0.895   8.240  0.1057  0.0592 -0.3001
 5010SOL    HW126489   4.480   0.874   8.147  2.1974  1.7566 -0.6033
 5010SOL    HW226490   4.384   0.878   8.258 -0.6157  1.1092 -3.0824
 5011SOL     OW26491   0.141   2.464   3.372  0.2462 -0.1949 -0.4637
 5011SOL    HW126492   0.228   2.439   3.404 -0.2604 -0.3420  0.7950
 5011SOL    HW226493   0.161   2.494   3.283 -0.6208 -2.1913 -1.3320
 5012SOL     OW26494   0.595   0.503   0.163  0.9299 -0.1429 -0.3306
 5012SOL    HW126495   0.575   0.429   0.106 -0.3202 -0.2032  0.1853
 5012SOL    HW226496   0.644   0.556   0.100  0.3941  2.7109  1.6298
 5013SOL     OW26497   2.100   3.500   0.760  0.2972 -0.0021  0.6474
 5013SOL    HW126498   2.089   3.448   0.680  3.6587  0.4279 -0.0713
 5013SOL    HW226499   2.009   3.509   0.788  0.6349  0.8451  1.4596
 5014SOL     OW26500   4.304   3.595   6.317  0.3021  0.2111 -0.7771
 5014SOL    HW126501   4.228   3.613   6.260  0.1110  1.5625 -0.1028
 5014SOL    HW226502   4.282   3.649   6.393 -0.9751  1.5882 -2.1283
 5015SOL     OW26503   4.213   1.925   8.255 -0.1576 -0.7045 -0.3827
 5015SOL    HW126504   4.291   1.871   8.261 -0.2011 -0.7758 -0.4670
 5015SOL    HW226505   4.248   2.014   8.251 -0.8042 -0.4784 -1.1055
 5016SOL     OW26506   4.188   1.894  13.300  0.2157  0.2494  0.0450
 5016SOL    HW126507   4.120   1.828  13.287  1.7664 -0.9136 -1.9376
 5016SOL    HW226508   4.130   1.968  13.319  0.4554  0.5360 -0.3460
 5017SOL     OW26509   2.977   2.201   3.018 -0.2560 -0.1301  0.2428
 5017SOL    HW126510   3.018   2.122   2.982  1.7255  0.9191  0.1746
 5017SOL    HW226511   2.891   2.196   2.976  0.0236  2.0563 -0.5822
 5018SOL     OW26512   2.212   0.912   6.772  0.1309 -0.4699  0.2919
 5018SOL    HW126513   2.128   0.897   6.814 -0.4082 -0.5986 -0.8167
 5018SOL    HW226514   2.207   0.999   6.731  0.9540 -0.1109  0.9612
 5019SOL     OW26515   2.149   1.730   8.714 -0.2385  0.0944 -0.6062
 5019SOL    HW126516   2.127   1.646   8.755  1.3952 -0.6729 -1.2847
 5019SOL    HW226517   2.110   1.790   8.777  0.1199  0.7640 -1.0192
 5020SOL     OW26518   3.247   1.856   6.574 -0.0193  0.1380  0.1392
 5020SOL    HW126519   3.328   1.907   6.581  1.4037 -1.8489 -1.8849
 5020SOL    HW226520   3.190   1.912   6.521 -1.3909  0.8241  2.3682
 5021SOL     OW26521   2.454   1.648   7.689  0.4316 -0.2290  0.5759
 5021SOL    HW126522   2.456   1.739   7.718 -2.4381  0.0086  0.0572
 5021SOL    HW226523   2.369   1.655   7.645  1.0608 -2.0212 -0.9409
 5022SOL     OW26524   3.844   0.853  13.845 -0.1502  0.1642  0.2942
 5022SOL    HW126525   3.908   0.807  13.791 -0.4830 -0.1308  0.1500
 5022SOL    HW226526   3.781   0.782  13.863  0.7979 -0.8106 -0.2284
 5023SOL     OW26527   3.463   2.107   9.909 -0.2052 -0.4681  0.0655
 5023SOL    HW126528   3.402   2.044   9.871  0.3046 -2.3540  2.4209
 5023SOL    HW226529   3.409   2.169   9.959 -0.9670 -0.0160 -1.3141
 5024SOL     OW26530   0.551   0.226  17.278  0.4355  0.1078  0.8602
 5024SOL    HW126531   0.579   0.265  17.361  0.1864  1.7395  0.1755
 5024SOL    HW226532   0.631   0.197  17.234  0.5984  0.0025  1.2215
 5025SOL     OW26533   4.700   0.792   2.104 -0.2375  0.6402  0.2663
 5025SOL    HW126534   4.689   0.730   2.032  3.3315 -0.3533  0.5782
 5025SOL    HW226535   4.630   0.757   2.160 -1.1837 -0.1541 -1.4237
 5026SOL     OW26536   3.761   3.477  13.243  0.7903  0.0294  0.6139
 5026SOL    HW126537   3.849   3.480  13.206  0.3499  1.9955 -0.2992
 5026SOL    HW226538   3.707   3.506  13.169 -1.5648 -0.9009  1.9767
 5027SOL     OW26539   1.841   0.821   5.352 -0.1186  0.2525 -0.4485
 5027SOL    HW126540   1.862   0.860   5.437 -0.1236 -1.5230  0.3512
 5027SOL    HW226541   1.789   0.748   5.385 -0.2180  0.6909  0.3723
 5028SOL     OW26542   3.616   3.923   1.992  0.0263  0.2479  0.1283
 5028SOL    HW126543   3.662   3.839   1.991  1.2082  0.9501 -3.8388
 5028SOL    HW226544   3.686   3.984   2.015 -1.5226  1.3420  1.9004
 5029SOL     OW26545   1.137   0.948   7.001 -0.7223 -0.3785 -0.0564
 5029SOL    HW126546   1.175   0.861   7.003 -0.5950 -0.3285 -0.3256
 5029SOL    HW226547   1.101   0.967   7.088  0.8049  0.2435  0.4409
 5030SOL     OW26548   2.209   2.799   5.256  0.2389  0.1984 -0.0431
 5030SOL    HW126549   2.250   2.860   5.195  0.6316  1.0990  1.1259
 5030SOL    HW226550   2.134   2.771   5.203  1.0026 -0.2516 -0.8758
 5031SOL     OW26551   1.930   0.751   0.809  0.5050 -0.0925  0.4098
 5031SOL    HW126552   1.949   0.697   0.732  0.9051  2.9455 -1.5820
 5031SOL    HW226553   1.835   0.764   0.800  0.1593 -2.0844  0.9683
 5032SOL     OW26554   3.734   0.594  17.021 -0.2022 -0.4228 -0.4047
 5032SOL    HW126555   3.714   0.576  16.929  0.5734  0.6847 -0.7926
 5032SOL    HW226556   3.828   0.580  17.008 -0.3406 -1.2189 -0.5466
 5033SOL     OW26557   2.047   1.712  17.456  0.5363  0.6281  0.1785
 5033SOL    HW126558   2.038   1.745  17.545  1.9133  1.7231 -0.0775
 5033SOL    HW226559   1.958   1.703  17.424  1.0638 -1.0996 -0.8358
 5034SOL     OW26560   3.012   1.746   3.251 -0.0598 -0.1661 -0.1142
 5034SOL    HW126561   2.976   1.658   3.249 -0.0076 -0.1665 -0.9364
 5034SOL    HW226562   3.108   1.739   3.249 -0.1647 -1.2038 -1.2940
 5035SOL     OW26563   2.488   4.646   0.949  0.9583  0.1991 -0.1769
 5035SOL    HW126564   2.440   4.619   0.870 -0.1338  3.5969 -0.6662
 5035SOL    HW226565   2.430   4.720   0.967 -0.7844 -1.2734  0.2697
 5036SOL     OW26566   2.923   3.966   5.007 -0.2462 -0.2481  0.2491
 5036SOL    HW126567   3.001   4.001   4.964 -0.8668 -1.9135 -2.2665
 5036SOL    HW226568   2.914   4.010   5.091  1.4358 -1.0483  0.8436
 5037SOL     OW26569   1.031   4.329  12.431 -0.1138  0.2406 -0.1594
 5037SOL    HW126570   0.967   4.398  12.412  0.1022  0.2562 -0.8399
 5037SOL    HW226571   1.032   4.275  12.352 -2.0012  0.1512 -0.1286
 5038SOL     OW26572   3.970   1.569   8.473 -0.0426  0.6518  0.1901
 5038SOL    HW126573   3.959   1.555   8.379  0.1786 -0.5456  0.3490
 5038SOL    HW226574   3.879   1.585   8.499 -0.0439  0.2635  0.4112
 5039SOL     OW26575   4.467   4.683   5.992  0.7274 -0.4432  0.5674
 5039SOL    HW126576   4.393   0.019   6.003 -0.5104 -1.5789 -1.6839
 5039SOL    HW226577   4.519   4.713   6.067  1.7054 -2.6431  0.7801
 5040SOL     OW26578   0.587   0.384   2.923 -0.5726  0.5760 -1.1267
 5040SOL    HW126579   0.644   0.447   2.968 -0.5751 -0.9166  0.9563
 5040SOL    HW226580   0.655   0.324   2.892 -1.8427 -1.7843  0.6951
 5041SOL     OW26581   1.869   3.235   7.226  0.1686 -0.2530  0.2064
 5041SOL    HW126582   1.850   3.151   7.184 -2.7051 -1.0553  3.0986
 5041SOL    HW226583   1.916   3.201   7.303  1.3539  2.7139  0.7883
 5042SOL     OW26584   1.606   1.917   4.530  0.1505  0.2989  0.3584
 5042SOL    HW126585   1.570   1.930   4.442 -1.7552 -0.8357  0.9744
 5042SOL    HW226586   1.561   1.840   4.565  0.0332  0.9477  1.6346
 5043SOL     OW26587   3.362   2.489   9.613 -0.0083  0.4449  0.5047
 5043SOL    HW126588   3.344   2.397   9.633  3.1847 -0.6325 -1.5683
 5043SOL    HW226589   3.394   2.477   9.523 -0.0859 -2.4029  0.8517
 5044SOL     OW26590   0.195   0.134   4.667  0.2124 -0.1834 -0.0305
 5044SOL    HW126591   0.192   0.230   4.666  0.8046 -0.1804 -1.7308
 5044SOL    HW226592   0.233   0.114   4.752 -0.2322  0.9213  0.4358
 5045SOL     OW26593   3.775   3.884  15.130  0.0747  0.0614  0.2540
 5045SOL    HW126594   3.759   3.855  15.040  0.5200  0.6191 -0.0052
 5045SOL    HW226595   3.702   3.946  15.140 -1.1351 -1.6418  1.9256
 5046SOL     OW26596   0.548   3.296  14.653 -0.4268 -0.0934  0.5331
 5046SOL    HW126597   0.555   3.375  14.707 -1.5047  0.8159 -0.6473
 5046SOL    HW226598   0.635   3.297  14.614  0.0760 -1.1365  1.6386
 5047SOL     OW26599   4.188   1.593   5.736  0.3236 -0.5039  0.0581
 5047SOL    HW126600   4.244   1.553   5.802 -1.3313 -2.2455  0.4062
 5047SOL    HW226601   4.253   1.627   5.675 -0.7823  1.6805  0.1098
 5048SOL     OW26602   2.995   4.712  14.601 -0.3427  0.1205  0.1882
 5048SOL    HW126603   3.065   4.681  14.658 -0.7475 -0.6148  0.2792
 5048SOL    HW226604   2.999   4.649  14.529  0.6049 -0.6491  0.9133
 5049SOL     OW26605   0.699   1.623  12.519 -0.1671 -0.1413 -0.4136
 5049SOL    HW126606   0.705   1.692  12.584 -2.2773  0.6483 -1.0626
 5049SOL    HW226607   0.758   1.663  12.455 -1.7923  0.3873 -1.5821
 5050SOL     OW26608   2.251   4.403   3.019 -0.4763  0.0767  0.2134
 5050SOL    HW126609   2.247   4.314   3.052 -2.1726 -0.7419 -2.1784
 5050SOL    HW226610   2.313   4.437   3.084  0.3826 -2.0631  0.5135
 5051SOL     OW26611   3.392   0.400  13.140  0.1065  0.2107 -0.0781
 5051SOL    HW126612   3.384   0.403  13.044  0.6857 -1.6783 -0.1687
 5051SOL    HW226613   3.370   0.489  13.168  0.6827  0.2527  0.2341
 5052SOL     OW26614   0.571   1.295   4.151  0.4520  0.4768 -0.1688
 5052SOL    HW126615   0.633   1.324   4.084  1.5849 -2.3783 -0.3352
 5052SOL    HW226616   0.615   1.346   4.218  0.2727  0.8052 -0.2963
 5053SOL     OW26617   0.535   1.566   1.256 -0.0374 -0.3347 -0.3041
 5053SOL    HW126618   0.559   1.658   1.242  2.8660 -0.9781  0.3268
 5053SOL    HW226619   0.614   1.522   1.223 -1.2513 -1.8778 -1.1137
 5054SOL     OW26620   1.977   2.666  10.859 -0.0690  0.2692  0.0647
 5054SOL    HW126621   2.045   2.682  10.792 -0.7531 -0.0196 -0.6979
 5054SOL    HW226622   2.011   2.710  10.937  1.0842 -0.3444 -0.0834
 5055SOL     OW26623   3.821   3.086  16.845  0.5720  0.0712  0.0328
 5055SOL    HW126624   3.814   3.168  16.797 -1.3616 -0.4774 -0.6365
 5055SOL    HW226625   3.896   3.107  16.901 -0.2713 -1.5609  1.8000
 5056SOL     OW26626   2.511   3.918   7.913  0.4289  0.0827  0.2603
 5056SOL    HW126627   2.545   3.959   7.993 -0.0652 -1.1165  1.1017
 5056SOL    HW226628   2.432   3.869   7.937  1.7308 -2.5363 -0.7687
 5057SOL     OW26629   1.217   2.420   8.887  0.4589 -0.5680 -0.6427
 5057SOL    HW126630   1.308   2.439   8.867  0.7876 -0.0240  1.3773
 5057SOL    HW226631   1.176   2.452   8.807 -0.7068  1.3012  0.6965
 5058SOL     OW26632   0.104   3.978   8.077 -0.1762  0.1003 -0.2526
 5058SOL    HW126633   0.119   3.935   7.993 -1.7700 -1.7107  0.3775
 5058SOL    HW226634   0.014   3.948   8.088 -0.4148  0.1459 -2.2457
 5059SOL     OW26635   1.113   0.135   5.942 -0.0914  0.1771 -0.0475
 5059SOL    HW126636   1.155   0.137   6.027  1.1557  2.7717 -0.7301
 5059SOL    HW226637   1.146   0.214   5.898  0.8782  0.1138  0.5708
 5060SOL     OW26638   2.423   0.455   8.143  0.0951 -0.6307  0.3084
 5060SOL    HW126639   2.510   0.459   8.104 -0.9880 -0.7525 -2.0817
 5060SOL    HW226640   2.378   0.504   8.075 -1.8789  0.3937  2.3651
 5061SOL     OW26641   4.057   1.663  15.636 -0.2020 -0.5619  0.1112
 5061SOL    HW126642   4.136   1.641  15.586 -0.9093 -1.8645 -0.4272
 5061SOL    HW226643   4.001   1.706  15.572  1.0765 -1.7847 -1.8405
 5062SOL     OW26644   2.128   4.477   0.303  0.3526  0.5480 -0.5823
 5062SOL    HW126645   2.145   4.383   0.314 -1.5774  0.2070 -0.4206
 5062SOL    HW226646   2.038   4.469   0.337  0.1129 -1.4752 -1.6328
 5063SOL     OW26647   4.363   0.042   6.619  0.3166 -0.1268  0.6591
 5063SOL    HW126648   4.305   0.090   6.560 -0.5001 -2.9435 -0.8307
 5063SOL    HW226649   4.332   4.680   6.588  2.0400 -0.0895 -1.1672
 5064SOL     OW26650   0.860   2.906   8.839 -0.1561 -0.1265 -0.4130
 5064SOL    HW126651   0.896   2.950   8.916 -0.6919 -0.9448  0.3046
 5064SOL    HW226652   0.813   2.981   8.804  3.0206  1.7927 -0.6349
 5065SOL     OW26653   4.381   1.310   6.092  0.2509  0.8365 -0.3045
 5065SOL    HW126654   4.298   1.353   6.114 -0.8488  0.6047 -4.0542
 5065SOL    HW226655   4.354   1.222   6.116  2.5997 -0.0651 -1.0690
 5066SOL     OW26656   3.614   2.362   0.911 -0.3082 -0.5368  0.2658
 5066SOL    HW126657   3.657   2.413   0.843 -2.8095 -0.4163 -1.2092
 5066SOL    HW226658   3.683   2.333   0.970  1.9923  1.6655 -1.3146
 5067SOL     OW26659   3.766   1.386   5.393  0.0912 -0.0743  0.1570
 5067SOL    HW126660   3.739   1.367   5.304 -1.7344  2.7043  0.1192
 5067SOL    HW226661   3.846   1.334   5.402 -1.4785 -2.8190 -2.0762
 5068SOL     OW26662   0.727   2.924   6.094  0.2452 -0.0309 -0.1661
 5068SOL    HW126663   0.683   2.993   6.043  1.7314 -0.6772 -2.3117
 5068SOL    HW226664   0.718   2.855   6.028  2.1088 -2.1353  1.7844
 5069SOL     OW26665   3.841   1.626   9.187  0.3504 -0.3561  0.1434
 5069SOL    HW126666   3.761   1.677   9.196  1.7045  1.2113  3.1563
 5069SOL    HW226667   3.842   1.629   9.091  1.2638  0.1738  0.1681
 5070SOL     OW26668   2.938   1.069   9.579 -0.0422 -0.6370  0.2330
 5070SOL    HW126669   3.004   1.059   9.648  0.8766 -0.0675 -0.5547
 5070SOL    HW226670   2.988   1.031   9.506  1.5553  0.9809  0.4998
 5071SOL     OW26671   2.636   4.667  12.675 -0.2244  0.7241 -0.2891
 5071SOL    HW126672   2.722   4.637  12.705 -0.3334 -0.1861 -0.8973
 5071SOL    HW226673   2.661   4.688  12.585 -0.2418  0.4275 -0.3622
 5072SOL     OW26674   1.100   1.823   9.408 -0.0375  0.0013 -0.8385
 5072SOL    HW126675   1.114   1.875   9.328 -2.7222 -3.5525 -3.6113
 5072SOL    HW226676   1.008   1.804   9.389  0.2553 -2.4485  0.2229
 5073SOL     OW26677   0.631   4.160   8.547  0.2997  0.2596 -0.3215
 5073SOL    HW126678   0.644   4.178   8.640 -0.5156  0.7717 -0.3010
 5073SOL    HW226679   0.699   4.219   8.515  0.7024  0.2441  0.5369
 5074SOL     OW26680   1.882   2.157   2.876  0.0049 -0.0040 -0.4503
 5074SOL    HW126681   1.819   2.140   2.946  0.4501  0.0524 -0.0403
 5074SOL    HW226682   1.958   2.158   2.934  1.2972 -0.4867 -2.1512
 5075SOL     OW26683   1.895   1.634   7.780  0.2162 -0.4101  0.0647
 5075SOL    HW126684   1.903   1.539   7.783  1.7288 -0.2861  0.2447
 5075SOL    HW226685   1.835   1.642   7.706  1.5916 -0.7742 -1.0902
 5076SOL     OW26686   0.407   3.671  15.033 -0.3831 -0.0830  0.0535
 5076SOL    HW126687   0.425   3.619  14.955 -0.4917 -0.7572  0.4857
 5076SOL    HW226688   0.339   3.621  15.078 -0.2140  1.4534  2.0494
 5077SOL     OW26689   0.549   3.660  15.347 -0.1760  0.5416  0.6114
 5077SOL    HW126690   0.530   3.591  15.283  2.9412  0.5837 -0.3423
 5077SOL    HW226691   0.594   3.724  15.293 -1.6642  1.4093  0.4033
 5078SOL     OW26692   2.334   2.799   6.215  0.6051  0.4228 -0.1285
 5078SOL    HW126693   2.342   2.798   6.311 -0.4986  2.1906 -0.0142
 5078SOL    HW226694   2.424   2.802   6.181  0.5011  1.2512 -0.3476
 5079SOL     OW26695   0.447   1.683   7.473 -0.0290  0.1583  0.5138
 5079SOL    HW126696   0.458   1.778   7.480 -0.8508  0.3140 -0.3721
 5079SOL    HW226697   0.483   1.645   7.554  0.8373  0.1898  0.1363
 5080SOL     OW26698   3.973   2.151   3.153  0.4999  0.1679  0.1561
 5080SOL    HW126699   3.921   2.164   3.232  0.1809 -0.3961  0.0403
 5080SOL    HW226700   3.993   2.057   3.149  1.9596  0.3483  4.0499
 5081SOL     OW26701   4.062   1.284   8.124 -0.1632 -0.6256  0.3090
 5081SOL    HW126702   4.029   1.255   8.039 -0.4389 -1.8054  0.8227
 5081SOL    HW226703   3.998   1.353   8.145  0.0270 -0.7725  1.3471
 5082SOL     OW26704   3.044   2.452   6.810 -1.0232  0.1413 -0.4963
 5082SOL    HW126705   3.042   2.506   6.731 -0.6572  0.4585 -0.2873
 5082SOL    HW226706   3.033   2.367   6.766  3.4218 -1.2982  1.1783
 5083SOL     OW26707   1.524   0.738  11.290 -0.0275 -0.3019  0.7810
 5083SOL    HW126708   1.610   0.714  11.325  0.6083  2.1688  0.8847
 5083SOL    HW226709   1.476   0.766  11.368  0.4968  1.3502  0.5122
 5084SOL     OW26710   2.224   2.249   2.104 -0.4836  0.2139  0.5350
 5084SOL    HW126711   2.195   2.171   2.152  1.3689 -0.3530  0.7681
 5084SOL    HW226712   2.139   2.277   2.071  0.2470 -1.5520 -2.9135
 5085SOL     OW26713   0.436   3.826   3.482 -0.0067 -0.4081  0.6821
 5085SOL    HW126714   0.527   3.851   3.468 -0.5263  1.2291  0.1793
 5085SOL    HW226715   0.427   3.837   3.577 -0.3900 -0.1787  0.6214
 5086SOL     OW26716   2.901   3.643   4.188 -0.8496 -0.6430 -0.0364
 5086SOL    HW126717   2.910   3.581   4.115  1.3052 -0.3164 -0.0558
 5086SOL    HW226718   2.853   3.715   4.147 -2.5196 -1.3463  0.6942
 5087SOL     OW26719   4.241   0.539  13.735 -0.1302 -0.2918 -0.3940
 5087SOL    HW126720   4.264   0.506  13.822 -0.6672 -0.7507 -0.4264
 5087SOL    HW226721   4.146   0.548  13.738  0.1043  2.2604 -0.6276
 5088SOL     OW26722   2.171   3.645  11.236  0.3240  0.0933 -0.1646
 5088SOL    HW126723   2.150   3.572  11.293  0.8329  0.0059 -0.0867
 5088SOL    HW226724   2.086   3.688  11.226  0.8571  0.7781 -1.9075
 5089SOL     OW26725   0.340   0.788   7.122  0.0632 -0.3065 -0.3797
 5089SOL    HW126726   0.343   0.787   7.026 -1.1003  0.0602 -0.4148
 5089SOL    HW226727   0.265   0.846   7.132  0.0651 -0.4027  0.1548
 5090SOL     OW26728   3.834   0.600   6.228 -0.1863 -0.5859  0.0281
 5090SOL    HW126729   3.914   0.569   6.271 -0.7668  0.9172  2.2013
 5090SOL    HW226730   3.777   0.523   6.232 -1.6398  0.6401  3.6516
 5091SOL     OW26731   1.989   1.946   3.554 -0.3778  0.3300 -0.4252
 5091SOL    HW126732   1.936   1.995   3.491  0.9748 -0.2623 -2.0340
 5091SOL    HW226733   1.973   1.999   3.632 -4.0557 -1.5402  0.1243
 5092SOL     OW26734   3.295   2.572   0.944 -0.4363  0.2580 -1.0040
 5092SOL    HW126735   3.260   2.661   0.955  0.5596  0.6490 -1.0167
 5092SOL    HW226736   3.221   2.515   0.962 -0.2165  1.0543  2.3675
 5093SOL     OW26737   3.383   3.424   3.822  0.1530 -0.0742  0.4184
 5093SOL    HW126738   3.430   3.447   3.902  0.6343  0.5113 -0.0410
 5093SOL    HW226739   3.443   3.451   3.752  0.9101  1.0295  1.5059
 5094SOL     OW26740   2.250   0.924   2.797  0.1115 -0.5304 -0.0756
 5094SOL    HW126741   2.332   0.940   2.845  0.4549 -0.2465 -0.7665
 5094SOL    HW226742   2.212   0.858   2.856 -0.3822 -0.3010 -0.1431
 5095SOL     OW26743   1.247   0.124   8.353  0.0905 -0.2233  1.0432
 5095SOL    HW126744   1.166   0.076   8.333  0.8838 -0.2463 -2.0616
 5095SOL    HW226745   1.228   0.196   8.294 -4.1264 -1.3884  0.9584
 5096SOL     OW26746   2.050   1.027   0.533 -0.4926 -0.4390 -0.1030
 5096SOL    HW126747   2.097   1.052   0.454 -1.1830 -1.7110 -0.9088
 5096SOL    HW226748   2.006   0.948   0.503 -1.1772  0.2347 -0.8567
 5097SOL     OW26749   0.365   3.548   3.547 -0.3221 -0.1286  0.0494
 5097SOL    HW126750   0.375   3.636   3.511 -0.7072 -0.0213  0.2068
 5097SOL    HW226751   0.295   3.517   3.490 -0.6737  1.4269 -0.3532
 5098SOL     OW26752   2.301   0.413   1.235 -0.0061  0.0598 -0.7021
 5098SOL    HW126753   2.263   0.444   1.153 -0.6736 -0.2313 -0.4963
 5098SOL    HW226754   2.229   0.365   1.275 -0.3172  0.4249 -0.8182
 5099SOL     OW26755   0.647   3.859   4.092  0.4692 -0.4083 -0.0365
 5099SOL    HW126756   0.636   3.793   4.161 -4.7023 -0.7122 -1.1799
 5099SOL    HW226757   0.629   3.941   4.137  0.1188  0.1473 -1.2024
 5100SOL     OW26758   3.250   3.854  15.482 -0.0728 -0.7663 -0.2882
 5100SOL    HW126759   3.237   3.903  15.563  1.6329  1.2239 -1.2485
 5100SOL    HW226760   3.180   3.789  15.490  1.4591 -2.3336  0.3745
 5101SOL     OW26761   4.191   4.700   4.867 -0.5994  0.1818  0.1618
 5101SOL    HW126762   4.143   4.677   4.787 -0.0224  0.0594 -0.1516
 5101SOL    HW226763   4.205   4.607   4.884 -1.7741  0.0558  0.4046
 5102SOL     OW26764   2.803   1.284  15.533 -0.3004  0.3194  0.5695
 5102SOL    HW126765   2.734   1.351  15.534 -0.7064 -0.0985  0.5348
 5102SOL    HW226766   2.868   1.308  15.598 -0.5383  1.3503  0.4264
 5103SOL     OW26767   4.014   2.528  15.865  0.0664  1.0655 -0.0642
 5103SOL    HW126768   3.953   2.541  15.792  0.1666 -0.2546 -0.3813
 5103SOL    HW226769   3.990   2.442  15.899 -0.6054  1.1216 -0.3804
 5104SOL     OW26770   3.559   1.533   6.652  0.1088  0.1167  0.5127
 5104SOL    HW126771   3.551   1.556   6.745 -1.4809  0.0240  0.4054
 5104SOL    HW226772   3.637   1.479   6.641  0.0029  0.0548  0.0507
 5105SOL     OW26773   2.640   2.211   5.678 -0.5131  0.4125  0.1934
 5105SOL    HW126774   2.615   2.139   5.620 -0.4109 -0.4713  1.2669
 5105SOL    HW226775   2.559   2.262   5.674  0.4819  1.9467 -0.3944
 5106SOL     OW26776   2.253   4.440   5.166 -0.6861  0.4471 -1.0260
 5106SOL    HW126777   2.168   4.410   5.134 -1.1162 -1.1641  1.6529
 5106SOL    HW226778   2.306   4.376   5.120  0.5018 -0.6029  1.7728
 5107SOL     OW26779   1.439   1.522   3.573  0.0106  0.0842 -0.1224
 5107SOL    HW126780   1.503   1.492   3.508 -1.3111 -1.2788 -0.7886
 5107SOL    HW226781   1.400   1.597   3.529  3.3045  1.5109 -0.6258
 5108SOL     OW26782   2.282   3.043   5.759 -0.1000 -0.4032 -0.0024
 5108SOL    HW126783   2.315   3.037   5.669  0.1919 -0.8803  0.1420
 5108SOL    HW226784   2.195   3.082   5.753 -0.0002 -0.1817 -0.0084
 5109SOL     OW26785   2.630   4.062   3.580  0.5622  0.6090  0.3972
 5109SOL    HW126786   2.616   4.082   3.673 -1.5706 -1.2960  0.4831
 5109SOL    HW226787   2.665   4.149   3.559  0.5261  0.3773 -0.5797
 5110SOL     OW26788   0.155   1.686   6.091 -0.3255 -0.0473 -0.1436
 5110SOL    HW126789   0.220   1.756   6.082  1.6925 -1.7456  1.3870
 5110SOL    HW226790   0.078   1.728   6.052 -0.6322  1.3566  2.0191
 5111SOL     OW26791   4.199   0.645   5.161 -0.0301 -0.5059  0.1537
 5111SOL    HW126792   4.116   0.639   5.208 -0.1011  1.6767  0.3136
 5111SOL    HW226793   4.199   0.553   5.135  0.4185 -0.6899  0.8086
 5112SOL     OW26794   0.096   0.066   7.618  0.1337  0.3517 -0.0747
 5112SOL    HW126795   0.005   0.037   7.606  0.1192 -0.0603  0.9783
 5112SOL    HW226796   0.077   0.133   7.683  0.6214 -0.1676  0.6129
 5113SOL     OW26797   1.909   2.852   3.871 -0.3629  0.2054 -0.2792
 5113SOL    HW126798   1.851   2.835   3.945  1.6458 -2.7186  0.6175
 5113SOL    HW226799   1.850   2.884   3.802  0.9009  0.6105 -1.1658
 5114SOL     OW26800   4.643   2.970  12.091 -0.4256 -0.0006  0.1180
 5114SOL    HW126801   4.593   2.936  12.166 -1.9182  1.1718 -0.3430
 5114SOL    HW226802   4.718   3.017  12.128 -1.1112  1.6041 -0.5343
 5115SOL     OW26803   1.685   2.255   3.845 -0.4023  0.2971 -0.2833
 5115SOL    HW126804   1.590   2.255   3.847 -0.3887 -1.7143 -0.0581
 5115SOL    HW226805   1.705   2.246   3.752  2.0556  0.1238  0.2539
 5116SOL     OW26806   3.430   1.023  15.121 -0.1573  0.1866  0.7619
 5116SOL    HW126807   3.502   1.075  15.156 -0.2498 -0.0129  1.2528
 5116SOL    HW226808   3.357   1.064  15.168 -0.4569  1.0283 -0.4472
 5117SOL     OW26809   4.313   2.729  11.832  0.2617  0.2062 -0.1080
 5117SOL    HW126810   4.390   2.679  11.857 -0.9382 -1.2039  0.7256
 5117SOL    HW226811   4.350   2.816  11.848  0.6662  0.0613 -0.2567
 5118SOL     OW26812   2.548   2.538  13.392 -0.4223  0.2932 -0.3788
 5118SOL    HW126813   2.619   2.536  13.328 -0.3080 -0.5537 -0.2254
 5118SOL    HW226814   2.524   2.448  13.375 -0.8801  0.0755  1.3819
 5119SOL     OW26815   4.133   2.460  13.996 -0.1028 -0.1030  0.3548
 5119SOL    HW126816   4.096   2.496  13.916 -0.8741 -1.9470 -0.1099
 5119SOL    HW226817   4.165   2.377  13.960 -0.4025 -1.2917  2.7589
 5120SOL     OW26818   2.594   4.301  11.156  0.1887 -0.4540 -0.5032
 5120SOL    HW126819   2.642   4.351  11.090 -0.4007 -0.0636 -0.6390
 5120SOL    HW226820   2.563   4.225  11.108  0.3652  1.3009 -3.4236
 5121SOL     OW26821   0.943   4.516   6.838  0.1296 -0.1138  0.0713
 5121SOL    HW126822   0.945   4.424   6.863  0.1284  0.0379  0.6222
 5121SOL    HW226823   0.946   4.556   6.925 -1.3272  1.2151 -0.4921
 5122SOL     OW26824   3.260   3.687  12.176  0.5191  0.4531  0.1785
 5122SOL    HW126825   3.201   3.680  12.100  2.0553 -2.5072 -0.7206
 5122SOL    HW226826   3.319   3.614  12.158 -0.2800 -0.6224  1.9405
 5123SOL     OW26827   1.576   4.593   1.306  0.0207 -1.4863  0.2381
 5123SOL    HW126828   1.573   4.510   1.353 -2.9947 -2.1387 -1.1294
 5123SOL    HW226829   1.672   4.600   1.303 -0.1452  0.5624 -0.5920
 5124SOL     OW26830   2.011   0.777   9.415  0.1743 -0.2168  0.1159
 5124SOL    HW126831   1.974   0.732   9.340  1.2598 -0.3046 -0.3600
 5124SOL    HW226832   1.965   0.732   9.486 -0.4660 -0.7128 -0.6087
 5125SOL     OW26833   1.983   0.848   6.873 -0.2045  0.6108 -0.1671
 5125SOL    HW126834   1.964   0.768   6.923 -1.6593  0.9720 -0.1489
 5125SOL    HW226835   1.923   0.911   6.912 -1.1428 -1.0644  1.1176
 5126SOL     OW26836   2.665   0.239  11.406  0.0003  0.7099  0.0221
 5126SOL    HW126837   2.623   0.291  11.338 -2.0832  0.9630  1.5052
 5126SOL    HW226838   2.756   0.234  11.377 -0.0782  0.4733 -0.1843
 5127SOL     OW26839   1.836   2.852   2.867 -0.3969  0.0647  0.5341
 5127SOL    HW126840   1.761   2.911   2.859 -1.2572 -1.1032 -0.0429
 5127SOL    HW226841   1.816   2.809   2.784 -0.1330 -0.0463  0.5265
 5128SOL     OW26842   1.692   1.542   1.822  0.2210 -0.2173 -0.2716
 5128SOL    HW126843   1.625   1.545   1.890 -0.5835 -1.8936 -0.9923
 5128SOL    HW226844   1.769   1.580   1.865  0.5126 -0.4215 -0.6085
 5129SOL     OW26845   0.523   4.433   5.095 -0.2307  0.0749 -0.0227
 5129SOL    HW126846   0.517   4.354   5.148 -1.0554 -1.4604 -2.4279
 5129SOL    HW226847   0.501   4.499   5.161 -2.9444 -0.2859 -0.5704
 5130SOL     OW26848   4.306   3.485   0.894 -0.7240 -0.0486  0.2908
 5130SOL    HW126849   4.290   3.570   0.936  1.5220  0.6847 -0.3026
 5130SOL    HW226850   4.223   3.445   0.920  0.2140 -2.2980 -0.2091
 5131SOL     OW26851   4.614   1.028   3.801 -0.0334  0.3722 -0.0587
 5131SOL    HW126852   4.530   1.031   3.846  0.3413  0.6372  0.6274
 5131SOL    HW226853   4.582   1.000   3.716  1.0527 -0.0486 -0.3348
 5132SOL     OW26854   0.644   2.974  10.149 -0.4916  0.5713  0.2029
 5132SOL    HW126855   0.588   2.969  10.226 -0.3521  0.7761  0.3184
 5132SOL    HW226856   0.707   2.907  10.178  1.0077  1.7078 -0.4169
 5133SOL     OW26857   2.236   2.313   4.025  0.3726  0.3794 -0.4265
 5133SOL    HW126858   2.244   2.261   4.105  0.3108  2.0185  0.6335
 5133SOL    HW226859   2.195   2.389   4.066  0.6426 -0.2920  1.0883
 5134SOL     OW26860   0.660   1.866   2.823  0.3004  0.4130  0.0222
 5134SOL    HW126861   0.714   1.788   2.814  0.1199  0.2217  0.6140
 5134SOL    HW226862   0.570   1.842   2.846  0.7355 -1.0137  0.1916
 5135SOL     OW26863   4.660   2.869   0.715  0.3745 -0.4442 -0.4595
 5135SOL    HW126864   4.707   2.951   0.702  1.0470 -0.6106  0.9510
 5135SOL    HW226865   4.719   2.810   0.760  1.4206  2.0268  1.3793
 5136SOL     OW26866   2.847   3.960   8.194  0.1352  0.2879 -0.4892
 5136SOL    HW126867   2.878   3.988   8.280  0.0399 -0.0279 -0.3503
 5136SOL    HW226868   2.813   3.872   8.209 -1.4098  1.0550  0.4272
 5137SOL     OW26869   3.257   1.026   5.351  0.1031 -0.3347 -0.2684
 5137SOL    HW126870   3.318   1.056   5.284  1.8186  0.5684  1.6752
 5137SOL    HW226871   3.242   0.933   5.334  0.9395 -0.6357  0.6096
 5138SOL     OW26872   3.461   4.348   2.657 -0.4388  0.1591  0.9025
 5138SOL    HW126873   3.443   4.275   2.715  1.7492 -2.5821 -1.8917
 5138SOL    HW226874   3.389   4.332   2.596  1.0690  1.6145 -1.2682
 5139SOL     OW26875   1.581   0.581   8.012  0.1041  0.0412  0.6133
 5139SOL    HW126876   1.673   0.606   8.008  0.1214  0.1082  1.5306
 5139SOL    HW226877   1.581   0.493   8.049 -0.7973 -0.2970 -0.1782
 5140SOL     OW26878   2.168   0.325  10.034 -0.6036  0.2696 -0.2816
 5140SOL    HW126879   2.111   0.316   9.958 -0.1172  1.5929 -0.7947
 5140SOL    HW226880   2.160   0.239  10.076 -1.0115  0.6040  0.3384
 5141SOL     OW26881   1.145   1.292   7.921 -0.3160  0.6811  0.2377
 5141SOL    HW126882   1.075   1.350   7.892  0.0390 -0.3644 -2.6392
 5141SOL    HW226883   1.204   1.295   7.846 -0.8295  1.0842 -0.1415
 5142SOL     OW26884   2.566   2.821  17.210  0.6395  0.6375 -0.0951
 5142SOL    HW126885   2.586   2.758  17.141  2.1149 -0.2531  1.1572
 5142SOL    HW226886   2.477   2.850  17.192  0.6203  2.1006  2.3560
 5143SOL     OW26887   4.111   4.053   7.576  0.3582  0.1784  0.2422
 5143SOL    HW126888   4.112   4.109   7.498 -0.9041  0.3916  0.3846
 5143SOL    HW226889   4.190   4.085   7.619  0.5624  1.4211 -1.0517
 5144SOL     OW26890   2.385   2.291  10.893  0.0729 -0.4100 -0.3962
 5144SOL    HW126891   2.326   2.297  10.817 -1.2016 -4.1932  0.2643
 5144SOL    HW226892   2.318   2.287  10.962  0.6807  0.2517  0.2258
 5145SOL     OW26893   0.494   1.495   8.502 -0.3721 -0.1574  0.0287
 5145SOL    HW126894   0.429   1.530   8.442  0.5271  1.0022 -0.2707
 5145SOL    HW226895   0.518   1.412   8.460  0.7387 -0.4937  1.3277
 5146SOL     OW26896   2.896   1.064   6.097  0.3758  0.1752 -0.2676
 5146SOL    HW126897   2.929   0.975   6.113 -0.6517  0.0237  1.0318
 5146SOL    HW226898   2.851   1.071   6.182 -0.3221 -2.0185 -0.4706
 5147SOL     OW26899   1.968   1.919   8.888 -0.5908  0.1678  0.3453
 5147SOL    HW126900   2.015   1.868   8.953 -0.0787 -0.8158 -0.7920
 5147SOL    HW226901   1.982   2.004   8.928  0.7084  0.7031 -1.2208
 5148SOL     OW26902   1.406   0.749   1.461  0.3979 -0.3988  0.1457
 5148SOL    HW126903   1.414   0.716   1.550  1.0417  0.8181  0.5384
 5148SOL    HW226904   1.468   0.821   1.468 -0.4132  0.4463 -1.2708
 5149SOL     OW26905   1.732   0.200   1.965 -0.4847  0.2333 -0.4963
 5149SOL    HW126906   1.657   0.208   1.906 -0.8572  0.4184  0.0012
 5149SOL    HW226907   1.739   0.105   1.965 -0.1329  0.2553 -0.8668
 5150SOL     OW26908   3.523   0.826   4.510 -0.1420  0.4024 -0.0447
 5150SOL    HW126909   3.533   0.918   4.537 -0.6993  0.2650  0.6187
 5150SOL    HW226910   3.593   0.791   4.565  0.0781  0.9090  0.0004
 5151SOL     OW26911   0.071   3.260   5.101  0.1737  0.2411  0.4656
 5151SOL    HW126912   0.166   3.254   5.113  0.4966  2.2671 -1.0502
 5151SOL    HW226913   0.063   3.354   5.083 -1.2083 -0.0091 -0.1886
 5152SOL     OW26914   3.699   4.629   3.579 -0.5987  0.0512  0.4892
 5152SOL    HW126915   3.679   4.630   3.485  1.7114 -0.9480  0.0045
 5152SOL    HW226916   3.789   4.597   3.574 -1.7667 -2.6946 -3.2512
 5153SOL     OW26917   2.490   4.310   5.301  0.0178  0.1647  0.3223
 5153SOL    HW126918   2.484   4.286   5.208  0.4496 -0.3483  0.4293
 5153SOL    HW226919   2.396   4.316   5.317 -0.0854 -0.1107 -0.1718
 5154SOL     OW26920   2.139   3.612   4.695 -0.1860 -0.1566  0.0031
 5154SOL    HW126921   2.120   3.681   4.632 -0.2961 -2.8868 -2.9923
 5154SOL    HW226922   2.190   3.553   4.639  1.4321  1.1728  0.1012
 5155SOL     OW26923   0.757   3.512   8.244  0.1273  0.8440  0.3160
 5155SOL    HW126924   0.691   3.542   8.307 -0.6913 -1.2618  0.4635
 5155SOL    HW226925   0.737   3.419   8.253 -0.2415  0.8182 -0.7313
 5156SOL     OW26926   0.960   1.134   7.691 -0.5205  0.7587  0.3964
 5156SOL    HW126927   0.948   1.141   7.786  0.0983 -0.8980  0.5929
 5156SOL    HW226928   1.005   1.214   7.664  0.1535 -0.5593 -2.4303
 5157SOL     OW26929   2.563   3.579   5.528  0.2809  0.1426  0.4290
 5157SOL    HW126930   2.607   3.498   5.500 -2.1499 -0.5415 -1.4264
 5157SOL    HW226931   2.495   3.536   5.580 -1.9242  0.8986 -1.8521
 5158SOL     OW26932   2.414   0.816   3.577 -0.4678  0.9940  1.1589
 5158SOL    HW126933   2.433   0.905   3.608 -1.0851  1.6778 -0.3746
 5158SOL    HW226934   2.320   0.818   3.557 -0.1482 -0.0127 -0.4304
 5159SOL     OW26935   2.448   3.758   6.868 -0.1231 -0.5027 -0.8040
 5159SOL    HW126936   2.509   3.714   6.927 -0.7623  1.1478  1.1189
 5159SOL    HW226937   2.388   3.795   6.934  0.4214 -1.0731  0.0124
 5160SOL     OW26938   1.434   4.079   5.038  0.0154  0.4015  0.0306
 5160SOL    HW126939   1.413   4.110   5.126  0.4344 -2.2807  1.0593
 5160SOL    HW226940   1.398   3.991   5.047  0.6534  0.0429 -0.8753
 5161SOL     OW26941   2.442   0.495  13.856  0.3408 -0.0084 -0.1595
 5161SOL    HW126942   2.406   0.584  13.858 -1.8363 -0.8159 -3.4568
 5161SOL    HW226943   2.449   0.485  13.761  0.4479 -3.2215  0.1806
 5162SOL     OW26944   1.779   2.487   8.212 -0.2499 -0.4280  0.1990
 5162SOL    HW126945   1.743   2.418   8.157 -1.4110  1.1118 -0.9731
 5162SOL    HW226946   1.750   2.458   8.299  1.1716  1.2092  1.2140
 5163SOL     OW26947   1.275   4.643  16.465  0.2445 -0.5846 -0.1796
 5163SOL    HW126948   1.328   4.658  16.387  0.9889 -3.1749 -0.1874
 5163SOL    HW226949   1.201   4.700  16.444 -0.0342 -1.1793 -0.8340
 5164SOL     OW26950   4.472   1.603   8.094  0.3338  0.0575  0.0222
 5164SOL    HW126951   4.508   1.662   8.160  0.4073 -1.1573  1.0787
 5164SOL    HW226952   4.385   1.642   8.086 -0.3257 -1.4080 -0.0052
 5165SOL     OW26953   1.146   0.250   3.944  0.3035 -0.1268  0.3356
 5165SOL    HW126954   1.208   0.230   3.874 -0.0974 -1.5992  0.3985
 5165SOL    HW226955   1.148   0.176   4.004 -1.7224 -0.0126  0.5645
 5166SOL     OW26956   0.324   1.425  17.055  0.3135  0.3497  0.2589
 5166SOL    HW126957   0.383   1.382  17.116  1.2485 -0.4772 -1.2395
 5166SOL    HW226958   0.352   1.383  16.973 -0.4076 -0.0267  0.2038
 5167SOL     OW26959   2.910   4.531  17.186 -0.1106  0.3781 -0.4567
 5167SOL    HW126960   2.916   4.545  17.280  0.5041 -1.6622 -0.1940
 5167SOL    HW226961   2.885   4.440  17.166 -0.5469 -0.2293  2.8906
 5168SOL     OW26962   0.922   2.237   0.483  0.0229 -0.1800  0.6641
 5168SOL    HW126963   0.955   2.148   0.500  2.3833  0.2826 -1.4124
 5168SOL    HW226964   0.982   2.253   0.410 -1.7470 -0.7887 -0.9340
 5169SOL     OW26965   4.472   0.426   3.791 -0.7369  0.1731  0.3631
 5169SOL    HW126966   4.544   0.465   3.840 -1.0877  1.5066 -0.1840
 5169SOL    HW226967   4.409   0.414   3.862  1.5387  0.7727  2.4792
 5170SOL     OW26968   3.417   1.721   8.325 -0.0040 -0.5754  0.3103
 5170SOL    HW126969   3.390   1.639   8.285 -1.8931  1.2391 -2.1499
 5170SOL    HW226970   3.348   1.783   8.300  1.5742 -0.2828 -3.2489
 5171SOL     OW26971   1.228   4.542   6.481 -0.6002 -0.3640  0.1298
 5171SOL    HW126972   1.159   4.495   6.527 -0.3494 -1.9570 -1.1100
 5171SOL    HW226973   1.260   4.604   6.546 -1.5769 -0.4638  0.6984
 5172SOL     OW26974   3.750   1.373   1.067 -0.8936 -0.5394 -0.3747
 5172SOL    HW126975   3.677   1.419   1.024 -3.0143 -0.1354  3.6428
 5172SOL    HW226976   3.706   1.292   1.093  1.5030 -1.7065  0.0597
 5173SOL     OW26977   3.677   2.174   5.928 -0.4617  0.0350 -0.9740
 5173SOL    HW126978   3.715   2.261   5.939  0.4850 -0.0471 -3.6622
 5173SOL    HW226979   3.742   2.127   5.876  0.1705 -0.4301  0.2413
 5174SOL     OW26980   0.891   2.986   1.595 -0.2681 -0.5789 -0.4699
 5174SOL    HW126981   0.819   3.020   1.542  0.3563 -1.8354 -2.1382
 5174SOL    HW226982   0.855   2.923   1.657  0.1155 -1.1369 -0.8144
 5175SOL     OW26983   2.439   2.742   8.251 -0.2802  0.6036 -0.7010
 5175SOL    HW126984   2.349   2.720   8.229 -0.0363 -0.1206 -0.9859
 5175SOL    HW226985   2.453   2.684   8.326  2.3497  3.3191  0.8926
 5176SOL     OW26986   1.774   1.301   1.274 -0.1381 -0.4246  0.1906
 5176SOL    HW126987   1.698   1.319   1.329  0.8815  0.1170  1.4212
 5176SOL    HW226988   1.807   1.220   1.315  2.1004  0.4616  0.1576
 5177SOL     OW26989   3.736   3.668   3.453 -0.1436 -0.4859  0.6119
 5177SOL    HW126990   3.783   3.605   3.398 -1.3543 -0.7591 -0.1296
 5177SOL    HW226991   3.812   3.703   3.499 -1.3492  1.3368  1.1948
 5178SOL     OW26992   0.270   4.459   6.421 -0.4366 -0.5365  0.2496
 5178SOL    HW126993   0.209   4.470   6.347 -0.9730  0.9258  0.9236
 5178SOL    HW226994   0.287   4.550   6.444 -3.0054  0.0351 -0.0698
 5179SOL     OW26995   2.564   1.560  10.844 -0.2712 -0.4659 -0.5098
 5179SOL    HW126996   2.585   1.510  10.765 -0.5595 -0.3643 -0.6518
 5179SOL    HW226997   2.567   1.647  10.803  0.8013  0.0487  0.6499
 5180SOL     OW26998   0.041   2.415   6.510 -0.0998 -0.7895  0.1068
 5180SOL    HW126999   0.085   2.465   6.442 -1.1468  0.5952  0.4520
 5180SOL    HW227000   0.114   2.378   6.561  0.5979 -1.1666 -1.1833
 5181SOL     OW27001   2.258   1.861   4.253  0.2143  0.6327 -0.2541
 5181SOL    HW127002   2.235   1.826   4.166 -0.8942 -0.5440  0.5027
 5181SOL    HW227003   2.253   1.782   4.307  0.4443 -0.4297 -1.7913
 5182SOL     OW27004   1.024   2.467   6.920 -0.1266 -0.1414  0.9574
 5182SOL    HW127005   0.957   2.523   6.960  0.4566 -0.0594  1.8102
 5182SOL    HW227006   0.977   2.437   6.842 -0.5675 -1.0635  1.5740
 5183SOL     OW27007   1.459   3.750   3.301  0.1679  0.3466 -0.1949
 5183SOL    HW127008   1.476   3.717   3.213 -0.2795 -1.6101  0.4604
 5183SOL    HW227009   1.471   3.845   3.292 -0.6537  0.3788 -0.9218
 5184SOL     OW27010   3.367   1.031   5.084  0.0957  0.1199 -0.4076
 5184SOL    HW127011   3.400   1.120   5.095  0.8804 -0.4628  1.8275
 5184SOL    HW227012   3.322   1.043   5.000  2.1825  1.1074 -1.4026
 5185SOL     OW27013   4.403   4.264   2.084 -0.8907  0.1870  0.5266
 5185SOL    HW127014   4.448   4.344   2.058  3.2800 -2.1185  0.5817
 5185SOL    HW227015   4.448   4.251   2.167 -1.2644  2.6360  1.1070
 5186SOL     OW27016   4.667   0.521   3.970  0.7727 -0.6219 -0.6468
 5186SOL    HW127017   4.633   0.593   3.919 -1.7315 -1.8749 -0.7652
 5186SOL    HW227018   0.030   0.502   3.932  0.4418 -2.5583 -0.4549
 5187SOL     OW27019   3.967   3.906   3.894  0.1009 -0.1293 -0.4234
 5187SOL    HW127020   3.872   3.894   3.895  0.1358 -0.3679  0.2944
 5187SOL    HW227021   3.975   3.927   3.987 -0.4318  1.9235 -0.8364
 5188SOL     OW27022   0.730   2.476   8.876 -0.1238  0.0023  0.8646
 5188SOL    HW127023   0.818   2.499   8.907 -0.3207  0.9307  0.7427
 5188SOL    HW227024   0.744   2.479   8.781 -1.0215  1.2628  0.7693
 5189SOL     OW27025   1.550   0.040  13.179 -0.0239  0.4174 -0.1870
 5189SOL    HW127026   1.547   0.090  13.260 -1.2731  0.0200  0.0046
 5189SOL    HW227027   1.636   4.721  13.188  0.0599  0.8009  0.7743
 5190SOL     OW27028   0.842   2.225   7.421 -0.0153  0.1039  0.7201
 5190SOL    HW127029   0.756   2.266   7.408 -0.0763  0.0073  0.8183
 5190SOL    HW227030   0.838   2.173   7.501  2.3093  0.7631  1.2488
 5191SOL     OW27031   2.014   4.101   1.182 -0.0332 -0.8418  0.0069
 5191SOL    HW127032   2.105   4.118   1.206 -0.4007 -1.6077  1.9098
 5191SOL    HW227033   1.981   4.189   1.166  2.2681  0.2034  1.1189
 5192SOL     OW27034   3.430   1.093   5.728 -0.1486  0.1423  0.5509
 5192SOL    HW127035   3.426   1.151   5.804  0.0042 -1.0776  1.4995
 5192SOL    HW227036   3.339   1.084   5.702  0.0106  0.0589  0.0053
 5193SOL     OW27037   1.294   3.398   0.883  0.0853  0.3909 -1.0279
 5193SOL    HW127038   1.245   3.394   0.965  0.4169  1.4883 -0.7775
 5193SOL    HW227039   1.266   3.481   0.845 -2.2390 -0.3355 -0.8709
 5194SOL     OW27040   3.449   3.364   3.283 -0.2425  0.1028  0.4540
 5194SOL    HW127041   3.465   3.279   3.242 -0.2575  0.0814  0.4926
 5194SOL    HW227042   3.520   3.368   3.346  1.0295  3.5833 -1.2270
 5195SOL     OW27043   3.833   0.955   4.492 -0.9302  0.2687  0.1668
 5195SOL    HW127044   3.892   0.991   4.425  0.7958 -0.8352  1.1005
 5195SOL    HW227045   3.897   0.967   4.562 -0.1174 -2.6639 -0.0861
 5196SOL     OW27046   4.003   3.400   9.817  0.0774 -0.2425  0.2743
 5196SOL    HW127047   3.956   3.325   9.854  2.3773 -1.2346  1.1813
 5196SOL    HW227048   4.089   3.358   9.810  0.7938  1.0595  1.0945
 5197SOL     OW27049   0.492   3.477   4.133 -0.0291  0.1764 -0.1200
 5197SOL    HW127050   0.520   3.562   4.099  1.3650 -0.1546  0.1846
 5197SOL    HW227051   0.571   3.450   4.180 -0.1679 -0.0055  0.0087
 5198SOL     OW27052   3.206   2.884   5.486 -0.4468 -0.6051  0.2635
 5198SOL    HW127053   3.226   2.867   5.393 -0.6317 -0.7353  0.2473
 5198SOL    HW227054   3.115   2.852   5.486 -0.6881  0.1053  1.1511
 5199SOL     OW27055   4.621   4.392   2.852  0.1224  0.0742  0.6366
 5199SOL    HW127056   4.630   4.479   2.813 -0.3411 -1.0364 -1.9712
 5199SOL    HW227057   4.699   4.350   2.817  1.2326  2.2328  0.4886
 5200SOL     OW27058   1.512   3.079   5.681 -0.2100 -0.4583 -0.7932
 5200SOL    HW127059   1.536   3.146   5.617  0.2163 -0.1701 -0.3352
 5200SOL    HW227060   1.424   3.106   5.708 -0.3295 -0.4524 -1.1843
 5201SOL     OW27061   1.794   2.373   5.598  0.2360  0.4484  0.0825
 5201SOL    HW127062   1.859   2.376   5.527  0.0576 -5.2501 -0.3452
 5201SOL    HW227063   1.854   2.396   5.669  0.3977 -0.9266  0.3820
 5202SOL     OW27064   4.332   2.520  15.030 -0.4143 -0.2450 -0.6506
 5202SOL    HW127065   4.369   2.507  14.942  0.8865 -0.7090 -0.0392
 5202SOL    HW227066   4.408   2.541  15.085 -0.2425  0.3408 -1.1051
 5203SOL     OW27067   3.201   0.816  17.342 -0.1020 -0.0441 -0.1283
 5203SOL    HW127068   3.290   0.848  17.354 -0.0972 -0.1416  0.1094
 5203SOL    HW227069   3.153   0.889  17.302  1.0906  0.5431 -0.4965
 5204SOL     OW27070   1.449   1.189   0.996 -0.0135 -0.1307  0.2644
 5204SOL    HW127071   1.426   1.154   1.082  0.5302  0.4851  0.6642
 5204SOL    HW227072   1.492   1.113   0.956  1.3451  1.3508 -1.1305
 5205SOL     OW27073   3.567   1.302  11.209  0.5521  0.7962  0.0848
 5205SOL    HW127074   3.580   1.268  11.297  2.8800 -0.3652 -0.7076
 5205SOL    HW227075   3.658   1.329  11.200  0.3610  1.9600  1.7238
 5206SOL     OW27076   1.838   3.986   4.901 -0.0267  0.2108  0.3335
 5206SOL    HW127077   1.768   4.035   4.859 -0.8780  0.1328  1.6839
 5206SOL    HW227078   1.843   3.905   4.850 -1.6870 -1.2716  2.5783
 5207SOL     OW27079   4.044   2.152  17.109 -0.2047 -0.0925 -0.0124
 5207SOL    HW127080   4.089   2.164  17.025 -0.8218  0.6968 -0.2254
 5207SOL    HW227081   4.033   2.057  17.112  2.1354 -0.4261 -1.6193
 5208SOL     OW27082   4.680   1.243   6.757  0.1967  0.0315  0.1544
 5208SOL    HW127083   4.711   1.222   6.845  1.6071  1.6392  0.0334
 5208SOL    HW227084   4.635   1.163   6.731 -1.0697  0.5856  0.6426
 5209SOL     OW27085   0.407   0.602   7.879 -0.3421  0.1069  0.3291
 5209SOL    HW127086   0.473   0.548   7.836  1.6827  1.2858  1.9534
 5209SOL    HW227087   0.375   0.542   7.947 -0.1109 -0.5956 -0.1892
 5210SOL     OW27088   2.825   0.657   4.246 -0.3438 -0.2798 -0.0215
 5210SOL    HW127089   2.900   0.688   4.196  1.0942 -2.2942  0.9058
 5210SOL    HW227090   2.811   0.568   4.213 -0.8118 -0.9293  1.9143
 5211SOL     OW27091   3.068   3.659  15.439 -0.0509  0.5351 -0.4031
 5211SOL    HW127092   3.071   3.656  15.343  1.6986 -0.9588 -0.3047
 5211SOL    HW227093   3.035   3.572  15.460  2.2056 -0.3200 -0.3613
 5212SOL     OW27094   1.391   0.044   9.351 -0.3132  0.2929  0.0812
 5212SOL    HW127095   1.308   0.014   9.387 -0.9539  2.0691  0.0483
 5212SOL    HW227096   1.404   4.701   9.282  0.7435  0.7562 -0.1652
 5213SOL     OW27097   2.530   1.265   8.110  0.1867  0.0184  0.1559
 5213SOL    HW127098   2.435   1.256   8.103  0.4156 -1.3910 -1.0365
 5213SOL    HW227099   2.534   1.338   8.172  0.8385 -1.4830  1.8820
 5214SOL     OW27100   2.350   2.977   9.476 -0.1583  0.0299  0.4269
 5214SOL    HW127101   2.275   2.943   9.428  0.0381 -0.2534  0.3212
 5214SOL    HW227102   2.339   3.069   9.450  1.2817 -0.3895 -1.6832
 5215SOL     OW27103   2.612   2.291   6.070  0.2213  0.2302  0.0766
 5215SOL    HW127104   2.532   2.330   6.104 -1.2578 -1.8515 -1.0000
 5215SOL    HW227105   2.627   2.354   5.999 -1.8672 -0.6714 -1.1505
 5216SOL     OW27106   2.042   0.788   8.133 -0.0439 -0.1153  0.0316
 5216SOL    HW127107   2.120   0.799   8.188 -0.7901  3.8893  0.2432
 5216SOL    HW227108   1.967   0.827   8.177 -0.1622  0.4199 -0.6686
 5217SOL     OW27109   4.071   4.315   8.675  0.0828  0.1625 -0.0010
 5217SOL    HW127110   3.996   4.290   8.622 -1.2228  3.8771  0.0610
 5217SOL    HW227111   4.132   4.245   8.653 -0.6330  0.1003 -1.7612
 5218SOL     OW27112   2.371   0.007   5.750  0.0157 -0.0981 -0.2315
 5218SOL    HW127113   2.401   4.677   5.676  2.6281  0.0429  0.7564
 5218SOL    HW227114   2.362   0.095   5.712  1.7870 -0.0132 -0.4541
 5219SOL     OW27115   4.722   3.899   1.788 -0.2453 -0.0307  0.6352
 5219SOL    HW127116   4.649   3.960   1.792 -0.5581 -0.3900  0.3946
 5219SOL    HW227117   4.674   3.822   1.755  0.5710  0.1390 -0.9613
 5220SOL     OW27118   4.626   4.374   8.864 -0.2455  0.1572  0.1246
 5220SOL    HW127119   4.591   4.306   8.806 -1.1084  1.3763 -0.7849
 5220SOL    HW227120   4.549   4.429   8.880 -1.2297 -1.2461  0.2551
 5221SOL     OW27121   4.336   0.864   3.539  0.0658  0.4857  0.1517
 5221SOL    HW127122   4.374   0.791   3.587  0.5013 -0.2744 -1.3425
 5221SOL    HW227123   4.254   0.821   3.515  1.4109 -1.0282 -1.7218
 5222SOL     OW27124   3.477   0.697  14.106 -0.1496  0.0595  0.2575
 5222SOL    HW127125   3.426   0.773  14.132  2.4328  1.4464  1.2516
 5222SOL    HW227126   3.500   0.666  14.194 -0.4930 -1.5387 -0.1997
 5223SOL     OW27127   1.312   0.919   0.353 -0.0466 -0.0285  0.2313
 5223SOL    HW127128   1.337   1.000   0.398  2.5801  0.1959 -1.6644
 5223SOL    HW227129   1.391   0.865   0.359 -0.2687 -0.4093 -0.2956
 5224SOL     OW27130   3.866   2.801   1.908 -0.1807  0.1179  0.9018
 5224SOL    HW127131   3.784   2.840   1.877  0.0816  0.1062  0.1892
 5224SOL    HW227132   3.929   2.868   1.882  0.7873 -1.1162  0.1008
 5225SOL     OW27133   1.255   0.392  14.907 -0.0247  0.2587 -0.3992
 5225SOL    HW127134   1.192   0.412  14.976  0.6829 -0.8861  0.5817
 5225SOL    HW227135   1.232   0.307  14.871 -1.8693  0.8141 -0.5481
 5226SOL     OW27136   4.027   4.676   7.236 -0.2552 -0.1297  0.1484
 5226SOL    HW127137   4.079   4.703   7.160 -0.8590  3.1052  0.8909
 5226SOL    HW227138   4.087   4.630   7.295 -0.1788  1.8220  1.5900
 5227SOL     OW27139   0.088   4.336   2.019  0.1088 -0.3258 -0.5787
 5227SOL    HW127140   0.145   4.295   2.084 -1.0440  1.0880  1.3254
 5227SOL    HW227141   0.143   4.349   1.942  0.2102  0.5813 -0.3502
 5228SOL     OW27142   0.973   0.992  11.279 -0.6626  0.3721  0.6936
 5228SOL    HW127143   0.957   0.961  11.190 -0.7986 -1.9242  1.5058
 5228SOL    HW227144   1.068   0.985  11.279 -0.4836  2.8151 -1.5082
 5229SOL     OW27145   1.620   4.514   8.480  0.6785  0.1490  0.2633
 5229SOL    HW127146   1.579   4.563   8.552  4.2342  2.3956  0.7597
 5229SOL    HW227147   1.607   4.429   8.522  1.3304  0.4500  1.0873
 5230SOL     OW27148   3.078   0.307   4.423  0.1634 -0.8984 -0.4888
 5230SOL    HW127149   3.067   0.402   4.417 -0.2538 -0.8857  0.5522
 5230SOL    HW227150   3.081   0.285   4.330  1.8054  2.5066 -1.2236
 5231SOL     OW27151   0.820   4.029  15.012 -0.4428 -0.3016 -0.6413
 5231SOL    HW127152   0.900   4.018  14.960  1.0407  0.0279  1.5392
 5231SOL    HW227153   0.748   3.995  14.959 -1.0597 -0.5423  0.3477
 5232SOL     OW27154   0.954   3.187   4.393  0.6902  0.4035 -0.2089
 5232SOL    HW127155   0.970   3.259   4.332 -0.5261  0.1875 -0.7839
 5232SOL    HW227156   1.004   3.116   4.353  0.1553 -1.3294  2.2053
 5233SOL     OW27157   3.303   3.105   8.063 -0.3939  0.2482  0.5688
 5233SOL    HW127158   3.349   3.128   8.144  0.8871 -2.5206  0.6128
 5233SOL    HW227159   3.261   3.190   8.053  0.4961  0.6377  0.1366
 5234SOL     OW27160   0.796   3.480   3.877  0.4787  0.1438  0.0889
 5234SOL    HW127161   0.714   3.493   3.829 -1.0938 -2.8005  2.0079
 5234SOL    HW227162   0.807   3.564   3.922  3.9212  0.1792 -0.8703
 5235SOL     OW27163   0.505   2.146   2.661 -0.5080 -0.4626 -0.4193
 5235SOL    HW127164   0.503   2.129   2.755  1.7459 -1.0480 -0.4585
 5235SOL    HW227165   0.441   2.090   2.618  0.4962 -1.3736 -0.7405
 5236SOL     OW27166   3.776   0.839   8.295  0.1813  0.2117  0.0827
 5236SOL    HW127167   3.773   0.929   8.325  0.3410  0.4490 -0.6018
 5236SOL    HW227168   3.757   0.844   8.201  0.3914 -0.9915 -0.0259
 5237SOL     OW27169   3.614   4.452  17.194  0.2786  0.1929  0.4629
 5237SOL    HW127170   3.677   4.523  17.187 -0.3844  0.5820 -1.4446
 5237SOL    HW227171   3.555   4.487  17.261  0.5273  2.3223 -0.4540
 5238SOL     OW27172   2.065   4.048  10.433  0.3813  0.5151 -0.0715
 5238SOL    HW127173   2.081   4.131  10.478  0.5627 -0.7542  2.1867
 5238SOL    HW227174   2.014   4.077  10.357  1.1257 -1.6810 -1.4036
 5239SOL     OW27175   0.771   0.386   4.577  0.0143  0.1744  0.1657
 5239SOL    HW127176   0.834   0.345   4.637 -1.1958  1.3315  2.2097
 5239SOL    HW227177   0.829   0.454   4.542 -0.7374  0.3596 -0.7398
 5240SOL     OW27178   0.720   0.811   8.802 -0.5074  0.0565 -0.6774
 5240SOL    HW127179   0.792   0.858   8.760  1.9721 -1.3391  1.9966
 5240SOL    HW227180   0.647   0.870   8.782  0.2104  1.7222  1.5506
 5241SOL     OW27181   0.777   0.882  13.201  0.5403  0.5756  0.2050
 5241SOL    HW127182   0.776   0.830  13.281  1.3910 -0.3131 -0.3517
 5241SOL    HW227183   0.835   0.830  13.145  0.7223  0.2797  0.6630
 5242SOL     OW27184   0.727   2.773   5.384  0.1135 -0.2212 -0.0453
 5242SOL    HW127185   0.652   2.748   5.330  0.2335  0.7199 -0.6431
 5242SOL    HW227186   0.756   2.852   5.338 -2.5704  0.1580 -1.0580
 5243SOL     OW27187   0.257   3.857   4.507 -0.3459  0.1553  0.1034
 5243SOL    HW127188   0.220   3.769   4.501 -1.4453  0.7408 -1.9222
 5243SOL    HW227189   0.306   3.859   4.589  1.2369 -1.2531 -0.8042
 5244SOL     OW27190   1.292   1.893  11.831 -0.6084 -0.1567 -0.5382
 5244SOL    HW127191   1.305   1.901  11.925 -2.1960  0.5249 -0.3729
 5244SOL    HW227192   1.263   1.984  11.824 -0.9848 -0.1096  1.6938
 5245SOL     OW27193   0.022   0.740  16.579  0.2580 -0.5796 -0.0453
 5245SOL    HW127194   4.671   0.793  16.608 -1.0201 -1.3576 -1.9190
 5245SOL    HW227195   0.094   0.797  16.608  0.0572 -0.7877  0.8735
 5246SOL     OW27196   3.587   3.317   6.170 -0.0507  0.2884 -0.5378
 5246SOL    HW127197   3.636   3.382   6.120 -1.8271  0.5375 -1.9728
 5246SOL    HW227198   3.667   3.266   6.180 -0.2439  0.5937  2.5280
 5247SOL     OW27199   0.599   3.178   3.765  0.4763  0.4873  0.6578
 5247SOL    HW127200   0.514   3.223   3.769  0.1194 -0.0171 -1.3314
 5247SOL    HW227201   0.642   3.259   3.739 -0.7620  0.4595 -1.5163
 5248SOL     OW27202   0.134   3.807   2.037 -0.1267 -0.0665 -0.3085
 5248SOL    HW127203   0.087   3.850   1.966  0.8369  1.1592 -0.2100
 5248SOL    HW227204   0.185   3.744   1.986 -2.2389 -2.8149  0.9275
 5249SOL     OW27205   4.344   1.967   2.645  0.3440  0.4819 -0.5130
 5249SOL    HW127206   4.265   1.981   2.593 -0.8970  0.7572  1.4116
 5249SOL    HW227207   4.325   1.992   2.736 -0.7814  0.7751 -0.8277
 5250SOL     OW27208   2.758   0.530   0.841  0.2313  0.2961  0.2115
 5250SOL    HW127209   2.796   0.578   0.914  0.7960 -1.3451  1.0092
 5250SOL    HW227210   2.702   0.469   0.888  0.0106 -0.7985 -1.4708
 5251SOL     OW27211   4.085   3.401  15.998 -0.1375 -0.0679 -0.2043
 5251SOL    HW127212   4.057   3.493  15.997 -0.6617 -0.2680 -3.2705
 5251SOL    HW227213   4.168   3.399  15.950  0.5621  0.4751  0.9911
 5252SOL     OW27214   3.780   2.055   4.996  0.0982 -0.1051  0.6385
 5252SOL    HW127215   3.839   2.008   5.055  0.5504  1.4921  1.4327
 5252SOL    HW227216   3.832   2.134   4.998 -2.6349  1.6288  2.9678
 5253SOL     OW27217   0.278   0.009   2.720 -0.0733  0.0695  0.3614
 5253SOL    HW127218   0.272   0.089   2.772 -1.6172 -0.9424  1.7528
 5253SOL    HW227219   0.256   4.666   2.786  0.8422 -1.0855 -0.4768
 5254SOL     OW27220   2.475   1.901   0.693 -0.3800 -0.0537 -0.2166
 5254SOL    HW127221   2.436   1.841   0.757  3.7630 -1.3734  1.0846
 5254SOL    HW227222   2.504   1.839   0.626 -2.6089 -0.1144 -1.1134
 5255SOL     OW27223   4.100   3.902   4.930 -0.0510  0.2824  0.1889
 5255SOL    HW127224   4.029   3.930   4.872  0.4661 -0.8616 -0.9953
 5255SOL    HW227225   4.054   3.888   5.013  0.6343 -1.1694  0.3334
 5256SOL     OW27226   0.476   3.274   2.676  0.3046 -0.6689 -0.0218
 5256SOL    HW127227   0.522   3.358   2.670  2.6158 -1.7981  2.0932
 5256SOL    HW227228   0.387   3.308   2.685  0.2614 -0.1722 -2.2692
 5257SOL     OW27229   4.537   3.437  13.429  0.2009  0.2636  0.5293
 5257SOL    HW127230   4.615   3.478  13.391  0.8136  0.4247  1.9338
 5257SOL    HW227231   4.468   3.469  13.372  0.0560  0.4707  0.8219
 5258SOL     OW27232   0.617   4.077  14.215  0.2519  0.5073  0.4237
 5258SOL    HW127233   0.698   4.073  14.163  0.0112  1.3350 -0.0069
 5258SOL    HW227234   0.550   4.022  14.174 -1.0183  2.7138 -0.4531
 5259SOL     OW27235   3.500   3.244  16.962 -0.4413  0.0435 -0.3244
 5259SOL    HW127236   3.469   3.259  17.051  0.2798  0.4494 -0.1480
 5259SOL    HW227237   3.583   3.288  16.947 -1.0657  0.6798 -1.9559
 5260SOL     OW27238   1.005   1.021   0.575  0.5976 -0.0179 -0.3149
 5260SOL    HW127239   1.032   1.097   0.523  0.9162 -0.2916 -0.5472
 5260SOL    HW227240   0.916   1.052   0.589  2.2053  2.9295  3.3391
 5261SOL     OW27241   1.194   0.865   9.256  0.4689 -0.7205 -0.4732
 5261SOL    HW127242   1.222   0.775   9.271  0.7475 -0.2482  1.8027
 5261SOL    HW227243   1.107   0.849   9.219 -0.3964  0.7237  0.9335
 5262SOL     OW27244   1.709   1.706   6.201 -0.6124  0.6785 -0.0322
 5262SOL    HW127245   1.767   1.674   6.132  0.8331  1.4912  0.7962
 5262SOL    HW227246   1.714   1.800   6.183  0.0950  0.5810 -0.3529
 5263SOL     OW27247   4.261   2.657   1.922 -0.0624 -0.8099 -0.5267
 5263SOL    HW127248   4.333   2.694   1.871 -0.0267 -0.3943 -0.1727
 5263SOL    HW227249   4.191   2.692   1.867  1.1326 -0.9107 -2.1093
 5264SOL     OW27250   3.443   3.620   3.153 -0.1736  0.1272  0.0213
 5264SOL    HW127251   3.437   3.689   3.219 -0.7278 -2.5532  2.7752
 5264SOL    HW227252   3.453   3.537   3.198 -1.5897  0.4014  0.8655
 5265SOL     OW27253   4.700   4.109   5.253  0.0096  0.0515  0.0802
 5265SOL    HW127254   4.645   4.158   5.192  0.8468  2.1480  1.0044
 5265SOL    HW227255   0.067   4.123   5.221 -0.6528  3.0144 -0.5429
 5266SOL     OW27256   0.714   1.436   4.324  0.0417 -0.1485 -0.0157
 5266SOL    HW127257   0.782   1.503   4.331  0.1607 -0.1976 -0.7464
 5266SOL    HW227258   0.769   1.360   4.308  0.8247  0.9704 -2.6039
 5267SOL     OW27259   0.727   2.972   4.045  0.0593  0.4854  0.0323
 5267SOL    HW127260   0.725   3.068   4.042  0.3452  0.5426  1.6290
 5267SOL    HW227261   0.691   2.954   3.958  0.4781 -2.5988  0.4966
 5268SOL     OW27262   0.993   0.421   2.401  0.4880  0.0087  0.0596
 5268SOL    HW127263   0.910   0.422   2.353 -1.0673 -0.0639  2.7539
 5268SOL    HW227264   1.048   0.373   2.340 -1.9335 -2.2346 -0.3563
 5269SOL     OW27265   3.929   4.288  13.027  0.4405 -0.3816 -0.4263
 5269SOL    HW127266   3.981   4.362  12.995 -0.2093 -1.1805 -3.2603
 5269SOL    HW227267   4.003   4.236  13.057 -0.0329 -0.9600 -0.2697
 5270SOL     OW27268   4.088   0.812   8.851 -0.2278  0.1922 -0.4836
 5270SOL    HW127269   4.154   0.746   8.829 -0.7928 -0.2319 -0.8968
 5270SOL    HW227270   4.116   0.840   8.938 -0.0328  0.9202 -0.7863
 5271SOL     OW27271   2.541   3.270   7.357  0.6265  0.0588 -0.2620
 5271SOL    HW127272   2.589   3.191   7.379  3.3643  1.6035 -0.7194
 5271SOL    HW227273   2.460   3.233   7.320 -0.5088  1.4703  0.7993
 5272SOL     OW27274   1.367   0.931   3.836 -0.1374  0.0136 -0.4656
 5272SOL    HW127275   1.337   0.841   3.824  1.0173 -0.4849  0.3732
 5272SOL    HW227276   1.299   0.971   3.890 -1.2639 -1.4825 -0.7698
 5273SOL     OW27277   0.622   2.604   9.605 -0.4843 -0.3433  0.3505
 5273SOL    HW127278   0.529   2.590   9.588 -0.5723 -1.4083  1.7066
 5273SOL    HW227279   0.659   2.516   9.592  0.7752 -0.0310  1.8616
 5274SOL     OW27280   3.323   0.852   0.974 -0.2143  0.2648  0.0544
 5274SOL    HW127281   3.336   0.797   1.052  0.0189  1.9825  1.2414
 5274SOL    HW227282   3.401   0.831   0.923  0.5280  0.1944  1.2110
 5275SOL     OW27283   2.359   0.699   4.553 -0.4698  0.0554 -0.6526
 5275SOL    HW127284   2.395   0.695   4.642 -0.6494 -1.4006 -0.6480
 5275SOL    HW227285   2.424   0.749   4.505 -0.3012  0.7604  0.2988
 5276SOL     OW27286   2.284   2.775   3.901  0.3456  0.4545  0.6954
 5276SOL    HW127287   2.368   2.820   3.901  0.1608  0.8158 -0.1681
 5276SOL    HW227288   2.316   2.702   3.954  0.3744 -0.7471 -0.9847
 5277SOL     OW27289   2.967   2.548   3.790 -0.2203  0.3950  0.1687
 5277SOL    HW127290   2.893   2.519   3.737  0.9415 -0.3775 -1.0334
 5277SOL    HW227291   2.999   2.626   3.744  0.1573  0.8927  1.2689
 5278SOL     OW27292   0.483   0.190   5.705  0.6241 -0.2986 -0.1989
 5278SOL    HW127293   0.494   0.103   5.668 -0.4985 -1.4935  2.2651
 5278SOL    HW227294   0.467   0.167   5.797 -1.5736 -0.3016 -0.5831
 5279SOL     OW27295   1.982   1.212   1.979  0.0404 -0.1711  0.1568
 5279SOL    HW127296   2.044   1.184   1.912  0.7498  0.1465  0.6713
 5279SOL    HW227297   1.913   1.251   1.926  1.4974  0.3592 -1.3226
 5280SOL     OW27298   1.461   2.411  14.306 -0.3897  0.1015 -0.1381
 5280SOL    HW127299   1.414   2.359  14.240 -1.4182  0.2604  0.4868
 5280SOL    HW227300   1.392   2.464  14.344  0.2394 -0.6030  1.9613
 5281SOL     OW27301   3.526   1.237  10.143 -0.6207 -0.1325 -0.2546
 5281SOL    HW127302   3.547   1.158  10.093  1.2299  0.0259  0.2860
 5281SOL    HW227303   3.438   1.209  10.167 -0.1456 -2.3597 -1.1776
 5282SOL     OW27304   4.192   2.488   2.532 -0.3598 -0.2645  0.1517
 5282SOL    HW127305   4.188   2.487   2.437 -0.5534  0.0110  0.1567
 5282SOL    HW227306   4.280   2.524   2.543 -0.1365 -1.1429  1.3190
 5283SOL     OW27307   0.623   3.838   5.005 -0.5984  0.0638 -0.1023
 5283SOL    HW127308   0.576   3.765   4.964 -0.8105 -1.5465  2.9746
 5283SOL    HW227309   0.715   3.813   5.002 -0.2468  1.0894  2.1768
 5284SOL     OW27310   2.828   0.958   4.591  0.5825  0.5458 -0.0762
 5284SOL    HW127311   2.821   0.999   4.505  2.5875 -0.4885 -0.7590
 5284SOL    HW227312   2.917   0.979   4.621  0.5665  0.4092  0.0711
 5285SOL     OW27313   1.884   1.496   5.146  0.1313 -0.4947  0.5434
 5285SOL    HW127314   1.941   1.505   5.222  0.2811  0.0691  0.3681
 5285SOL    HW227315   1.820   1.563   5.172 -0.6000 -0.9331 -0.0986
 5286SOL     OW27316   1.655   3.744   3.783  0.1565  0.4084  0.1770
 5286SOL    HW127317   1.629   3.821   3.734  1.9041  0.3579 -0.8361
 5286SOL    HW227318   1.618   3.771   3.867  1.6662  1.7059  0.4167
 5287SOL     OW27319   2.635   0.955   5.040  0.0345  0.3314 -0.0257
 5287SOL    HW127320   2.615   0.882   4.980 -2.1709 -0.6819  1.9380
 5287SOL    HW227321   2.722   0.985   5.015  1.0959 -1.5553  1.3621
 5288SOL     OW27322   4.334   1.261   8.140  0.8987 -0.2846  0.0673
 5288SOL    HW127323   4.361   1.208   8.065  0.2502  0.5303 -0.7277
 5288SOL    HW227324   4.241   1.243   8.132  0.3559  2.0900  1.1912
 5289SOL     OW27325   0.802   0.392  14.713  0.0321  0.1382  0.0305
 5289SOL    HW127326   0.737   0.336  14.756  0.7262 -0.8246 -0.1811
 5289SOL    HW227327   0.876   0.332  14.717  0.0567  0.2271  0.8633
 5290SOL     OW27328   1.983   3.139  11.228  0.3774 -0.0495  0.2320
 5290SOL    HW127329   1.925   3.131  11.153 -0.5860 -0.2679  1.0071
 5290SOL    HW227330   2.001   3.047  11.247 -0.4195 -0.5186 -1.3152
 5291SOL     OW27331   3.590   2.690   5.730 -0.1978 -0.6444  0.1048
 5291SOL    HW127332   3.544   2.669   5.811 -0.3274  1.8063  0.6611
 5291SOL    HW227333   3.545   2.765   5.692  0.9780 -0.5389 -1.0591
 5292SOL     OW27334   0.659   0.993   2.250 -0.0346 -0.1728 -0.6694
 5292SOL    HW127335   0.695   0.926   2.192  0.7387 -1.2389  1.0340
 5292SOL    HW227336   0.735   1.049   2.267 -0.7027  0.0337  1.6160
 5293SOL     OW27337   3.978   3.445   5.783 -0.1401 -0.5471  0.1854
 5293SOL    HW127338   4.067   3.428   5.815  0.5522 -0.3242 -1.6162
 5293SOL    HW227339   3.969   3.538   5.762 -0.5902 -0.1353  2.1506
 5294SOL     OW27340   1.099   0.074   4.961 -0.1650 -0.2587  0.4032
 5294SOL    HW127341   1.077   0.119   5.042 -1.2941  1.1430 -0.6596
 5294SOL    HW227342   1.033   0.122   4.910  1.8149  0.8756 -1.0991
 5295SOL     OW27343   1.353   1.071   2.235  0.2433  0.1173 -0.9496
 5295SOL    HW127344   1.367   1.050   2.142  1.2044 -2.6496 -0.1737
 5295SOL    HW227345   1.379   1.163   2.237 -2.3932  0.8607 -1.3764
 5296SOL     OW27346   1.764   3.907   9.583  0.8746  0.2643  0.2929
 5296SOL    HW127347   1.765   3.836   9.648  3.5292  1.6321  1.7684
 5296SOL    HW227348   1.705   3.966   9.630  1.0145  1.5575 -1.1706
 5297SOL     OW27349   3.314   0.477   3.889  0.1707 -0.0792  0.1716
 5297SOL    HW127350   3.377   0.441   3.826 -2.0356  0.1786 -2.1349
 5297SOL    HW227351   3.363   0.461   3.971 -0.7622  0.0094  0.7426
 5298SOL     OW27352   3.978   3.073  17.106 -0.4421  0.2326  0.6890
 5298SOL    HW127353   4.050   3.121  17.066 -0.8558  0.9078  0.7500
 5298SOL    HW227354   3.952   3.128  17.180  0.0215  3.0273 -1.2378
 5299SOL     OW27355   4.225   3.621   9.782 -0.4457  0.4592  0.2614
 5299SOL    HW127356   4.136   3.588   9.775 -0.6668  0.8036  1.3232
 5299SOL    HW227357   4.239   3.627   9.877  1.8710 -0.8510  0.0032
 5300SOL     OW27358   2.860   0.429  17.340 -0.6159  0.1662  0.4012
 5300SOL    HW127359   2.938   0.482  17.323 -0.5927  0.1383  0.4226
 5300SOL    HW227360   2.895   0.345  17.310  1.3798  1.2888 -0.4166
 5301SOL     OW27361   3.988   2.898  14.488  0.1814  0.1487  0.7433
 5301SOL    HW127362   3.993   2.848  14.406  0.4774 -0.1440  0.9424
 5301SOL    HW227363   3.904   2.933  14.456 -0.2655 -1.9966 -0.4468
 5302SOL     OW27364   0.754   0.049  14.446  0.1095  0.7994  0.1508
 5302SOL    HW127365   0.686   0.085  14.503 -0.2165 -0.0650  0.3007
 5302SOL    HW227366   0.716   4.687  14.423  2.7347  0.0772 -1.5600
 5303SOL     OW27367   4.266   0.430  10.737  0.2176 -0.3164  0.2254
 5303SOL    HW127368   4.259   0.525  10.726 -2.9480 -0.4717  0.9921
 5303SOL    HW227369   4.211   0.397  10.666 -1.9330 -0.4379  1.9835
 5304SOL     OW27370   2.773   2.255   8.918  0.0963 -0.3710  0.2981
 5304SOL    HW127371   2.777   2.206   8.836 -2.4311  1.5910 -0.9952
 5304SOL    HW227372   2.698   2.308   8.893  2.3165  3.6063  1.9094
 5305SOL     OW27373   3.197   1.762   2.112  0.0984 -0.0846 -0.0489
 5305SOL    HW127374   3.122   1.708   2.087  1.4866 -2.0009 -0.0634
 5305SOL    HW227375   3.180   1.829   2.045 -0.6190 -0.3654 -0.1470
 5306SOL     OW27376   4.227   1.695   7.996 -0.3597  0.2882 -0.0496
 5306SOL    HW127377   4.177   1.627   7.950 -0.5266  0.2971  0.1183
 5306SOL    HW227378   4.166   1.768   7.998  0.2694  0.7793  1.8711
 5307SOL     OW27379   2.986   4.331   7.550  0.4788 -0.2479  0.3936
 5307SOL    HW127380   3.019   4.331   7.460 -0.2089  0.5476  0.1504
 5307SOL    HW227381   2.900   4.295   7.527  1.4881 -2.5995  0.2692
 5308SOL     OW27382   2.244   2.252   9.930 -0.0956 -0.0870 -0.1182
 5308SOL    HW127383   2.249   2.160   9.906  0.3718  0.3255 -1.5901
 5308SOL    HW227384   2.227   2.235  10.023 -0.6387  1.6408  0.0968
 5309SOL     OW27385   1.545   2.819  11.328  0.3568  0.5296 -0.0151
 5309SOL    HW127386   1.564   2.881  11.398  0.8742  0.5564 -0.1717
 5309SOL    HW227387   1.450   2.818  11.324  0.3758 -2.1481  0.0774
 5310SOL     OW27388   3.281   1.969   7.844 -0.8551 -0.0572  0.4559
 5310SOL    HW127389   3.280   2.054   7.888  1.0221 -0.0228  0.4025
 5310SOL    HW227390   3.242   1.990   7.759  0.8966 -0.2456 -0.3818
 5311SOL     OW27391   1.163   0.886   4.856 -0.1310 -0.9028 -0.9214
 5311SOL    HW127392   1.173   0.820   4.924 -1.5295  2.6857  2.7604
 5311SOL    HW227393   1.071   0.867   4.836 -1.1284  1.5018  1.4890
 5312SOL     OW27394   0.517   4.030   2.135 -0.0962 -0.9978  0.1128
 5312SOL    HW127395   0.487   4.105   2.083 -2.6331 -1.0677  1.4985
 5312SOL    HW227396   0.475   3.953   2.097  1.9498 -1.3197 -1.5182
 5313SOL     OW27397   4.364   2.351   5.743 -0.0695  0.0506  0.1071
 5313SOL    HW127398   4.423   2.298   5.690  0.7843  0.7112  0.4150
 5313SOL    HW227399   4.379   2.437   5.705 -1.2328 -0.2426 -1.0605
 5314SOL     OW27400   2.528   2.276  13.361 -0.1605 -0.3984 -0.0419
 5314SOL    HW127401   2.568   2.244  13.442 -0.6866 -1.4404 -0.2031
 5314SOL    HW227402   2.461   2.209  13.351 -1.1248  0.6885 -0.7621
 5315SOL     OW27403   2.350   2.008   2.827 -0.5793  0.1584  0.0826
 5315SOL    HW127404   2.306   2.054   2.898 -0.7001 -0.0334  0.1312
 5315SOL    HW227405   2.338   2.082   2.768 -2.2332 -0.5310 -0.4468
 5316SOL     OW27406   2.587   1.432  15.548 -0.3952  0.3798  0.0070
 5316SOL    HW127407   2.553   1.413  15.460 -1.8154  0.7877  0.4773
 5316SOL    HW227408   2.530   1.379  15.604  0.6320  1.7278  2.3181
 5317SOL     OW27409   3.775   3.158   3.305  0.0589  0.1077  0.5093
 5317SOL    HW127410   3.717   3.159   3.229  1.8085  2.4817 -0.7898
 5317SOL    HW227411   3.784   3.253   3.310 -1.1893  0.1564  1.8212
 5318SOL     OW27412   3.166   2.799   1.745  0.0523 -0.5703 -0.1156
 5318SOL    HW127413   3.165   2.863   1.674  1.4307  1.3279  1.5604
 5318SOL    HW227414   3.236   2.834   1.801 -0.3414  2.5573 -1.5582
 5319SOL     OW27415   3.116   1.380  11.881  0.1318  0.1608 -0.1198
 5319SOL    HW127416   3.157   1.376  11.968 -1.0110  0.7293  0.4494
 5319SOL    HW227417   3.107   1.286  11.871 -0.9580  0.1316  1.0175
 5320SOL     OW27418   2.970   1.226   4.021  0.3141  0.2940 -1.0869
 5320SOL    HW127419   2.889   1.268   4.050 -0.2265 -1.8800  0.5734
 5320SOL    HW227420   3.008   1.185   4.099 -1.0342 -1.6839 -1.4573
 5321SOL     OW27421   4.169   2.845   5.393 -0.2602 -0.2765  0.6742
 5321SOL    HW127422   4.112   2.882   5.325  1.0316 -0.2788 -0.4082
 5321SOL    HW227423   4.123   2.769   5.426  0.7001 -1.5276 -0.8711
 5322SOL     OW27424   2.737   3.726  16.243 -0.5371  0.4280 -1.1563
 5322SOL    HW127425   2.771   3.759  16.160 -1.7267  2.4973 -0.8354
 5322SOL    HW227426   2.743   3.793  16.311  1.0709 -3.0714  2.1359
 5323SOL     OW27427   3.498   0.377   9.116  0.2485  0.2139  0.1295
 5323SOL    HW127428   3.425   0.435   9.095 -0.8593 -1.2951 -0.2127
 5323SOL    HW227429   3.462   0.289   9.124  0.1599  0.3348  1.0307
 5324SOL     OW27430   3.101   2.102  16.726  0.7987  0.4954 -0.3109
 5324SOL    HW127431   3.018   2.059  16.711 -0.1311  1.7513  1.2105
 5324SOL    HW227432   3.073   2.183  16.769  3.1726  1.0727  0.1865
 5325SOL     OW27433   1.099   3.061  13.536  0.7541 -0.4204 -0.1557
 5325SOL    HW127434   1.160   2.988  13.549  1.9563  0.1848 -2.4433
 5325SOL    HW227435   1.024   3.045  13.593  1.0446  0.0877  0.3660
 5326SOL     OW27436   0.736   3.384   1.740 -0.2710 -0.0237 -0.4494
 5326SOL    HW127437   0.686   3.435   1.676  1.6841 -0.4031 -2.2455
 5326SOL    HW227438   0.745   3.448   1.811 -0.0772 -1.7883  1.1027
 5327SOL     OW27439   3.023   4.369   7.275  0.0728  0.1622  0.0979
 5327SOL    HW127440   3.056   4.459   7.285  0.3160  0.2206 -1.1994
 5327SOL    HW227441   2.943   4.386   7.226 -0.1918 -0.9523  0.1425
 5328SOL     OW27442   2.433   4.476   7.309  0.1337 -0.1071 -0.1420
 5328SOL    HW127443   2.454   4.452   7.399  0.3265  0.4635 -0.0353
 5328SOL    HW227444   2.414   4.388   7.277 -0.8386 -0.0820  0.3613
 5329SOL     OW27445   3.714   1.575   6.950  0.0735 -0.4143  0.1707
 5329SOL    HW127446   3.770   1.512   6.905 -1.9884 -1.7453 -0.5098
 5329SOL    HW227447   3.771   1.628   7.006  0.7604  0.0169 -0.9276
 5330SOL     OW27448   4.057   0.194  16.975  0.5122 -0.0254 -0.2889
 5330SOL    HW127449   4.099   0.259  17.031  2.5598 -0.7994 -0.9014
 5330SOL    HW227450   4.136   0.140  16.972  0.9461  0.4484  2.4817
 5331SOL     OW27451   2.584   4.509   7.928 -0.4021  0.3115 -0.1998
 5331SOL    HW127452   2.531   4.587   7.914 -0.1075  0.4081 -0.7804
 5331SOL    HW227453   2.661   4.548   7.970 -0.6211  0.7457 -0.2021
 5332SOL     OW27454   0.714   4.519   4.889  0.8633  0.2847 -0.2349
 5332SOL    HW127455   0.636   4.497   4.938  0.4146 -1.2441 -1.6096
 5332SOL    HW227456   0.681   4.497   4.801  1.0738  2.0621 -0.7635
 5333SOL     OW27457   4.384   0.241   5.237  0.0157 -0.1685 -0.7788
 5333SOL    HW127458   4.455   0.219   5.176 -0.0523 -3.3798  0.2818
 5333SOL    HW227459   4.404   0.190   5.315 -0.1778 -0.4351 -0.9024
 5334SOL     OW27460   0.092   2.641   1.826 -0.0294 -0.1343 -0.5386
 5334SOL    HW127461   0.175   2.682   1.849 -0.2149  0.2394 -0.5407
 5334SOL    HW227462   0.107   2.574   1.893 -0.6783  0.2578  0.0022
 5335SOL     OW27463   4.136   1.416   3.859  0.1699 -0.0100  0.0424
 5335SOL    HW127464   4.208   1.448   3.805 -3.2540  2.8341 -2.8161
 5335SOL    HW227465   4.158   1.454   3.945  0.6531 -3.2890  1.3813
 5336SOL     OW27466   1.651   0.875   6.735 -0.0388 -0.4203 -0.2389
 5336SOL    HW127467   1.585   0.808   6.714  0.9064 -0.7388 -2.2402
 5336SOL    HW227468   1.731   0.837   6.699 -0.6481 -1.3102 -0.6844
 5337SOL     OW27469   2.982   4.112   4.522 -0.6882  0.7129 -0.0008
 5337SOL    HW127470   2.971   4.035   4.467  2.0717  0.0795  0.3428
 5337SOL    HW227471   2.926   4.087   4.596 -0.1445  1.7748  0.7805
 5338SOL     OW27472   1.160   3.573  15.265  0.3622  0.2886 -0.8787
 5338SOL    HW127473   1.067   3.590  15.247  0.5115  1.9542 -0.0950
 5338SOL    HW227474   1.163   3.561  15.360  1.1782  1.2790 -0.7703
 5339SOL     OW27475   3.581   0.115   6.564 -0.8492 -0.7599  0.3251
 5339SOL    HW127476   3.594   0.208   6.584 -0.0529 -0.5993 -0.9700
 5339SOL    HW227477   3.579   0.123   6.469  0.7317 -0.5089  0.3089
 5340SOL     OW27478   1.448   2.030   8.188 -0.0270  0.0002  0.9266
 5340SOL    HW127479   1.535   2.001   8.217  0.9674  0.9364 -1.0786
 5340SOL    HW227480   1.443   2.123   8.212 -0.3119  0.5742 -1.3905
 5341SOL     OW27481   3.475   1.330   3.962  0.2380  0.0725  0.1910
 5341SOL    HW127482   3.554   1.337   4.015  0.3613  0.8942 -0.1121
 5341SOL    HW227483   3.426   1.409   3.983  1.9992  1.7350 -1.9866
 5342SOL     OW27484   3.092   1.238   5.557 -0.1697 -0.1668 -0.5301
 5342SOL    HW127485   3.039   1.294   5.501 -1.4359 -0.6981  0.1341
 5342SOL    HW227486   3.135   1.179   5.496  0.7599 -0.6965  0.6320
 5343SOL     OW27487   3.269   1.412  10.339 -0.2684 -0.4279  0.4813
 5343SOL    HW127488   3.303   1.328  10.309 -0.2410 -1.3505  3.0331
 5343SOL    HW227489   3.244   1.371  10.422 -1.6005  1.2194  0.8907
 5344SOL     OW27490   2.091   0.474  14.080 -0.0848  0.1286  0.4736
 5344SOL    HW127491   2.086   0.475  14.175 -0.1491  1.3993  0.4535
 5344SOL    HW227492   1.998   0.490  14.065 -0.0590  0.5867  0.8038
 5345SOL     OW27493   1.214   2.291   5.166 -0.1790 -0.8058  0.6059
 5345SOL    HW127494   1.279   2.227   5.137  0.9279  0.3439  0.5758
 5345SOL    HW227495   1.258   2.332   5.240  0.9161 -0.4200 -0.2750
 5346SOL     OW27496   4.298   0.092   3.994  0.3366 -0.3236  0.5629
 5346SOL    HW127497   4.253   0.014   4.026  1.6793 -1.2920  0.0736
 5346SOL    HW227498   4.384   0.061   4.020  0.6260 -0.8300 -1.0069
 5347SOL     OW27499   3.729   2.120   5.594 -0.7561 -0.1156 -0.1845
 5347SOL    HW127500   3.772   2.201   5.624 -2.2767 -0.2677  2.4993
 5347SOL    HW227501   3.771   2.050   5.644  2.8306  1.3290 -1.1782
 5348SOL     OW27502   4.241   0.907   2.683  0.4331  0.2885  0.1797
 5348SOL    HW127503   4.289   0.980   2.644  0.9827  0.0760  0.4535
 5348SOL    HW227504   4.277   0.893   2.771 -2.7463 -0.1166  1.4217
 5349SOL     OW27505   0.110   0.345  13.034 -0.2745 -0.5407 -0.3785
 5349SOL    HW127506   0.202   0.318  13.036  0.0561  0.3763 -2.9089
 5349SOL    HW227507   0.105   0.389  13.118 -1.8034 -0.5622 -0.4726
 5350SOL     OW27508   4.166   0.401   5.045  0.2856 -0.0414  0.6418
 5350SOL    HW127509   4.142   0.334   5.110  1.0287 -1.3569 -0.4254
 5350SOL    HW227510   4.201   0.340   4.979  1.0007  1.9501 -0.8005
 5351SOL     OW27511   3.961   3.790   5.908 -0.4536  0.6516 -0.2527
 5351SOL    HW127512   3.994   3.747   5.828 -1.7928 -2.1673  0.6985
 5351SOL    HW227513   3.871   3.759   5.902 -0.5751  0.5642  2.2217
 5352SOL     OW27514   1.154   2.653   2.165  0.2481 -0.4540 -0.4610
 5352SOL    HW127515   1.240   2.692   2.148  0.4563 -1.9924 -2.9298
 5352SOL    HW227516   1.170   2.559   2.170  4.7225  0.4802  2.6462
 5353SOL     OW27517   2.076   2.854  16.726 -0.2649 -0.2950  0.4243
 5353SOL    HW127518   2.026   2.772  16.718 -0.7801  0.1239 -0.6606
 5353SOL    HW227519   2.123   2.841  16.808  0.3131  1.8003  0.4213
 5354SOL     OW27520   0.746   3.695  11.378 -0.1794  0.0715 -0.1826
 5354SOL    HW127521   0.799   3.638  11.323 -2.5702 -0.3657 -2.0313
 5354SOL    HW227522   0.773   3.781  11.345 -1.2859 -0.0355 -1.3608
 5355SOL     OW27523   4.195   0.026   3.300 -0.0518 -0.0012  0.5896
 5355SOL    HW127524   4.279   0.068   3.315  0.3886 -0.7209  0.0865
 5355SOL    HW227525   4.203   4.695   3.221  0.2608  2.3599 -0.9689
 5356SOL     OW27526   1.044   0.775   5.950 -0.5219 -0.3499 -0.4964
 5356SOL    HW127527   1.015   0.687   5.929  0.5500 -0.4111 -1.6965
 5356SOL    HW227528   1.140   0.767   5.947 -0.4939  0.4789 -1.8677
 5357SOL     OW27529   1.500   4.018   3.227  0.3476  0.1928  0.0878
 5357SOL    HW127530   1.577   4.069   3.205 -0.5736  2.3951  1.9274
 5357SOL    HW227531   1.434   4.069   3.180  0.1537 -1.5518 -1.5427
 5358SOL     OW27532   1.138   2.625   7.508  0.0945 -0.0395  0.0878
 5358SOL    HW127533   1.195   2.599   7.436  1.2523  2.7498 -0.0046
 5358SOL    HW227534   1.052   2.595   7.479 -0.3735  0.6897  0.7207
 5359SOL     OW27535   3.242   3.501  15.194  0.0208  1.2210 -0.1487
 5359SOL    HW127536   3.313   3.443  15.168 -0.3304  0.0472  1.4183
 5359SOL    HW227537   3.216   3.459  15.277 -1.4099 -0.5504 -1.4828
 5360SOL     OW27538   2.845   2.690   7.515 -0.3082  0.1444  0.3016
 5360SOL    HW127539   2.888   2.644   7.587  2.6095  1.6059 -0.4868
 5360SOL    HW227540   2.800   2.623   7.464 -3.5312  3.3918 -1.1809
 5361SOL     OW27541   3.278   0.166   8.154 -0.2982  0.4417  0.5425
 5361SOL    HW127542   3.308   0.254   8.129 -0.7658  0.1882 -0.9215
 5361SOL    HW227543   3.356   0.113   8.140 -0.8090  0.0136 -0.6737
 5362SOL     OW27544   3.522   3.133   4.134 -0.3491  0.5942 -0.4100
 5362SOL    HW127545   3.568   3.049   4.144  2.5885  2.3479  0.9520
 5362SOL    HW227546   3.433   3.115   4.161  0.9240 -0.6516  2.9364
 5363SOL     OW27547   1.921   0.707   6.165  0.7194 -0.0611  0.3418
 5363SOL    HW127548   2.013   0.724   6.144  0.3971 -0.8591 -1.7146
 5363SOL    HW227549   1.879   0.793   6.156  1.5357  0.2892 -0.1333
 5364SOL     OW27550   1.363   1.205   5.076 -0.0752 -0.0912  0.5443
 5364SOL    HW127551   1.358   1.254   4.993 -0.9014 -1.3598 -0.1592
 5364SOL    HW227552   1.271   1.177   5.070  0.1151 -0.4182 -0.9865
 5365SOL     OW27553   4.520   4.720   0.205  0.1524 -0.3549 -0.4251
 5365SOL    HW127554   4.447   0.055   0.185 -1.2751 -1.0458  2.7828
 5365SOL    HW227555   4.496   4.679   0.288 -0.6826  2.1575  0.5624
 5366SOL     OW27556   1.039   4.481   0.790  0.2037 -0.4422 -0.2246
 5366SOL    HW127557   1.024   4.576   0.788  2.3165 -0.1239 -1.0876
 5366SOL    HW227558   1.122   4.479   0.837  0.5922 -0.5928 -0.9209
 5367SOL     OW27559   3.762   0.118   3.949  0.2520  0.6668 -1.0059
 5367SOL    HW127560   3.818   0.044   3.926 -0.2547 -0.8473  2.5965
 5367SOL    HW227561   3.759   0.122   4.045  1.8624  2.1742 -1.0436
 5368SOL     OW27562   3.858   4.152   2.906 -0.2632  0.4547 -0.1590
 5368SOL    HW127563   3.822   4.179   2.822 -0.9786 -2.7301 -0.8628
 5368SOL    HW227564   3.837   4.059   2.901  1.8652 -0.1619  2.1953
 5369SOL     OW27565   3.278   0.798   4.680 -0.0367 -0.1423 -0.5735
 5369SOL    HW127566   3.361   0.795   4.633  0.2330  0.7828 -0.1531
 5369SOL    HW227567   3.307   0.798   4.771  1.9517  1.8398 -1.2115
 5370SOL     OW27568   3.110   2.201   6.701  0.2414  0.1115 -0.2568
 5370SOL    HW127569   3.205   2.208   6.698  0.1749  0.7362 -0.9207
 5370SOL    HW227570   3.086   2.223   6.611  0.4681 -2.8783 -1.0653
 5371SOL     OW27571   2.415   2.506  16.550  0.0580 -0.1310 -0.4247
 5371SOL    HW127572   2.392   2.428  16.601  0.5748 -0.8309 -1.2525
 5371SOL    HW227573   2.442   2.573  16.612  0.7540 -1.0923  0.3159
 5372SOL     OW27574   4.452   1.774  11.490 -0.6764 -0.3291  0.1904
 5372SOL    HW127575   4.479   1.709  11.426  0.9056 -0.8521  1.3914
 5372SOL    HW227576   4.398   1.823  11.429 -0.7850 -0.2698  0.3330
 5373SOL     OW27577   0.249   1.821  15.751  0.1817  0.1874 -0.1419
 5373SOL    HW127578   0.183   1.836  15.818 -0.5744  1.4398 -1.1584
 5373SOL    HW227579   0.327   1.872  15.767 -1.7081  2.5212  1.6203
 5374SOL     OW27580   0.015   4.485  11.402  0.0746 -0.6798 -0.2851
 5374SOL    HW127581   4.663   4.521  11.450  1.3582  0.0058  1.1826
 5374SOL    HW227582   0.023   4.554  11.336 -0.6239  0.0141  0.3529
 5375SOL     OW27583   4.496   2.245  12.932 -0.5431 -0.2168  0.4176
 5375SOL    HW127584   4.423   2.204  12.978  0.7005  0.5444  3.0779
 5375SOL    HW227585   4.536   2.170  12.887  0.3955 -1.4062  3.2297
 5376SOL     OW27586   3.308   2.201   5.748  0.1803 -0.4302 -0.2848
 5376SOL    HW127587   3.245   2.260   5.707  0.2075  0.7911  1.4485
 5376SOL    HW227588   3.386   2.251   5.725 -0.3194  0.1080 -0.7984
 5377SOL     OW27589   4.236   2.093   7.967 -0.8238  0.1323  0.6840
 5377SOL    HW127590   4.316   2.106   8.016  0.8547  1.0418 -2.2797
 5377SOL    HW227591   4.174   2.056   8.030 -0.3809 -0.0813  0.9957
 5378SOL     OW27592   3.602   0.891  13.637 -0.2706  1.0020 -0.1281
 5378SOL    HW127593   3.616   0.981  13.605  0.2387  0.2576 -1.9986
 5378SOL    HW227594   3.657   0.887  13.715 -2.2564 -0.4851  1.1837
 5379SOL     OW27595   4.489   3.514   7.916  0.1175  0.1462  0.4094
 5379SOL    HW127596   4.450   3.472   7.993 -0.6629  0.2576  0.0707
 5379SOL    HW227597   4.556   3.568   7.958  0.1523 -0.5657  1.2765
 5380SOL     OW27598   1.872   1.423   8.693  0.0435  0.1960 -0.0243
 5380SOL    HW127599   1.943   1.458   8.747 -1.4914  0.6477  1.7084
 5380SOL    HW227600   1.906   1.434   8.604 -0.7709 -0.1028 -0.3753
 5381SOL     OW27601   1.489   2.020   8.790  0.3342  0.6857  0.2978
 5381SOL    HW127602   1.562   1.961   8.806  0.4283  0.4945 -0.8488
 5381SOL    HW227603   1.443   2.016   8.874 -0.6916  0.1817 -0.2836
 5382SOL     OW27604   1.051   1.781  15.531 -0.0583 -0.1363  0.1771
 5382SOL    HW127605   1.120   1.815  15.588  0.0029 -1.3481  0.8128
 5382SOL    HW227606   1.063   1.688  15.549  2.9673 -0.2362 -2.3485
 5383SOL     OW27607   0.876   2.876  10.353 -0.4192  0.2298  0.0511
 5383SOL    HW127608   0.823   2.800  10.374 -1.2941  0.1983 -2.2643
 5383SOL    HW227609   0.860   2.930  10.430 -0.1630 -0.3276  0.4913
 5384SOL     OW27610   4.601   1.811  15.631  0.7316 -0.1995  0.0935
 5384SOL    HW127611   4.628   1.873  15.699 -0.1626 -0.2089  0.4576
 5384SOL    HW227612   4.591   1.729  15.679 -1.8279 -0.2336 -0.5052
 5385SOL     OW27613   1.042   3.231   2.972 -0.0922  0.1313  0.2398
 5385SOL    HW127614   0.981   3.284   3.024 -0.2139  1.8559 -1.6471
 5385SOL    HW227615   1.123   3.266   3.008  0.2879  1.1835 -1.6233
 5386SOL     OW27616   4.133   1.986   5.431  0.3713 -0.0798 -0.3959
 5386SOL    HW127617   4.183   1.918   5.385  0.3920 -0.0187 -0.4621
 5386SOL    HW227618   4.182   1.980   5.514  0.0412 -2.0974 -0.3278
 5387SOL     OW27619   3.267   1.874  16.892 -0.8415  0.1902  0.1345
 5387SOL    HW127620   3.221   1.939  16.840 -0.7390  0.1033 -0.0672
 5387SOL    HW227621   3.298   1.809  16.829 -0.6015 -0.8663  1.3432
 5388SOL     OW27622   4.634   1.569   3.900 -0.3705  0.6719 -0.2281
 5388SOL    HW127623   4.685   1.643   3.932  0.0471  0.2080  0.1821
 5388SOL    HW227624   4.651   1.507   3.972  0.5698  0.7567 -0.3769
 5389SOL     OW27625   2.265   3.477   0.981  0.5612 -0.2711 -0.3191
 5389SOL    HW127626   2.210   3.494   0.905  1.1193  1.2337 -0.3760
 5389SOL    HW227627   2.271   3.565   1.017  0.0088 -0.0909 -0.6674
 5390SOL     OW27628   0.743   2.494   9.312 -0.0120  0.4214  0.2115
 5390SOL    HW127629   0.679   2.502   9.242  0.4209 -1.4776 -0.4090
 5390SOL    HW227630   0.814   2.552   9.283  0.4301 -1.7360 -3.1415
 5391SOL     OW27631   3.388   3.862   4.686  0.0342 -0.0493 -0.1815
 5391SOL    HW127632   3.320   3.831   4.746  0.5318 -0.6804  0.0583
 5391SOL    HW227633   3.353   3.946   4.658 -0.1184 -0.2581 -0.6219
 5392SOL     OW27634   2.528   4.174   1.158  0.1754  0.0803  0.0225
 5392SOL    HW127635   2.547   4.083   1.133  1.3658  0.3401 -0.0107
 5392SOL    HW227636   2.505   4.207   1.071 -3.5426 -1.1323  0.5071
 5393SOL     OW27637   1.527   0.069  10.593  0.7910 -0.3128  0.2773
 5393SOL    HW127638   1.540   0.005  10.523 -1.8905 -0.0090 -0.5079
 5393SOL    HW227639   1.445   0.043  10.636 -0.3668  1.8673 -0.5973
 5394SOL     OW27640   1.414   0.183   2.546  0.4372  0.4345  0.3783
 5394SOL    HW127641   1.333   0.132   2.543  1.2510 -0.7825 -1.1208
 5394SOL    HW227642   1.446   0.177   2.456  3.5058  0.7581  1.4650
 5395SOL     OW27643   4.642   0.626  16.334  0.6991 -0.5492 -0.6246
 5395SOL    HW127644   4.673   0.671  16.412  2.3319 -0.1799 -1.4771
 5395SOL    HW227645   4.697   0.548  16.337 -1.1048 -1.7070  1.5751
 5396SOL     OW27646   2.253   0.314   2.730  0.1593 -1.2400 -0.3751
 5396SOL    HW127647   2.250   0.362   2.647 -1.4324 -1.3303 -0.3820
 5396SOL    HW227648   2.172   0.335   2.777  0.4032  0.1000 -0.5620
 5397SOL     OW27649   4.173   3.496   5.449 -0.2052  0.0974 -0.0219
 5397SOL    HW127650   4.185   3.409   5.409  0.7434  1.2844 -2.3030
 5397SOL    HW227651   4.259   3.516   5.487 -0.0382 -1.5472  0.4941
 5398SOL     OW27652   3.856   4.064   7.713 -0.9520  0.9287  0.2742
 5398SOL    HW127653   3.940   4.050   7.670 -1.4996  0.0992 -0.5227
 5398SOL    HW227654   3.837   3.984   7.762  0.4626 -0.0507 -0.7655
 5399SOL     OW27655   3.553   0.575  16.193 -0.0656 -0.0159 -0.4504
 5399SOL    HW127656   3.490   0.598  16.125 -0.7817  1.2269  0.6415
 5399SOL    HW227657   3.551   0.662  16.233 -0.6575  0.3743 -1.3158
 5400SOL     OW27658   1.129   0.874   2.821  0.2038  0.1265 -0.3204
 5400SOL    HW127659   1.126   0.891   2.727 -0.3055 -0.7427 -0.4610
 5400SOL    HW227660   1.040   0.878   2.855  0.3022 -1.7432  0.1634
 5401SOL     OW27661   3.503   4.043   7.664  0.4290 -0.2980 -0.3581
 5401SOL    HW127662   3.521   4.032   7.571  0.7993  0.0702 -0.3323
 5401SOL    HW227663   3.576   4.090   7.705  1.6646 -1.5691 -1.1027
 5402SOL     OW27664   3.223   0.681   9.511  0.1183  0.2638  0.1477
 5402SOL    HW127665   3.164   0.638   9.573  2.8297 -0.6283  2.0948
 5402SOL    HW227666   3.246   0.620   9.441  2.0273  0.8513  0.2544
 5403SOL     OW27667   2.584   0.290   3.589 -0.3926  0.2121  0.1400
 5403SOL    HW127668   2.571   0.371   3.638  0.6997 -0.9824  2.3819
 5403SOL    HW227669   2.643   0.331   3.525  1.9105 -0.2742  1.9596
 5404SOL     OW27670   2.446   4.426  17.640 -0.8174 -0.5585  0.2964
 5404SOL    HW127671   2.358   4.393  17.623 -1.9032  2.5070 -0.0148
 5404SOL    HW227672   2.469   4.451  17.550  0.2274 -1.2056  0.3813
 5405SOL     OW27673   4.352   1.936   5.605 -0.0819  0.2443 -0.3885
 5405SOL    HW127674   4.440   1.962   5.581 -0.2315  0.3323 -0.8333
 5405SOL    HW227675   4.367   1.929   5.699 -2.3131 -1.7498 -0.1623
 5406SOL     OW27676   0.244   3.023   0.131  0.4785  0.4155  0.6257
 5406SOL    HW127677   0.279   2.934   0.124 -1.2907 -0.2145 -0.1657
 5406SOL    HW227678   0.197   3.011   0.214 -1.0194  0.9575 -0.1263
 5407SOL     OW27679   3.614   0.067   5.495 -0.3932 -0.1871 -0.1556
 5407SOL    HW127680   3.628   4.720   5.431  0.0152 -0.2792  0.0386
 5407SOL    HW227681   3.667   0.136   5.454 -2.7124  0.3570 -2.2783
 5408SOL     OW27682   3.815   4.554   9.992  0.4572 -0.0175 -0.1066
 5408SOL    HW127683   3.814   4.466  10.030  1.0526  1.1467  2.6161
 5408SOL    HW227684   3.842   4.551   9.900 -0.7161 -0.6908 -0.4283
 5409SOL     OW27685   0.932   0.401  13.895 -0.2323  0.1200  0.0543
 5409SOL    HW127686   0.996   0.401  13.966  0.4196  0.2541 -0.5318
 5409SOL    HW227687   0.904   0.310  13.900 -1.0950  0.5222  2.3213
 5410SOL     OW27688   2.570   0.905   4.090  0.9126 -0.6500 -0.1672
 5410SOL    HW127689   2.633   0.841   4.056  0.3718 -0.3084 -1.8156
 5410SOL    HW227690   2.519   0.863   4.159 -0.7788 -2.0182 -2.2320
 5411SOL     OW27691   1.505   2.442   1.504  0.6056 -0.0342  0.6312
 5411SOL    HW127692   1.599   2.462   1.500  0.0899  1.6741 -2.7730
 5411SOL    HW227693   1.498   2.405   1.592 -0.4066  1.4005  1.1663
 5412SOL     OW27694   4.327   0.089   2.845 -0.4431 -0.3606  0.6220
 5412SOL    HW127695   4.260   0.154   2.823 -0.1560 -1.1324 -2.5110
 5412SOL    HW227696   4.395   0.146   2.880 -0.4114  0.3496 -0.5936
 5413SOL     OW27697   1.704   3.593   4.403  0.3263 -0.2815 -0.3790
 5413SOL    HW127698   1.751   3.541   4.338 -0.7408 -0.7692 -0.7491
 5413SOL    HW227699   1.689   3.525   4.469  1.1333 -1.2818 -1.2240
 5414SOL     OW27700   1.501   2.949   4.785 -0.0863 -0.4240  0.6283
 5414SOL    HW127701   1.406   2.965   4.783  0.3976  2.3442 -0.0760
 5414SOL    HW227702   1.521   2.973   4.875  1.1092 -0.1674  0.2976
 5415SOL     OW27703   2.794   3.154  10.233  0.0542  0.2531  0.0023
 5415SOL    HW127704   2.770   3.063  10.248 -0.6825  0.4650  0.1168
 5415SOL    HW227705   2.754   3.171  10.148 -0.5720 -1.3687 -0.0276
 5416SOL     OW27706   3.257   3.981  15.717  0.1594  0.1258 -0.7344
 5416SOL    HW127707   3.332   4.040  15.725  0.2095  0.0515 -0.6600
 5416SOL    HW227708   3.195   4.055  15.715 -0.9539 -0.7533  1.3437
 5417SOL     OW27709   3.407   1.007  11.741 -0.5728  0.1636  0.3401
 5417SOL    HW127710   3.418   0.989  11.834 -1.6611 -1.0658  0.2289
 5417SOL    HW227711   3.497   1.035  11.723 -0.3771 -0.4925  0.2733
 5418SOL     OW27712   4.646   0.022   3.171 -0.0654 -0.5362  0.3760
 5418SOL    HW127713   4.605   4.658   3.179 -0.5171 -0.2830  0.8039
 5418SOL    HW227714   0.002   4.722   3.220 -0.3252 -0.2345  0.9411
 5419SOL     OW27715   0.948   2.769   2.810 -0.4362 -0.0471  0.4744
 5419SOL    HW127716   0.855   2.790   2.814 -0.6836 -1.2638  0.8080
 5419SOL    HW227717   0.972   2.768   2.717  1.4192 -1.1346  0.9678
 5420SOL     OW27718   3.080   1.094   7.348 -0.3796 -0.1948  0.0773
 5420SOL    HW127719   3.091   1.000   7.355 -0.0695  0.0588  2.7416
 5420SOL    HW227720   3.037   1.112   7.431 -1.9075  0.1749 -0.7900
 5421SOL     OW27721   4.568   4.408   7.151  0.1625 -0.1430 -0.4262
 5421SOL    HW127722   4.630   4.385   7.083 -0.1701  2.3859 -1.5864
 5421SOL    HW227723   4.537   4.320   7.175  0.5034  0.0142  0.6050
 5422SOL     OW27724   2.642   1.983   4.578  0.4100  0.3189  0.4190
 5422SOL    HW127725   2.581   1.954   4.646  0.2904  2.2728  1.1544
 5422SOL    HW227726   2.659   1.902   4.530 -0.7106  0.2305  0.1604
 5423SOL     OW27727   4.029   3.425   6.788  0.1395  0.5644  0.7805
 5423SOL    HW127728   4.019   3.408   6.694 -0.8818 -0.5084  1.0805
 5423SOL    HW227729   3.947   3.386   6.819  1.5204 -1.9580  1.2719
 5424SOL     OW27730   1.282   2.398   1.310  0.3213 -0.5478  0.0036
 5424SOL    HW127731   1.306   2.468   1.250  1.6546 -0.1391  1.0037
 5424SOL    HW227732   1.344   2.422   1.379 -0.1914 -0.7685  0.5388
 5425SOL     OW27733   2.591   0.359   7.760  0.5101  0.3325 -0.8682
 5425SOL    HW127734   2.619   0.275   7.797 -1.1621 -0.2919 -1.0195
 5425SOL    HW227735   2.520   0.326   7.706 -1.1145  0.1911  1.3568
 5426SOL     OW27736   4.121   3.101   3.403  0.1857 -0.2872  0.1209
 5426SOL    HW127737   4.217   3.106   3.408  0.1232  1.8725 -1.1397
 5426SOL    HW227738   4.107   3.036   3.472 -1.6938  1.6125  1.5557
 5427SOL     OW27739   2.083   0.162   4.916  0.3006  0.0095 -0.1752
 5427SOL    HW127740   2.040   0.114   4.987 -0.2158  2.5325  1.2346
 5427SOL    HW227741   2.047   0.251   4.923  1.7784  0.5349  0.8753
 5428SOL     OW27742   2.154   1.168   2.741 -0.0857 -0.0347  0.4344
 5428SOL    HW127743   2.083   1.126   2.693  0.1006  1.7537 -1.3866
 5428SOL    HW227744   2.180   1.085   2.782  0.1724 -0.0027  0.3310
 5429SOL     OW27745   0.463   2.363   9.463  0.1369  0.3384 -0.4164
 5429SOL    HW127746   0.406   2.348   9.539 -0.0131  0.5394 -0.4872
 5429SOL    HW227747   0.549   2.358   9.504  0.6139  4.0202 -0.9347
 5430SOL     OW27748   4.181   4.243   8.061 -0.1367 -0.2915  0.4003
 5430SOL    HW127749   4.259   4.298   8.072 -1.5146  1.7765 -0.2615
 5430SOL    HW227750   4.110   4.297   8.096 -0.4319 -0.3184 -0.1577
 5431SOL     OW27751   0.009   1.219   9.219 -0.1355  0.0057  0.0521
 5431SOL    HW127752   4.698   1.270   9.292 -0.2362  1.3978 -0.9584
 5431SOL    HW227753   4.684   1.136   9.220 -1.9434  1.0509  0.3200
 5432SOL     OW27754   1.483   0.828  11.022  0.2027 -0.0073 -0.4810
 5432SOL    HW127755   1.566   0.849  10.979  0.6584 -0.2326  0.2973
 5432SOL    HW227756   1.502   0.773  11.098  1.2686  0.1894 -0.6052
 5433SOL     OW27757   0.323   1.055   5.923 -0.0044  0.0922  0.0367
 5433SOL    HW127758   0.250   1.023   5.975 -2.3715  3.4638 -1.1806
 5433SOL    HW227759   0.368   1.093   5.998  1.4500 -0.6484 -0.4569
 5434SOL     OW27760   2.272   4.338   4.328 -0.0769 -0.4789  0.0907
 5434SOL    HW127761   2.261   4.300   4.241 -0.0027  3.0242 -1.4280
 5434SOL    HW227762   2.361   4.315   4.353  0.3178  0.0229 -0.8711
 5435SOL     OW27763   2.713   2.306   6.429 -0.0921 -0.6220  0.2333
 5435SOL    HW127764   2.666   2.306   6.512 -0.7529 -1.2029 -0.1430
 5435SOL    HW227765   2.712   2.212   6.409 -0.5237 -0.4965 -0.3371
 5436SOL     OW27766   1.495   3.978   3.815 -0.0949 -0.0997  0.3947
 5436SOL    HW127767   1.443   4.025   3.750  0.4593  0.1096  0.1060
 5436SOL    HW227768   1.503   4.053   3.874 -1.7729  0.0597  0.4275
 5437SOL     OW27769   2.524   1.886   6.306  0.2044  0.4445 -0.3329
 5437SOL    HW127770   2.566   1.807   6.271 -0.1503  0.4805 -0.8509
 5437SOL    HW227771   2.466   1.918   6.237 -1.0820 -2.6553 -0.6731
 5438SOL     OW27772   0.228   3.125   7.807  0.4784 -0.5975  0.7437
 5438SOL    HW127773   0.182   3.081   7.735 -1.1369  0.9177  0.8493
 5438SOL    HW227774   0.153   3.164   7.851  0.1728 -1.7406  1.2415
 5439SOL     OW27775   1.660   0.007   4.709  0.4774  0.1140  0.5521
 5439SOL    HW127776   1.679   4.650   4.759  2.0837 -0.5319 -1.0713
 5439SOL    HW227777   1.636   4.691   4.625  1.4669 -0.7430  0.6585
 5440SOL     OW27778   3.946   3.469   1.919  0.3730  0.0513 -0.0168
 5440SOL    HW127779   3.951   3.484   1.824 -0.3838 -0.9295 -0.2043
 5440SOL    HW227780   3.926   3.376   1.920  0.1141  0.1172  0.8886
 5441SOL     OW27781   4.411   2.023  10.297  0.3201 -0.4847 -0.3225
 5441SOL    HW127782   4.464   2.098  10.271 -1.6322  1.4408  1.2039
 5441SOL    HW227783   4.419   2.030  10.392 -2.2301  0.1975 -0.1575
 5442SOL     OW27784   1.637   4.253   3.266  0.1166  0.0564  0.5383
 5442SOL    HW127785   1.704   4.283   3.328 -0.3390  0.7515  0.6884
 5442SOL    HW227786   1.665   4.289   3.182 -0.3180  0.2241  0.4673
 5443SOL     OW27787   0.854   3.474   6.830 -0.1770  0.3809 -0.2905
 5443SOL    HW127788   0.919   3.448   6.766 -0.9443 -0.2350 -0.8129
 5443SOL    HW227789   0.869   3.415   6.904  3.7638  1.7608  0.0079
 5444SOL     OW27790   2.681   3.723   8.344 -0.3382  0.4303  0.0576
 5444SOL    HW127791   2.661   3.719   8.438 -0.8820  1.8972  0.0157
 5444SOL    HW227792   2.610   3.782   8.319 -0.4878 -0.2122 -1.0189
 5445SOL     OW27793   4.396   3.121   3.479  0.0734 -0.3832  0.5034
 5445SOL    HW127794   4.438   3.069   3.547 -0.3838 -1.7795 -0.2694
 5445SOL    HW227795   4.401   3.204   3.526 -0.3480 -0.4838  0.7291
 5446SOL     OW27796   2.445   2.878   1.849  0.1408  0.4597  0.4163
 5446SOL    HW127797   2.518   2.941   1.853  1.6098 -1.3032  1.3922
 5446SOL    HW227798   2.493   2.798   1.872 -0.1533  0.6642  1.7125
 5447SOL     OW27799   0.886   3.425   9.056 -0.4957  0.4284  0.0317
 5447SOL    HW127800   0.892   3.379   9.140  0.9591 -0.0880 -0.3607
 5447SOL    HW227801   0.893   3.515   9.087  1.7577 -0.3620  1.7977
 5448SOL     OW27802   2.275   0.337   2.418 -0.0378 -0.0331 -0.4444
 5448SOL    HW127803   2.350   0.277   2.414 -1.5911 -2.0481  0.6769
 5448SOL    HW227804   2.326   0.418   2.413  0.7629 -0.4589  0.6243
 5449SOL     OW27805   4.585   0.166   7.362 -0.1845 -0.3651  0.6741
 5449SOL    HW127806   4.495   0.140   7.341 -0.1967 -0.3039  0.6504
 5449SOL    HW227807   4.629   0.150   7.279  2.0573 -0.2565  1.8558
 5450SOL     OW27808   1.145   0.440  15.925  0.0618  0.5903  0.4315
 5450SOL    HW127809   1.051   0.421  15.925  0.0738  0.5322  0.1607
 5450SOL    HW227810   1.184   0.370  15.977  0.4223  2.5671  2.8232
 5451SOL     OW27811   3.207   0.186   3.268 -0.4245  0.0210  0.0242
 5451SOL    HW127812   3.136   0.251   3.270  0.0172  0.5437 -2.0895
 5451SOL    HW227813   3.277   0.230   3.316  0.2192 -0.4104 -0.5247
 5452SOL     OW27814   1.948   1.339  14.812 -0.2518  0.2880  0.0172
 5452SOL    HW127815   1.907   1.425  14.817  1.6973  1.2008  0.1222
 5452SOL    HW227816   1.942   1.313  14.904 -0.5612  0.6108  0.0873
 5453SOL     OW27817   4.689   0.934   4.391  0.5414  0.4489  0.1866
 5453SOL    HW127818   4.690   0.862   4.328  3.0013 -0.2381  1.0220
 5453SOL    HW227819   0.015   0.890   4.461  2.4101 -0.2455 -1.5626
 5454SOL     OW27820   1.677   1.846   2.478 -0.0735 -0.5997 -0.1929
 5454SOL    HW127821   1.659   1.928   2.431 -2.4281 -1.2621 -0.4418
 5454SOL    HW227822   1.642   1.867   2.565 -0.0717  0.4412 -0.4386
 5455SOL     OW27823   3.227   0.431   9.046 -0.1738 -0.5468  0.4525
 5455SOL    HW127824   3.190   0.487   8.979  3.3316 -0.7542 -1.6834
 5455SOL    HW227825   3.210   0.343   9.013  1.2328  0.8774 -4.0613
 5456SOL     OW27826   2.682   0.086  12.005 -0.0783 -0.3584  0.0357
 5456SOL    HW127827   2.639   0.011  11.964  0.4382 -0.9520  0.5860
 5456SOL    HW227828   2.734   0.048  12.076  0.3512  0.7896  0.3224
 5457SOL     OW27829   2.386   4.651   8.168 -0.5354 -0.5502  0.1146
 5457SOL    HW127830   2.305   4.679   8.210 -1.7386 -0.3397 -2.4035
 5457SOL    HW227831   2.427   4.609   8.244  2.5009  1.3552 -0.4867
 5458SOL     OW27832   2.475   1.040   7.829 -0.7490 -0.3375  0.1363
 5458SOL    HW127833   2.393   1.079   7.859  0.0601  0.7626  0.9525
 5458SOL    HW227834   2.461   0.954   7.869 -1.3932 -0.0401  0.5540
 5459SOL     OW27835   4.019   3.805   0.628  0.3580 -0.1373  0.1500
 5459SOL    HW127836   4.072   3.881   0.604 -0.1808  0.5789  1.2347
 5459SOL    HW227837   4.058   3.726   0.592 -1.2099 -1.9147  2.3295
 5460SOL     OW27838   0.863   4.587  17.441 -0.3908  0.0168  0.3580
 5460SOL    HW127839   0.796   4.523  17.417  0.3947 -0.1101 -1.4864
 5460SOL    HW227840   0.849   4.638  17.361 -2.7878  0.3359  0.9912
 5461SOL     OW27841   4.243   0.781  13.938  0.1457  0.1012  0.1232
 5461SOL    HW127842   4.310   0.789  14.006  0.6950  1.4937 -0.5740
 5461SOL    HW227843   4.238   0.686  13.939 -0.8222  0.1147 -1.6638
 5462SOL     OW27844   1.875   0.656   7.930 -0.4214 -0.1807  0.0799
 5462SOL    HW127845   1.921   0.697   8.003  3.1491 -2.4761 -0.9275
 5462SOL    HW227846   1.952   0.628   7.882 -0.2893 -0.0216  0.1981
 5463SOL     OW27847   0.271   3.021   6.031  0.0964  0.2621  0.2918
 5463SOL    HW127848   0.184   3.039   5.997 -0.1484 -0.0991  0.7279
 5463SOL    HW227849   0.328   3.034   5.955 -0.9427  0.8515 -0.3868
 5464SOL     OW27850   1.823   1.097   0.940  0.3618 -0.0305 -0.1421
 5464SOL    HW127851   1.741   1.076   0.985  0.7097  0.5467  0.7715
 5464SOL    HW227852   1.868   1.012   0.943 -1.2691 -0.8544  0.7664
 5465SOL     OW27853   2.002   1.531   2.643 -0.0292  0.5345 -0.0163
 5465SOL    HW127854   2.046   1.501   2.722  1.2498  0.2796 -0.8221
 5465SOL    HW227855   1.953   1.452   2.619 -1.0597  1.4725 -1.0363
 5466SOL     OW27856   2.022   2.609   3.842  0.1336  0.1524  0.6871
 5466SOL    HW127857   2.052   2.697   3.863  2.3798 -1.2032  3.2139
 5466SOL    HW227858   1.931   2.613   3.813 -0.4080  1.5657  2.5915
 5467SOL     OW27859   4.551   0.890  15.117  0.2324  0.1726  0.2197
 5467SOL    HW127860   4.468   0.873  15.162 -0.1809  2.7719  0.4100
 5467SOL    HW227861   4.578   0.959  15.178  1.2000 -1.5826  1.7968
 5468SOL     OW27862   1.367   1.076   9.219 -0.3397 -0.5238 -0.0315
 5468SOL    HW127863   1.331   1.138   9.283  0.3800  0.5650 -0.6751
 5468SOL    HW227864   1.304   1.005   9.215 -0.9927  0.0681 -0.3167
 5469SOL     OW27865   3.717   3.714   5.876  0.3459  0.0905 -0.2151
 5469SOL    HW127866   3.659   3.745   5.945  0.0342  0.4781 -0.6450
 5469SOL    HW227867   3.657   3.714   5.801 -0.8904 -0.1117  0.7964
 5470SOL     OW27868   0.331   3.388  13.090 -0.0736 -0.1359 -0.1265
 5470SOL    HW127869   0.419   3.355  13.070  0.8312  2.9401 -1.2494
 5470SOL    HW227870   0.270   3.317  13.071 -0.7458 -0.0829  1.9186
 5471SOL     OW27871   4.703   2.151   7.193  0.5837 -0.0199 -0.6144
 5471SOL    HW127872   4.706   2.100   7.274  1.0277  0.0016 -0.6139
 5471SOL    HW227873   0.003   2.238   7.225  2.0998 -0.5781 -0.1672
 5472SOL     OW27874   1.295   2.159  11.800  0.4211 -0.1379 -0.0808
 5472SOL    HW127875   1.354   2.192  11.868 -1.7612  0.0448  1.7371
 5472SOL    HW227876   1.317   2.221  11.731 -1.7187  0.0077 -0.6487
 5473SOL     OW27877   0.214   3.446   4.032  0.2068  0.0724 -0.0792
 5473SOL    HW127878   0.199   3.527   4.082 -0.8874 -0.4365  0.4210
 5473SOL    HW227879   0.310   3.453   4.028  0.3281 -0.4841  1.6417
 5474SOL     OW27880   3.352   4.410   6.541 -0.2311  0.2019  0.3159
 5474SOL    HW127881   3.345   4.505   6.530  2.2947  0.2849 -0.4727
 5474SOL    HW227882   3.364   4.414   6.636 -1.9018 -2.7183  0.6505
 5475SOL     OW27883   0.339   3.911   6.002  0.0026 -0.3095 -0.1572
 5475SOL    HW127884   0.308   3.993   6.041 -1.2654 -1.3326  0.9924
 5475SOL    HW227885   0.390   3.870   6.072  0.2303 -0.2707 -0.3015
 5476SOL     OW27886   2.353   4.092   8.182  0.3725 -0.0406 -0.1798
 5476SOL    HW127887   2.344   4.173   8.233 -0.5007  0.8028 -1.6783
 5476SOL    HW227888   2.298   4.117   8.109  0.9359  1.6134 -0.0459
 5477SOL     OW27889   4.210   2.505  13.252  0.4356 -0.2895  0.5012
 5477SOL    HW127890   4.196   2.457  13.171 -2.2198  0.5472  0.4726
 5477SOL    HW227891   4.130   2.494  13.303  0.1817  0.2027  0.2161
 5478SOL     OW27892   2.637   3.553   2.357 -0.3322 -0.0824  0.0856
 5478SOL    HW127893   2.609   3.497   2.430 -0.8158 -2.0169 -1.5783
 5478SOL    HW227894   2.725   3.524   2.334 -1.1300 -1.7323 -0.8518
 5479SOL     OW27895   0.988   1.260  17.500 -0.0536 -0.0235  0.0411
 5479SOL    HW127896   1.037   1.178  17.494 -0.3027 -0.0737 -1.3860
 5479SOL    HW227897   1.067   1.314  17.503 -1.5373  2.2577 -2.9258
 5480SOL     OW27898   1.061   1.363   2.538 -0.2168 -0.3185 -0.1128
 5480SOL    HW127899   1.148   1.403   2.533  0.0255 -0.6458  1.6604
 5480SOL    HW227900   1.064   1.280   2.490  1.2076 -1.5060  2.0375
 5481SOL     OW27901   4.647   2.806  11.888 -0.0897  0.3432 -0.2142
 5481SOL    HW127902   4.646   2.870  11.959  2.1074  1.7493 -1.4509
 5481SOL    HW227903   4.612   2.853  11.812 -2.0450 -0.4596  0.1872
 5482SOL     OW27904   1.997   0.816   5.106 -0.2518  0.4213  0.1156
 5482SOL    HW127905   1.942   0.793   5.181 -0.1394  1.0858  0.4019
 5482SOL    HW227906   1.993   0.911   5.118 -1.1610  0.4334 -0.2863
 5483SOL     OW27907   4.417   3.113  10.487 -0.6008  0.0751 -0.2808
 5483SOL    HW127908   4.341   3.096  10.541 -0.7041 -0.6095 -0.6467
 5483SOL    HW227909   4.489   3.105  10.549 -1.5536  0.7171  0.8885
 5484SOL     OW27910   3.306   4.671   5.520  0.0655 -0.3759  0.0420
 5484SOL    HW127911   3.376   4.676   5.454  0.2349 -3.3508 -0.0096
 5484SOL    HW227912   3.350   4.696   5.602  1.2265  2.8021 -1.5636
 5485SOL     OW27913   0.273   3.267   8.145 -0.5156 -0.4746 -0.5195
 5485SOL    HW127914   0.310   3.322   8.076  0.7084  0.2754  0.7577
 5485SOL    HW227915   0.201   3.322   8.175  1.5414  1.6664  0.4598
 5486SOL     OW27916   3.868   2.155  13.571  0.7233 -0.1325  0.0720
 5486SOL    HW127917   3.895   2.174  13.661 -0.0672  1.0220  0.0730
 5486SOL    HW227918   3.906   2.068  13.566 -1.3356 -1.1185  1.5929
 5487SOL     OW27919   1.743   1.695   5.336 -0.0536  0.2736  0.1595
 5487SOL    HW127920   1.782   1.760   5.396 -1.6290 -0.8160  2.3511
 5487SOL    HW227921   1.698   1.630   5.390 -0.0873  2.7465  3.1295
 5488SOL     OW27922   3.041   1.826   4.024 -0.0651 -0.5645 -0.4107
 5488SOL    HW127923   3.035   1.738   4.060 -2.3767  0.3335  1.4208
 5488SOL    HW227924   2.983   1.825   3.947 -0.8728  2.0402  0.1506
 5489SOL     OW27925   3.754   4.305   0.751  0.4481 -0.3467 -0.3269
 5489SOL    HW127926   3.798   4.292   0.836 -2.0880 -0.5921  0.9524
 5489SOL    HW227927   3.827   4.307   0.689  0.7169  1.0527  0.0371
 5490SOL     OW27928   2.588   0.059   1.921  0.4449 -0.7070  0.2706
 5490SOL    HW127929   2.637   0.026   1.996  1.4493 -0.3039 -0.2044
 5490SOL    HW227930   2.573   0.150   1.946 -1.8423 -1.0132  0.0210
 5491SOL     OW27931   2.245   4.301   6.093 -0.0042  0.2312 -0.0987
 5491SOL    HW127932   2.310   4.231   6.095 -2.8394 -2.3986 -1.0026
 5491SOL    HW227933   2.277   4.362   6.025 -1.1039 -0.7007 -1.4513
 5492SOL     OW27934   4.143   3.350   2.177  0.1810  0.0866 -0.0175
 5492SOL    HW127935   4.194   3.283   2.132  0.5496  1.1038 -1.1213
 5492SOL    HW227936   4.149   3.423   2.115  0.1767  0.5201  0.4913
 5493SOL     OW27937   2.667   2.397  14.013 -0.6710 -0.3242 -0.2793
 5493SOL    HW127938   2.749   2.348  14.021 -0.2202  0.0867 -2.4480
 5493SOL    HW227939   2.610   2.321  14.017 -0.4045 -0.5630 -1.1076
 5494SOL     OW27940   0.151   3.562   9.023 -0.4238  0.3652  0.0978
 5494SOL    HW127941   0.187   3.650   9.029 -1.3658  0.6961  0.9774
 5494SOL    HW227942   0.230   3.519   8.991  0.5004  2.1745 -0.0477
 5495SOL     OW27943   4.545   3.435  15.862 -0.0445  0.2293  0.5821
 5495SOL    HW127944   4.516   3.497  15.929  1.3092  2.2265 -0.6798
 5495SOL    HW227945   4.634   3.464  15.842 -0.9648  1.4842 -1.7553
 5496SOL     OW27946   1.837   1.092  11.908  0.1741 -0.6419 -0.7965
 5496SOL    HW127947   1.846   1.086  12.003 -2.6410  1.2155 -0.4396
 5496SOL    HW227948   1.927   1.110  11.880  0.8653 -3.2558 -0.2422
 5497SOL     OW27949   3.595   4.547   0.458 -0.0476 -0.3431  0.0605
 5497SOL    HW127950   3.642   4.577   0.536 -1.4962 -0.8937  1.1537
 5497SOL    HW227951   3.657   4.477   0.438  0.7130 -0.3724  2.4393
 5498SOL     OW27952   4.565   3.120  12.394 -0.0947  0.6501  0.8584
 5498SOL    HW127953   4.473   3.147  12.401 -0.0106  1.4790 -1.4116
 5498SOL    HW227954   4.535   3.029  12.390 -0.5439  0.7703  1.3536
 5499SOL     OW27955   1.322   3.741   8.371  0.3088 -0.2445  0.0523
 5499SOL    HW127956   1.324   3.751   8.467  1.1109  0.4510 -0.0350
 5499SOL    HW227957   1.370   3.819   8.344  1.2130 -0.8294 -0.0387
 5500SOL     OW27958   2.777   1.796  12.070  0.0236 -0.1256 -0.2117
 5500SOL    HW127959   2.764   1.741  12.147  0.2551  0.8321  0.5111
 5500SOL    HW227960   2.856   1.848  12.083  0.5008 -1.2868  1.5073
 5501SOL     OW27961   3.155   2.753  14.185  0.0264 -0.0134 -0.5426
 5501SOL    HW127962   3.233   2.700  14.171  0.9379  1.5655 -1.4288
 5501SOL    HW227963   3.117   2.735  14.098 -2.4208 -3.5099  1.2346
 5502SOL     OW27964   0.393   0.799   5.946 -0.0588  0.3515 -0.0387
 5502SOL    HW127965   0.383   0.893   5.929  1.7259  0.6415  0.4639
 5502SOL    HW227966   0.399   0.808   6.041  0.6188 -0.1883 -0.0323
 5503SOL     OW27967   0.722   3.391  17.331  0.2811  0.1017 -0.1083
 5503SOL    HW127968   0.724   3.477  17.373  0.7103 -1.1087  2.3365
 5503SOL    HW227969   0.663   3.410  17.258  1.2827 -1.6898 -1.3709
 5504SOL     OW27970   4.488   3.413   9.812  0.1834 -0.0083 -0.5751
 5504SOL    HW127971   4.517   3.413   9.721 -0.5449 -2.3063 -0.8135
 5504SOL    HW227972   4.406   3.461   9.802  0.5592  0.1623 -2.9739
 5505SOL     OW27973   1.284   4.296   3.753 -0.3179 -0.0269 -0.4711
 5505SOL    HW127974   1.369   4.340   3.759 -0.2362 -0.3491  0.7801
 5505SOL    HW227975   1.254   4.274   3.841  1.0307  1.6910  0.4067
 5506SOL     OW27976   4.275   3.067  14.477 -0.2345  0.1789  0.0801
 5506SOL    HW127977   4.298   3.001  14.412  0.0136  0.0889  0.2600
 5506SOL    HW227978   4.347   3.130  14.466 -1.6247  1.3579 -2.2894
 5507SOL     OW27979   2.170   2.394   0.555  0.0837  0.3449  0.4787
 5507SOL    HW127980   2.169   2.399   0.460  0.4402  1.0654  0.5128
 5507SOL    HW227981   2.200   2.305   0.571  0.1610  0.0127 -1.5093
 5508SOL     OW27982   3.244   0.791   5.602 -0.3271  0.6582  0.2163
 5508SOL    HW127983   3.279   0.726   5.663 -1.7447 -0.4369 -0.1282
 5508SOL    HW227984   3.263   0.752   5.517  0.7542  1.5961  0.0302
 5509SOL     OW27985   2.367   2.485   1.094 -0.2433  0.1258  0.7417
 5509SOL    HW127986   2.435   2.502   1.029 -0.4747 -1.2941  0.1315
 5509SOL    HW227987   2.416   2.501   1.175  0.9939 -1.6606  0.3394
 5510SOL     OW27988   0.522   2.307   6.508 -0.0096  0.0479  0.1761
 5510SOL    HW127989   0.587   2.290   6.441  2.8772  1.6522  2.5784
 5510SOL    HW227990   0.551   2.396   6.529 -0.1955  0.3312 -0.7918
 5511SOL     OW27991   0.146   2.084   7.700 -0.7458 -0.2704 -0.4192
 5511SOL    HW127992   0.221   2.084   7.640  0.2269 -2.7256  0.7968
 5511SOL    HW227993   0.112   2.165   7.664 -1.4082  0.7615  2.4816
 5512SOL     OW27994   3.374   0.490  11.982  0.1255 -1.0578  0.1753
 5512SOL    HW127995   3.332   0.407  12.005  0.2878 -0.7169  1.6593
 5512SOL    HW227996   3.396   0.531  12.065  1.3172 -1.4048  0.0344
 5513SOL     OW27997   3.609   0.938   3.048 -0.0276  0.6128  0.0621
 5513SOL    HW127998   3.591   0.850   3.079 -0.6997  0.5320 -0.5682
 5513SOL    HW227999   3.557   0.988   3.111 -2.0735 -2.8885  1.1164
 5514SOL     OW28000   1.508   1.379   8.485 -0.3953  0.0174 -0.4102
 5514SOL    HW128001   1.505   1.285   8.466  0.7419 -0.3401  1.1938
 5514SOL    HW228002   1.551   1.372   8.570  0.3368 -0.1909 -0.7962
 5515SOL     OW28003   1.098   3.243  16.547  0.6943  0.4316 -0.2154
 5515SOL    HW128004   1.156   3.185  16.597  0.3187 -0.3429 -0.6783
 5515SOL    HW228005   1.137   3.328  16.564  1.5590  0.0338 -0.1982
 5516SOL     OW28006   2.537   0.509   3.781  0.1589 -0.0531 -0.3898
 5516SOL    HW128007   2.580   0.594   3.786  0.1712 -0.0470 -0.5993
 5516SOL    HW228008   2.561   0.476   3.868 -1.0136 -0.4768 -0.2177
 5517SOL     OW28009   3.425   3.454   4.778  0.1763 -0.3127 -0.2888
 5517SOL    HW128010   3.401   3.495   4.695 -4.3377 -1.9531  0.2285
 5517SOL    HW228011   3.339   3.421   4.803 -0.7741 -0.5482 -3.8476
 5518SOL     OW28012   0.914   1.874  13.800 -0.1203  0.6282  0.1602
 5518SOL    HW128013   0.940   1.800  13.853 -0.0641 -0.2017 -1.0181
 5518SOL    HW228014   0.996   1.923  13.787 -1.3931  1.9081 -3.2307
 5519SOL     OW28015   1.758   1.560  17.044  0.3586 -0.6751 -0.8870
 5519SOL    HW128016   1.798   1.631  17.094 -0.2070 -0.9316 -0.0773
 5519SOL    HW228017   1.665   1.581  17.052  0.2364 -2.3192  1.6664
 5520SOL     OW28018   4.012   1.383   5.826  0.6279 -0.2309 -0.2084
 5520SOL    HW128019   3.922   1.377   5.793  0.5978  0.1988 -0.1949
 5520SOL    HW228020   4.036   1.461   5.777 -1.7415  0.7937  0.2606
 5521SOL     OW28021   3.232   0.978   3.383 -0.2411 -0.0367 -0.7797
 5521SOL    HW128022   3.294   1.026   3.328  0.0117  1.0423  0.4639
 5521SOL    HW228023   3.218   1.037   3.457  0.6958 -2.9921  1.7225
 5522SOL     OW28024   2.084   4.614   7.841  0.3134 -0.1835  0.0688
 5522SOL    HW128025   2.139   4.686   7.871 -1.6949  0.7623  1.4080
 5522SOL    HW228026   2.004   4.636   7.889 -1.2870 -1.2574 -2.0819
 5523SOL     OW28027   0.741   1.776  17.606  0.3523  0.4073 -0.0481
 5523SOL    HW128028   0.647   1.760  17.603  0.9447 -3.3168  1.5120
 5523SOL    HW228029   0.768   1.688  17.581  0.6324  0.4791  0.0005
 5524SOL     OW28030   3.018   2.310   5.328  0.6304 -0.0173  0.1365
 5524SOL    HW128031   2.984   2.399   5.320 -0.1233 -0.2046  1.1226
 5524SOL    HW228032   2.938   2.257   5.333  0.6530  0.0150  1.0070
 5525SOL     OW28033   4.060   3.981   0.211 -0.5728 -0.2270 -0.0143
 5525SOL    HW128034   4.117   3.987   0.135  0.2827 -0.1367  0.6418
 5525SOL    HW228035   4.066   3.886   0.227  0.6513  0.0747  1.2989
 5526SOL     OW28036   0.644   3.369  13.495 -0.1649  0.2001  0.4261
 5526SOL    HW128037   0.586   3.410  13.431 -0.3312  0.0613  0.4887
 5526SOL    HW228038   0.586   3.376  13.571 -2.6189 -2.4641 -1.2381
 5527SOL     OW28039   4.467   2.507  13.369 -0.1156  0.3754  0.2529
 5527SOL    HW128040   4.553   2.481  13.335 -0.7089  0.7196 -1.4949
 5527SOL    HW228041   4.410   2.489  13.294 -1.1853  1.5845  0.7968
 5528SOL     OW28042   4.431   4.620  10.900  0.1496  0.8193  0.0998
 5528SOL    HW128043   4.433   4.563  10.823  1.7030 -0.2695  0.9581
 5528SOL    HW228044   4.337   4.641  10.899 -0.0821 -0.3686 -4.2126
 5529SOL     OW28045   3.047   0.973   9.112  0.4785  0.3343  0.3453
 5529SOL    HW128046   3.021   0.883   9.132 -0.6473  0.9964  1.8905
 5529SOL    HW228047   2.965   1.022   9.109  0.0999 -0.5191 -2.7692
 5530SOL     OW28048   2.551   2.951   3.356 -0.0559 -0.0441  0.1136
 5530SOL    HW128049   2.499   2.887   3.404 -1.2794  0.0943 -1.0050
 5530SOL    HW228050   2.511   3.033   3.386 -1.4032 -0.6567 -0.0034
 5531SOL     OW28051   2.558   0.270   2.392  0.9357  0.1850  0.2792
 5531SOL    HW128052   2.521   0.183   2.386 -0.0811  0.6636 -0.2605
 5531SOL    HW228053   2.633   0.258   2.451 -0.7240 -0.1833  2.2950
 5532SOL     OW28054   2.432   0.313   6.718 -0.0848 -0.1818 -0.5474
 5532SOL    HW128055   2.377   0.238   6.738  0.7659  0.0984  2.8477
 5532SOL    HW228056   2.517   0.281   6.749 -0.7051  2.4921  3.9151
 5533SOL     OW28057   0.658   3.804   5.669 -0.0080 -0.2006  0.0228
 5533SOL    HW128058   0.719   3.854   5.724 -1.4519  0.0300  1.4234
 5533SOL    HW228059   0.603   3.778   5.743 -1.8946  0.2707 -1.1981
 5534SOL     OW28060   4.717   3.470   7.199  0.1136 -0.5865 -0.0466
 5534SOL    HW128061   0.076   3.470   7.248  1.7049  0.1792 -2.6727
 5534SOL    HW228062   4.718   3.384   7.157  0.5942 -1.0958  1.0363
 5535SOL     OW28063   3.203   4.534  17.367  0.4178  0.0832  0.1014
 5535SOL    HW128064   3.289   4.513  17.403  1.0654  0.8500 -0.9710
 5535SOL    HW228065   3.211   4.591  17.290  1.9084  0.3358  0.4532
 5536SOL     OW28066   1.562   4.035   6.428  0.3183  0.4596 -0.3286
 5536SOL    HW128067   1.616   4.091   6.483 -1.2775  0.5712  1.1367
 5536SOL    HW228068   1.583   3.942   6.441 -0.2702  0.4969  0.9227
 5537SOL     OW28069   0.463   1.773   3.850 -0.6481 -0.5936  0.7828
 5537SOL    HW128070   0.441   1.776   3.757 -1.7382 -2.1790  0.9932
 5537SOL    HW228071   0.555   1.748   3.841 -0.7098 -1.3462  2.2857
 5538SOL     OW28072   0.179   3.849   5.526  0.6038 -0.4211  0.0114
 5538SOL    HW128073   0.270   3.880   5.526  1.1183 -1.9830 -1.5816
 5538SOL    HW228074   0.180   3.798   5.607 -3.2862  0.5895  0.7306
 5539SOL     OW28075   4.358   3.794   0.691 -0.1659  0.4729  0.4735
 5539SOL    HW128076   4.441   3.746   0.687  0.1294  1.0630 -0.5047
 5539SOL    HW228077   4.301   3.744   0.749 -0.1352  0.2262  0.2957
 5540SOL     OW28078   0.098   3.156   4.183 -0.0390 -0.4304  0.0671
 5540SOL    HW128079   0.013   3.117   4.163 -0.6942  0.7359  0.5717
 5540SOL    HW228080   0.064   3.233   4.229 -1.5200 -1.1234  0.1232
 5541SOL     OW28081   4.570   0.938  16.620  0.2139  0.2006 -0.0150
 5541SOL    HW128082   4.571   1.007  16.553  0.4307  1.1735  0.9828
 5541SOL    HW228083   4.475   0.930  16.630  0.3950  0.3397  1.7576
 5542SOL     OW28084   1.625   2.218   6.941  0.2808  0.1179 -0.1458
 5542SOL    HW128085   1.622   2.202   7.035  1.7825  0.2547 -0.0824
 5542SOL    HW228086   1.712   2.252   6.920  0.5118  0.1049  0.8022
 5543SOL     OW28087   1.529   3.418  13.192  0.3801 -0.1121  0.7658
 5543SOL    HW128088   1.505   3.407  13.100 -1.3683 -2.3779  1.4936
 5543SOL    HW228089   1.459   3.474  13.225 -0.3883 -1.3737  1.2991
 5544SOL     OW28090   1.529   1.142   5.587  1.0355  0.2883  0.0478
 5544SOL    HW128091   1.501   1.109   5.501  1.0798  1.3682 -0.3741
 5544SOL    HW228092   1.467   1.098   5.644 -0.4864 -1.1187 -2.6915
 5545SOL     OW28093   3.961   3.561   8.419 -0.0532 -0.2396 -0.1705
 5545SOL    HW128094   3.975   3.580   8.512  0.9336 -1.7127 -0.0160
 5545SOL    HW228095   4.034   3.604   8.374 -0.6137  0.7464 -0.1265
 5546SOL     OW28096   1.505   2.625  10.497  0.1996 -0.1619  0.0106
 5546SOL    HW128097   1.497   2.652  10.588 -0.2126  3.1884 -1.0037
 5546SOL    HW228098   1.585   2.672  10.474 -0.8941  1.6727 -0.0171
 5547SOL     OW28099   2.863   2.088   4.451  0.1004 -0.5706  0.0792
 5547SOL    HW128100   2.929   2.117   4.514  1.0419  1.3178 -1.7649
 5547SOL    HW228101   2.778   2.083   4.494  0.0090 -0.0821 -0.0450
 5548SOL     OW28102   4.259   1.450   6.798 -0.2316 -0.0080  0.1932
 5548SOL    HW128103   4.316   1.433   6.724 -0.1280 -1.7230  0.6679
 5548SOL    HW228104   4.308   1.495   6.868 -3.0209  1.4913  1.1968
 5549SOL     OW28105   4.284   0.455   7.734  0.2571 -0.3868  0.0801
 5549SOL    HW128106   4.238   0.482   7.814 -0.3234  0.0279 -0.3969
 5549SOL    HW228107   4.310   0.545   7.713 -1.4231  0.2450  0.6654
 5550SOL     OW28108   0.841   2.946   5.206 -0.5266 -0.7009  0.1616
 5550SOL    HW128109   0.934   2.965   5.193 -1.2196  1.9333 -1.1250
 5550SOL    HW228110   0.816   3.006   5.136  0.7655 -0.3685 -0.0137
 5551SOL     OW28111   4.501   4.429   5.455 -0.2152  0.0940 -0.1687
 5551SOL    HW128112   4.565   4.369   5.492  1.4415  2.9051  1.5452
 5551SOL    HW228113   4.479   4.378   5.377  0.3387 -0.5513  0.1056
 5552SOL     OW28114   2.981   2.561  12.785 -0.0823 -0.1749 -0.2916
 5552SOL    HW128115   3.068   2.570  12.823 -0.3360 -0.6160  0.3930
 5552SOL    HW228116   2.932   2.627  12.833  2.7554  0.3116  1.9016
 5553SOL     OW28117   1.436   4.422  11.829  0.5201  0.6812 -0.5910
 5553SOL    HW128118   1.395   4.382  11.753 -1.4332  2.9938 -0.7677
 5553SOL    HW228119   1.502   4.356  11.850  0.4504  1.4194  1.9680
 5554SOL     OW28120   0.950   4.008   2.937 -0.3258  0.3201 -0.5646
 5554SOL    HW128121   1.034   4.034   2.976 -1.2530  0.0742  1.5950
 5554SOL    HW228122   0.977   3.980   2.850 -1.5220  1.6147 -1.3400
 5555SOL     OW28123   2.005   2.812   7.774 -0.0072 -0.3940  0.0540
 5555SOL    HW128124   2.075   2.852   7.827  1.0891 -1.6056 -0.4883
 5555SOL    HW228125   1.987   2.736   7.829 -1.1338 -1.3150 -1.6123
 5556SOL     OW28126   4.469   1.990  13.659  0.3637  0.3004  0.6974
 5556SOL    HW128127   4.465   1.993  13.563  0.3896  0.6510  0.7059
 5556SOL    HW228128   4.498   2.080  13.675  0.3812  0.8999 -2.6921
 5557SOL     OW28129   2.311   4.410   9.733  0.2114  0.5138 -0.0103
 5557SOL    HW128130   2.240   4.449   9.784 -0.6869 -0.8345 -0.2279
 5557SOL    HW228131   2.254   4.385   9.661  0.8056 -0.7569 -0.0378
 5558SOL     OW28132   2.764   4.622   8.088  0.0129 -0.6032  0.2043
 5558SOL    HW128133   2.798   4.688   8.148 -0.4190  0.3351 -0.5861
 5558SOL    HW228134   2.815   4.544   8.110 -0.8709 -1.0945  0.5336
 5559SOL     OW28135   3.151   0.207  10.525 -0.1118  0.4413 -0.1793
 5559SOL    HW128136   3.063   0.237  10.500  1.9345  2.5090 -4.9670
 5559SOL    HW228137   3.201   0.286  10.504 -0.1687  1.1443  2.2908
 5560SOL     OW28138   3.550   2.773   2.920 -0.1669 -0.5405 -0.0385
 5560SOL    HW128139   3.608   2.829   2.971 -0.2467 -0.5028  0.0115
 5560SOL    HW228140   3.612   2.714   2.877 -1.8088 -2.9685  0.9044
 5561SOL     OW28141   1.129   0.621   4.997  0.6120 -0.0642 -0.0498
 5561SOL    HW128142   1.164   0.597   4.911  0.5012  0.5851 -0.2755
 5561SOL    HW228143   1.098   0.534   5.021 -2.2042  1.3417  1.4291
 5562SOL     OW28144   1.845   3.267   2.505 -0.0986  0.6500  0.3656
 5562SOL    HW128145   1.849   3.301   2.594 -4.3451  0.5961  0.5913
 5562SOL    HW228146   1.855   3.174   2.525  1.0810  0.9414  1.0964
 5563SOL     OW28147   4.473   0.396  16.877  0.0306  0.6998 -0.5463
 5563SOL    HW128148   4.441   0.316  16.835  0.5754 -1.0954  2.4541
 5563SOL    HW228149   4.567   0.390  16.867  0.0271  0.1378 -0.2527
 5564SOL     OW28150   3.173   1.210   8.646  0.1345  0.0843  0.2296
 5564SOL    HW128151   3.158   1.272   8.717 -1.7853  0.3765 -0.4164
 5564SOL    HW228152   3.115   1.259   8.587 -0.0968  2.2271  2.2206
 5565SOL     OW28153   3.986   4.055   9.526 -0.2551 -0.4192 -0.3166
 5565SOL    HW128154   4.015   4.107   9.451  2.3166  0.2638  1.1562
 5565SOL    HW228155   3.894   4.079   9.537 -0.4288 -0.2063 -2.0893
 5566SOL     OW28156   1.610   1.027   2.800  0.0545  0.1271  0.2850
 5566SOL    HW128157   1.530   1.080   2.806  0.7065  1.1568 -0.0283
 5566SOL    HW228158   1.615   1.001   2.708  0.1608 -1.7558  0.8397
 5567SOL     OW28159   0.160   1.948  14.637  0.4422 -0.2924  0.3119
 5567SOL    HW128160   0.156   1.853  14.647  0.4595 -0.1323  1.8259
 5567SOL    HW228161   0.243   1.947  14.589  0.6659  0.2211  0.6890
 5568SOL     OW28162   4.162   3.663   8.283 -0.0422 -0.5497 -0.0752
 5568SOL    HW128163   4.252   3.633   8.299 -0.2132 -0.0010  1.8671
 5568SOL    HW228164   4.175   3.704   8.198 -0.8454 -0.8552 -0.3439
 5569SOL     OW28165   4.602   2.332  17.351  0.2693 -0.3518 -0.1094
 5569SOL    HW128166   4.519   2.378  17.364  0.2572 -0.0451 -1.2311
 5569SOL    HW228167   4.582   2.241  17.372  1.5924 -0.5033  0.5000
 5570SOL     OW28168   3.097   1.838   5.881 -0.3084 -0.1360 -0.0885
 5570SOL    HW128169   3.072   1.892   5.806 -1.9900 -1.5610 -0.5552
 5570SOL    HW228170   3.121   1.756   5.838 -0.3415  0.5680 -1.4426
 5571SOL     OW28171   2.322   0.492  15.343 -0.0557  0.5853 -0.0927
 5571SOL    HW128172   2.374   0.415  15.367 -0.2919  1.2372  2.4018
 5571SOL    HW228173   2.256   0.471  15.408  0.1043 -0.1829 -0.1771
 5572SOL     OW28174   0.879   0.074   4.268 -0.2331 -0.2597 -0.4940
 5572SOL    HW128175   0.865   0.145   4.205 -0.1551  1.1682  1.1033
 5572SOL    HW228176   0.971   0.056   4.250 -0.7205  0.0963 -3.2555
 5573SOL     OW28177   0.747   0.805  12.047 -0.0598 -0.4150  0.1188
 5573SOL    HW128178   0.798   0.766  11.975  0.8581  3.1517 -1.1770
 5573SOL    HW228179   0.658   0.778  12.026 -0.9175  0.4759  2.6528
 5574SOL     OW28180   0.388   3.445  12.533 -0.2957  0.1543  0.2581
 5574SOL    HW128181   0.427   3.473  12.450  1.1178 -1.6861  0.2967
 5574SOL    HW228182   0.318   3.509  12.540 -0.8860 -0.5654  0.9676
 5575SOL     OW28183   2.885   2.229   2.531  0.7823  0.5078 -0.1979
 5575SOL    HW128184   2.857   2.320   2.524  1.6472  0.6832 -1.2690
 5575SOL    HW228185   2.808   2.193   2.575 -0.1134 -1.2790 -3.2643
 5576SOL     OW28186   3.606   3.923   4.827 -0.2653  0.0080  0.2605
 5576SOL    HW128187   3.525   3.913   4.777 -1.0886 -0.0193  1.5792
 5576SOL    HW228188   3.610   3.836   4.867  1.4906 -1.5355 -3.3383
 5577SOL     OW28189   2.641   1.187   9.324  0.4322  0.1281 -0.1323
 5577SOL    HW128190   2.559   1.139   9.333  1.4031 -1.8152 -1.6624
 5577SOL    HW228191   2.656   1.226   9.410  0.2517  1.1680 -0.5822
 5578SOL     OW28192   1.219   0.372   6.483  0.2672 -0.2995  0.1203
 5578SOL    HW128193   1.297   0.366   6.539  0.4597  0.6413 -0.0457
 5578SOL    HW228194   1.154   0.309   6.512 -1.8572  1.6231 -0.4581
 5579SOL     OW28195   4.452   0.368   2.644  0.3967 -0.0532 -0.2487
 5579SOL    HW128196   4.360   0.356   2.665  0.1386 -1.2644 -2.0654
 5579SOL    HW228197   4.463   0.458   2.674  0.2548 -0.0713 -0.1448
 5580SOL     OW28198   4.546   1.605   5.158 -0.0264  0.3351  0.2376
 5580SOL    HW128199   4.542   1.694   5.122  0.6957  0.4390  0.4165
 5580SOL    HW228200   4.613   1.613   5.226  1.3728 -1.0742 -0.9778
 5581SOL     OW28201   1.698   1.567   9.937  0.3608 -0.4468 -0.0465
 5581SOL    HW128202   1.730   1.500   9.877 -0.0309  1.1574 -2.0348
 5581SOL    HW228203   1.631   1.604   9.880  0.8507  2.5482  1.3496
 5582SOL     OW28204   4.189   0.313   2.812  0.9394 -0.6202  0.2471
 5582SOL    HW128205   4.102   0.321   2.773 -0.2665 -0.0788  3.0289
 5582SOL    HW228206   4.208   0.407   2.805  2.7987 -0.9716  0.4746
 5583SOL     OW28207   3.325   4.124   8.437 -0.1513 -0.1915 -0.0236
 5583SOL    HW128208   3.268   4.076   8.377  0.6362 -0.6089 -0.4556
 5583SOL    HW228209   3.265   4.190   8.470 -0.7887 -0.4167 -0.7248
 5584SOL     OW28210   4.212   4.477   7.284 -0.1579 -0.0158 -0.0626
 5584SOL    HW128211   4.154   4.417   7.236  1.0877  1.4236 -3.3170
 5584SOL    HW228212   4.285   4.417   7.297 -0.3661 -0.3531 -0.4405
 5585SOL     OW28213   0.242   2.837   7.621  0.4211  0.1134  0.4213
 5585SOL    HW128214   0.194   2.919   7.610  1.9996  1.0016  0.3051
 5585SOL    HW228215   0.172   2.779   7.653  0.4478  0.1019  0.4585
 5586SOL     OW28216   4.709   3.307  17.387 -0.5832 -0.4145 -0.0494
 5586SOL    HW128217   0.078   3.325  17.407 -0.1609 -0.0138 -2.3905
 5586SOL    HW228218   4.694   3.226  17.435  0.5072  0.6129  2.0564
 5587SOL     OW28219   0.738   3.112  15.112 -0.0533 -0.0115 -0.0197
 5587SOL    HW128220   0.833   3.117  15.127 -0.0069 -1.3560  0.1772
 5587SOL    HW228221   0.710   3.203  15.115  1.8597  0.6549 -2.4320
 5588SOL     OW28222   3.128   2.354   3.946  0.1421 -0.1990 -0.5080
 5588SOL    HW128223   3.063   2.423   3.937  0.4113 -0.3289 -3.4489
 5588SOL    HW228224   3.206   2.405   3.967  0.2307 -0.7039  0.4000
 5589SOL     OW28225   2.262   1.766   2.957 -0.6138 -0.7138  0.2991
 5589SOL    HW128226   2.267   1.840   2.896  1.1205 -1.6164 -0.6458
 5589SOL    HW228227   2.175   1.781   2.993 -1.1314  0.9636 -1.6487
 5590SOL     OW28228   2.531   4.548   6.108  0.6747  0.6611  0.4943
 5590SOL    HW128229   2.593   4.584   6.044 -1.4863  2.1318 -0.7650
 5590SOL    HW228230   2.580   4.472   6.140 -2.3159 -1.2318  0.5022
 5591SOL     OW28231   3.871   3.802   8.168 -0.2661 -0.1839  0.2075
 5591SOL    HW128232   3.890   3.713   8.138 -2.5626 -0.0859 -1.5533
 5591SOL    HW228233   3.954   3.850   8.163 -0.3574 -0.3568 -3.1018
 5592SOL     OW28234   0.613   0.642   8.999 -0.0733 -0.4684 -0.2131
 5592SOL    HW128235   0.644   0.646   9.089 -0.5667 -2.7590  0.0619
 5592SOL    HW228236   0.660   0.713   8.954 -0.1228 -0.3127 -0.0194
 5593SOL     OW28237   3.873   2.538   2.536  0.1678  0.2506  0.0068
 5593SOL    HW128238   3.859   2.619   2.486  3.5625  1.3083  0.7263
 5593SOL    HW228239   3.964   2.552   2.565 -0.1523  2.2793  0.0588
 5594SOL     OW28240   0.108   3.633   2.254  0.0353 -0.1451  0.3301
 5594SOL    HW128241   0.104   3.675   2.169 -1.3737  0.0946  0.5240
 5594SOL    HW228242   0.088   3.541   2.235 -1.1750  0.3400 -0.6706
 5595SOL     OW28243   0.095   3.090   0.721 -0.0374  0.2028  0.6274
 5595SOL    HW128244   0.062   3.161   0.666 -1.1480 -3.3728 -3.2587
 5595SOL    HW228245   0.078   3.123   0.810  1.3627  1.5684  0.3914
 5596SOL     OW28246   3.957   2.850  16.763  0.3271 -0.0615 -0.8150
 5596SOL    HW128247   3.906   2.928  16.785  0.8008 -0.3350  1.2498
 5596SOL    HW228248   4.037   2.884  16.804 -1.4965 -0.8971  3.3933
 5597SOL     OW28249   0.928   2.159   9.506  0.1755  0.4869  0.0738
 5597SOL    HW128250   1.017   2.137   9.478 -0.6616  0.5072 -2.6278
 5597SOL    HW228251   0.920   2.112   9.589 -0.8284 -0.8588 -0.7711
 5598SOL     OW28252   2.010   0.213   7.900  0.3078  0.1473 -0.1776
 5598SOL    HW128253   2.104   0.209   7.917 -0.1023 -1.3666  1.6663
 5598SOL    HW228254   1.979   0.286   7.954 -0.8884 -1.4242  1.2639
 5599SOL     OW28255   3.034   1.963  11.899 -0.5555 -0.4456  0.1199
 5599SOL    HW128256   3.089   1.886  11.886 -0.2274 -0.5227  1.9342
 5599SOL    HW228257   3.014   1.954  11.992 -0.5540  0.2286  0.1841
 5600SOL     OW28258   2.583   3.692   7.081  0.0960  0.0765  0.0247
 5600SOL    HW128259   2.671   3.676   7.116  0.8016  0.4101 -1.5665
 5600SOL    HW228260   2.538   3.610   7.101 -0.1360  0.9044  2.8665
 5601SOL     OW28261   1.800   2.906   9.615 -0.0775 -0.1983  0.1413
 5601SOL    HW128262   1.782   2.979   9.675 -0.0285  0.1286 -0.2439
 5601SOL    HW228263   1.878   2.872   9.660  1.3664  0.9251 -1.5321
 5602SOL     OW28264   4.522   1.610   0.379  0.0034 -0.1006  0.1066
 5602SOL    HW128265   4.543   1.539   0.440  0.5050 -0.2757 -0.2782
 5602SOL    HW228266   4.608   1.652   0.378  0.0063 -0.1306 -0.5263
 5603SOL     OW28267   2.649   4.526   5.222  0.1433 -0.6023 -0.4207
 5603SOL    HW128268   2.578   4.469   5.253  0.9312 -1.8218 -0.8530
 5603SOL    HW228269   2.603   4.610   5.223  0.7327 -0.3051  2.6363
 5604SOL     OW28270   2.437   2.027   5.611  0.0655 -0.1705 -0.4032
 5604SOL    HW128271   2.348   2.002   5.636 -0.9037  2.8791 -0.8034
 5604SOL    HW228272   2.488   1.981   5.678  1.5706  0.6012 -1.0240
 5605SOL     OW28273   3.402   3.416  15.871  0.3499  0.4272  0.1470
 5605SOL    HW128274   3.444   3.335  15.898 -1.7160 -0.8041 -0.3346
 5605SOL    HW228275   3.312   3.399  15.898  0.5103  0.6843  0.8487
 5606SOL     OW28276   0.925   2.386   4.493  0.1240 -0.5075 -0.2567
 5606SOL    HW128277   1.013   2.422   4.478 -1.2328  1.6372 -3.0170
 5606SOL    HW228278   0.881   2.458   4.537  1.6174 -0.3630  1.0401
 5607SOL     OW28279   1.031   0.725   9.439 -0.8861  0.2746  0.0433
 5607SOL    HW128280   1.103   0.692   9.385 -1.1943 -1.8379  0.9154
 5607SOL    HW228281   1.038   0.820   9.446 -0.4407  0.2128  0.4005
 5608SOL     OW28282   4.457   1.630  10.852  0.1775  0.0432  0.4335
 5608SOL    HW128283   4.493   1.697  10.910  0.0826  0.3674  0.1191
 5608SOL    HW228284   4.394   1.678  10.798  0.1035 -1.5854 -0.9387
 5609SOL     OW28285   0.008   1.724   8.731  0.6894 -0.0506 -0.5127
 5609SOL    HW128286   4.645   1.689   8.706  0.4292 -0.4791  0.9799
 5609SOL    HW228287   4.713   1.817   8.715  1.8996  0.1678 -0.5954
 5610SOL     OW28288   1.676   3.374   4.559 -0.1821 -0.5796 -0.6072
 5610SOL    HW128289   1.669   3.278   4.560 -1.2808 -0.5081 -1.2391
 5610SOL    HW228290   1.694   3.400   4.649  1.3333 -1.4652 -0.6462
 5611SOL     OW28291   2.020   0.259   9.121  0.5315 -0.0898 -0.2271
 5611SOL    HW128292   1.975   0.306   9.050 -0.4691 -1.2132 -0.3549
 5611SOL    HW228293   2.038   0.175   9.078  2.9862  0.1651  0.3313
 5612SOL     OW28294   0.620   3.769  13.397  0.5982  0.7138  0.5862
 5612SOL    HW128295   0.604   3.851  13.445 -1.9899 -0.2403  1.3335
 5612SOL    HW228296   0.539   3.756  13.347  1.3509 -1.7303  0.0180
 5613SOL     OW28297   4.558   1.970   8.719  0.0066 -0.0463  0.1697
 5613SOL    HW128298   4.481   1.935   8.763 -0.0329  1.4771  1.3223
 5613SOL    HW228299   4.527   2.015   8.640 -0.3862  0.3148  0.5262
 5614SOL     OW28300   1.284   2.770   5.741  0.0670 -0.0758 -0.4104
 5614SOL    HW128301   1.280   2.802   5.650  1.1636  0.8535 -0.1477
 5614SOL    HW228302   1.261   2.847   5.792 -1.0533 -1.8607  1.7397
 5615SOL     OW28303   0.230   3.151  13.889  0.0344 -0.0383  0.7675
 5615SOL    HW128304   0.278   3.096  13.827  1.3757  1.2490  0.6670
 5615SOL    HW228305   0.224   3.231  13.837 -0.7042 -0.1806  0.6335
 5616SOL     OW28306   1.253   3.626   4.895  0.6308 -0.5464  0.2182
 5616SOL    HW128307   1.345   3.653   4.886  0.5940 -0.5301 -0.1149
 5616SOL    HW228308   1.260   3.531   4.888 -0.7164 -0.6802  0.8878
 5617SOL     OW28309   3.445   3.780   4.246 -0.1884  0.1040  0.4534
 5617SOL    HW128310   3.374   3.717   4.262  0.6079 -1.1410 -0.9071
 5617SOL    HW228311   3.505   3.779   4.320  1.9888 -1.1239 -1.3056
 5618SOL     OW28312   1.924   0.337   3.455 -0.0145  0.0888 -0.9134
 5618SOL    HW128313   2.010   0.309   3.485  0.5597  0.3990 -2.3097
 5618SOL    HW228314   1.938   0.418   3.406  0.6456 -0.1805 -1.1579
 5619SOL     OW28315   1.108   2.434   9.238  0.2687  0.3586 -0.0694
 5619SOL    HW128316   1.185   2.386   9.269  0.3808  2.7312  3.4135
 5619SOL    HW228317   1.042   2.365   9.242  2.2345 -1.4669  0.7242
 5620SOL     OW28318   0.762   3.237   3.990 -0.3122 -0.4455 -0.1988
 5620SOL    HW128319   0.765   3.319   3.941  0.9104 -0.7970 -0.7155
 5620SOL    HW228320   0.730   3.266   4.076  0.6746  2.1348 -0.6918
 5621SOL     OW28321   0.933   2.463   1.393 -0.0088  0.0429  0.1349
 5621SOL    HW128322   1.002   2.513   1.436  1.3745 -0.4920 -1.4854
 5621SOL    HW228323   0.932   2.503   1.306  0.9426  1.1324  0.6251
 5622SOL     OW28324   0.209   3.176   8.617  0.0017 -0.2760  0.2038
 5622SOL    HW128325   0.280   3.240   8.617  0.8142 -1.1757  0.4523
 5622SOL    HW228326   0.188   3.167   8.710  0.1253  0.3631  0.2941
 5623SOL     OW28327   1.411   1.252   8.033  0.0372 -0.2135 -0.3168
 5623SOL    HW128328   1.318   1.229   8.023 -0.8807  1.9777  3.1348
 5623SOL    HW228329   1.423   1.324   7.971 -1.7783  0.8172  0.5303
 5624SOL     OW28330   4.585   0.163   6.197 -0.6044 -0.0655  0.2700
 5624SOL    HW128331   4.558   0.222   6.127  1.6721  0.1710 -0.4083
 5624SOL    HW228332   4.545   0.200   6.276 -1.8852 -2.5770  0.7717
 5625SOL     OW28333   1.372   4.113   7.786  0.1860 -0.3392  0.1504
 5625SOL    HW128334   1.390   4.170   7.860  0.2812 -0.8471  0.5177
 5625SOL    HW228335   1.430   4.165   7.732 -1.3805  0.5425 -0.6950
 5626SOL     OW28336   2.728   4.667   8.474 -0.0216 -0.0808  0.2892
 5626SOL    HW128337   2.798   0.005   8.497 -0.1094  0.7161 -1.5294
 5626SOL    HW228338   2.758   4.601   8.537 -0.8710 -0.5575  0.2072
 5627SOL     OW28339   4.451   2.470  13.083  0.6107  0.0062  0.0867
 5627SOL    HW128340   4.487   2.404  13.023  1.3765  0.3344  0.1793
 5627SOL    HW228341   4.373   2.419  13.104 -0.0912  0.8303 -0.5028
 5628SOL     OW28342   1.941   2.107   8.593  0.4821  0.0442 -0.2201
 5628SOL    HW128343   1.850   2.132   8.608  0.9568 -1.2859  5.2294
 5628SOL    HW228344   1.930   2.012   8.587  0.0464  0.0302  0.7071
 5629SOL     OW28345   0.820   0.237  15.544  0.2568 -0.5141  0.8594
 5629SOL    HW128346   0.758   0.243  15.617 -0.6918 -0.8871  0.0893
 5629SOL    HW228347   0.781   0.300  15.483  3.3431  0.9552  0.4379
 5630SOL     OW28348   2.900   4.588   7.580  0.4351 -0.1975  0.2960
 5630SOL    HW128349   2.949   4.506   7.581  0.4016 -0.2374 -0.9156
 5630SOL    HW228350   2.863   4.588   7.491 -0.5321 -2.3705  0.7181
 5631SOL     OW28351   2.560   3.726   6.484 -0.4845 -0.1466 -0.2736
 5631SOL    HW128352   2.644   3.752   6.521  0.9629 -2.4783 -1.9192
 5631SOL    HW228353   2.501   3.779   6.537  0.0833  0.9104 -0.6881
 5632SOL     OW28354   3.822   4.203   4.945 -0.5749  0.5876  0.4284
 5632SOL    HW128355   3.872   4.252   4.879 -1.6321 -1.2978 -1.7618
 5632SOL    HW228356   3.820   4.116   4.906 -1.6670  0.0765  1.6080
 5633SOL     OW28357   1.081   3.394   1.076 -0.0376  0.1540  0.0848
 5633SOL    HW128358   1.067   3.430   1.164  2.1953 -0.8638  0.8465
 5633SOL    HW228359   1.031   3.460   1.028  0.9312  0.3449 -0.6459
 5634SOL     OW28360   3.672   3.283   4.643  0.0904 -0.1511 -0.3769
 5634SOL    HW128361   3.659   3.367   4.598  1.7988 -0.7606 -1.9975
 5634SOL    HW228362   3.612   3.296   4.717 -0.5293  3.3316 -1.4568
 5635SOL     OW28363   0.285   3.918   7.345 -0.6592 -0.1576 -0.3137
 5635SOL    HW128364   0.294   3.873   7.261 -3.1292 -2.1964  0.5161
 5635SOL    HW228365   0.370   3.890   7.380 -0.3766  0.0786 -0.8175
 5636SOL     OW28366   2.075   3.207   6.067  0.5954 -0.3723 -0.2432
 5636SOL    HW128367   2.057   3.169   6.154 -0.6406  1.9693  0.5095
 5636SOL    HW228368   2.124   3.284   6.096 -0.6877  0.3279  0.0536
 5637SOL     OW28369   3.794   1.706   3.280 -0.0793 -0.0617  0.1572
 5637SOL    HW128370   3.719   1.762   3.301  0.2676  0.1195  0.9149
 5637SOL    HW228371   3.751   1.650   3.216  0.4723  0.3597 -0.5813
 5638SOL     OW28372   1.140   0.512   3.959 -0.1328 -0.2227  0.0440
 5638SOL    HW128373   1.058   0.488   3.915 -0.5682  1.8302 -0.2817
 5638SOL    HW228374   1.176   0.424   3.961  0.8181  0.1291 -1.6710
 5639SOL     OW28375   3.802   2.820  16.531  0.7327 -0.2809  0.2509
 5639SOL    HW128376   3.864   2.842  16.601  0.8135  1.6055 -0.4182
 5639SOL    HW228377   3.844   2.847  16.449 -0.1946 -0.8793 -0.4176
 5640SOL     OW28378   2.263   2.742   1.096 -0.2741 -0.1338 -0.5086
 5640SOL    HW128379   2.341   2.795   1.076 -0.2343 -0.3984 -1.0472
 5640SOL    HW228380   2.294   2.652   1.090 -0.3189 -0.2053  0.3873
 5641SOL     OW28381   0.368   2.656   8.282 -0.3783 -0.0506  0.0262
 5641SOL    HW128382   0.458   2.689   8.274 -0.5958  0.6426  0.4054
 5641SOL    HW228383   0.332   2.739   8.251  1.0055  1.1791  1.6584
 5642SOL     OW28384   4.671   3.320  14.315 -0.8203 -0.1250  0.5193
 5642SOL    HW128385   0.029   3.368  14.335 -1.4845  1.3103 -0.2951
 5642SOL    HW228386   4.685   3.237  14.361  2.7653 -0.3347 -0.9397
 5643SOL     OW28387   2.920   0.126   8.565 -0.2092  0.3225  0.5368
 5643SOL    HW128388   2.986   0.081   8.619 -0.3142 -1.0917 -0.5020
 5643SOL    HW228389   2.936   0.217   8.590 -0.2776  0.4222  0.2039
 5644SOL     OW28390   4.702   1.860  10.322  0.1901  0.1555 -0.1341
 5644SOL    HW128391   0.005   1.942  10.363  1.5903 -0.3758  0.0539
 5644SOL    HW228392   0.065   1.820  10.312 -0.1908 -0.3979 -1.1900
 5645SOL     OW28393   3.968   4.058   1.694  0.1318 -0.2769 -0.3340
 5645SOL    HW128394   3.970   4.152   1.679  0.4889  0.0303  1.5669
 5645SOL    HW228395   3.880   4.035   1.666  0.0803  1.1645 -1.3183
 5646SOL     OW28396   3.049   4.563   6.295 -0.6869  0.3333  0.1397
 5646SOL    HW128397   2.982   4.599   6.235  0.1513  1.4911 -0.0969
 5646SOL    HW228398   3.098   4.504   6.238 -0.7545  0.6748 -0.2763
 5647SOL     OW28399   0.385   0.934   6.203  0.1653  0.1089 -0.2686
 5647SOL    HW128400   0.347   0.993   6.269  1.8722  1.1638 -0.2252
 5647SOL    HW228401   0.406   0.860   6.260 -1.1455 -0.9213 -1.1209
 5648SOL     OW28402   1.320   2.886  11.871  0.0850  0.1530 -0.0433
 5648SOL    HW128403   1.232   2.892  11.834  0.5661 -0.0767 -1.2168
 5648SOL    HW228404   1.313   2.790  11.877  1.0896  0.0609 -0.4696
 5649SOL     OW28405   2.764   0.715  13.973  0.0242  0.1368 -0.3240
 5649SOL    HW128406   2.673   0.725  14.000  0.3272 -0.1149  0.7893
 5649SOL    HW228407   2.752   0.694  13.880 -0.8532  0.6262 -0.3306
 5650SOL     OW28408   3.216   0.822   6.094 -0.3244  0.3536  0.0412
 5650SOL    HW128409   3.212   0.869   6.010  0.3360  1.7624  0.7916
 5650SOL    HW228410   3.124   0.806   6.117 -0.8425  0.1303 -2.1419
 5651SOL     OW28411   2.672   2.928   5.281 -0.2437  0.4331 -0.3591
 5651SOL    HW128412   2.719   2.995   5.332 -0.0520 -1.0802  1.4388
 5651SOL    HW228413   2.657   2.853   5.338  0.8936  0.8537  0.5225
 5652SOL     OW28414   1.496   3.520  15.144 -0.4618 -0.4023 -0.5858
 5652SOL    HW128415   1.471   3.470  15.222 -0.0254 -1.2810 -1.0145
 5652SOL    HW228416   1.542   3.456  15.090  2.2656  0.6092  0.5717
 5653SOL     OW28417   3.636   2.901   8.046 -0.1615  0.5098 -0.1347
 5653SOL    HW128418   3.653   2.869   7.958  1.4722 -1.7414  0.9925
 5653SOL    HW228419   3.541   2.894   8.036 -0.1037  0.9009 -0.9057
 5654SOL     OW28420   3.556   2.183  14.349 -0.2206  0.2876 -0.5015
 5654SOL    HW128421   3.486   2.132  14.308 -0.3599  0.7446 -0.8276
 5654SOL    HW228422   3.633   2.126  14.355 -0.1827  0.5512  1.3997
 5655SOL     OW28423   3.962   1.249   2.979  0.0235  0.4429  0.2130
 5655SOL    HW128424   3.955   1.336   2.940 -1.7575  0.8132  1.4065
 5655SOL    HW228425   4.016   1.276   3.053  1.5696  1.2120 -1.1905
 5656SOL     OW28426   0.456   4.255   1.054 -0.3494  0.7225  0.2901
 5656SOL    HW128427   0.530   4.258   0.993  0.3966  2.8483  1.3344
 5656SOL    HW228428   0.487   4.206   1.130 -3.1668 -1.6159 -0.0706
 5657SOL     OW28429   4.471   3.661  10.186 -0.8586  1.2952 -0.0570
 5657SOL    HW128430   4.404   3.636  10.122 -2.7215 -0.7670  2.7149
 5657SOL    HW228431   4.448   3.753  10.196 -0.2025  1.5896 -1.2370
 5658SOL     OW28432   1.294   2.379   7.175  0.4495  0.3255 -0.0425
 5658SOL    HW128433   1.259   2.417   7.256  1.1349  0.9546 -0.0511
 5658SOL    HW228434   1.255   2.292   7.176  1.0263  0.0918  1.7392
 5659SOL     OW28435   0.676   3.453   9.371 -0.3355  0.4218  0.3751
 5659SOL    HW128436   0.693   3.532   9.320  0.4576 -0.8359 -1.3188
 5659SOL    HW228437   0.670   3.482   9.462  1.8950 -1.3122  1.0981
 5660SOL     OW28438   1.713   3.598  11.538  0.5317  0.0136  0.3286
 5660SOL    HW128439   1.683   3.679  11.496  0.4205  0.6156  1.5713
 5660SOL    HW228440   1.790   3.624  11.589  0.8620  0.9022 -0.5965
 5661SOL     OW28441   2.527   0.864   6.149 -0.2904  0.4956  0.3149
 5661SOL    HW128442   2.550   0.786   6.100 -0.3648 -0.2941  1.5425
 5661SOL    HW228443   2.517   0.822   6.235 -2.8321 -1.1600 -0.7794
 5662SOL     OW28444   2.318   2.727  16.418 -0.3458  0.2719 -0.5678
 5662SOL    HW128445   2.361   2.647  16.450  0.4221  1.8028  2.2460
 5662SOL    HW228446   2.241   2.718  16.476 -2.1973  3.0598 -2.5996
 5663SOL     OW28447   2.674   4.343   2.930 -0.2402 -0.3043 -0.0809
 5663SOL    HW128448   2.687   4.317   2.839  0.2101 -0.1739 -0.0545
 5663SOL    HW228449   2.596   4.290   2.945  0.9860 -2.2655 -0.7551
 5664SOL     OW28450   2.328   2.328  16.778 -0.1040  0.1416  0.0220
 5664SOL    HW128451   2.291   2.364  16.859  2.4187  2.8265 -0.0002
 5664SOL    HW228452   2.389   2.260  16.807 -1.6414 -0.5547  1.6590
 5665SOL     OW28453   4.256   2.640   5.121 -0.1421 -0.2803  0.2261
 5665SOL    HW128454   4.316   2.714   5.116  0.6838 -0.8391  1.6861
 5665SOL    HW228455   4.319   2.574   5.151 -1.2460 -0.8799  1.2434
 5666SOL     OW28456   4.375   1.844   8.504 -0.5594 -0.3697 -0.0320
 5666SOL    HW128457   4.428   1.793   8.565 -0.0003 -1.4964 -1.4617
 5666SOL    HW228458   4.295   1.858   8.554 -1.2392 -0.3649 -1.1164
 5667SOL     OW28459   0.473   3.697  17.434 -0.3145 -0.3206  0.6717
 5667SOL    HW128460   0.518   3.778  17.458 -0.4994  0.5322 -1.8523
 5667SOL    HW228461   0.422   3.721  17.357  0.9526 -0.4254 -0.1990
 5668SOL     OW28462   3.237   2.893   2.335 -0.0823  0.7957  0.2313
 5668SOL    HW128463   3.291   2.878   2.258  0.3763 -0.2364  0.7533
 5668SOL    HW228464   3.296   2.953   2.380  0.3714  0.1842  0.4512
 5669SOL     OW28465   4.468   0.822  17.063 -0.7781  0.1359  0.5693
 5669SOL    HW128466   4.424   0.793  16.984  0.2348  4.2714 -1.4890
 5669SOL    HW228467   4.396   0.807  17.124 -0.5651  0.1070  0.8180
 5670SOL     OW28468   2.168   1.624   4.384  0.3850 -0.7488 -0.0522
 5670SOL    HW128469   2.073   1.629   4.389  0.3075 -0.7348 -1.5154
 5670SOL    HW228470   2.205   1.573   4.456  0.6905 -1.8421 -0.9607
 5671SOL     OW28471   3.946   3.413  15.153  0.3993 -0.2181  1.2565
 5671SOL    HW128472   3.926   3.478  15.086 -1.4704 -0.7087  1.3260
 5671SOL    HW228473   3.979   3.344  15.095 -1.4153  0.2858 -0.3755
 5672SOL     OW28474   2.972   0.095   4.945  0.7706  0.1032  0.0475
 5672SOL    HW128475   3.015   0.127   4.866  1.4320 -1.9117 -0.4112
 5672SOL    HW228476   3.035   0.132   5.007  0.7429 -2.8852  1.8690
 5673SOL     OW28477   2.255   1.631   5.941 -0.3213  0.6564  0.1742
 5673SOL    HW128478   2.316   1.585   6.000 -0.4403 -2.1406 -1.8664
 5673SOL    HW228479   2.259   1.574   5.864  0.8797 -0.7107  1.2252
 5674SOL     OW28480   1.250   0.425   8.917  0.5868  0.1556  0.1889
 5674SOL    HW128481   1.169   0.449   8.871  0.5248 -1.5025 -0.5635
 5674SOL    HW228482   1.272   0.494   8.979  2.0768  1.2857 -1.6183
 5675SOL     OW28483   2.872   3.711   5.646  0.3389 -0.0621 -0.8339
 5675SOL    HW128484   2.942   3.649   5.625  0.2226 -0.5166  0.1224
 5675SOL    HW228485   2.932   3.780   5.676 -3.1439  2.3340  0.5967
 5676SOL     OW28486   0.589   2.150  13.096 -0.0685  0.3837  0.0243
 5676SOL    HW128487   0.581   2.191  13.010 -1.5475 -0.3056 -0.1516
 5676SOL    HW228488   0.494   2.146  13.101 -0.0635  1.1665  0.8243
 5677SOL     OW28489   3.245   1.466  11.628  0.1570 -0.0685 -0.0888
 5677SOL    HW128490   3.257   1.497  11.538 -1.0081  0.2662 -0.1189
 5677SOL    HW228491   3.331   1.433  11.653  0.0145  0.0380  0.5415
 5678SOL     OW28492   2.809   1.587   3.917  0.1965 -0.8218  0.4561
 5678SOL    HW128493   2.840   1.673   3.891 -1.2020 -0.5577 -0.3095
 5678SOL    HW228494   2.812   1.536   3.836 -0.0597 -0.8535  0.4675
 5679SOL     OW28495   3.519   2.425  14.242 -0.1639 -0.1150  0.3355
 5679SOL    HW128496   3.544   2.338  14.273  0.8970 -0.4769 -1.5211
 5679SOL    HW228497   3.602   2.448  14.200  0.0121 -1.3999 -0.0324
 5680SOL     OW28498   2.826   0.876  14.310  0.1123 -0.3817 -0.4843
 5680SOL    HW128499   2.852   0.814  14.378 -0.9816 -0.7498 -0.4035
 5680SOL    HW228500   2.823   0.952  14.369  2.6392 -0.0445 -0.8007
 5681SOL     OW28501   0.951   3.766  15.256  0.4224 -0.5290  0.8980
 5681SOL    HW128502   0.989   3.816  15.329 -0.4840 -0.4992  1.3425
 5681SOL    HW228503   0.864   3.804  15.249  1.8252  2.3070 -1.1115
 5682SOL     OW28504   0.815   4.078   6.904 -0.4475 -0.1290  0.6981
 5682SOL    HW128505   0.745   4.116   6.957 -0.2809 -2.0574  2.2741
 5682SOL    HW228506   0.772   3.995   6.887 -1.8055  0.6997  0.1278
 5683SOL     OW28507   3.008   3.010  17.311 -0.0891  0.1885  1.0610
 5683SOL    HW128508   2.918   3.033  17.335  0.7344  0.1926  4.0752
 5683SOL    HW228509   3.056   3.062  17.376 -3.4026  2.3472  1.7854
 5684SOL     OW28510   0.840   4.003   9.218  0.1228 -0.2501 -0.4513
 5684SOL    HW128511   0.892   4.033   9.292  0.4937 -0.4041 -0.6511
 5684SOL    HW228512   0.867   4.056   9.143  0.4941 -0.6938 -0.6313
 5685SOL     OW28513   0.810   0.014  17.175  0.0393  0.4908  0.7822
 5685SOL    HW128514   0.744   0.034  17.108 -0.7149 -0.1034  1.3528
 5685SOL    HW228515   0.874   0.081  17.151 -0.0985  0.4642  0.3417
 5686SOL     OW28516   3.702   2.574  13.982 -0.0639 -0.4126 -0.0722
 5686SOL    HW128517   3.749   2.523  14.048  1.1108 -1.7765 -1.9557
 5686SOL    HW228518   3.772   2.639  13.971 -0.2992 -0.1625 -0.0934
 5687SOL     OW28519   0.847   0.468  15.904  0.1674 -0.1547  0.5056
 5687SOL    HW128520   0.825   0.541  15.962  0.7503  0.8636 -0.5587
 5687SOL    HW228521   0.760   0.446  15.869 -0.4232  1.5118  0.9349
 5688SOL     OW28522   0.730   2.310   6.076 -0.0994  0.4832 -0.4331
 5688SOL    HW128523   0.816   2.349   6.094  0.0843  0.6659 -1.6955
 5688SOL    HW228524   0.674   2.387   6.065 -1.6690 -0.9409 -2.4148
 5689SOL     OW28525   1.722   4.275   4.291  0.4917 -0.1479 -0.0640
 5689SOL    HW128526   1.733   4.183   4.268 -0.3335  0.0627 -1.2679
 5689SOL    HW228527   1.793   4.286   4.354  0.6290 -0.6174 -0.1367
 5690SOL     OW28528   4.233   0.449  17.046  0.3748  0.5080 -0.5217
 5690SOL    HW128529   4.320   0.445  17.004  0.2088 -0.2104 -0.7981
 5690SOL    HW228530   4.247   0.505  17.122 -0.4946 -0.0223  0.0234
 5691SOL     OW28531   0.042   1.482   6.266 -0.1761  0.0254  0.2747
 5691SOL    HW128532   4.722   1.409   6.222 -0.9831  1.0597 -0.6707
 5691SOL    HW228533   0.082   1.541   6.202  1.1771 -0.4928  0.6488
 5692SOL     OW28534   1.663   1.125  11.125  0.7949  0.1250  0.1503
 5692SOL    HW128535   1.704   1.098  11.042  0.1200 -2.5257  0.6851
 5692SOL    HW228536   1.573   1.138  11.096  0.5972  0.5775  0.9771
 5693SOL     OW28537   2.872   3.003   0.515  0.0307  0.8825  0.2084
 5693SOL    HW128538   2.858   2.958   0.599  1.1611  0.0958 -0.0192
 5693SOL    HW228539   2.822   2.944   0.459  0.2621 -2.8617  3.9635
 5694SOL     OW28540   2.976   4.487  16.855 -0.0988 -0.7154  0.0424
 5694SOL    HW128541   3.049   4.473  16.915  1.8239 -0.7841 -2.3010
 5694SOL    HW228542   2.919   4.415  16.883  0.4525  0.1595  3.3897
 5695SOL     OW28543   1.059   4.554   6.154 -0.3094  0.0934 -0.4372
 5695SOL    HW128544   1.090   4.563   6.064 -2.4054  0.0797 -1.1527
 5695SOL    HW228545   1.110   4.480   6.186  0.2765  0.3676 -0.7236
 5696SOL     OW28546   2.776   4.585   3.823 -0.0935  0.0255  1.0154
 5696SOL    HW128547   2.688   4.596   3.860 -0.2980 -1.4141  0.9740
 5696SOL    HW228548   2.824   4.651   3.872 -2.7923 -0.0535  3.7465
 5697SOL     OW28549   2.590   2.920   4.648 -0.1174  0.0307  0.3473
 5697SOL    HW128550   2.574   2.828   4.626  0.4951 -0.1969  0.8551
 5697SOL    HW228551   2.683   2.908   4.667 -0.4438 -2.4746  0.4830
 5698SOL     OW28552   3.328   0.066   7.379 -0.7147  0.0543  0.0254
 5698SOL    HW128553   3.290   0.092   7.463 -2.6040  0.0937 -0.8520
 5698SOL    HW228554   3.327   0.153   7.339  1.5057 -0.1399 -0.4622
 5699SOL     OW28555   4.416   1.665  10.288  0.5049  0.0549  0.2612
 5699SOL    HW128556   4.462   1.699  10.365 -1.1514  0.8645  0.8858
 5699SOL    HW228557   4.406   1.571  10.299 -2.1674  0.2649 -0.4346
 5700SOL     OW28558   2.915   0.751   8.851  0.0168  0.1315  0.3180
 5700SOL    HW128559   2.841   0.741   8.791  0.6711 -2.0793 -0.1121
 5700SOL    HW228560   2.937   0.839   8.821 -2.5693  0.4153 -0.7723
 5701SOL     OW28561   4.634   2.489   7.401  0.5778 -0.3718 -0.2915
 5701SOL    HW128562   4.543   2.480   7.372 -0.0206  1.8057  0.9003
 5701SOL    HW228563   4.624   2.567   7.456 -0.0569 -1.1615  0.6996
 5702SOL     OW28564   2.576   2.685   3.814 -0.1779 -0.7016  0.1920
 5702SOL    HW128565   2.575   2.780   3.823 -0.3808 -0.6801 -0.0502
 5702SOL    HW228566   2.578   2.685   3.718 -2.6762  1.0400  0.1341
 5703SOL     OW28567   4.276   1.930   7.587  0.0567  0.1049 -0.0704
 5703SOL    HW128568   4.343   1.939   7.655 -0.0546 -0.1292  0.0693
 5703SOL    HW228569   4.192   1.939   7.631 -0.6374 -0.7373 -1.2106
 5704SOL     OW28570   3.663   3.411   1.331  0.6187 -0.6359 -0.9305
 5704SOL    HW128571   3.745   3.362   1.334  0.5163 -0.7371  0.1655
 5704SOL    HW228572   3.687   3.470   1.402  2.5291 -1.7229 -0.6695
 5705SOL     OW28573   2.869   2.357  16.459  0.5854  0.0124  0.2161
 5705SOL    HW128574   2.844   2.361  16.551 -0.6364  0.8771 -0.1559
 5705SOL    HW228575   2.791   2.388  16.413  0.6704  0.4968  0.4005
 5706SOL     OW28576   2.872   0.038  10.735 -0.1095  0.2202 -0.2031
 5706SOL    HW128577   2.818   0.023  10.658 -1.5874 -2.0813  1.2943
 5706SOL    HW228578   2.960   0.033  10.697 -0.1630  1.3435 -0.4819
 5707SOL     OW28579   0.179   0.369   2.453 -0.0582 -0.3771  0.4491
 5707SOL    HW128580   0.159   0.462   2.457  0.2326 -0.2057 -2.5666
 5707SOL    HW228581   0.254   0.371   2.512 -0.1640 -0.4350  0.5872
 5708SOL     OW28582   3.931   0.782   3.663 -0.1896 -1.0488 -0.5562
 5708SOL    HW128583   3.876   0.795   3.740  0.5343  1.5975 -0.4914
 5708SOL    HW228584   3.891   0.845   3.602 -2.3305 -1.0473  0.8321
 5709SOL     OW28585   0.457   3.922   3.007 -0.5547 -0.1248  0.4942
 5709SOL    HW128586   0.369   3.886   2.999 -1.6098  2.4474  0.4382
 5709SOL    HW228587   0.437   4.014   2.988 -0.5809  0.0370  1.3300
 5710SOL     OW28588   3.984   2.141   8.156 -0.3998 -1.1628  0.2227
 5710SOL    HW128589   3.984   2.208   8.225  1.9264  1.0270 -1.9272
 5710SOL    HW228590   3.943   2.196   8.090  1.3778 -0.3021 -0.1431
 5711SOL     OW28591   1.701   0.850   8.972  0.0413  0.0990 -0.4183
 5711SOL    HW128592   1.756   0.925   8.951 -1.7483  1.9937  1.7081
 5711SOL    HW228593   1.632   0.895   9.020 -0.2703  2.4310 -3.0447
 5712SOL     OW28594   2.161   3.729   3.947  0.0918 -0.3010  0.5379
 5712SOL    HW128595   2.129   3.649   3.905 -1.8509  1.1498 -0.7761
 5712SOL    HW228596   2.122   3.789   3.882 -1.0166 -0.8065  0.7280
 5713SOL     OW28597   2.926   3.744   9.712  0.3401 -0.4557 -0.4844
 5713SOL    HW128598   2.963   3.788   9.788  0.8658 -1.4546 -0.1610
 5713SOL    HW228599   2.931   3.651   9.734 -0.4584 -0.1983  0.7385
 5714SOL     OW28600   2.329   1.322   7.824  0.5705 -0.2490  0.2179
 5714SOL    HW128601   2.287   1.305   7.909 -1.6478  1.3505 -0.5500
 5714SOL    HW228602   2.404   1.378   7.846  0.0528  1.0284 -1.2653
 5715SOL     OW28603   0.621   4.356   2.271 -0.1558 -0.7664 -0.1379
 5715SOL    HW128604   0.655   4.386   2.186  2.0467 -0.7713  0.7515
 5715SOL    HW228605   0.669   4.405   2.338 -1.6793  2.3046 -1.2615
 5716SOL     OW28606   4.618   2.728   6.756  0.3926  0.6243 -0.1091
 5716SOL    HW128607   4.537   2.677   6.756  0.1986  0.9495  2.3406
 5716SOL    HW228608   4.595   2.809   6.710  0.7573 -0.1260 -1.6140
 5717SOL     OW28609   4.704   4.346   5.886 -0.0647 -0.1580 -0.2125
 5717SOL    HW128610   0.026   4.261   5.882  0.0497 -0.0268 -1.7940
 5717SOL    HW228611   4.700   4.380   5.797  1.5872  1.3920  0.3088
 5718SOL     OW28612   1.522   1.681   5.136  0.2756 -0.4140  0.1445
 5718SOL    HW128613   1.593   1.682   5.201  1.1128  2.2577 -0.8334
 5718SOL    HW228614   1.449   1.689   5.198  0.5233  1.6179  0.1721
 5719SOL     OW28615   3.080   3.903  12.237  0.0052 -0.1448  0.0050
 5719SOL    HW128616   3.112   3.944  12.156  0.1422  0.1880  0.2278
 5719SOL    HW228617   3.135   3.825  12.239  1.1287  0.6671  0.4837
 5720SOL     OW28618   2.454   1.791   2.633  0.4034 -0.4583 -0.6617
 5720SOL    HW128619   2.419   1.869   2.676  0.8817 -1.4614  1.5855
 5720SOL    HW228620   2.525   1.826   2.580  0.3019  1.2911  0.3384
 5721SOL     OW28621   1.993   2.648   8.000 -0.4518 -0.3272 -0.0521
 5721SOL    HW128622   1.928   2.706   8.041  0.1352  1.1575 -1.2569
 5721SOL    HW228623   1.935   2.573   7.988 -1.2712  0.5194 -1.3726
 5722SOL     OW28624   0.043   3.671   2.515 -0.1766 -0.3928 -0.6473
 5722SOL    HW128625   0.041   3.591   2.569 -1.2910  0.1087  0.0652
 5722SOL    HW228626   0.101   3.646   2.443  0.3757  1.2629 -0.7658
 5723SOL     OW28627   1.453   2.227   5.351 -0.6608 -0.2118  0.8266
 5723SOL    HW128628   1.370   2.183   5.369 -0.3263 -1.0655  0.3099
 5723SOL    HW228629   1.495   2.252   5.433  0.0731 -2.5015  1.1567
 5724SOL     OW28630   0.575   0.294   8.007 -0.1417 -0.1618 -0.3597
 5724SOL    HW128631   0.533   0.214   7.973 -1.4741  1.2613 -2.0724
 5724SOL    HW228632   0.591   0.327   7.919  0.3761  1.3690  0.3276
 5725SOL     OW28633   0.016   2.198   1.801 -0.2235  0.1192 -0.6049
 5725SOL    HW128634   0.027   2.109   1.834  2.3418  0.7366  0.2010
 5725SOL    HW228635   4.661   2.231   1.847 -0.1862  0.5243 -0.8353
 5726SOL     OW28636   0.154   4.439   2.481 -0.0274 -0.1581 -0.3157
 5726SOL    HW128637   0.180   4.532   2.486  1.2239 -0.4974 -0.3444
 5726SOL    HW228638   0.074   4.453   2.431  0.0961 -0.5763 -0.6340
 5727SOL     OW28639   2.038   3.049   8.320  0.1232  0.1549  0.0193
 5727SOL    HW128640   1.966   3.073   8.262  2.3521  1.4804 -2.2329
 5727SOL    HW228641   2.099   3.021   8.251  0.2986 -1.2518  0.7471
 5728SOL     OW28642   4.515   2.953   6.616 -0.0373  0.0017  0.1147
 5728SOL    HW128643   4.568   3.021   6.576  1.3748  0.3181  2.5155
 5728SOL    HW228644   4.439   3.010   6.633  0.1020  0.5177 -1.0282
 5729SOL     OW28645   2.813   1.205   2.908  0.9246 -0.3345  0.1947
 5729SOL    HW128646   2.805   1.166   2.995 -0.3837  0.9549  0.6688
 5729SOL    HW228647   2.722   1.233   2.893  1.4703  0.8874 -0.8230
 5730SOL     OW28648   2.185   4.088   3.646 -0.4505 -0.0981  0.1633
 5730SOL    HW128649   2.222   4.176   3.642 -1.0531  0.0485 -2.0111
 5730SOL    HW228650   2.268   4.041   3.641  0.7280  1.8796  1.3501
 5731SOL     OW28651   1.144   4.721   4.228  0.3953 -0.1894 -0.0065
 5731SOL    HW128652   1.172   4.653   4.290 -0.8910 -0.4235  0.3139
 5731SOL    HW228653   1.229   0.028   4.197 -0.2692  2.2435  0.5360
 5732SOL     OW28654   2.333   4.170  17.529  0.2895  0.1329 -0.2469
 5732SOL    HW128655   2.356   4.138  17.442  1.0627  1.1921 -0.4182
 5732SOL    HW228656   2.420   4.201  17.552  0.6633  0.2642 -1.8726
 5733SOL     OW28657   2.203   2.940   7.881 -0.8587 -0.3340  0.4195
 5733SOL    HW128658   2.222   2.969   7.970  1.0919  1.7779 -0.6942
 5733SOL    HW228659   2.196   3.025   7.838  2.8102  1.1135  2.7222
 5734SOL     OW28660   2.538   3.130  16.401 -1.1305 -0.2798  0.1757
 5734SOL    HW128661   2.571   3.208  16.446  1.9023 -1.9828  0.9645
 5734SOL    HW228662   2.448   3.148  16.374 -0.2884 -0.0214 -2.4691
 5735SOL     OW28663   1.882   4.087   7.501 -0.2763  0.5411 -0.5283
 5735SOL    HW128664   1.951   4.147   7.471  2.9474 -1.3394  3.2067
 5735SOL    HW228665   1.804   4.143   7.501  0.0337  0.9729 -1.5548
 5736SOL     OW28666   0.596   4.704  16.296 -0.2173 -0.4996  0.4658
 5736SOL    HW128667   0.636   4.641  16.356  0.9828 -0.1630  0.0207
 5736SOL    HW228668   0.666   0.046  16.290  1.5400 -2.7362 -3.9192
 5737SOL     OW28669   4.253   3.023   3.747  0.4106 -0.5073 -0.7457
 5737SOL    HW128670   4.254   2.970   3.667 -0.1005 -1.6556  0.0115
 5737SOL    HW228671   4.343   3.054   3.756  0.8076 -1.4752 -1.3088
 5738SOL     OW28672   0.036   2.028  14.883 -0.2553 -0.1151  0.1869
 5738SOL    HW128673   0.073   2.003  14.798 -1.8714  1.6930 -1.0554
 5738SOL    HW228674   0.051   1.955  14.942  0.3860 -0.0349  0.1178
 5739SOL     OW28675   3.555   4.459  15.276  0.0097 -0.0623  0.5270
 5739SOL    HW128676   3.486   4.520  15.300 -0.4484 -0.2701 -0.2704
 5739SOL    HW228677   3.529   4.433  15.188 -1.4499  2.6025  0.1653
 5740SOL     OW28678   0.213   3.230   2.393  0.0768  0.1652 -0.7377
 5740SOL    HW128679   0.190   3.248   2.302  1.4996  0.9262 -0.9437
 5740SOL    HW228680   0.299   3.268   2.406  1.0332 -2.0590 -0.5176
 5741SOL     OW28681   3.707   1.385   7.414 -0.3033  0.0352  0.1677
 5741SOL    HW128682   3.633   1.397   7.355  0.8681 -1.0608 -1.5433
 5741SOL    HW228683   3.728   1.470   7.452  0.1494  1.1656 -2.6751
 5742SOL     OW28684   1.241   2.395   2.152  0.1155 -0.0606 -0.3506
 5742SOL    HW128685   1.221   2.302   2.144  0.3855 -0.0620 -1.0135
 5742SOL    HW228686   1.336   2.393   2.147  0.1138 -0.3414 -0.2872
 5743SOL     OW28687   4.647   2.036   3.937 -0.1387 -0.3109  0.4673
 5743SOL    HW128688   4.633   1.987   4.018 -0.9309  0.5747  0.8742
 5743SOL    HW228689   4.563   2.038   3.892  0.5307  1.8138 -0.7241
 5744SOL     OW28690   2.321   0.356   4.857  0.4441 -0.2914  0.0843
 5744SOL    HW128691   2.270   0.428   4.895  1.2698  0.0726  0.4914
 5744SOL    HW228692   2.345   0.398   4.774  1.1603 -1.8942 -0.5132
 5745SOL     OW28693   1.235   3.864   5.067 -0.5608 -0.1131 -0.4478
 5745SOL    HW128694   1.233   3.809   5.146 -1.6104 -0.0721 -0.4380
 5745SOL    HW228695   1.221   3.789   5.009  0.5317 -0.0565 -0.7907
 5746SOL     OW28696   3.393   0.792  16.908  0.1593 -0.0479  0.1811
 5746SOL    HW128697   3.313   0.753  16.872 -0.8231 -0.1977  2.5757
 5746SOL    HW228698   3.360   0.877  16.937 -0.3379 -0.3725  0.5440
 5747SOL     OW28699   4.638   3.038   9.904  0.4722  1.0351 -0.0136
 5747SOL    HW128700   4.699   3.036   9.830  0.8134  1.6521  0.2509
 5747SOL    HW228701   4.557   3.038   9.853 -0.1736  1.1300  1.0062
 5748SOL     OW28702   2.306   1.522   0.584 -0.0018  0.0988  0.0252
 5748SOL    HW128703   2.212   1.527   0.604 -0.4913 -2.3376 -1.7123
 5748SOL    HW228704   2.318   1.431   0.557  2.3662 -0.1632  1.9458
 5749SOL     OW28705   2.980   0.700  14.511 -0.0411 -0.5129 -0.3354
 5749SOL    HW128706   3.046   0.645  14.554 -1.4421 -2.1441 -0.2695
 5749SOL    HW228707   2.995   0.789  14.541 -0.1117 -0.7817  0.4945
 5750SOL     OW28708   0.522   0.137  14.587 -0.1583  0.4922 -0.1270
 5750SOL    HW128709   0.457   0.068  14.571 -0.5690  0.4442  1.6306
 5750SOL    HW228710   0.473   0.171  14.662  0.9096  1.4667  0.1384
 5751SOL     OW28711   4.019   1.522   4.274  0.1650 -0.2852  0.4653
 5751SOL    HW128712   4.015   1.517   4.370  1.3125  1.0403  0.5870
 5751SOL    HW228713   3.946   1.581   4.256  0.9223  0.5787  0.2185
 5752SOL     OW28714   4.082   0.922   3.359 -0.5072  0.5466  0.7587
 5752SOL    HW128715   4.016   0.990   3.374 -1.5731 -0.4243  0.4679
 5752SOL    HW228716   4.030   0.842   3.367  0.3241 -0.0766 -0.0616
 5753SOL     OW28717   0.928   0.444   0.289  0.3516 -0.5081 -0.5079
 5753SOL    HW128718   0.974   0.418   0.369 -0.4805 -0.4685 -0.0137
 5753SOL    HW228719   0.852   0.490   0.325  1.9609  0.4122  1.8052
 5754SOL     OW28720   1.811   0.076   3.901 -0.1448  0.1154  0.0097
 5754SOL    HW128721   1.715   0.071   3.909  0.0225 -1.8180  0.7163
 5754SOL    HW228722   1.811   0.074   3.805  1.6356 -3.3022  0.0840
 5755SOL     OW28723   1.607   3.685   7.489  0.1444 -0.7380  0.2933
 5755SOL    HW128724   1.623   3.597   7.525  3.2250 -1.0567 -1.8789
 5755SOL    HW228725   1.653   3.738   7.554  4.1238 -1.0869 -2.2247
 5756SOL     OW28726   0.806   2.566   5.549 -0.6994  0.2634  0.0496
 5756SOL    HW128727   0.792   2.627   5.477  1.0064  0.3287 -0.2163
 5756SOL    HW228728   0.892   2.531   5.525 -0.2000  3.2479 -2.4845
 5757SOL     OW28729   3.981   3.720   2.199 -0.2009  0.2330  0.1208
 5757SOL    HW128730   3.982   3.671   2.281 -1.1713  0.3393  0.1994
 5757SOL    HW228731   4.073   3.706   2.179 -0.4160 -0.6518 -0.2422
 5758SOL     OW28732   2.410   3.689   4.437  0.2273  0.2360 -0.0293
 5758SOL    HW128733   2.338   3.627   4.452  0.8627 -0.7836 -1.1196
 5758SOL    HW228734   2.370   3.736   4.364 -0.0078  2.3557  1.4806
 5759SOL     OW28735   1.352   3.250   3.635  0.2005  0.1842  0.2144
 5759SOL    HW128736   1.393   3.317   3.581  1.9302 -0.7562  0.3637
 5759SOL    HW228737   1.294   3.215   3.567  1.9538  2.7051 -2.5936
 5760SOL     OW28738   4.224   4.121   4.057 -0.7035 -0.0153  0.5671
 5760SOL    HW128739   4.315   4.121   4.028 -0.6105 -1.1498  0.8550
 5760SOL    HW228740   4.179   4.148   3.977  1.1944 -1.4994 -1.0019
 5761SOL     OW28741   0.743   4.526   8.712  0.5482  0.5244  0.1354
 5761SOL    HW128742   0.755   4.621   8.713  0.6557  0.5057  0.5052
 5761SOL    HW228743   0.653   4.521   8.681  1.0960 -0.3280 -1.3871
 5762SOL     OW28744   2.879   4.326   6.435  0.7884 -0.3069  0.2159
 5762SOL    HW128745   2.844   4.390   6.497  1.1885  0.2519 -0.1375
 5762SOL    HW228746   2.930   4.394   6.392  0.2730 -0.2939 -0.3633
 5763SOL     OW28747   3.340   4.194   5.500 -0.4255 -0.1511  0.5808
 5763SOL    HW128748   3.267   4.249   5.530 -0.8781 -0.1768 -0.4967
 5763SOL    HW228749   3.357   4.145   5.581  0.1806 -1.3027 -0.2548
 5764SOL     OW28750   2.949   2.020  10.517 -0.9516 -0.0427 -0.5089
 5764SOL    HW128751   2.909   1.937  10.542  0.3219 -0.2708  0.7754
 5764SOL    HW228752   2.876   2.065  10.474 -1.3817 -1.5435 -1.3485
 5765SOL     OW28753   3.684   2.493   3.810  0.0118 -0.2904  0.9254
 5765SOL    HW128754   3.610   2.547   3.836 -0.0820 -0.6862  1.4896
 5765SOL    HW228755   3.695   2.533   3.724 -2.2446 -0.1158  0.7269
 5766SOL     OW28756   3.069   1.422  12.992 -0.1783 -0.2081 -0.4866
 5766SOL    HW128757   3.053   1.397  13.083 -0.2536  0.3843 -0.3371
 5766SOL    HW228758   3.065   1.340  12.943  1.0891 -0.6963  0.2526
 5767SOL     OW28759   3.884   4.653   2.822 -0.0338  0.0823  0.1954
 5767SOL    HW128760   3.817   4.600   2.779  0.1767  0.6303 -0.8065
 5767SOL    HW228761   3.903   4.613   2.907  1.2315 -0.7022 -0.4633
 5768SOL     OW28762   1.025   3.110   6.118 -0.4502  0.4398 -0.1910
 5768SOL    HW128763   1.044   3.117   6.024 -0.3545 -3.6938 -0.4950
 5768SOL    HW228764   0.960   3.040   6.116 -0.2262  0.2655 -2.0915
 5769SOL     OW28765   3.244   2.470   9.899 -0.3189 -0.6848 -0.7499
 5769SOL    HW128766   3.287   2.413   9.963  2.6361  1.9438 -0.4133
 5769SOL    HW228767   3.246   2.416   9.820  0.3604  0.9445 -1.8491
 5770SOL     OW28768   0.109   1.082   9.539  0.5216  0.7682 -0.2317
 5770SOL    HW128769   0.128   1.164   9.585  0.1054  0.9636 -0.4060
 5770SOL    HW228770   0.017   1.070   9.564 -0.1560 -0.1511 -3.1546
 5771SOL     OW28771   2.660   0.544   7.463 -0.5534  0.0943  0.3628
 5771SOL    HW128772   2.659   0.460   7.509 -2.3774  0.8372  1.6735
 5771SOL    HW228773   2.688   0.602   7.534  2.0390 -0.5174 -0.1311
 5772SOL     OW28774   2.556   0.865   8.849  0.4515  0.0693  0.1276
 5772SOL    HW128775   2.553   0.775   8.880  0.9007  0.6810  1.9445
 5772SOL    HW228776   2.585   0.901   8.933  1.4166  0.4674 -0.3784
 5773SOL     OW28777   4.675   0.192   8.805  0.5578  0.9051 -0.1709
 5773SOL    HW128778   0.035   0.229   8.837  1.3203 -0.3627 -0.6542
 5773SOL    HW228779   4.658   0.127   8.872  3.8902 -1.1087 -1.2550
 5774SOL     OW28780   3.183   1.903   1.864  0.1202 -0.3667 -0.2118
 5774SOL    HW128781   3.179   1.972   1.798 -0.7769 -0.8475 -0.6656
 5774SOL    HW228782   3.148   1.833   1.809 -0.3617  0.1561 -0.5696
 5775SOL     OW28783   2.628   0.540   1.723  0.3160  0.6330  0.2445
 5775SOL    HW128784   2.628   0.583   1.809  1.2063 -2.1038  1.6053
 5775SOL    HW228785   2.572   0.604   1.678  1.2132 -0.7463 -2.8073
 5776SOL     OW28786   1.765   4.510  11.618 -0.0849 -0.0690 -0.3645
 5776SOL    HW128787   1.859   4.491  11.618  0.2628  1.6221 -1.7080
 5776SOL    HW228788   1.724   4.423  11.615  0.0126 -0.1265 -0.1072
 5777SOL     OW28789   3.195   2.813   6.027  0.4518 -0.2789 -0.4637
 5777SOL    HW128790   3.181   2.756   5.952  1.0876  1.2484 -1.7385
 5777SOL    HW228791   3.277   2.774   6.056  0.3326 -0.4331 -0.3370
 5778SOL     OW28792   2.997   0.458   5.099 -0.3389  0.2563  0.0281
 5778SOL    HW128793   3.017   0.368   5.126 -1.7702  0.4427  1.7041
 5778SOL    HW228794   2.955   0.442   5.014  0.2863 -1.3441  0.0037
 5779SOL     OW28795   4.577   4.688   7.575  0.2708  0.3451  0.2892
 5779SOL    HW128796   4.497   4.640   7.555 -1.5081  3.0065  0.9112
 5779SOL    HW228797   4.591   0.011   7.492  2.7479  1.5544  1.3617
 5780SOL     OW28798   4.100   3.839   8.513 -0.2719 -0.7405  0.0655
 5780SOL    HW128799   4.188   3.831   8.549  0.6311 -0.3059 -2.0037
 5780SOL    HW228800   4.115   3.886   8.431 -0.6312 -0.4310  0.1737
 5781SOL     OW28801   0.889   3.339   6.225 -0.3247  0.5533  0.8225
 5781SOL    HW128802   0.818   3.292   6.268 -0.1856 -1.7704 -1.4192
 5781SOL    HW228803   0.935   3.272   6.174 -2.1461 -0.4021  0.4180
 5782SOL     OW28804   1.365   3.749   8.928  0.5547 -0.1527  0.0553
 5782SOL    HW128805   1.426   3.694   8.978 -0.8340 -0.3950  1.4762
 5782SOL    HW228806   1.394   3.839   8.945 -1.8210  0.6167 -0.0624
 5783SOL     OW28807   1.134   3.632  13.130  0.2505 -0.7798  0.0215
 5783SOL    HW128808   1.140   3.621  13.035  1.6387 -0.6075  0.0885
 5783SOL    HW228809   1.114   3.724  13.150  0.4448 -0.3086 -1.9596
 5784SOL     OW28810   4.667   3.371   8.950 -0.3121  0.4014 -0.3388
 5784SOL    HW128811   0.026   3.420   8.949 -0.1605  0.1683  0.7250
 5784SOL    HW228812   4.619   3.395   8.870 -1.4224 -1.5726 -0.2703
 5785SOL     OW28813   0.295   0.519   4.151  0.1544 -0.0637  0.4742
 5785SOL    HW128814   0.261   0.433   4.128 -0.6492  0.2818  0.3603
 5785SOL    HW228815   0.334   0.545   4.067  0.2602 -0.9440  0.2502
 5786SOL     OW28816   3.770   0.131  16.933 -0.7036 -0.5752  0.0244
 5786SOL    HW128817   3.863   0.141  16.954 -1.3500 -2.1146  3.5472
 5786SOL    HW228818   3.777   0.077  16.854 -0.4486 -0.4410 -0.0460
 5787SOL     OW28819   4.343   3.160  11.701 -0.4871 -0.4157  0.1463
 5787SOL    HW128820   4.404   3.095  11.739  0.6831  1.4707  1.4892
 5787SOL    HW228821   4.270   3.160  11.763 -1.1573 -1.1810 -0.6452
 5788SOL     OW28822   0.612   1.983  10.145  0.7322  0.0331 -0.8429
 5788SOL    HW128823   0.586   2.032  10.067  1.0086  3.0968  0.9958
 5788SOL    HW228824   0.684   2.043  10.164  0.0164  0.3050  1.0012
 5789SOL     OW28825   2.182   4.674   3.813 -0.0313  0.1304  0.6218
 5789SOL    HW128826   2.187   4.713   3.726 -0.8498 -2.1870 -0.4799
 5789SOL    HW228827   2.275   4.671   3.837 -0.1719 -0.3273  1.1126
 5790SOL     OW28828   0.629   2.119   7.246 -0.1042  0.0908  0.0705
 5790SOL    HW128829   0.603   2.106   7.155  0.3124  1.2097 -0.2083
 5790SOL    HW228830   0.598   2.208   7.263  1.2578  0.6515 -0.3928
 5791SOL     OW28831   4.024   4.634  10.382  0.1138 -0.6024 -0.1582
 5791SOL    HW128832   4.045   4.620  10.290 -0.9244 -1.0261 -0.3375
 5791SOL    HW228833   3.929   4.617  10.385  0.1483 -1.2302 -2.5625
 5792SOL     OW28834   3.968   1.115   4.291  0.0168  0.7361  0.0191
 5792SOL    HW128835   4.040   1.151   4.343  0.8268  2.5402 -2.3339
 5792SOL    HW228836   3.977   1.171   4.214  0.4852  0.0352 -0.4460
 5793SOL     OW28837   1.155   3.364   8.330  0.6468 -0.4030  0.5434
 5793SOL    HW128838   1.241   3.328   8.351  0.3349 -0.3275  1.9642
 5793SOL    HW228839   1.112   3.343   8.413  1.8525  1.0252  1.5396
 5794SOL     OW28840   4.229   2.211  16.892  0.7051  0.2415 -0.0626
 5794SOL    HW128841   4.218   2.306  16.891 -1.8727 -0.0526  0.8493
 5794SOL    HW228842   4.322   2.208  16.914  0.3506  1.2461  1.5818
 5795SOL     OW28843   3.157   3.374   2.370  0.0075 -0.1218 -0.2123
 5795SOL    HW128844   3.166   3.325   2.451 -0.0732 -0.4883 -0.4278
 5795SOL    HW228845   3.132   3.302   2.313  0.3246 -0.9514  0.6933
 5796SOL     OW28846   0.459   2.446  13.215  0.1893  0.1643 -0.4071
 5796SOL    HW128847   0.407   2.410  13.287 -0.6038  0.3910 -0.8641
 5796SOL    HW228848   0.546   2.408  13.228  0.5231  1.4621  1.1144
 5797SOL     OW28849   0.587   0.580   4.640  0.3977 -0.2419 -0.2204
 5797SOL    HW128850   0.654   0.523   4.602 -1.0657 -0.6276 -2.1901
 5797SOL    HW228851   0.640   0.658   4.656 -0.0476 -0.0993  0.5828
 5798SOL     OW28852   0.337   0.388   7.138  0.2336  0.2493 -0.3078
 5798SOL    HW128853   0.348   0.465   7.194  2.0444 -0.5035  0.4005
 5798SOL    HW228854   0.244   0.369   7.154 -0.0003  1.8808  0.2191
 5799SOL     OW28855   1.309   3.879   2.799  0.4628 -0.2254  0.2671
 5799SOL    HW128856   1.401   3.876   2.822  0.7551 -2.1390 -1.2444
 5799SOL    HW228857   1.290   3.972   2.814  2.9732  0.3987 -0.5112
 5800SOL     OW28858   1.390   4.682   5.214  0.2278  0.2525  0.2788
 5800SOL    HW128859   1.360   4.694   5.123 -1.2770 -1.4448  0.5468
 5800SOL    HW228860   1.482   4.699   5.197  0.0109  0.1198 -1.0776
 5801SOL     OW28861   1.053   2.100   4.220 -0.4137  0.3809 -0.2436
 5801SOL    HW128862   1.121   2.069   4.281  1.3793  0.5703 -2.1335
 5801SOL    HW228863   0.999   2.023   4.201 -1.9097  1.3402  0.1525
 5802SOL     OW28864   1.093   2.516  13.382  0.1370  0.6835 -0.0529
 5802SOL    HW128865   1.088   2.579  13.310 -0.4558 -0.3502 -0.9312
 5802SOL    HW228866   1.068   2.566  13.460 -0.9442  0.1131 -0.0244
 5803SOL     OW28867   0.371   3.755   2.171 -0.2675 -0.1855  0.4784
 5803SOL    HW128868   0.288   3.797   2.149  0.3215  0.3647 -0.6901
 5803SOL    HW228869   0.359   3.742   2.265 -1.7658 -1.3968  0.1239
 5804SOL     OW28870   2.083   1.310   6.250  0.4745 -1.0041 -0.2979
 5804SOL    HW128871   2.034   1.285   6.328  1.6265 -0.0236  0.7553
 5804SOL    HW228872   2.172   1.287   6.278  1.1054  0.4050 -1.1531
 5805SOL     OW28873   0.419   1.214   3.800  0.2398 -0.1028  0.0374
 5805SOL    HW128874   0.333   1.230   3.838 -0.0898 -0.8816 -0.3735
 5805SOL    HW228875   0.441   1.306   3.790  1.0634 -0.5219 -2.1903
 5806SOL     OW28876   4.540   0.737   8.489  0.0989  0.0604  0.0534
 5806SOL    HW128877   4.516   0.823   8.455 -1.1283  0.1306  1.0971
 5806SOL    HW228878   4.583   0.698   8.413  1.0378  1.2932 -0.0574
 5807SOL     OW28879   3.519   0.524   5.248 -0.1444 -0.2971  0.3194
 5807SOL    HW128880   3.515   0.544   5.342 -0.9537 -2.9966  0.8583
 5807SOL    HW228881   3.517   0.610   5.206 -2.0701 -0.2819  0.4291
 5808SOL     OW28882   1.150   2.824   8.951  0.1481  0.1232 -0.3752
 5808SOL    HW128883   1.238   2.786   8.946  0.0740 -0.1723  0.7684
 5808SOL    HW228884   1.159   2.890   9.020  1.3539 -0.6573  0.2101
 5809SOL     OW28885   3.172   2.619   5.790 -0.1695 -0.8653 -0.0245
 5809SOL    HW128886   3.251   2.628   5.737 -1.2422  0.0104 -1.4656
 5809SOL    HW228887   3.106   2.595   5.726 -0.2513 -0.1314 -0.2218
 5810SOL     OW28888   2.797   0.809  13.379 -0.4128  0.1771 -0.1588
 5810SOL    HW128889   2.783   0.866  13.454 -0.2594  0.2895 -0.2157
 5810SOL    HW228890   2.764   0.725  13.412 -1.4269  0.7291  0.2338
 5811SOL     OW28891   1.857   2.965  11.016  0.1082  0.3959  0.5058
 5811SOL    HW128892   1.937   2.916  11.033 -0.0878  0.2441  1.0145
 5811SOL    HW228893   1.798   2.895  11.047  1.1957 -1.0004 -0.5870
 5812SOL     OW28894   4.374   1.315   4.276 -0.4846 -0.4271  0.0234
 5812SOL    HW128895   4.434   1.389   4.275 -0.6773 -0.2743 -0.3823
 5812SOL    HW228896   4.314   1.345   4.344  0.1624  0.5289  0.1669
 5813SOL     OW28897   0.869   3.566  15.088 -0.0968 -0.6822  0.1394
 5813SOL    HW128898   0.906   3.650  15.113  0.5271 -0.3747 -1.8095
 5813SOL    HW228899   0.819   3.588  15.009  2.3389 -0.2116 -1.2795
 5814SOL     OW28900   0.853   3.289   7.013  0.1141  0.2009 -0.1857
 5814SOL    HW128901   0.922   3.244   7.062  0.5946 -0.1995 -1.2333
 5814SOL    HW228902   0.790   3.273   7.083 -1.9514  2.6581 -1.5019
 5815SOL     OW28903   3.177   0.624   3.588 -0.2825  0.1560 -0.2959
 5815SOL    HW128904   3.181   0.534   3.557  0.4385 -0.5518  1.8191
 5815SOL    HW228905   3.269   0.640   3.568  0.0413  0.1707  1.2148
 5816SOL     OW28906   4.278   0.265   7.281 -0.0512 -0.1527  0.4012
 5816SOL    HW128907   4.228   0.329   7.331  1.6530  1.1081  0.4774
 5816SOL    HW228908   4.238   0.186   7.317 -0.1800  0.2616  1.1601
 5817SOL     OW28909   1.295   0.518  11.738  0.5065  0.4890  0.1393
 5817SOL    HW128910   1.309   0.471  11.820  3.7616 -2.4957 -2.1316
 5817SOL    HW228911   1.383   0.520  11.701  0.2941  1.8051 -0.3028
 5818SOL     OW28912   0.773   0.487   6.274 -0.1372 -0.9585  0.0538
 5818SOL    HW128913   0.856   0.467   6.231 -0.1768 -3.1012  0.9493
 5818SOL    HW228914   0.717   0.498   6.197  1.1121 -3.2057 -1.1935
 5819SOL     OW28915   1.361   3.091  15.688  0.6427  0.0550  0.0191
 5819SOL    HW128916   1.297   3.076  15.619 -1.0622 -0.9101  1.8174
 5819SOL    HW228917   1.344   3.023  15.753  0.0051 -1.1708 -1.4416
 5820SOL     OW28918   2.879   1.143   3.170 -0.4217 -0.0600 -0.0229
 5820SOL    HW128919   2.853   1.199   3.243 -2.0072 -1.5701  0.5549
 5820SOL    HW228920   2.892   1.055   3.203  1.4822 -0.1245 -0.9060
 5821SOL     OW28921   4.605   3.667   0.694  0.6979  0.3141 -0.7715
 5821SOL    HW128922   4.692   3.703   0.678  0.3156  1.7585  0.4241
 5821SOL    HW228923   4.619   3.572   0.696 -2.0902 -0.0287  2.2781
 5822SOL     OW28924   1.428   0.458   2.602 -0.1221 -0.1246  0.6370
 5822SOL    HW128925   1.350   0.505   2.575  0.3649  0.5077  0.3405
 5822SOL    HW228926   1.411   0.367   2.576  0.5308 -0.2492  0.6395
 5823SOL     OW28927   2.283   0.751   9.508 -0.0543 -0.5599 -0.1710
 5823SOL    HW128928   2.188   0.755   9.507 -0.0077  0.7153  0.3320
 5823SOL    HW228929   2.293   0.825   9.569 -0.5936 -0.4438 -0.2282
 5824SOL     OW28930   2.268   3.181   4.609 -0.1322 -0.0067 -0.1697
 5824SOL    HW128931   2.175   3.198   4.596 -0.4472  0.3410  2.5243
 5824SOL    HW228932   2.273   3.092   4.573 -3.8418  0.2280 -1.2918
 5825SOL     OW28933   0.931   4.623   3.768 -0.0779  0.3093 -0.9893
 5825SOL    HW128934   0.970   4.688   3.710  2.2953 -0.3039 -0.0912
 5825SOL    HW228935   0.871   4.676   3.821  1.8040 -0.1347  1.5925
 5826SOL     OW28936   2.748   0.494   1.160  0.1246  0.2724  0.0108
 5826SOL    HW128937   2.680   0.433   1.130  0.5122 -0.3773  0.4414
 5826SOL    HW228938   2.700   0.557   1.214  1.5327  0.7751  0.6799
 5827SOL     OW28939   3.010   0.408   1.118 -0.2138  0.0916  0.2297
 5827SOL    HW128940   2.920   0.438   1.106  0.0159  0.4615 -0.5726
 5827SOL    HW228941   3.049   0.478   1.172  2.2165 -1.9518  1.1161
 5828SOL     OW28942   3.697   0.264   1.977 -0.1178  0.1562 -0.4858
 5828SOL    HW128943   3.615   0.219   1.954 -0.2669  1.0209 -1.6215
 5828SOL    HW228944   3.695   0.264   2.073 -0.7461 -3.6365 -0.4934
 5829SOL     OW28945   3.631   2.345   6.680 -0.0518 -0.3193 -0.9616
 5829SOL    HW128946   3.665   2.429   6.651 -1.1410  1.6199  3.3473
 5829SOL    HW228947   3.699   2.292   6.639 -0.3278 -0.7068 -0.9277
 5830SOL     OW28948   1.751   1.967  12.149  0.7922 -0.1233  0.0214
 5830SOL    HW128949   1.822   2.031  12.147  0.8885 -0.2496 -0.9839
 5830SOL    HW228950   1.766   1.911  12.225  0.2874 -0.5619 -0.1971
 5831SOL     OW28951   0.295   1.965   8.189 -0.0950  0.3976  0.0636
 5831SOL    HW128952   0.364   2.020   8.152 -0.6197 -1.3369 -3.4735
 5831SOL    HW228953   0.247   1.953   8.107 -0.8593  0.6146  0.4856
 5832SOL     OW28954   2.175   2.710   6.023  0.6095 -0.3585  0.2007
 5832SOL    HW128955   2.243   2.743   6.082 -0.0557 -0.7013  1.1762
 5832SOL    HW228956   2.128   2.788   5.995 -1.7697 -1.7667  0.1966
 5833SOL     OW28957   4.409   3.650  16.581 -0.0223 -0.5789 -0.3630
 5833SOL    HW128958   4.388   3.582  16.516  1.9533 -0.4439 -1.1425
 5833SOL    HW228959   4.381   3.727  16.532  1.4249  1.2760  1.7349
 5834SOL     OW28960   2.804   0.803   8.473 -0.4223 -0.0020  0.6570
 5834SOL    HW128961   2.863   0.872   8.505  0.0997  0.1107 -0.5445
 5834SOL    HW228962   2.715   0.825   8.500 -0.3081  1.3066 -0.0058
 5835SOL     OW28963   4.538   2.265   7.827 -0.1166  0.3153  0.2023
 5835SOL    HW128964   4.470   2.212   7.787 -1.6057  1.5203  1.1510
 5835SOL    HW228965   4.494   2.275   7.911  0.0340 -0.9566  0.4340
 5836SOL     OW28966   0.669   1.237   1.288 -0.0768 -0.6331 -0.5098
 5836SOL    HW128967   0.707   1.325   1.290 -1.3185 -0.0705 -1.7794
 5836SOL    HW228968   0.619   1.229   1.370 -1.3730  0.3512 -1.2025
 5837SOL     OW28969   2.655   1.182   7.676 -0.2916  0.0333  0.9346
 5837SOL    HW128970   2.611   1.123   7.736  0.4351 -1.6131 -0.1471
 5837SOL    HW228971   2.582   1.224   7.632 -0.7653 -0.7231  0.9997
 5838SOL     OW28972   2.331   2.464   7.069 -0.0406 -0.1785  0.0480
 5838SOL    HW128973   2.301   2.439   7.156  1.0263 -2.8018 -0.3110
 5838SOL    HW228974   2.422   2.445   7.095  0.4464  1.4548 -0.4888
 5839SOL     OW28975   1.174   1.845   1.985 -0.1495  0.3669 -0.4539
 5839SOL    HW128976   1.179   1.928   2.033 -0.4669  0.5764 -0.7834
 5839SOL    HW228977   1.131   1.800   2.057 -0.2732 -0.0455 -0.7880
 5840SOL     OW28978   4.628   0.182   2.574 -0.3054 -0.1573  0.2973
 5840SOL    HW128979   4.565   0.255   2.568 -2.5762 -2.3769 -3.0903
 5840SOL    HW228980   4.664   0.178   2.485 -1.0218  1.7336 -0.0859
 5841SOL     OW28981   3.199   1.059  17.690 -0.4015  0.0728 -0.4505
 5841SOL    HW128982   3.208   1.153   0.012  1.6388 -0.2417  0.2627
 5841SOL    HW228983   3.132   1.064  17.621 -0.2000 -0.3890 -0.6772
 5842SOL     OW28984   2.943   1.255  16.960 -0.4506  0.7694  0.0388
 5842SOL    HW128985   2.965   1.183  17.019  0.1021  1.0427  0.1662
 5842SOL    HW228986   2.949   1.330  17.020  2.0254  1.5241 -1.1242
 5843SOL     OW28987   3.922   4.708   6.338 -0.0771 -0.3434 -0.0337
 5843SOL    HW128988   3.916   4.620   6.376  0.4270 -0.2006  0.3721
 5843SOL    HW228989   3.880   0.038   6.405 -0.7787 -0.4543 -0.3862
 5844SOL     OW28990   0.564   1.743   4.887  0.1674  0.3966  1.5385
 5844SOL    HW128991   0.547   1.837   4.883 -1.6829  0.0724  1.7287
 5844SOL    HW228992   0.583   1.726   4.795  1.0774  1.3044  1.5682
 5845SOL     OW28993   4.609   1.169   3.064 -0.0829  0.3289 -0.0818
 5845SOL    HW128994   4.587   1.219   2.986 -1.9759 -0.4134 -0.0184
 5845SOL    HW228995   4.525   1.184   3.108 -0.3996  0.5561 -0.7772
 5846SOL     OW28996   0.450   2.541   0.759 -0.0633 -0.1706 -0.0354
 5846SOL    HW128997   0.422   2.465   0.708 -1.3421 -0.3363  0.9082
 5846SOL    HW228998   0.546   2.550   0.760  0.0093 -0.9353 -0.9256
 5847SOL     OW28999   1.298   3.011   2.573 -0.3386  0.5650 -0.1609
 5847SOL    HW129000   1.325   3.085   2.519 -2.5650  1.3629 -0.1809
 5847SOL    HW229001   1.228   3.046   2.628  0.8311  0.9726  1.0733
 5848SOL     OW29002   1.825   3.592   3.985 -0.8240 -0.1118  0.2047
 5848SOL    HW129003   1.781   3.639   3.914  0.2893 -1.2775 -1.2792
 5848SOL    HW229004   1.892   3.555   3.927 -1.0053  1.0176 -0.7216
 5849SOL     OW29005   1.982   2.137  15.624  0.4353  0.2468 -0.1314
 5849SOL    HW129006   1.983   2.051  15.581 -0.3560  0.5281 -0.7091
 5849SOL    HW229007   1.893   2.171  15.615  1.3064  1.5427 -3.9848
 5850SOL     OW29008   1.752   1.125   2.303 -0.2569 -0.2790 -0.6200
 5850SOL    HW129009   1.725   1.188   2.236 -0.2140 -0.1386 -0.5030
 5850SOL    HW229010   1.815   1.069   2.256  0.5824 -0.7376  1.0482
 5851SOL     OW29011   1.618   4.505  15.547 -0.6581 -0.4605 -0.4161
 5851SOL    HW129012   1.688   4.547  15.596  0.5178 -2.2161 -0.5922
 5851SOL    HW229013   1.625   4.556  15.466 -0.2891 -0.2871 -0.2735
 5852SOL     OW29014   1.846   2.959   2.565  0.5474  0.0626  0.2659
 5852SOL    HW129015   1.790   2.965   2.642 -0.7312 -3.7694 -0.3913
 5852SOL    HW229016   1.905   2.885   2.576  2.3306  1.6415  1.1466
 5853SOL     OW29017   3.843   4.558   4.112 -0.4073 -0.0673 -0.3625
 5853SOL    HW129018   3.904   4.626   4.138 -0.7226  1.1864 -2.9016
 5853SOL    HW229019   3.903   4.503   4.061  0.8015  0.7233  0.2178
 5854SOL     OW29020   4.643   4.357   9.900  0.1358 -0.1838 -0.5397
 5854SOL    HW129021   4.641   4.351   9.804  2.3890  0.6316 -0.6411
 5854SOL    HW229022   4.713   4.420   9.921 -0.6880  0.1853  1.0653
 5855SOL     OW29023   1.312   1.374   5.313  0.1929  0.2247 -0.1488
 5855SOL    HW129024   1.355   1.338   5.236 -1.1415  0.5718 -1.0646
 5855SOL    HW229025   1.239   1.420   5.271  0.5337  0.4276 -0.5124
 5856SOL     OW29026   4.288   1.658  17.148  0.2120  0.3477 -0.2189
 5856SOL    HW129027   4.371   1.611  17.143  0.9026  1.4543  0.8691
 5856SOL    HW229028   4.238   1.594  17.198  1.3450 -1.2431 -1.1467
 5857SOL     OW29029   0.548   2.167   3.707 -0.1844  0.2066  0.1988
 5857SOL    HW129030   0.542   2.082   3.750 -0.7984  0.9829  1.6858
 5857SOL    HW229031   0.464   2.171   3.661 -0.2900  0.9875  0.4485
 5858SOL     OW29032   4.518   1.457   7.890  0.0936 -0.3640 -0.3092
 5858SOL    HW129033   4.513   1.505   7.973 -0.9831  1.8997 -1.7212
 5858SOL    HW229034   4.497   1.529   7.831  0.4757 -0.7186 -0.8841
 5859SOL     OW29035   3.270   3.530  17.227 -0.2713 -0.1258  0.5988
 5859SOL    HW129036   3.350   3.507  17.274  0.4020 -0.4092 -0.6907
 5859SOL    HW229037   3.220   3.450  17.244  0.7674 -0.8271  0.3243
 5860SOL     OW29038   2.189   1.614   7.937 -0.0014 -0.4188  0.5356
 5860SOL    HW129039   2.141   1.646   7.860 -0.7666  2.1641  2.0683
 5860SOL    HW229040   2.135   1.545   7.974  0.4686 -0.8559  0.3964
 5861SOL     OW29041   3.792   4.678  10.231 -0.3191 -0.9293 -0.1752
 5861SOL    HW129042   3.720   4.621  10.258 -1.3045  1.0128  1.3103
 5861SOL    HW229043   3.801   4.634  10.147  0.5991 -0.2333 -0.4362
 5862SOL     OW29044   2.965   2.448  10.591  0.3836 -0.5720 -0.7447
 5862SOL    HW129045   2.972   2.370  10.646 -0.4444  0.0119  0.1943
 5862SOL    HW229046   2.968   2.407  10.505 -3.2165 -0.5925 -0.8681
 5863SOL     OW29047   1.210   0.325  15.501 -0.1332  0.5828  0.1577
 5863SOL    HW129048   1.176   0.249  15.548  0.0112  1.1931  1.2556
 5863SOL    HW229049   1.130   0.353  15.457 -0.3640  1.8263  1.3735
 5864SOL     OW29050   1.466   3.017   6.812  0.4942 -0.6441 -0.1066
 5864SOL    HW129051   1.535   3.064   6.859  0.6286  0.7485 -1.6966
 5864SOL    HW229052   1.424   2.979   6.890  2.5994 -0.4529  1.1091
 5865SOL     OW29053   0.076   2.897   2.644  0.2098 -0.0883 -0.7345
 5865SOL    HW129054   0.154   2.884   2.590 -0.9093 -1.2126 -2.0782
 5865SOL    HW229055   0.069   2.993   2.640  0.3726 -0.0781 -0.7505
 5866SOL     OW29056   1.696   1.974   6.077 -0.2146 -0.4453  0.5950
 5866SOL    HW129057   1.742   1.993   5.995 -0.8429 -1.3588  0.0350
 5866SOL    HW229058   1.642   2.052   6.079 -0.7567 -0.7796 -1.0188
 5867SOL     OW29059   3.289   0.052   4.757 -0.5615  0.0254  1.1228
 5867SOL    HW129060   3.229   0.116   4.718  2.3177  0.4048 -2.7031
 5867SOL    HW229061   3.342   0.104   4.817 -0.0372  0.4614  0.2786
 5868SOL     OW29062   4.357   3.202  14.972  0.4890  0.4422 -0.0732
 5868SOL    HW129063   4.313   3.287  14.976 -1.1883 -0.4627  0.7211
 5868SOL    HW229064   4.343   3.165  15.060  1.3776 -0.4165 -0.2906
 5869SOL     OW29065   3.096   4.626   7.383 -0.3261  0.0002 -0.5667
 5869SOL    HW129066   3.168   4.688   7.381 -0.0371 -0.3438 -0.7207
 5869SOL    HW229067   3.046   4.674   7.449 -0.0700 -0.2784 -0.1687
 5870SOL     OW29068   3.927   3.369   3.067 -0.0692 -0.0661 -0.6650
 5870SOL    HW129069   4.002   3.345   3.014  2.0583  0.0026  2.3459
 5870SOL    HW229070   3.867   3.397   2.997 -1.5377  1.8345  1.3362
 5871SOL     OW29071   2.766   1.589   2.871 -0.1384 -0.5514  0.1791
 5871SOL    HW129072   2.846   1.542   2.849  0.6100  2.0719 -2.5794
 5871SOL    HW229073   2.705   1.561   2.803  1.3528 -0.6090 -1.1322
 5872SOL     OW29074   2.075   0.189   3.078  0.5544  0.1761 -0.6495
 5872SOL    HW129075   2.170   0.199   3.083  0.8332 -1.7359 -1.8981
 5872SOL    HW229076   2.061   0.094   3.069 -2.2827  0.3149  2.1547
 5873SOL     OW29077   1.269   3.944   6.456  0.2265 -0.6370  0.2426
 5873SOL    HW129078   1.273   3.998   6.535 -2.4876 -0.7035  0.4331
 5873SOL    HW229079   1.360   3.951   6.428 -0.1620 -0.1005 -0.8642
 5874SOL     OW29080   4.465   1.176   9.625  0.2550 -0.1885 -0.1464
 5874SOL    HW129081   4.384   1.180   9.675  0.5003  2.6462  0.0196
 5874SOL    HW229082   4.487   1.083   9.611  1.9144  0.1899 -0.0369
 5875SOL     OW29083   1.156   4.621   8.922  0.0283 -0.1061 -0.4029
 5875SOL    HW129084   1.221   4.597   8.856  1.4019 -0.7592  1.2034
 5875SOL    HW229085   1.177   4.714   8.925 -0.1705 -0.0341 -1.0952
 5876SOL     OW29086   1.586   3.908  15.761  0.1180  0.2782 -0.4885
 5876SOL    HW129087   1.609   3.895  15.669  1.7431  1.3332 -0.2297
 5876SOL    HW229088   1.670   3.922  15.805  0.7533 -0.1194 -1.5741
 5877SOL     OW29089   0.414   1.750   3.569  0.6801 -0.2935  0.5635
 5877SOL    HW129090   0.434   1.817   3.503 -1.3170 -0.0611  0.1891
 5877SOL    HW229091   0.359   1.690   3.519 -2.0466  0.8740  2.1205
 5878SOL     OW29092   2.878   4.497  15.057  0.2428  0.1182 -0.4006
 5878SOL    HW129093   2.871   4.415  15.106 -0.9094  0.8188  0.6079
 5878SOL    HW229094   2.931   4.543  15.122  0.4352 -0.1810 -0.3442
 5879SOL     OW29095   3.898   1.228  14.332 -0.0430  0.1828  0.3177
 5879SOL    HW129096   3.880   1.174  14.409  0.5464 -0.2380  0.1575
 5879SOL    HW229097   3.936   1.303  14.378  1.7651  0.0502 -0.9450
 5880SOL     OW29098   0.982   3.371   4.201  0.5165 -0.1014  0.7835
 5880SOL    HW129099   1.048   3.349   4.134  0.3019 -1.0428  0.8802
 5880SOL    HW229100   1.017   3.455   4.231 -0.3756  0.7180 -0.4926
 5881SOL     OW29101   1.666   4.181   2.359  0.3932  0.2621  0.7108
 5881SOL    HW129102   1.583   4.138   2.341  0.1214  1.7529 -1.5284
 5881SOL    HW229103   1.675   4.243   2.287  0.1170  0.1742  0.6037
 5882SOL     OW29104   2.420   3.515   2.213  0.6696  0.1788 -1.1453
 5882SOL    HW129105   2.406   3.451   2.283  0.2297  1.9239  0.3810
 5882SOL    HW229106   2.503   3.551   2.246  1.3280 -1.9323 -0.4681
 5883SOL     OW29107   3.913   4.551   0.897 -0.4904  0.6382 -0.0620
 5883SOL    HW129108   3.994   4.528   0.852 -1.2421  1.3067 -1.7528
 5883SOL    HW229109   3.881   4.467   0.929  0.0925  0.8601  1.0945
 5884SOL     OW29110   3.894   2.354   0.725 -0.0575  0.0902  0.1195
 5884SOL    HW129111   3.813   2.384   0.684 -0.4913 -1.9477 -0.5287
 5884SOL    HW229112   3.943   2.436   0.731 -0.2882  0.0828  1.9808
 5885SOL     OW29113   1.053   2.177   5.867 -0.0985  0.1687  0.4228
 5885SOL    HW129114   0.973   2.132   5.842 -0.0106 -0.7782  1.8104
 5885SOL    HW229115   1.030   2.211   5.954 -0.6015  0.1130  0.3111
 5886SOL     OW29116   0.232   4.046   7.632  0.3305 -0.2213  0.1095
 5886SOL    HW129117   0.214   4.073   7.542  1.1761 -0.2142 -0.0519
 5886SOL    HW229118   0.325   4.035   7.616 -0.2541 -1.0185 -2.6044
 5887SOL     OW29119   2.222   0.365   4.316 -0.4171  0.3248 -0.1097
 5887SOL    HW129120   2.155   0.299   4.332  0.2037  0.2885  2.3279
 5887SOL    HW229121   2.280   0.320   4.254  0.0690 -0.4806  0.9343
 5888SOL     OW29122   1.282   2.867  13.575 -0.1097  0.1038 -0.1433
 5888SOL    HW129123   1.372   2.836  13.569 -0.4095 -0.5977 -0.9261
 5888SOL    HW229124   1.257   2.838  13.663  2.5089 -0.1734  0.5248
 5889SOL     OW29125   3.659   1.470   3.406 -0.1653 -0.4025 -0.6259
 5889SOL    HW129126   3.674   1.462   3.312  1.9697  0.0459 -0.3278
 5889SOL    HW229127   3.750   1.466   3.435 -0.3102 -2.5990 -0.4562
 5890SOL     OW29128   3.458   0.395   6.657  0.1104 -0.1549 -0.6726
 5890SOL    HW129129   3.408   0.448   6.594 -0.1667 -1.6234 -1.6706
 5890SOL    HW229130   3.397   0.371   6.727  0.6059  1.9862  0.4933
 5891SOL     OW29131   1.240   3.255  10.373  0.3479 -0.0240 -0.3864
 5891SOL    HW129132   1.177   3.233  10.442 -0.1451  0.7470 -0.5943
 5891SOL    HW229133   1.306   3.308  10.418 -0.4541 -0.2423  1.0365
 5892SOL     OW29134   1.960   1.738   3.737 -1.0714 -0.2957 -0.0748
 5892SOL    HW129135   1.968   1.811   3.675  0.4527  0.2198  0.7155
 5892SOL    HW229136   1.975   1.786   3.819 -1.4317  0.8030 -0.6419
 5893SOL     OW29137   0.502   2.902   4.763  1.0089  0.0899  0.4707
 5893SOL    HW129138   0.569   2.969   4.755  0.5713  0.7497  2.5159
 5893SOL    HW229139   0.427   2.958   4.742 -0.1202 -1.7128 -0.4000
 5894SOL     OW29140   1.415   0.039   6.930 -0.9457 -0.3920 -0.4825
 5894SOL    HW129141   1.483   0.051   6.996 -2.7507  4.6530  0.4644
 5894SOL    HW229142   1.407   0.125   6.889  2.0691  0.4595  0.7727
 5895SOL     OW29143   1.568   4.153   5.879  0.0476  0.2030 -0.1139
 5895SOL    HW129144   1.629   4.224   5.903 -0.2017  0.2464  0.3963
 5895SOL    HW229145   1.619   4.102   5.815  1.5985  0.1808  1.1289
 5896SOL     OW29146   0.967   0.258   6.660  0.1634  0.4416 -0.0853
 5896SOL    HW129147   0.921   0.190   6.611  0.4991  0.2742 -0.1701
 5896SOL    HW229148   0.932   0.339   6.622 -0.4973 -0.4735 -1.4088
 5897SOL     OW29149   3.618   0.422  16.655  0.1650  0.4940  0.6693
 5897SOL    HW129150   3.602   0.400  16.746 -0.9402  1.3829  0.6904
 5897SOL    HW229151   3.702   0.465  16.670  0.3819  0.3522 -0.0895
 5898SOL     OW29152   1.362   4.640   1.135  0.1810 -0.3691  0.0758
 5898SOL    HW129153   1.332   4.714   1.187 -0.6395 -0.8604  0.2925
 5898SOL    HW229154   1.443   4.621   1.183  1.5731 -2.0396 -2.8972
 5899SOL     OW29155   3.127   3.057   6.130 -0.3641 -0.2067  0.2699
 5899SOL    HW129156   3.133   3.021   6.219 -0.4427 -0.6278  0.1022
 5899SOL    HW229157   3.149   2.974   6.089 -2.0008 -0.3463 -0.3387
 5900SOL     OW29158   1.189   2.284   6.243  0.0169 -0.0715 -0.2600
 5900SOL    HW129159   1.111   2.254   6.289  1.4548 -1.0387  1.4994
 5900SOL    HW229160   1.224   2.330   6.319 -0.3867  2.0117 -1.3201
 5901SOL     OW29161   2.688   3.658   8.710 -0.1075 -0.2589  0.0510
 5901SOL    HW129162   2.632   3.608   8.650  1.1090  0.6077 -1.8169
 5901SOL    HW229163   2.654   3.631   8.795 -1.2054 -0.5150 -0.4645
 5902SOL     OW29164   1.613   0.641   2.704  0.1961 -0.4647 -0.6918
 5902SOL    HW129165   1.555   0.570   2.678 -2.7123  2.4713 -2.2225
 5902SOL    HW229166   1.636   0.610   2.792  2.3737  1.2253 -0.6708
 5903SOL     OW29167   1.894   0.339   8.103 -0.6821 -0.1747 -0.3958
 5903SOL    HW129168   1.827   0.305   8.162 -0.1896  1.4918  1.1381
 5903SOL    HW229169   1.963   0.393   8.143 -0.4806 -0.6989 -0.0309
 5904SOL     OW29170   3.345   1.339   8.446 -0.0375  0.3837 -0.0233
 5904SOL    HW129171   3.305   1.383   8.371 -0.7899 -0.4189 -0.0982
 5904SOL    HW229172   3.277   1.345   8.512  2.2373  0.0741  2.3555
 5905SOL     OW29173   3.753   1.822  13.614  0.2812 -0.1996  0.3975
 5905SOL    HW129174   3.826   1.881  13.636  0.4216  0.4329 -1.7289
 5905SOL    HW229175   3.720   1.798  13.701  0.5745  1.8563  1.0784
 5906SOL     OW29176   2.329   2.693  13.331  0.4417  0.0825  0.0806
 5906SOL    HW129177   2.419   2.660  13.327  0.0049 -1.1686  0.5894
 5906SOL    HW229178   2.282   2.610  13.323  2.1784 -1.0807  1.7017
 5907SOL     OW29179   3.822   3.806   7.804 -0.1631  0.1554 -0.0455
 5907SOL    HW129180   3.787   3.722   7.773 -0.5688  0.4958 -0.5006
 5907SOL    HW229181   3.887   3.768   7.864  1.3686  1.3649 -0.9401
 5908SOL     OW29182   2.861   2.427   1.976 -0.0304 -0.3623 -0.1000
 5908SOL    HW129183   2.923   2.371   1.929  0.3233 -0.9708  1.0716
 5908SOL    HW229184   2.876   2.509   1.930  1.7832  0.7246  2.4367
 5909SOL     OW29185   2.752   4.715   1.385  0.0869 -0.5198  0.0988
 5909SOL    HW129186   2.812   0.066   1.371  2.1768 -2.4753 -1.1828
 5909SOL    HW229187   2.715   0.020   1.469  1.6867  0.2710  0.5534
 5910SOL     OW29188   2.083   0.183   7.163  0.1269  0.3376  0.2451
 5910SOL    HW129189   2.097   0.191   7.258  1.8933 -1.1880  0.1042
 5910SOL    HW229190   2.046   0.269   7.146 -2.6226 -0.8335  0.1941
 5911SOL     OW29191   4.446   3.187   2.245  0.1628 -0.5917  0.0394
 5911SOL    HW129192   4.425   3.213   2.155  1.1307  0.1295  0.0186
 5911SOL    HW229193   4.363   3.163   2.284 -1.1960  0.4199 -2.2320
 5912SOL     OW29194   2.417   0.229  10.321 -0.0270 -0.3726 -0.3056
 5912SOL    HW129195   2.468   0.250  10.399 -0.1953  2.9673 -1.1097
 5912SOL    HW229196   2.453   0.286  10.254 -0.0035 -0.7129 -0.5828
 5913SOL     OW29197   4.514   0.654   2.745  0.5911 -0.1878 -0.2939
 5913SOL    HW129198   4.593   0.600   2.743  0.8411  0.1585  0.3828
 5913SOL    HW229199   4.538   0.741   2.778  2.8104 -0.8295 -0.2249
 5914SOL     OW29200   3.854   4.192   8.318 -0.2763 -0.3167 -0.2374
 5914SOL    HW129201   3.807   4.109   8.316  0.3883 -0.6774 -1.3297
 5914SOL    HW229202   3.843   4.205   8.412  1.0193  0.5341 -0.1982
 5915SOL     OW29203   2.279   0.299  14.009  0.2892  0.1841  0.4635
 5915SOL    HW129204   2.334   0.335  13.939 -1.3429 -0.4773 -1.1380
 5915SOL    HW229205   2.216   0.367  14.029 -0.5897 -0.8542  1.2258
 5916SOL     OW29206   1.553   0.453  10.412 -0.5798  0.1114  0.6430
 5916SOL    HW129207   1.548   0.401  10.493  1.0017 -1.2394 -0.1420
 5916SOL    HW229208   1.501   0.530  10.435  0.0946 -0.1765  3.1328
 5917SOL     OW29209   4.546   3.305   6.883 -0.4470  0.0746  0.2666
 5917SOL    HW129210   4.604   3.295   6.959 -0.0269 -1.7066 -0.2728
 5917SOL    HW229211   4.464   3.268   6.915 -0.2079 -1.7760 -1.2247
 5918SOL     OW29212   1.376   4.030   3.520 -0.3910  0.3341 -0.2016
 5918SOL    HW129213   1.440   4.029   3.449  0.5069 -2.0209  0.6260
 5918SOL    HW229214   1.324   4.109   3.506 -1.0090  0.2561  1.5680
 5919SOL     OW29215   1.339   3.440  16.970 -0.7652 -0.1270  0.4046
 5919SOL    HW129216   1.313   3.522  16.927  0.7276 -0.2884 -0.8239
 5919SOL    HW229217   1.361   3.465  17.060 -2.1913  0.9873  0.4476
 5920SOL     OW29218   0.290   0.798   2.699  0.0326 -0.0942 -0.2010
 5920SOL    HW129219   0.241   0.856   2.758 -0.9306 -1.3047  0.1985
 5920SOL    HW229220   0.350   0.860   2.659  0.6121  0.0199  0.8400
 5921SOL     OW29221   4.686   1.387  11.802 -0.1725 -0.5871 -0.3306
 5921SOL    HW129222   4.650   1.470  11.771 -0.6596 -0.2373  1.1822
 5921SOL    HW229223   4.716   1.418  11.887  1.2750  1.3000 -1.5133
 5922SOL     OW29224   1.371   0.164   2.258 -0.3755 -0.0887  0.3970
 5922SOL    HW129225   1.328   0.189   2.176  0.3746 -0.1299 -0.0043
 5922SOL    HW229226   1.377   0.252   2.294 -1.7926  0.3195 -0.3381
 5923SOL     OW29227   3.774   0.214   8.359  0.4190 -0.4857 -0.0075
 5923SOL    HW129228   3.726   0.201   8.277  2.7146  3.5662 -2.0108
 5923SOL    HW229229   3.860   0.178   8.335 -0.0427 -0.1282 -2.2458
 5924SOL     OW29230   4.310   0.502   0.509 -0.6411  0.2597  0.5597
 5924SOL    HW129231   4.270   0.471   0.428  0.0140 -0.6382  0.5849
 5924SOL    HW229232   4.299   0.426   0.566  1.6507  0.5530  1.3903
 5925SOL     OW29233   0.901   1.722  16.324  0.8118 -0.1071  0.1312
 5925SOL    HW129234   0.925   1.769  16.404  1.3551 -0.9482  0.4598
 5925SOL    HW229235   0.943   1.782  16.263 -0.0560 -0.0655 -0.4299
 5926SOL     OW29236   0.570   1.816   5.678  0.0573  0.5185 -0.6390
 5926SOL    HW129237   0.514   1.739   5.678  0.8148 -0.0353  0.7120
 5926SOL    HW229238   0.655   1.780   5.652  1.2090  1.0068  2.4508
 5927SOL     OW29239   0.115   0.188  10.502 -0.2216  0.3619  0.3923
 5927SOL    HW129240   0.068   0.112  10.536  1.9911 -0.3004  1.9923
 5927SOL    HW229241   0.159   0.149  10.426 -0.3641 -2.3260  1.7054
 5928SOL     OW29242   3.228   4.341   2.521  0.3899 -0.2141 -0.0348
 5928SOL    HW129243   3.252   4.392   2.444  2.9999 -2.0397 -0.4602
 5928SOL    HW229244   3.133   4.341   2.524  0.4184  0.5096  0.6257
 5929SOL     OW29245   0.936   1.822   8.420 -0.6197  0.1010  0.1204
 5929SOL    HW129246   0.970   1.752   8.476 -1.0958 -1.0388 -1.0275
 5929SOL    HW229247   0.880   1.880   8.471 -1.0223 -2.0649  2.1493
 5930SOL     OW29248   0.999   4.041   7.304  0.1059  0.0694  0.1954
 5930SOL    HW129249   0.929   3.976   7.292 -0.1633  0.5817 -1.0506
 5930SOL    HW229250   1.025   4.019   7.393  2.3651 -0.9995 -0.7190
 5931SOL     OW29251   1.594   0.270   4.585  0.1050 -0.0452 -0.2149
 5931SOL    HW129252   1.633   0.183   4.592 -0.4992 -0.1667  1.6768
 5931SOL    HW229253   1.635   0.318   4.657  0.3234 -0.4223 -0.0870
 5932SOL     OW29254   0.882   3.677   5.186 -0.1771 -0.5470 -0.0344
 5932SOL    HW129255   0.926   3.691   5.270  1.4683 -1.9780 -0.6451
 5932SOL    HW229256   0.792   3.663   5.215  0.2511  0.4634  1.7649
 5933SOL     OW29257   3.833   1.026   8.572  0.0851  0.3619 -0.0115
 5933SOL    HW129258   3.851   1.067   8.657 -0.0767 -1.8976  1.1164
 5933SOL    HW229259   3.769   0.960   8.600 -1.0450  1.4484 -0.0441
 5934SOL     OW29260   3.032   0.500   8.845  0.2357  0.2248 -0.1341
 5934SOL    HW129261   2.972   0.573   8.857 -1.0751 -0.9634  0.6146
 5934SOL    HW229262   3.002   0.458   8.764 -0.4464 -0.3497  0.4134
 5935SOL     OW29263   3.076   3.858   9.926  0.7937  0.5331 -0.0532
 5935SOL    HW129264   3.110   3.903  10.003  2.2061  1.0262 -0.9532
 5935SOL    HW229265   3.156   3.819   9.889 -0.8368 -0.2771 -2.7503
 5936SOL     OW29266   2.465   3.170   3.692 -0.2232  0.0193  0.0797
 5936SOL    HW129267   2.391   3.230   3.697  0.8738  1.3453  0.5031
 5936SOL    HW229268   2.484   3.194   3.601  0.2005 -1.4559 -0.2331
 5937SOL     OW29269   1.978   3.005   7.065 -0.0309  0.5587  0.6119
 5937SOL    HW129270   2.023   2.927   7.097 -0.8404  0.5552  1.7253
 5937SOL    HW229271   1.929   2.967   6.992 -0.3019 -0.6056  1.3987
 5938SOL     OW29272   1.429   2.662   6.767  0.3220  0.2241 -0.1195
 5938SOL    HW129273   1.523   2.676   6.771  0.1359  1.3356  0.3251
 5938SOL    HW229274   1.389   2.732   6.819 -2.7046 -0.3189 -1.6951
 5939SOL     OW29275   1.322   4.064   6.729 -0.2275 -0.3318 -0.3248
 5939SOL    HW129276   1.243   4.035   6.775  0.1790 -1.2925 -0.2442
 5939SOL    HW229277   1.307   4.159   6.734  2.8306  0.1316 -0.2520
 5940SOL     OW29278   0.027   4.635   0.055 -0.0323  0.1934 -0.1142
 5940SOL    HW129279   4.705   4.685  17.679 -0.2041 -0.6719 -0.6270
 5940SOL    HW229280   4.688   4.653   0.127 -1.5374  1.3991 -1.6958
 5941SOL     OW29281   4.315   0.183   9.055 -0.3386  0.7205 -0.2243
 5941SOL    HW129282   4.361   0.101   9.034 -2.2581 -0.5740  0.6273
 5941SOL    HW229283   4.388   0.226   9.099  1.4138 -2.2805 -0.1557
 5942SOL     OW29284   3.362   0.962  11.476  0.1947 -0.1235 -0.0476
 5942SOL    HW129285   3.307   0.889  11.449  1.3921 -0.1590 -2.4176
 5942SOL    HW229286   3.363   0.961  11.571  1.7110 -0.0371 -0.0527
 5943SOL     OW29287   0.071   4.211  11.505 -0.2527 -0.1544  0.0694
 5943SOL    HW129288   0.011   4.137  11.512 -1.2336  0.7054  0.7593
 5943SOL    HW229289   0.144   4.187  11.563 -0.2741 -2.4657 -0.8379
 5944SOL     OW29290   2.525   4.010   2.608 -0.0389  0.4522  0.4017
 5944SOL    HW129291   2.449   4.013   2.666 -0.9639 -0.2115 -0.7725
 5944SOL    HW229292   2.498   3.942   2.546 -0.5283  2.5438 -1.6950
 5945SOL     OW29293   0.897   0.492   6.563 -0.4571 -0.3076 -0.2931
 5945SOL    HW129294   0.880   0.517   6.472  0.2241  0.7034 -0.1432
 5945SOL    HW229295   0.812   0.503   6.606  0.7255 -0.2327  2.0142
 5946SOL     OW29296   3.095   4.192  10.291 -0.3089 -0.2699 -0.1917
 5946SOL    HW129297   3.109   4.268  10.235 -0.7196 -0.8401 -1.0769
 5946SOL    HW229298   3.027   4.150  10.239 -1.6603 -0.3437  1.6307
 5947SOL     OW29299   1.750   3.486   5.581  0.3684 -0.0008  0.8194
 5947SOL    HW129300   1.735   3.483   5.675  0.9192  1.9735  0.9837
 5947SOL    HW229301   1.837   3.528   5.577  0.2998  0.2460  1.8626
 5948SOL     OW29302   2.843   1.140   9.098 -0.1743 -0.2593  0.0770
 5948SOL    HW129303   2.823   1.194   9.021 -1.0011 -1.4705 -0.5504
 5948SOL    HW229304   2.859   1.211   9.161  1.2751 -1.4594  1.0623
 5949SOL     OW29305   3.074   0.119   5.501 -0.5552 -0.5244 -0.4292
 5949SOL    HW129306   3.159   0.076   5.512 -0.7796 -0.7392  0.5413
 5949SOL    HW229307   3.040   0.062   5.432  0.9592 -0.2144 -1.4213
 5950SOL     OW29308   0.619   4.616   8.330 -0.0751  0.2074 -0.2539
 5950SOL    HW129309   0.707   4.615   8.368 -1.3383 -0.0961  2.6761
 5950SOL    HW229310   0.582   4.702   8.348  0.2334  0.5172 -1.1167
 5951SOL     OW29311   0.286   3.742  12.165 -0.1412 -0.0281 -0.8574
 5951SOL    HW129312   0.240   3.745  12.249  1.9456  0.1917  0.2526
 5951SOL    HW229313   0.238   3.672  12.120 -0.7245 -1.1948  1.5558
 5952SOL     OW29314   1.774   0.680  11.411  0.1128  0.0649  0.6930
 5952SOL    HW129315   1.847   0.703  11.354 -0.7288 -0.6533 -0.6801
 5952SOL    HW229316   1.820   0.620  11.470  2.1944  1.1904  0.2245
 5953SOL     OW29317   3.579   1.793   9.760  0.0740 -0.4882 -0.0790
 5953SOL    HW129318   3.550   1.789   9.851  1.1800  1.3910  0.3534
 5953SOL    HW229319   3.493   1.799   9.719 -0.2536  0.2711  0.7355
 5954SOL     OW29320   3.292   2.430   3.243 -0.4255 -0.5050 -0.3000
 5954SOL    HW129321   3.199   2.413   3.229 -0.3450  0.0263 -1.4570
 5954SOL    HW229322   3.279   2.470   3.329 -0.0985  0.5242 -0.7231
 5955SOL     OW29323   0.078   1.190   8.102 -0.5913  0.2772 -0.0391
 5955SOL    HW129324   0.098   1.116   8.160 -0.0775  0.0423 -0.5176
 5955SOL    HW229325   0.011   1.240   8.148 -2.3278 -0.0913 -2.2026
 5956SOL     OW29326   4.473   2.125  10.609 -0.3952  0.0116  0.1781
 5956SOL    HW129327   4.528   2.203  10.604  1.3059 -1.1826  0.5886
 5956SOL    HW229328   4.394   2.143  10.660 -0.9183  1.5691 -1.1704
 5957SOL     OW29329   4.593   2.469   3.354 -0.0944 -0.1951  0.0606
 5957SOL    HW129330   4.683   2.444   3.373  0.0641  0.0953 -0.3034
 5957SOL    HW229331   4.601   2.517   3.271  0.7681 -0.1945  0.1508
 5958SOL     OW29332   1.365   4.470   6.069  0.3687 -0.2180  0.5456
 5958SOL    HW129333   1.317   4.419   6.134 -1.8544  0.2306 -0.7543
 5958SOL    HW229334   1.434   4.508   6.123  0.2585  0.1270  0.4438
 5959SOL     OW29335   3.823   4.114   7.028 -0.2482 -0.6360  0.3305
 5959SOL    HW129336   3.798   4.183   7.090 -0.3840 -2.5083  2.3852
 5959SOL    HW229337   3.737   4.099   6.988  0.6158 -1.9808 -1.0533
 5960SOL     OW29338   0.498   0.765   8.195  0.3424 -0.3520  0.1469
 5960SOL    HW129339   0.476   0.674   8.180  1.0489 -0.6681  1.0428
 5960SOL    HW229340   0.425   0.803   8.146 -0.2019 -0.8377  0.5847
 5961SOL     OW29341   0.896   0.640  13.690 -0.0031 -0.1997  0.2365
 5961SOL    HW129342   0.811   0.672  13.718  1.3621  2.1875  1.7020
 5961SOL    HW229343   0.908   0.575  13.759  0.6909 -0.7480 -0.3981
 5962SOL     OW29344   4.550   4.487   3.134  0.4824  0.1315 -0.2330
 5962SOL    HW129345   4.627   4.435   3.154 -0.5996 -0.8570  1.3216
 5962SOL    HW229346   4.538   4.468   3.041 -0.7077 -0.3049  0.0042
 5963SOL     OW29347   4.496   2.959   7.624  0.7203  0.2355 -0.7770
 5963SOL    HW129348   4.426   2.992   7.569 -0.3623 -0.5857  0.1055
 5963SOL    HW229349   4.439   2.952   7.701  2.1282 -0.9197  0.1595
 5964SOL     OW29350   1.957   2.554   0.548  0.4652  0.1612  0.0021
 5964SOL    HW129351   2.021   2.484   0.539 -2.2563 -2.3206  0.1050
 5964SOL    HW229352   1.960   2.567   0.643  2.0564 -1.0950  0.1172
 5965SOL     OW29353   2.435   1.110   3.097 -0.3830 -0.1974 -0.6118
 5965SOL    HW129354   2.421   1.180   3.033  1.3882 -1.5110 -2.4367
 5965SOL    HW229355   2.501   1.147   3.155  0.6541 -2.9811 -0.0085
 5966SOL     OW29356   2.938   4.021   8.440  0.2835 -0.4357 -0.1102
 5966SOL    HW129357   2.937   4.023   8.536  2.5569 -0.2039 -0.0990
 5966SOL    HW229358   3.006   3.956   8.424 -0.3503 -1.3241  0.7737
 5967SOL     OW29359   2.265   0.119  17.684  0.0867 -0.0496 -0.3538
 5967SOL    HW129360   2.360   0.126  17.682  0.0747  0.1724 -0.0863
 5967SOL    HW229361   2.250   0.030   0.021 -0.1143  0.3548  0.7637
 5968SOL     OW29362   2.749   3.623   5.884  0.2979  0.0114  0.2082
 5968SOL    HW129363   2.823   3.565   5.899 -0.1002 -0.8539 -1.1964
 5968SOL    HW229364   2.763   3.645   5.792 -0.1474 -0.7352 -0.0352
 5969SOL     OW29365   2.555   1.851   6.965  0.1540  0.0312 -0.4702
 5969SOL    HW129366   2.491   1.845   6.894  1.6421 -0.2917 -1.7584
 5969SOL    HW229367   2.581   1.942   6.950 -1.7415  0.3642 -1.7167
 5970SOL     OW29368   2.901   2.497  11.665  0.1586  0.3906 -0.4319
 5970SOL    HW129369   2.890   2.437  11.591  0.8872 -0.5589  0.2293
 5970SOL    HW229370   2.833   2.557  11.633 -1.8058 -0.5676  2.0154
 5971SOL     OW29371   4.467   3.207   3.879 -0.0354 -0.3566  0.2630
 5971SOL    HW129372   4.540   3.265   3.900 -0.6005  0.1460  0.8632
 5971SOL    HW229373   4.486   3.124   3.921  2.6185 -0.8920 -1.9866
 5972SOL     OW29374   1.604   0.787   7.496 -0.1887  0.0139  0.2255
 5972SOL    HW129375   1.641   0.787   7.585  0.2778  1.5748  0.0418
 5972SOL    HW229376   1.537   0.854   7.510  1.4582  2.1155 -1.9125
 5973SOL     OW29377   2.130   0.076   6.631 -0.0854 -0.2553  0.3621
 5973SOL    HW129378   2.171   0.021   6.697  2.4175  0.1937 -0.8103
 5973SOL    HW229379   2.151   0.022   6.555 -0.1549 -0.4169  0.4587
 5974SOL     OW29380   0.768   0.570  12.584 -0.3544  0.6016  0.2795
 5974SOL    HW129381   0.848   0.560  12.532  0.8346 -3.0280  2.8247
 5974SOL    HW229382   0.710   0.496  12.567  2.4553 -1.1960 -1.4223
 5975SOL     OW29383   4.362   4.512   6.520  0.1662  0.5789  0.0501
 5975SOL    HW129384   4.423   4.439   6.527 -0.6986 -0.0021  1.7415
 5975SOL    HW229385   4.281   4.468   6.546  0.2447 -0.2280 -1.0982
 5976SOL     OW29386   1.920   0.141   7.626  0.4783  0.8395 -0.0290
 5976SOL    HW129387   1.953   0.190   7.701  1.8885  0.1629 -0.2040
 5976SOL    HW229388   1.999   0.155   7.574  1.1215  0.3161  0.8210
 5977SOL     OW29389   3.675   3.506   0.208  0.3283 -0.9825  0.5323
 5977SOL    HW129390   3.734   3.581   0.210  0.8065 -1.3789  1.9581
 5977SOL    HW229391   3.597   3.543   0.250  0.5289  1.4940 -1.3200
 5978SOL     OW29392   2.688   4.138  13.527 -0.4051 -0.1048 -0.0447
 5978SOL    HW129393   2.593   4.131  13.520 -0.5424  1.5656  0.1222
 5978SOL    HW229394   2.704   4.113  13.618 -2.1066  0.4212  0.4023
 5979SOL     OW29395   3.565   3.197   7.303  0.3372  0.1476 -0.1227
 5979SOL    HW129396   3.563   3.158   7.215  1.0761 -0.6155  0.1972
 5979SOL    HW229397   3.540   3.119   7.352  1.9504 -1.1177 -1.3068
 5980SOL     OW29398   2.752   0.366   8.823  0.5802 -0.4494 -0.1035
 5980SOL    HW129399   2.725   0.434   8.762 -2.8703  0.0327  1.9768
 5980SOL    HW229400   2.699   0.292   8.794  1.1485 -0.3312 -1.4443
 5981SOL     OW29401   0.524   1.252  13.027 -0.2210 -0.0982 -0.1980
 5981SOL    HW129402   0.583   1.327  13.041  1.6347 -0.9369 -3.4460
 5981SOL    HW229403   0.461   1.275  12.959 -0.6003  1.4626  0.6984
 5982SOL     OW29404   3.525   2.295   3.976 -0.1476 -0.7699  0.0272
 5982SOL    HW129405   3.560   2.233   3.913 -2.4063 -0.1681 -1.8366
 5982SOL    HW229406   3.569   2.373   3.943  0.6064 -0.7907  1.0007
 5983SOL     OW29407   1.459   1.815   8.428  0.2144 -0.3906  0.1322
 5983SOL    HW129408   1.449   1.839   8.336  0.7687 -5.3508 -1.2212
 5983SOL    HW229409   1.555   1.808   8.427  0.1005 -2.6233  3.1519
 5984SOL     OW29410   0.760   1.848   6.703 -0.3946 -0.1917 -0.0273
 5984SOL    HW129411   0.706   1.771   6.686  1.0045 -1.3972  0.9704
 5984SOL    HW229412   0.693   1.916   6.702 -1.4223 -1.2460 -1.6686
 5985SOL     OW29413   2.373   0.551   3.465  0.1402 -0.4626  0.0372
 5985SOL    HW129414   2.312   0.599   3.409  0.7378 -0.1018 -0.3043
 5985SOL    HW229415   2.388   0.622   3.528 -0.8001 -0.5953  0.4034
 5986SOL     OW29416   3.181   2.612   5.097 -0.7093 -0.5443  0.4384
 5986SOL    HW129417   3.216   2.532   5.056 -0.8078 -0.0268 -0.6415
 5986SOL    HW229418   3.088   2.618   5.074 -0.6746 -0.7671  0.2313
 5987SOL     OW29419   0.079   2.717   0.503 -0.6469  0.0955  0.5095
 5987SOL    HW129420   0.048   2.633   0.537  2.3750 -0.7544  1.1693
 5987SOL    HW229421   0.035   2.771   0.569 -1.2811 -1.3733  1.2787
 5988SOL     OW29422   3.596   4.323   1.039  0.3742 -0.0901 -0.3067
 5988SOL    HW129423   3.688   4.307   1.022  0.7017  2.2511 -0.7593
 5988SOL    HW229424   3.593   4.409   0.998  0.2156  0.4093  0.7498
 5989SOL     OW29425   1.679   3.511   2.834 -0.1538  0.5082  0.4286
 5989SOL    HW129426   1.740   3.438   2.821  1.7893  2.1495  0.4067
 5989SOL    HW229427   1.605   3.455   2.856 -0.5762  1.1513  0.6126
 5990SOL     OW29428   1.748   1.507   4.522  0.4271  0.2533 -0.3513
 5990SOL    HW129429   1.794   1.578   4.566  2.7221 -0.5537 -1.4389
 5990SOL    HW229430   1.713   1.556   4.447 -1.2067  2.1358  1.6421
 5991SOL     OW29431   3.330   3.141  10.693 -0.3850 -0.4528 -0.3587
 5991SOL    HW129432   3.356   3.119  10.783  0.8670  0.2300 -0.5558
 5991SOL    HW229433   3.412   3.148  10.643  1.1767 -1.7904  2.0028
 5992SOL     OW29434   2.998   4.156   6.669 -0.4407 -0.3396 -0.2005
 5992SOL    HW129435   2.977   4.246   6.644  0.9691  0.2705  0.8246
 5992SOL    HW229436   3.028   4.183   6.755 -0.0570  1.3163 -0.8592
 5993SOL     OW29437   0.001   3.140   7.946 -0.0125 -0.1365 -0.0493
 5993SOL    HW129438   0.025   3.189   8.025  1.5157 -2.9087  1.2162
 5993SOL    HW229439   4.648   3.188   7.911  1.0942  1.0315 -0.8706
 5994SOL     OW29440   2.185   4.004   6.687  0.0925 -0.7699  0.5986
 5994SOL    HW129441   2.162   4.007   6.780 -2.1051 -2.4979  0.1257
 5994SOL    HW229442   2.276   3.974   6.685  0.1174 -0.6874  0.5004
 5995SOL     OW29443   1.987   4.345   5.096 -0.2172 -0.7568 -0.0825
 5995SOL    HW129444   1.955   4.290   5.168 -1.0788 -0.7798 -0.4861
 5995SOL    HW229445   1.914   4.405   5.105 -1.6142 -2.3766 -0.6758
 5996SOL     OW29446   4.027   2.905   5.661 -0.0691  0.7286 -0.0349
 5996SOL    HW129447   4.073   2.826   5.634 -2.9675 -0.3661 -1.7440
 5996SOL    HW229448   3.960   2.865   5.717  0.4716  0.3079  0.3089
 5997SOL     OW29449   3.240   3.699   3.341 -0.1414 -0.2348 -0.3233
 5997SOL    HW129450   3.226   3.690   3.247  1.1455  1.2321 -0.6649
 5997SOL    HW229451   3.223   3.790   3.365  0.8792 -0.4275  1.1583
 5998SOL     OW29452   2.198   0.710   2.952 -0.0388 -0.1356  0.3937
 5998SOL    HW129453   2.140   0.677   2.884 -1.0741  3.6560 -0.5371
 5998SOL    HW229454   2.138   0.717   3.025 -1.8388 -1.5146 -0.9686
 5999SOL     OW29455   4.484   3.591   1.506  0.1333  0.5964 -0.2708
 5999SOL    HW129456   4.560   3.533   1.496  0.0369  1.0259 -3.4599
 5999SOL    HW229457   4.482   3.626   1.417  0.1523 -1.7623 -1.2109
 6000SOL     OW29458   2.144   1.770   8.168 -0.0415 -0.2568 -0.1480
 6000SOL    HW129459   2.169   1.743   8.256 -3.3346 -1.3101  0.4664
 6000SOL    HW229460   2.186   1.698   8.120 -0.0310 -0.4464  0.1438
 6001SOL     OW29461   2.993   3.156   8.211 -0.0508  0.5692 -0.0254
 6001SOL    HW129462   2.912   3.121   8.250 -0.3471  2.2554  0.8887
 6001SOL    HW229463   3.057   3.125   8.274  1.5954 -0.1913 -2.0778
 6002SOL     OW29464   3.737   3.946   6.326 -0.3605  0.1975  0.1941
 6002SOL    HW129465   3.651   3.926   6.363 -2.0216  2.5875 -2.3303
 6002SOL    HW229466   3.745   4.034   6.364 -1.9163 -0.0189  0.9884
 6003SOL     OW29467   1.580   3.668   3.069 -0.0882  0.2965 -0.0876
 6003SOL    HW129468   1.651   3.679   3.132  0.1440 -1.3224 -0.0678
 6003SOL    HW229469   1.628   3.620   3.001  0.2046 -0.9052  0.9844
 6004SOL     OW29470   0.414   2.463   3.741  0.5866 -0.3128 -0.4950
 6004SOL    HW129471   0.474   2.501   3.806 -1.0920 -0.0480  0.8876
 6004SOL    HW229472   0.460   2.380   3.728  0.2402 -0.1018 -2.9925
 6005SOL     OW29473   0.515   3.445   1.214 -0.6603 -0.0122 -0.4131
 6005SOL    HW129474   0.472   3.499   1.148  1.8617 -0.1362 -2.1621
 6005SOL    HW229475   0.447   3.380   1.231 -1.0108 -0.1625 -2.4174
 6006SOL     OW29476   2.757   3.857  11.724 -0.0110 -0.1476  0.1451
 6006SOL    HW129477   2.723   3.878  11.811 -3.2321 -0.5330 -1.0171
 6006SOL    HW229478   2.709   3.774  11.714  1.8798 -1.1034 -1.0063
 6007SOL     OW29479   2.418   1.919   8.283 -0.5419 -0.8627 -0.0366
 6007SOL    HW129480   2.509   1.940   8.262 -1.2075 -0.8628 -2.8898
 6007SOL    HW229481   2.391   1.902   8.193  0.2739  2.6195 -0.9185
 6008SOL     OW29482   0.893   4.632  10.408  0.0497  0.0362 -0.0528
 6008SOL    HW129483   0.983   4.600  10.406 -0.2629 -0.7983 -1.2841
 6008SOL    HW229484   0.859   4.613  10.320 -1.0212  1.3366  0.0829
 6009SOL     OW29485   3.237   1.926   8.349 -0.9795  0.3119 -0.0032
 6009SOL    HW129486   3.192   1.923   8.434 -1.8009 -1.3679 -0.4857
 6009SOL    HW229487   3.168   1.929   8.283 -2.4426  0.8420  1.5367
 6010SOL     OW29488   2.966   3.449   3.134  0.1788  0.5325  0.0754
 6010SOL    HW129489   3.046   3.400   3.152 -0.8960 -0.6259  1.7362
 6010SOL    HW229490   2.977   3.521   3.196  0.0558 -0.2526  1.0139
 6011SOL     OW29491   1.323   0.824   8.443 -0.4395 -0.6550  0.6193
 6011SOL    HW129492   1.316   0.910   8.401 -3.1161 -1.1518  0.0475
 6011SOL    HW229493   1.319   0.761   8.372  2.3620 -1.7657  1.4907
 6012SOL     OW29494   2.643   4.285   8.447 -0.2055 -0.0623 -0.4342
 6012SOL    HW129495   2.695   4.364   8.465 -1.5156  0.2460  1.9856
 6012SOL    HW229496   2.611   4.308   8.360 -1.8314 -2.7039 -0.5230
 6013SOL     OW29497   1.038   0.563   8.521 -0.5566 -0.3068  0.3095
 6013SOL    HW129498   1.105   0.497   8.500  0.6185  0.7805  0.6215
 6013SOL    HW229499   1.092   0.628   8.565 -0.5570 -0.7370  0.9399
 6014SOL     OW29500   1.844   4.136   6.281 -0.0748 -0.2544  0.4144
 6014SOL    HW129501   1.816   4.193   6.210 -1.3957  0.2084  1.2997
 6014SOL    HW229502   1.804   4.059   6.241 -1.5362  1.7805 -2.0163
 6015SOL     OW29503   2.396   0.357   9.793 -0.8293 -0.0085  0.9037
 6015SOL    HW129504   2.445   0.298   9.735 -0.6941  0.5840  0.4180
 6015SOL    HW229505   2.323   0.382   9.736  0.1973 -1.2242 -0.9339
 6016SOL     OW29506   2.930   2.636  17.369  0.9305 -0.2070  0.1199
 6016SOL    HW129507   2.834   2.630  17.376  0.7298  1.1146 -1.3361
 6016SOL    HW229508   2.951   2.646  17.462  2.2897  0.3853 -0.2459
 6017SOL     OW29509   0.292   0.877   4.751 -0.4650  0.7373  0.1286
 6017SOL    HW129510   0.289   0.866   4.846  0.2590  0.9001  0.1733
 6017SOL    HW229511   0.357   0.940   4.719 -1.0225  0.9174 -0.6684
 6018SOL     OW29512   3.120   2.175   0.937 -0.4777  0.5350 -0.2177
 6018SOL    HW129513   3.110   2.242   1.005  0.1547 -0.2659  0.6543
 6018SOL    HW229514   3.212   2.186   0.914 -0.4299  1.1545  0.2721
 6019SOL     OW29515   1.429   4.302   4.677 -0.4737 -0.3189  0.0987
 6019SOL    HW129516   1.438   4.326   4.584 -1.5265 -1.4630 -0.3047
 6019SOL    HW229517   1.468   4.382   4.711 -1.8707 -0.3805  1.8431
 6020SOL     OW29518   2.373   3.467  11.764  0.1282  0.2725 -0.2631
 6020SOL    HW129519   2.346   3.378  11.784  1.6763 -0.0714  0.3254
 6020SOL    HW229520   2.313   3.495  11.695 -0.3098 -0.1493 -0.0488
 6021SOL     OW29521   2.490   4.236  12.601  0.0749  0.1185 -0.3704
 6021SOL    HW129522   2.398   4.245  12.577  0.2782  1.7081 -0.5527
 6021SOL    HW229523   2.484   4.181  12.679  0.1780  0.4348 -0.1383
 6022SOL     OW29524   3.016   3.414  15.544  0.1765  0.4450  0.4962
 6022SOL    HW129525   2.927   3.381  15.530 -0.5669  1.6849  2.4285
 6022SOL    HW229526   3.005   3.433  15.637 -3.7774 -0.4635  0.1905
 6023SOL     OW29527   0.649   4.297  16.642  0.3930  0.3372  0.0110
 6023SOL    HW129528   0.624   4.343  16.562  0.4604  1.7722  0.8037
 6023SOL    HW229529   0.743   4.314  16.638  0.4846  0.0941  0.9603
 6024SOL     OW29530   1.238   4.149   4.834 -0.0856  0.0696 -0.3421
 6024SOL    HW129531   1.299   4.203   4.785 -0.9270  1.6790  0.3791
 6024SOL    HW229532   1.296   4.115   4.903  1.7863  1.1059 -1.4052
 6025SOL     OW29533   1.059   0.399  10.187 -0.0318 -0.1671 -0.4173
 6025SOL    HW129534   0.979   0.429  10.231 -0.6112  1.6263 -2.7173
 6025SOL    HW229535   1.109   0.379  10.266 -1.4902  0.8843  0.7697
 6026SOL     OW29536   4.265   1.756  14.138 -0.1070  0.3514 -0.2144
 6026SOL    HW129537   4.270   1.665  14.168 -0.3950  1.1505  2.2456
 6026SOL    HW229538   4.316   1.792  14.210 -0.5106  1.6442 -0.5771
 6027SOL     OW29539   3.460   2.329  12.879  0.2914  0.2260 -0.2771
 6027SOL    HW129540   3.388   2.367  12.828  2.8657  1.4496 -2.9600
 6027SOL    HW229541   3.415   2.323  12.963  0.5756  1.5833 -0.0388
 6028SOL     OW29542   0.330   3.313   0.553 -0.0898 -0.1278  0.2972
 6028SOL    HW129543   0.314   3.397   0.510 -1.5845  0.4245  1.9138
 6028SOL    HW229544   0.240   3.281   0.544  0.3344 -1.5576  1.1533
 6029SOL     OW29545   1.056   1.435   2.235 -0.1737  0.3159  0.5373
 6029SOL    HW129546   1.026   1.386   2.159  3.1351 -1.6485  0.5120
 6029SOL    HW229547   1.139   1.390   2.253 -2.0461 -2.5348  2.1671
 6030SOL     OW29548   3.730   4.700   8.990  0.0652 -0.0761  0.5633
 6030SOL    HW129549   3.690   0.064   8.978  0.4126 -0.0396 -0.3486
 6030SOL    HW229550   3.825   4.710   8.996  0.1047  0.9044 -1.5350
 6031SOL     OW29551   4.449   4.355   4.232  0.5537  0.4174  0.0158
 6031SOL    HW129552   4.406   4.377   4.315 -0.9934  0.8275 -0.8856
 6031SOL    HW229553   4.505   4.280   4.250 -0.7449 -0.6538 -0.3863
 6032SOL     OW29554   3.378   3.757  15.200  0.1891 -0.1346 -0.0909
 6032SOL    HW129555   3.404   3.763  15.292  0.2554 -2.9982  0.0847
 6032SOL    HW229556   3.337   3.670  15.195  1.8180 -1.0335  2.3080
 6033SOL     OW29557   4.181   2.534   6.259  0.2470 -0.5642  1.1358
 6033SOL    HW129558   4.171   2.446   6.222 -0.7187 -0.0164  0.0892
 6033SOL    HW229559   4.112   2.582   6.212  0.7744  1.2569  2.2364
 6034SOL     OW29560   4.208   0.577   7.948 -0.2697  0.1905 -1.1788
 6034SOL    HW129561   4.156   0.629   8.009 -0.6610 -1.9400  0.3049
 6034SOL    HW229562   4.242   0.511   8.008 -2.8145  0.5356  0.6523
 6035SOL     OW29563   2.860   0.787   5.537 -0.3466  0.1532  0.1963
 6035SOL    HW129564   2.876   0.715   5.598 -0.7551 -0.0314  0.0845
 6035SOL    HW229565   2.952   0.813   5.537  0.3990 -2.5843 -1.1871
 6036SOL     OW29566   1.686   2.821   6.003 -0.1247  0.3294 -0.3327
 6036SOL    HW129567   1.596   2.802   5.977  0.6048 -1.5193 -1.5455
 6036SOL    HW229568   1.676   2.912   6.031 -0.8657  0.1507 -0.0242
 6037SOL     OW29569   0.183   0.156   7.385  0.6040 -0.0968 -0.1080
 6037SOL    HW129570   0.153   0.114   7.465  3.2082  2.3920  2.1808
 6037SOL    HW229571   0.179   0.080   7.328  0.0628  0.7571 -1.2064
 6038SOL     OW29572   2.412   2.953   9.893  0.4054  0.1039 -0.5473
 6038SOL    HW129573   2.480   2.926   9.955  0.2410 -1.0000 -0.8504
 6038SOL    HW229574   2.351   2.946   9.966  0.8208 -0.4257 -0.2437
 6039SOL     OW29575   1.205   4.450   8.569  0.0821 -0.4777  0.3764
 6039SOL    HW129576   1.293   4.418   8.554  0.5299  1.2791 -0.7391
 6039SOL    HW229577   1.157   4.373   8.600  1.1069 -0.4419  2.0334
 6040SOL     OW29578   0.675   3.474   2.582  0.0921 -0.3700 -0.1692
 6040SOL    HW129579   0.697   3.538   2.515 -1.7886 -0.1966 -0.6174
 6040SOL    HW229580   0.754   3.478   2.636 -0.9409 -1.6136  1.4393
 6041SOL     OW29581   0.476   2.931  12.770  0.2526  0.2204 -0.4662
 6041SOL    HW129582   0.498   2.943  12.863 -1.0514 -0.8640 -0.0145
 6041SOL    HW229583   0.418   2.855  12.773  1.7513 -0.8801  0.7713
 6042SOL     OW29584   4.570   3.352   9.190 -0.8243  0.6984  0.3066
 6042SOL    HW129585   4.599   3.352   9.099  1.1781 -0.1213  0.9349
 6042SOL    HW229586   4.481   3.320   9.176 -0.2441 -1.0284  0.5949
 6043SOL     OW29587   1.777   1.347   2.612 -0.1712 -0.6581 -0.6102
 6043SOL    HW129588   1.745   1.429   2.574  0.5189  1.0062  2.3279
 6043SOL    HW229589   1.710   1.292   2.572 -0.6033 -1.6560  1.4455
 6044SOL     OW29590   1.284   0.188  16.114 -0.3897 -0.5346  0.1392
 6044SOL    HW129591   1.288   0.279  16.143 -1.3383  0.3182 -2.3767
 6044SOL    HW229592   1.283   0.146  16.200 -1.4081  2.0326  1.3866
 6045SOL     OW29593   1.965   0.589  10.045  0.2115 -0.3402 -0.1810
 6045SOL    HW129594   1.956   0.538   9.965  0.7733  0.0596 -0.4985
 6045SOL    HW229595   2.027   0.529  10.087  0.6787  0.4771  0.3014
 6046SOL     OW29596   3.625   3.651   2.485  0.1642  0.1507  0.4143
 6046SOL    HW129597   3.540   3.687   2.462 -0.0506 -1.4270 -1.2601
 6046SOL    HW229598   3.654   3.597   2.412  1.2533  0.5208  0.5773
 6047SOL     OW29599   3.398   3.753   8.752 -0.6065  0.3304  0.5705
 6047SOL    HW129600   3.348   3.672   8.764  2.3409 -1.4257  1.0083
 6047SOL    HW229601   3.332   3.820   8.772 -0.4957 -0.2652  2.9305
 6048SOL     OW29602   4.565   3.920   8.736  0.7247  0.8352  0.3074
 6048SOL    HW129603   4.591   3.828   8.742 -2.1802 -0.0059  0.3823
 6048SOL    HW229604   4.481   3.926   8.781  0.0740  0.0661 -0.7996
 6049SOL     OW29605   2.583   2.146   4.113  0.4648  0.3018  0.8465
 6049SOL    HW129606   2.656   2.134   4.173  0.1546 -1.6200  0.8427
 6049SOL    HW229607   2.618   2.227   4.076 -0.7314  0.3711 -0.1453
 6050SOL     OW29608   1.277   0.706   3.013  0.8926 -0.5922 -0.4906
 6050SOL    HW129609   1.246   0.764   2.943  0.6935 -2.2838 -1.7846
 6050SOL    HW229610   1.311   0.635   2.959  0.7094 -0.2510 -1.0554
 6051SOL     OW29611   0.845   0.070   3.466  0.3087  0.4497  0.0430
 6051SOL    HW129612   0.934   0.035   3.463  0.4686  0.9395 -0.9060
 6051SOL    HW229613   0.793   4.714   3.449  0.7255  0.3655 -0.8196
 6052SOL     OW29614   3.391   4.404   8.852 -0.4046  0.2971  0.3971
 6052SOL    HW129615   3.319   4.467   8.855  0.1344  0.9232  0.3681
 6052SOL    HW229616   3.358   4.325   8.895 -1.1135  0.9290  1.0112
 6053SOL     OW29617   2.057   1.587   5.338 -0.6458 -0.4420 -0.7315
 6053SOL    HW129618   2.116   1.561   5.267  1.0572 -0.0353  0.5136
 6053SOL    HW229619   2.102   1.665   5.373  0.8214 -1.4471 -0.3532
 6054SOL     OW29620   3.176   1.619   5.134 -0.1552 -0.2929  0.4064
 6054SOL    HW129621   3.149   1.627   5.226 -1.5664  2.0199 -0.2012
 6054SOL    HW229622   3.256   1.672   5.127  0.6499 -1.2264  2.4231
 6055SOL     OW29623   2.128   0.344   6.551  0.0333  0.5201  0.0864
 6055SOL    HW129624   2.147   0.296   6.471 -1.6170  1.9200 -1.1541
 6055SOL    HW229625   2.095   0.270   6.603 -1.2901  0.3764 -0.9530
 6056SOL     OW29626   4.679   3.788  11.135  0.4134  0.3029 -0.2677
 6056SOL    HW129627   0.018   3.773  11.207  0.5741  0.7178 -0.3203
 6056SOL    HW229628   0.004   3.846  11.077  2.7475  1.1436  2.4690
 6057SOL     OW29629   3.421   2.410   9.349  0.2004  0.5669  0.0452
 6057SOL    HW129630   3.344   2.433   9.297 -0.6965 -1.5603  0.4495
 6057SOL    HW229631   3.483   2.475   9.315 -0.3800  0.4067 -1.2970
 6058SOL     OW29632   1.165   1.421   9.695 -0.4044  0.2985  0.5684
 6058SOL    HW129633   1.180   1.327   9.687 -0.2307  0.1606  2.4769
 6058SOL    HW229634   1.253   1.451   9.719 -0.4226  0.8972 -0.1231
 6059SOL     OW29635   2.682   0.478   7.180  0.4922 -0.2802  0.2984
 6059SOL    HW129636   2.635   0.481   7.263  0.2643 -0.3589  0.1734
 6059SOL    HW229637   2.699   0.572   7.171 -1.4167  0.0614  0.2079
 6060SOL     OW29638   0.073   1.032   7.759  0.7549 -0.0408  0.6842
 6060SOL    HW129639   0.033   1.093   7.820  1.2061 -0.5220  1.4568
 6060SOL    HW229640   0.160   1.015   7.795  1.1908 -0.1459 -0.3986
 6061SOL     OW29641   4.273   3.449  15.032  0.6962  0.8303  0.2909
 6061SOL    HW129642   4.284   3.437  15.126 -0.7035  0.2671  0.3809
 6061SOL    HW229643   4.321   3.531  15.021  0.0361  1.1795  0.0423
 6062SOL     OW29644   0.700   2.452  12.665  0.6668 -0.2995 -0.6339
 6062SOL    HW129645   0.713   2.545  12.643 -0.4704 -0.1153 -0.5466
 6062SOL    HW229646   0.606   2.443  12.650  0.8092 -0.6948 -1.2740
 6063SOL     OW29647   3.862   1.096   8.200 -0.1011  0.3987 -0.3497
 6063SOL    HW129648   3.922   1.150   8.252 -1.6607  0.3421  1.5324
 6063SOL    HW229649   3.898   1.097   8.112 -1.0000  2.0349 -0.6938
 6064SOL     OW29650   3.334   4.341   1.093  0.2492  0.3999  0.0366
 6064SOL    HW129651   3.354   4.281   1.165  3.0832  0.7634 -0.4480
 6064SOL    HW229652   3.414   4.359   1.045 -0.6295  2.4870 -0.6384
 6065SOL     OW29653   4.649   0.710   5.117 -0.2738 -0.4556 -0.6586
 6065SOL    HW129654   4.660   0.718   5.212 -0.1602 -2.5807 -0.4786
 6065SOL    HW229655   4.663   0.615   5.111 -1.2341 -0.5381 -1.5904
 6066SOL     OW29656   1.908   1.836   2.345 -0.6166 -0.4378 -0.2988
 6066SOL    HW129657   1.943   1.773   2.409  2.6309  1.3286 -0.3472
 6066SOL    HW229658   1.820   1.850   2.379 -0.7788 -1.4013 -0.3093
 6067SOL     OW29659   4.524   0.760   6.814 -0.0949  0.0226  0.5400
 6067SOL    HW129660   4.569   0.685   6.775  0.4799 -0.5144  2.2497
 6067SOL    HW229661   4.566   0.762   6.900 -0.7301  0.5305  0.8364
 6068SOL     OW29662   1.131   1.396   4.356  0.7635 -0.6115 -0.2489
 6068SOL    HW129663   1.177   1.342   4.291  1.0932 -0.6741  0.0362
 6068SOL    HW229664   1.066   1.333   4.387  0.9609 -1.2141 -1.0587
 6069SOL     OW29665   2.966   3.335   8.032 -0.5656  0.5187 -0.4618
 6069SOL    HW129666   2.986   3.268   8.098 -2.5075 -0.9450 -1.3722
 6069SOL    HW229667   2.917   3.395   8.088  4.2564  1.3676  2.8190
 6070SOL     OW29668   3.321   4.109   4.592 -0.1511 -0.0883  0.8036
 6070SOL    HW129669   3.258   4.170   4.554  0.4254  0.4013  0.6411
 6070SOL    HW229670   3.339   4.159   4.672  0.7238  2.3134 -0.9010
 6071SOL     OW29671   2.741   3.373   4.209  0.0788  0.2342 -0.2487
 6071SOL    HW129672   2.698   3.287   4.216  0.8230 -0.0438  0.9497
 6071SOL    HW229673   2.714   3.418   4.289 -0.9255 -1.9467  0.6478
 6072SOL     OW29674   0.433   1.279  17.264  0.5953 -0.8337  0.2864
 6072SOL    HW129675   0.351   1.272  17.312 -0.1032  1.1106 -0.6335
 6072SOL    HW229676   0.504   1.295  17.327  0.9680  2.8050 -1.0440
 6073SOL     OW29677   2.640   0.690   7.002  0.1839 -0.2503  0.3721
 6073SOL    HW129678   2.559   0.642   7.021  1.5766 -1.2705  3.7132
 6073SOL    HW229679   2.617   0.781   7.018  0.5367 -0.1992  0.5781
 6074SOL     OW29680   0.668   1.566   5.078  0.3949  0.1133  0.7438
 6074SOL    HW129681   0.763   1.571   5.089  0.5438 -1.6516  0.2521
 6074SOL    HW229682   0.647   1.645   5.029  1.2660  0.0895  0.3271
 6075SOL     OW29683   2.098   0.739  12.259  0.0934  0.1389 -0.6232
 6075SOL    HW129684   2.184   0.771  12.230  0.1796 -1.9291 -2.6052
 6075SOL    HW229685   2.110   0.755  12.353 -0.8637 -0.9347 -0.3231
 6076SOL     OW29686   2.987   2.134   4.852  0.1250  0.1746  0.3081
 6076SOL    HW129687   3.034   2.148   4.934  0.8728 -2.2720  0.3120
 6076SOL    HW229688   2.899   2.166   4.868  0.3683  1.6658 -1.3123
 6077SOL     OW29689   0.869   2.531   6.405 -0.8248  0.3261 -0.0623
 6077SOL    HW129690   0.786   2.578   6.395 -2.2758 -2.2103  0.1864
 6077SOL    HW229691   0.892   2.535   6.312 -0.2990  0.3896  0.0723
 6078SOL     OW29692   4.230   4.112   3.210 -0.4712 -0.0473  0.2146
 6078SOL    HW129693   4.184   4.189   3.179  0.5684 -0.2133 -1.7320
 6078SOL    HW229694   4.315   4.155   3.224 -0.8132  0.6422  0.1710
 6079SOL     OW29695   1.460   3.812   2.392  0.6145 -0.3002  0.2907
 6079SOL    HW129696   1.390   3.757   2.356  0.7138 -0.9889  1.1508
 6079SOL    HW229697   1.440   3.899   2.357 -1.3914 -1.2627 -0.9380
 6080SOL     OW29698   4.533   0.249  14.991  0.5182  0.2191 -0.2548
 6080SOL    HW129699   4.439   0.259  15.005  0.8024  1.8626  0.4934
 6080SOL    HW229700   4.529   0.199  14.909  2.5120  1.9666 -1.4182
 6081SOL     OW29701   4.078   4.223   9.263 -0.5738  0.6890 -0.1566
 6081SOL    HW129702   4.127   4.266   9.193  0.5642 -0.2391  0.0668
 6081SOL    HW229703   3.985   4.239   9.248 -0.4910  0.6471 -0.6957
 6082SOL     OW29704   2.064   3.213   9.896 -0.2663  0.3693 -0.1945
 6082SOL    HW129705   2.077   3.124   9.928  0.0713  0.1330 -1.0173
 6082SOL    HW229706   2.135   3.230   9.835 -1.0348 -1.8959 -1.6991
 6083SOL     OW29707   3.619   2.064  12.982  0.3459  0.6538  0.3505
 6083SOL    HW129708   3.609   2.046  12.888  0.2717 -1.3933  0.7529
 6083SOL    HW229709   3.619   2.160  12.980  1.3424  0.6098 -1.9809
 6084SOL     OW29710   2.364   2.781   6.888 -0.3238 -0.1438  0.5209
 6084SOL    HW129711   2.449   2.741   6.905 -0.4442 -0.6552 -0.1281
 6084SOL    HW229712   2.383   2.863   6.842  1.3506 -1.0555 -0.3897
 6085SOL     OW29713   0.142   2.758   5.865 -0.0585 -0.1056 -0.1647
 6085SOL    HW129714   0.234   2.748   5.890 -0.3596 -1.8189  0.2734
 6085SOL    HW229715   0.100   2.742   5.949  0.4790  1.5167  0.3985
 6086SOL     OW29716   4.699   2.176   9.121  0.1808  0.1242  0.3159
 6086SOL    HW129717   0.018   2.192   9.037 -1.3181 -0.5585 -0.5695
 6086SOL    HW229718   0.035   2.114   9.164  2.0145  0.6054 -1.5247
 6087SOL     OW29719   4.640   3.463   0.949 -0.5019  0.1389  0.4265
 6087SOL    HW129720   0.012   3.457   0.933 -0.6076  1.5658 -0.6702
 6087SOL    HW229721   4.597   3.453   0.864  0.2019 -0.5708  0.1479
 6088SOL     OW29722   3.154   1.539   4.393 -0.3061  0.0270 -0.0661
 6088SOL    HW129723   3.184   1.584   4.471  0.9831 -0.4817 -0.2713
 6088SOL    HW229724   3.109   1.464   4.433 -0.1141 -1.7259 -3.0762
 6089SOL     OW29725   4.708   0.590   6.722 -0.9600  0.0385  0.3680
 6089SOL    HW129726   0.077   0.587   6.695 -1.2369  0.2525 -0.6143
 6089SOL    HW229727   4.712   0.537   6.802 -1.7310  1.2274  1.1990
 6090SOL     OW29728   2.498   4.648  11.843 -0.1468 -0.3971  0.1276
 6090SOL    HW129729   2.423   4.673  11.789  0.3478  1.5108  0.3311
 6090SOL    HW229730   2.575   4.664  11.789 -0.5138  0.7712 -0.0619
 6091SOL     OW29731   1.564   0.652  14.116  0.1132  0.4007  0.3602
 6091SOL    HW129732   1.477   0.683  14.092  0.7461  1.8470 -0.0357
 6091SOL    HW229733   1.577   0.566  14.075  2.4392  0.0456  1.8533
 6092SOL     OW29734   2.734   2.443   5.566 -0.0583 -0.5065  0.7505
 6092SOL    HW129735   2.649   2.462   5.526  1.0746  0.7440 -1.0482
 6092SOL    HW229736   2.705   2.375   5.627 -0.5441 -0.0401  1.0364
 6093SOL     OW29737   3.144   1.927   7.088  0.4049  0.1773  0.2397
 6093SOL    HW129738   3.151   1.986   7.013  0.7652  1.3130  1.1579
 6093SOL    HW229739   3.060   1.955   7.124 -0.4137  0.1062 -1.6404
 6094SOL     OW29740   3.193   4.397   6.138 -0.6164 -0.3316 -0.4781
 6094SOL    HW129741   3.244   4.322   6.166  1.1136  0.3801 -1.7678
 6094SOL    HW229742   3.247   4.410   6.060 -0.7934 -1.6066 -0.8058
 6095SOL     OW29743   4.533   4.017   9.717  0.6111  0.1213 -0.2149
 6095SOL    HW129744   4.556   3.931   9.752  0.1959 -0.3029 -0.9986
 6095SOL    HW229745   4.444   3.997   9.690  1.5107  1.1324 -3.8685
 6096SOL     OW29746   4.248   1.949  11.842 -0.1921 -0.0873  0.0733
 6096SOL    HW129747   4.277   1.859  11.825  0.3298  0.1793 -0.4495
 6096SOL    HW229748   4.259   1.959  11.937  1.1839 -2.4987  0.1864
 6097SOL     OW29749   4.377   0.930   2.940 -0.0454 -0.2196  0.0914
 6097SOL    HW129750   4.450   0.885   2.983  1.5877  2.2867 -0.0624
 6097SOL    HW229751   4.335   0.966   3.018 -1.1611 -1.1370 -0.1008
 6098SOL     OW29752   1.224   1.867   6.338 -0.4441  0.5951  0.0063
 6098SOL    HW129753   1.141   1.821   6.322 -0.3610 -0.1485  1.7566
 6098SOL    HW229754   1.252   1.837   6.424  0.1603  0.2334 -0.3141
 6099SOL     OW29755   3.588   2.363   8.940 -0.0981 -0.1170 -0.5891
 6099SOL    HW129756   3.539   2.306   9.000  0.2944  0.4255  0.2394
 6099SOL    HW229757   3.653   2.308   8.896 -1.0797 -1.6558 -0.1438
 6100SOL     OW29758   3.144   1.182   2.487 -0.0210  0.2902 -0.2814
 6100SOL    HW129759   3.087   1.208   2.559  0.1083 -1.2820  0.3887
 6100SOL    HW229760   3.096   1.109   2.447  0.2096  1.3463 -2.4939
 6101SOL     OW29761   0.469   0.305   5.953  0.3757 -0.0871 -0.5487
 6101SOL    HW129762   0.396   0.317   6.014 -0.5748  1.3794 -1.9815
 6101SOL    HW229763   0.509   0.227   5.991  0.9504 -0.5190 -2.0601
 6102SOL     OW29764   1.395   2.977   8.135 -0.2335 -0.5962 -0.2311
 6102SOL    HW129765   1.411   2.902   8.077 -1.4014 -1.4828  0.6266
 6102SOL    HW229766   1.324   3.022   8.088  0.5348  0.6065 -0.2511
 6103SOL     OW29767   0.086   4.487  12.241  0.3702  0.6196 -0.1570
 6103SOL    HW129768   0.091   4.427  12.315  2.3243 -1.6065 -2.1056
 6103SOL    HW229769   0.082   4.575  12.277 -0.2741  0.3737  0.3477
 6104SOL     OW29770   0.151   0.708   7.793 -0.0444 -0.4709  0.7038
 6104SOL    HW129771   0.229   0.686   7.844  0.8073 -0.4562 -0.5923
 6104SOL    HW229772   0.153   0.645   7.721  1.2921 -2.0594  2.1190
 6105SOL     OW29773   4.407   3.780   6.697  0.4255 -0.3925 -0.0755
 6105SOL    HW129774   4.312   3.771   6.686  0.4153 -1.0949  0.6445
 6105SOL    HW229775   4.435   3.702   6.744  0.7417  0.4249  1.0887
 6106SOL     OW29776   3.103   1.459   1.220 -0.7297  0.0620 -0.8628
 6106SOL    HW129777   3.079   1.548   1.246 -0.2630 -0.6691  2.0016
 6106SOL    HW229778   3.050   1.406   1.279  0.2203  2.2632  1.9724
 6107SOL     OW29779   2.838   0.409   3.098  0.2251 -0.1019  0.1899
 6107SOL    HW129780   2.841   0.347   3.025 -2.8505  1.3287 -1.1635
 6107SOL    HW229781   2.796   0.354   3.164 -0.0382  1.2628  1.1587
 6108SOL     OW29782   1.459   1.428  10.803 -0.6690 -0.0224 -0.0263
 6108SOL    HW129783   1.373   1.428  10.761 -0.3433  1.6083 -0.6688
 6108SOL    HW229784   1.454   1.506  10.857 -1.5275 -1.2614  1.6653
 6109SOL     OW29785   3.987   4.510   7.860  0.3219  0.1646  0.2915
 6109SOL    HW129786   3.929   4.434   7.860 -1.1720  1.3193  2.1557
 6109SOL    HW229787   4.055   4.465   7.808  0.1417  0.5728 -0.2928
 6110SOL     OW29788   4.215   3.096   8.518  0.0508  0.1274  0.2333
 6110SOL    HW129789   4.183   3.180   8.487  2.1117  0.7596 -0.2021
 6110SOL    HW229790   4.144   3.046   8.478  1.4688 -0.3541 -1.6515
 6111SOL     OW29791   2.394   4.418  12.273 -0.8957  0.0438  0.2902
 6111SOL    HW129792   2.356   4.389  12.357 -0.5830  2.0382  1.1203
 6111SOL    HW229793   2.313   4.441  12.226 -1.8805 -2.3383  0.8070
 6112SOL     OW29794   3.008   4.311   0.032  0.0630  0.6989 -0.2343
 6112SOL    HW129795   3.007   4.343  17.634 -1.1869  1.2371 -0.0386
 6112SOL    HW229796   2.963   4.231   0.007 -0.5768  0.9246  0.1767
 6113SOL     OW29797   1.186   2.531   2.780 -0.5520 -0.2003 -0.2394
 6113SOL    HW129798   1.153   2.621   2.779  2.1810  0.8174  1.4669
 6113SOL    HW229799   1.277   2.546   2.754  0.1691 -2.7348  0.8390
 6114SOL     OW29800   2.187   1.023   4.856  0.1778  0.0778 -0.2163
 6114SOL    HW129801   2.121   1.059   4.915  0.3605  0.1222 -0.0424
 6114SOL    HW229802   2.166   0.930   4.869 -1.8435  0.4951 -0.4168
 6115SOL     OW29803   0.696   1.981   9.565 -0.5950  0.5161 -0.2226
 6115SOL    HW129804   0.790   1.987   9.584 -0.6240 -1.7159  0.6692
 6115SOL    HW229805   0.661   2.043   9.628  0.3579  0.3237  0.4932
 6116SOL     OW29806   2.541   4.275  17.102  0.2356 -0.0213 -0.1378
 6116SOL    HW129807   2.563   4.362  17.069 -1.4502  0.9831  1.4196
 6116SOL    HW229808   2.594   4.223  17.041 -0.0604  0.4419 -0.7840
 6117SOL     OW29809   2.882   3.099  16.175 -0.2236  0.2959 -0.1241
 6117SOL    HW129810   2.926   3.056  16.102  2.0558  1.9857  0.2484
 6117SOL    HW229811   2.883   3.193  16.152 -0.8943  0.2150 -0.5057
 6118SOL     OW29812   4.606   2.309  16.305 -0.4259  0.3802  0.0389
 6118SOL    HW129813   4.654   2.303  16.222  1.3043 -3.1527  1.2859
 6118SOL    HW229814   4.592   2.217  16.327 -0.1527 -0.2248 -2.3142
 6119SOL     OW29815   3.756   1.670  10.276  0.0030  0.3363  0.3109
 6119SOL    HW129816   3.673   1.646  10.236  0.6462  0.9481 -1.4065
 6119SOL    HW229817   3.755   1.619  10.356 -1.7737  0.9862  0.7037
 6120SOL     OW29818   0.034   1.783   3.234 -0.2629 -0.1609 -0.1237
 6120SOL    HW129819   0.021   1.715   3.167 -0.2201 -0.1398 -0.1529
 6120SOL    HW229820   4.688   1.844   3.208 -0.3034 -0.7045 -1.3247
 6121SOL     OW29821   1.564   2.382   2.418  0.9678 -0.2667  0.4149
 6121SOL    HW129822   1.519   2.344   2.342  0.2236 -1.0313  1.2276
 6121SOL    HW229823   1.500   2.451   2.438  0.3205 -0.9242  0.6348
 6122SOL     OW29824   0.795   2.471   2.266  0.3198 -0.7088 -0.5453
 6122SOL    HW129825   0.773   2.431   2.351  0.0328  0.5213 -0.0451
 6122SOL    HW229826   0.740   2.549   2.272  0.8932 -0.2721 -1.0800
 6123SOL     OW29827   3.197   0.436  14.438 -0.3505 -0.3561  0.1002
 6123SOL    HW129828   3.255   0.394  14.502 -0.6984 -1.1303 -0.0930
 6123SOL    HW229829   3.207   0.371  14.369  0.1187 -1.5310  1.2641
 6124SOL     OW29830   2.334   3.816   5.784  0.1413 -0.4244  0.3714
 6124SOL    HW129831   2.390   3.871   5.728 -0.7753  1.8128  1.6359
 6124SOL    HW229832   2.322   3.746   5.721 -0.4252 -0.9024  1.0136
 6125SOL     OW29833   2.036   1.977  16.251  0.0665 -0.2562  0.2643
 6125SOL    HW129834   2.075   2.064  16.262 -0.6726 -0.0631  1.3911
 6125SOL    HW229835   2.056   1.940  16.337  0.2806  0.5820  0.5770
 6126SOL     OW29836   0.540   2.567   7.963 -0.2959 -0.5962  0.7241
 6126SOL    HW129837   0.470   2.614   7.918  1.7868  0.7891 -1.0556
 6126SOL    HW229838   0.609   2.628   7.938 -0.9622  0.5623  1.7125
 6127SOL     OW29839   0.945   1.253   3.548  0.6083  0.0286 -0.0805
 6127SOL    HW129840   0.956   1.327   3.489 -0.0786  1.1122  1.1505
 6127SOL    HW229841   0.973   1.182   3.490 -0.3003  0.0199 -0.5017
 6128SOL     OW29842   2.073   1.097   9.354  0.3336 -0.1590  0.3214
 6128SOL    HW129843   2.033   1.018   9.391 -0.1688  0.0937  0.3133
 6128SOL    HW229844   2.008   1.131   9.292  1.8274  0.3942 -0.9213
 6129SOL     OW29845   3.582   1.069  15.784  0.4805 -0.4528 -0.0512
 6129SOL    HW129846   3.500   1.112  15.807  0.5823  0.4038 -1.2608
 6129SOL    HW229847   3.572   0.988  15.833  0.6588  0.0488  0.8284
 6130SOL     OW29848   4.028   2.765   4.041  0.0269 -0.4353 -0.2507
 6130SOL    HW129849   4.102   2.738   3.988  1.3383 -0.7273  1.7118
 6130SOL    HW229850   3.995   2.683   4.076  0.5792 -0.0965  1.0663
 6131SOL     OW29851   3.146   2.225  16.493 -0.0866  0.1639  0.1635
 6131SOL    HW129852   3.057   2.260  16.491 -1.2644 -2.7747  0.4952
 6131SOL    HW229853   3.147   2.199  16.585  0.4294  1.1904  0.4393
 6132SOL     OW29854   0.989   3.288   1.696 -0.0867  0.3507  0.1378
 6132SOL    HW129855   0.992   3.194   1.718  0.3135  0.3476  0.0818
 6132SOL    HW229856   0.898   3.315   1.685 -0.3868 -1.3709 -1.7767
 6133SOL     OW29857   3.396   4.444   3.995 -0.1641 -0.3064 -0.3046
 6133SOL    HW129858   3.303   4.455   3.976 -0.0511  1.6036  0.2457
 6133SOL    HW229859   3.428   4.498   3.923 -1.9062  0.0713 -0.8087
 6134SOL     OW29860   1.201   3.271   7.090 -0.0658  0.3431  0.3249
 6134SOL    HW129861   1.140   3.208   7.128 -0.9543  0.8048 -0.3308
 6134SOL    HW229862   1.232   3.218   7.017  0.0169 -0.0911  0.6731
 6135SOL     OW29863   3.674   4.062   5.634  0.0164 -0.0992 -0.3077
 6135SOL    HW129864   3.588   4.067   5.676 -0.1825  1.6876 -0.9213
 6135SOL    HW229865   3.734   4.077   5.708  0.2509 -1.1874 -0.2811
 6136SOL     OW29866   2.229   2.064   2.506  0.5726 -0.3652  0.5040
 6136SOL    HW129867   2.252   2.074   2.413 -1.4508  2.0668  0.2663
 6136SOL    HW229868   2.207   1.971   2.507 -0.6329 -0.0649  1.4245
 6137SOL     OW29869   3.209   1.127   6.262  0.5064 -0.8627  0.3961
 6137SOL    HW129870   3.280   1.185   6.291 -0.2115  0.5261 -0.6206
 6137SOL    HW229871   3.219   1.052   6.321 -1.4297 -1.7610 -0.4235
 6138SOL     OW29872   1.868   2.769   5.171 -0.2491 -0.1286 -0.5669
 6138SOL    HW129873   1.817   2.689   5.162  2.2734 -1.5272 -2.2680
 6138SOL    HW229874   1.876   2.784   5.076  0.2913 -0.1652 -0.5283
 6139SOL     OW29875   0.665   0.277   6.427  0.4708  0.0976 -0.3050
 6139SOL    HW129876   0.600   0.344   6.447 -0.8765 -1.6097  0.9728
 6139SOL    HW229877   0.714   0.332   6.366 -1.2176  2.4483  0.4559
 6140SOL     OW29878   1.897   1.850   5.510 -0.0739 -0.2344  0.1173
 6140SOL    HW129879   1.985   1.852   5.474 -0.1405  0.2843 -0.0111
 6140SOL    HW229880   1.922   1.848   5.602  1.0007 -0.2355 -0.1750
 6141SOL     OW29881   0.493   4.578   0.391  0.2075  0.4920  0.4326
 6141SOL    HW129882   0.405   4.581   0.428 -0.1418  0.8617 -0.4319
 6141SOL    HW229883   0.539   4.592   0.474 -0.9805  2.2658  0.7955
 6142SOL     OW29884   3.626   0.216   8.098  0.6367  0.6342 -0.7437
 6142SOL    HW129885   3.681   0.215   8.020  2.3372  2.6559  0.4263
 6142SOL    HW229886   3.544   0.254   8.067  1.4940  2.5518 -0.6530
 6143SOL     OW29887   4.544   0.945   2.744 -0.1142 -0.8237  0.8051
 6143SOL    HW129888   4.611   1.013   2.745  0.1991 -1.0946 -3.0793
 6143SOL    HW229889   4.484   0.972   2.814 -0.1874  1.0305  0.0204
 6144SOL     OW29890   2.833   2.106   1.968 -0.0347 -0.0701 -0.5180
 6144SOL    HW129891   2.907   2.156   1.936 -0.3196  0.7850  0.1653
 6144SOL    HW229892   2.776   2.143   1.900 -2.5496  0.6859  1.9849
 6145SOL     OW29893   4.683   0.651   9.486 -0.4844  0.1052 -0.5321
 6145SOL    HW129894   0.029   0.704   9.447 -0.6809  1.6286  1.2213
 6145SOL    HW229895   4.707   0.658   9.579 -2.7363 -2.8960  0.2859
 6146SOL     OW29896   2.949   2.998   7.209 -0.4905 -0.3815 -0.6784
 6146SOL    HW129897   2.973   3.019   7.299 -1.9732 -1.6307 -0.0221
 6146SOL    HW229898   2.950   3.084   7.167  0.5937 -0.4594 -0.8331
 6147SOL     OW29899   1.727   0.478  10.744  0.5709 -0.0719 -0.0413
 6147SOL    HW129900   1.666   0.419  10.701 -0.2913  0.1324  0.8905
 6147SOL    HW229901   1.693   0.472  10.833 -0.9871  0.1265 -0.6325
 6148SOL     OW29902   2.717   0.135   7.868  0.4832  0.1478  0.4880
 6148SOL    HW129903   2.782   0.138   7.939  0.9755 -1.6672  0.1052
 6148SOL    HW229904   2.679   0.049   7.885  0.6258 -0.3263 -1.5659
 6149SOL     OW29905   2.402   0.343  14.665 -0.2485  0.2038  0.4402
 6149SOL    HW129906   2.384   0.265  14.613  1.1085  0.8318 -0.9521
 6149SOL    HW229907   2.417   0.396  14.587 -0.1313  0.6830  0.7906
 6150SOL     OW29908   0.616   2.545   6.103  0.2283  0.1531 -0.1586
 6150SOL    HW129909   0.554   2.601   6.056 -0.5448 -1.7421 -1.4157
 6150SOL    HW229910   0.685   2.601   6.138  0.3267 -1.6356  2.5225
 6151SOL     OW29911   2.842   1.372   2.325  0.5939 -0.3927  0.6429
 6151SOL    HW129912   2.771   1.425   2.361  0.2699  0.0063 -0.6058
 6151SOL    HW229913   2.913   1.381   2.389  2.2262 -1.0437 -1.0940
 6152SOL     OW29914   2.794   2.605   0.198  0.3510 -0.2151 -0.3265
 6152SOL    HW129915   2.815   2.517   0.228  0.1662  0.3297  1.4292
 6152SOL    HW229916   2.732   2.594   0.126  0.1180  1.6383 -0.4260
 6153SOL     OW29917   0.706   0.095  11.993  0.0502  0.3159  0.1610
 6153SOL    HW129918   0.761   0.087  11.915 -1.8190 -0.0424 -1.1154
 6153SOL    HW229919   0.652   0.173  11.975 -0.0336  0.0101 -0.8822
 6154SOL     OW29920   0.001   3.640   5.810  0.2602 -0.2422 -0.5169
 6154SOL    HW129921   0.086   3.684   5.818  0.4785 -0.2918 -2.4762
 6154SOL    HW229922   4.697   3.655   5.901 -1.1124  1.4291 -1.1946
 6155SOL     OW29923   0.316   0.991   3.257 -0.1488 -0.3883  0.2325
 6155SOL    HW129924   0.397   1.013   3.302  0.9060 -0.1855 -1.7916
 6155SOL    HW229925   0.251   0.969   3.324  1.2873 -0.4118  1.6287
 6156SOL     OW29926   3.412   3.269  17.225 -0.5275  0.0399  0.0499
 6156SOL    HW129927   3.403   3.225  17.309  1.0095  1.4703  0.9663
 6156SOL    HW229928   3.506   3.279  17.234 -0.2753 -0.9513 -1.4311
 6157SOL     OW29929   3.114   1.918   0.691 -0.4503 -0.1055 -0.4913
 6157SOL    HW129930   3.127   1.859   0.766 -0.2734  0.3589 -0.1608
 6157SOL    HW229931   3.130   1.854   0.622  1.0825 -1.1463  0.8074
 6158SOL     OW29932   2.527   2.313   8.594  0.1373 -0.3634  0.3257
 6158SOL    HW129933   2.548   2.323   8.687 -1.1132 -3.0199  0.8942
 6158SOL    HW229934   2.454   2.251   8.594 -0.7155  0.6188  1.4973
 6159SOL     OW29935   0.330   4.695   4.045  0.4676  0.0468 -0.4248
 6159SOL    HW129936   0.382   0.046   4.014  1.2088 -0.1291  0.4007
 6159SOL    HW229937   0.367   4.683   4.133  1.3229  0.4341 -0.7329
 6160SOL     OW29938   2.444   0.577   0.141 -0.3521 -0.5015  0.6593
 6160SOL    HW129939   2.381   0.646   0.162 -0.4606 -0.5359  0.4448
 6160SOL    HW229940   2.513   0.631   0.101 -1.3967  0.5133  0.2298
 6161SOL     OW29941   0.269   0.777  17.688  0.0229  0.0142  0.3942
 6161SOL    HW129942   0.309   0.751   0.078  1.2891 -0.2313 -0.2995
 6161SOL    HW229943   0.302   0.864  17.667 -1.9567  0.2987 -1.5837
 6162SOL     OW29944   0.717   0.832   4.599 -0.8932 -0.1347 -0.0984
 6162SOL    HW129945   0.689   0.831   4.507 -1.5304 -0.7619  0.1053
 6162SOL    HW229946   0.675   0.910   4.635  1.1259  0.9385 -0.0144
 6163SOL     OW29947   0.851   0.753   2.213  0.2170  0.4113 -0.2305
 6163SOL    HW129948   0.850   0.712   2.126  1.5706  1.3401 -0.6832
 6163SOL    HW229949   0.835   0.678   2.270 -0.7778  0.7153 -0.1127
 6164SOL     OW29950   2.514   0.218   0.085  0.4691  0.1077 -0.3798
 6164SOL    HW129951   2.503   0.158   0.159  0.6748 -1.2409 -1.4616
 6164SOL    HW229952   2.597   0.263   0.105  0.1444  0.9471 -0.9326
 6165SOL     OW29953   2.922   0.214   1.441 -0.2685 -0.1135 -0.0362
 6165SOL    HW129954   3.003   0.239   1.397  1.0224 -2.2374  1.0909
 6165SOL    HW229955   2.892   0.305   1.443 -0.2036 -0.1109  1.2127
 6166SOL     OW29956   2.707   3.026  15.319  0.3783 -0.5393 -0.5106
 6166SOL    HW129957   2.795   3.004  15.350  0.1535 -2.4584 -1.2789
 6166SOL    HW229958   2.686   3.101  15.375  1.7613  0.7114 -1.6556
 6167SOL     OW29959   3.606   3.500   4.495  0.2572 -0.3467  0.2326
 6167SOL    HW129960   3.579   3.592   4.501  1.0602 -0.1677  1.0102
 6167SOL    HW229961   3.539   3.465   4.436  1.7698 -0.8812 -1.1388
 6168SOL     OW29962   1.938   3.264   3.287  0.1384 -0.2712 -0.4685
 6168SOL    HW129963   1.865   3.224   3.334  0.1936  0.4500  0.2395
 6168SOL    HW229964   1.952   3.201   3.216 -0.5154  2.0735 -2.6471
 6169SOL     OW29965   1.196   3.790   1.266  0.5109 -0.3848  0.5763
 6169SOL    HW129966   1.138   3.759   1.197  0.6420  0.0783  0.2529
 6169SOL    HW229967   1.227   3.878   1.243  0.1687 -0.5129 -0.3595
 6170SOL     OW29968   0.775   0.041   4.936 -0.2091 -0.0666 -0.4951
 6170SOL    HW129969   0.763   4.678   4.896  1.8180 -2.6953  4.6287
 6170SOL    HW229970   0.690   0.066   4.973  0.8519  1.8386  0.6778
 6171SOL     OW29971   2.078   4.503   2.483  0.2426  0.3785  0.1333
 6171SOL    HW129972   1.999   4.521   2.534 -0.0336 -2.0150  0.5616
 6171SOL    HW229973   2.142   4.555   2.532  0.7766 -1.9660  1.9141
 6172SOL     OW29974   4.561   4.332   6.575 -0.4338 -0.2764  0.2581
 6172SOL    HW129975   4.649   4.304   6.547 -0.4227 -1.3228  1.3191
 6172SOL    HW229976   4.581   4.397   6.642 -0.5444  0.6040 -0.5650
 6173SOL     OW29977   4.483   3.806   2.914  0.5431 -0.0128  0.3696
 6173SOL    HW129978   4.554   3.743   2.925  0.3779 -0.0221  1.4032
 6173SOL    HW229979   4.404   3.761   2.945  0.9089 -0.8852  0.0360
 6174SOL     OW29980   1.825   1.141   9.194  0.2064  0.0894 -0.2232
 6174SOL    HW129981   1.763   1.069   9.189 -0.4291  0.6994 -1.3414
 6174SOL    HW229982   1.760   1.199   9.234  0.8336  1.4694 -1.1900
 6175SOL     OW29983   4.008   0.888  16.804 -0.3812 -0.0980  0.8100
 6175SOL    HW129984   4.074   0.852  16.862 -0.1721 -0.5034  0.3176
 6175SOL    HW229985   3.932   0.863  16.857 -0.2893 -0.9622  0.5362
 6176SOL     OW29986   2.782   0.481  14.936  0.1868 -0.0274 -0.3224
 6176SOL    HW129987   2.710   0.538  14.909  0.2650  0.4317  0.4310
 6176SOL    HW229988   2.793   0.432  14.854  1.6085  0.1036 -0.2187
 6177SOL     OW29989   0.190   4.538   9.054  0.1344 -0.3075 -0.8341
 6177SOL    HW129990   0.277   4.510   9.027  0.8262  1.0952 -0.0556
 6177SOL    HW229991   0.175   4.481   9.130 -1.8127 -0.2838 -1.1964
 6178SOL     OW29992   1.324   0.614  14.726 -0.4561 -0.8204 -0.1634
 6178SOL    HW129993   1.366   0.696  14.702  0.8992 -1.4258  0.1362
 6178SOL    HW229994   1.379   0.550  14.681 -1.4825 -2.0140  0.2838
 6179SOL     OW29995   3.900   2.787   2.781 -0.0762  0.3552  0.2766
 6179SOL    HW129996   3.925   2.810   2.691  0.6943  0.0247  0.4015
 6179SOL    HW229997   3.814   2.748   2.772 -0.0206  0.2873  0.0460
 6180SOL     OW29998   1.870   1.925  13.387  0.3964  0.1800 -0.6482
 6180SOL    HW129999   1.826   1.852  13.344  1.5412 -2.3512  2.4283
 6180SOL    HW230000   1.852   1.910  13.480  0.6308  0.9860 -0.4786
 6181SOL     OW30001   0.840   4.065   0.496 -0.2230 -0.9774  0.6255
 6181SOL    HW130002   0.926   4.046   0.458  0.3019  1.9048  0.3750
 6181SOL    HW230003   0.872   4.109   0.574  1.4513 -1.1278  0.0155
 6182SOL     OW30004   1.737   1.934   0.098  0.1921  0.3032 -0.8735
 6182SOL    HW130005   1.655   1.982   0.102 -0.0387 -0.1767 -0.0217
 6182SOL    HW230006   1.740   1.899   0.187  2.0850  1.0221 -0.6584
 6183SOL     OW30007   3.125   0.222   1.273  0.2558  0.2940 -0.5356
 6183SOL    HW130008   3.089   0.290   1.217  1.7547  0.4018 -1.3552
 6183SOL    HW230009   3.218   0.244   1.277  0.0205  0.9599  1.1618
 6184SOL     OW30010   0.248   0.012   2.459 -0.1792  0.1890  0.5010
 6184SOL    HW130011   0.196   0.090   2.439  2.0732  0.7125 -3.4398
 6184SOL    HW230012   0.264   0.024   2.552 -2.7131  0.3215  0.9069
 6185SOL     OW30013   0.023   3.078   4.842 -0.2817  1.0216 -0.0118
 6185SOL    HW130014   4.715   2.987   4.847 -1.0364  1.1993 -1.5701
 6185SOL    HW230015   0.020   3.108   4.933  0.2701 -1.5137  0.8449
 6186SOL     OW30016   3.393   3.289   5.549  0.3758  0.6389 -0.0842
 6186SOL    HW130017   3.477   3.248   5.568  0.2026  1.1591  1.8019
 6186SOL    HW230018   3.380   3.323   5.638  1.2073  2.2904 -0.5890
 6187SOL     OW30019   2.038   0.001   4.656  0.2536  0.0742  0.0681
 6187SOL    HW130020   2.124   0.041   4.663  0.6089 -1.2848  3.4659
 6187SOL    HW230021   2.037   4.687   4.744 -0.6933 -0.7490 -0.2833
 6188SOL     OW30022   0.710   4.380  16.259  0.1421 -0.3589  0.0617
 6188SOL    HW130023   0.640   4.417  16.313  0.1689  1.0249 -0.8476
 6188SOL    HW230024   0.781   4.443  16.251  1.0230 -1.1817  1.6471
 6189SOL     OW30025   3.896   0.053  13.268  0.0324  0.1760  0.6286
 6189SOL    HW130026   3.888   0.148  13.256 -1.3480 -0.1601 -1.0829
 6189SOL    HW230027   3.852   0.021  13.190  2.0435 -1.3967  0.1682
 6190SOL     OW30028   2.223   3.531   2.653 -0.1759  0.2971  0.7525
 6190SOL    HW130029   2.280   3.470   2.699 -0.4713 -0.5699 -0.0338
 6190SOL    HW230030   2.199   3.475   2.579  0.1243 -0.1914  1.0267
 6191SOL     OW30031   1.038   4.005   4.527 -0.4685  0.1329  0.0454
 6191SOL    HW130032   1.004   4.094   4.519  0.2735  0.5025  1.0307
 6191SOL    HW230033   1.029   3.990   4.621  0.1308  0.4107  0.1463
 6192SOL     OW30034   3.223   4.214   3.074 -0.0834  0.0550  0.2157
 6192SOL    HW130035   3.235   4.121   3.052  1.0712  0.2861 -0.1453
 6192SOL    HW230036   3.153   4.207   3.139 -0.7373  0.3476 -0.4655
 6193SOL     OW30037   3.044   0.555   2.754 -0.0566  0.3239 -0.0990
 6193SOL    HW130038   3.005   0.612   2.688  0.5425 -0.1912 -0.8975
 6193SOL    HW230039   2.963   0.510   2.778  0.9317 -1.5559 -0.2411
 6194SOL     OW30040   3.053   0.573   5.684 -0.4498  0.7576  0.0991
 6194SOL    HW130041   3.137   0.615   5.700 -0.5912  0.8607  0.5687
 6194SOL    HW230042   3.069   0.508   5.615 -0.6322  2.0090 -1.1324
 6195SOL     OW30043   3.826   1.055   2.868  0.2370 -0.4827  0.3741
 6195SOL    HW130044   3.761   1.040   2.937 -0.2491  1.2224  0.2745
 6195SOL    HW230045   3.871   1.134   2.894 -0.8331  0.6414 -1.1685
 6196SOL     OW30046   3.990   1.405  14.526  0.4118 -0.1236  1.1175
 6196SOL    HW130047   3.984   1.468  14.598  0.1896  1.0797  0.0478
 6196SOL    HW230048   4.016   1.332  14.582  0.2803 -1.8070 -1.0144
 6197SOL     OW30049   1.596   2.079   2.365 -0.2568 -0.0188 -0.0166
 6197SOL    HW130050   1.585   2.168   2.397 -0.4435  0.7569 -2.1950
 6197SOL    HW230051   1.573   2.077   2.272 -0.2086 -1.0029 -0.0052
 6198SOL     OW30052   1.405   1.555  13.810  0.0944 -0.3354  0.3162
 6198SOL    HW130053   1.447   1.535  13.894  0.5518  0.8432  0.3790
 6198SOL    HW230054   1.353   1.477  13.793 -1.4804  0.4966  1.2823
 6199SOL     OW30055   3.310   4.437   4.981  0.5290  0.2073  0.4078
 6199SOL    HW130056   3.353   4.470   4.902  0.9938  0.9219  0.9628
 6199SOL    HW230057   3.224   4.479   4.976  1.1438  1.2780 -1.2098
 6200SOL     OW30058   0.994   2.582   8.948 -0.3597 -0.3383  0.1491
 6200SOL    HW130059   1.083   2.547   8.942 -0.5633 -0.4683 -2.2840
 6200SOL    HW230060   1.014   2.669   8.912 -0.0007 -1.0255 -1.3122
 6201SOL     OW30061   1.805   2.508  12.359  0.5164 -0.1023 -0.3253
 6201SOL    HW130062   1.740   2.439  12.347  1.2202 -0.8405  0.1665
 6201SOL    HW230063   1.775   2.575  12.297  1.4680  1.3549  0.7802
 6202SOL     OW30064   0.308   0.401   5.658  0.2912 -0.3894  0.0437
 6202SOL    HW130065   0.336   0.476   5.711  0.7463 -0.5160 -0.0237
 6202SOL    HW230066   0.357   0.331   5.701 -0.2164 -1.2995 -0.8675
 6203SOL     OW30067   2.965   4.682   4.028 -0.3409  0.2663  0.3335
 6203SOL    HW130068   3.009   0.041   4.002 -0.9207  0.1716 -0.9260
 6203SOL    HW230069   3.041   4.630   4.054  0.4507  1.4047  0.2986
 6204SOL     OW30070   2.284   4.248   4.046  0.2600  0.2335 -0.1380
 6204SOL    HW130071   2.251   4.163   4.018 -0.7704  0.3961  0.5562
 6204SOL    HW230072   2.367   4.216   4.082 -0.7334 -2.8980 -0.6362
 6205SOL     OW30073   4.605   1.607  11.669 -0.0088  0.7072 -0.1537
 6205SOL    HW130074   4.689   1.645  11.643  0.2548  0.2012 -0.0384
 6205SOL    HW230075   4.552   1.636  11.595 -0.4613 -0.7896 -0.4214
 6206SOL     OW30076   0.340   0.057   5.308  0.7594 -0.3103 -0.0924
 6206SOL    HW130077   0.303   0.117   5.242 -5.1863 -3.1703  0.6652
 6206SOL    HW230078   0.299   0.091   5.387  1.5224 -0.1794  0.2437
 6207SOL     OW30079   3.579   0.126  15.306 -0.4440  0.6817  0.6695
 6207SOL    HW130080   3.648   0.141  15.370 -0.1500  1.5755  0.1371
 6207SOL    HW230081   3.628   0.105  15.226 -0.6658 -0.1527  0.7511
 6208SOL     OW30082   3.776   2.929   6.021  0.4545 -0.8964  0.0762
 6208SOL    HW130083   3.804   2.871   5.950 -1.2700 -0.6973 -0.7580
 6208SOL    HW230084   3.694   2.961   5.984  0.8897  0.1960  0.0465
 6209SOL     OW30085   2.062   1.036   1.661  0.0937 -0.0662  0.1854
 6209SOL    HW130086   2.122   1.107   1.681 -1.2178  0.8921  0.7377
 6209SOL    HW230087   2.013   1.066   1.584 -0.5806 -1.2837  0.1309
 6210SOL     OW30088   3.645   0.248   2.782 -0.2814  0.7295 -0.6070
 6210SOL    HW130089   3.551   0.230   2.776  0.0682 -0.6852 -1.9304
 6210SOL    HW230090   3.678   0.187   2.715  0.9331  0.3287  0.3617
 6211SOL     OW30091   1.880   2.452   7.106 -0.2823  0.7898  0.2422
 6211SOL    HW130092   1.878   2.370   7.155  0.9780 -0.9674 -2.6375
 6211SOL    HW230093   1.974   2.465   7.089  0.1789 -0.2678  2.0051
 6212SOL     OW30094   1.564   2.053   2.077  0.3566  0.7963 -0.3006
 6212SOL    HW130095   1.581   2.112   2.005  2.1623  2.7856  1.7535
 6212SOL    HW230096   1.541   1.972   2.031  0.0612 -0.0989  1.3985
 6213SOL     OW30097   2.558   2.015   2.477 -0.1092 -0.1252 -0.3457
 6213SOL    HW130098   2.570   2.101   2.437  0.4555 -0.3361 -0.6279
 6213SOL    HW230099   2.498   1.976   2.413 -0.1636 -0.9841  0.2452
 6214SOL     OW30100   2.081   2.238  15.868  0.3870 -0.8237 -0.2292
 6214SOL    HW130101   2.012   2.211  15.929  0.6329  0.4734  0.6308
 6214SOL    HW230102   2.054   2.189  15.791 -1.8611 -1.9448  1.2833
 6215SOL     OW30103   0.337   2.481   7.086  0.3462 -0.1859  0.1139
 6215SOL    HW130104   0.278   2.413   7.117  1.5837 -0.5616  1.6358
 6215SOL    HW230105   0.331   2.546   7.156  0.0582 -0.4733  0.3564
 6216SOL     OW30106   1.932   2.621   8.885  0.8264  0.3504 -0.2324
 6216SOL    HW130107   1.965   2.621   8.795 -2.2689  0.5752 -1.3700
 6216SOL    HW230108   2.013   2.626   8.936  0.6929  0.2599 -0.0105
 6217SOL     OW30109   2.243   3.281   7.716 -0.0347  0.0599  0.1414
 6217SOL    HW130110   2.149   3.299   7.718 -0.2791 -1.0550 -1.0199
 6217SOL    HW230111   2.262   3.287   7.809 -0.4552  0.2416  0.2156
 6218SOL     OW30112   2.424   2.170  16.276  0.5606 -0.0806 -0.4980
 6218SOL    HW130113   2.451   2.250  16.232  1.6559 -1.0794 -1.6258
 6218SOL    HW230114   2.460   2.102  16.219 -1.4633 -0.0267 -1.8412
 6219SOL     OW30115   1.897   3.596  13.890 -0.1027 -0.2268 -0.0719
 6219SOL    HW130116   1.935   3.594  13.978 -0.7099  1.3501  0.2226
 6219SOL    HW230117   1.904   3.505  13.862 -0.5856  0.3837 -2.1925
 6220SOL     OW30118   0.384   1.746   9.119  0.2908 -0.5849 -0.0844
 6220SOL    HW130119   0.344   1.787   9.042 -1.2245 -2.2171 -0.1591
 6220SOL    HW230120   0.440   1.677   9.084 -0.8912 -0.4850 -2.2012
 6221SOL     OW30121   4.110   2.328   7.634  0.2035 -0.1883 -0.6877
 6221SOL    HW130122   4.143   2.359   7.718 -2.3276  0.4960  0.0462
 6221SOL    HW230123   4.022   2.365   7.636  0.5184  0.4823  0.6650
 6222SOL     OW30124   3.246   0.929   1.732  0.4360 -0.1319 -0.5200
 6222SOL    HW130125   3.223   1.017   1.702  3.0531  1.4148  2.0429
 6222SOL    HW230126   3.294   0.965   1.807 -0.0805  0.1337 -0.3140
 6223SOL     OW30127   4.230   4.663   8.457 -0.4241  0.5766  0.1957
 6223SOL    HW130128   4.161   0.005   8.444 -1.9931 -1.2801 -0.6746
 6223SOL    HW230129   4.297   4.707   8.511  0.1472 -1.4727  1.1435
 6224SOL     OW30130   3.249   0.464   4.831 -0.2408  0.0880  0.1821
 6224SOL    HW130131   3.187   0.517   4.780 -0.4658 -1.3765 -1.0516
 6224SOL    HW230132   3.212   0.380   4.805  0.8252 -0.5113  0.5957
 6225SOL     OW30133   3.847   4.430   6.829  0.3194 -0.0901 -0.1184
 6225SOL    HW130134   3.859   4.467   6.916 -0.2620 -0.9930  0.3420
 6225SOL    HW230135   3.772   4.483   6.801 -0.3455 -0.8634  0.1986
 6226SOL     OW30136   3.428   4.388  14.855 -0.0951 -0.2197  0.1693
 6226SOL    HW130137   3.448   4.472  14.897 -0.7529  0.0080  0.0318
 6226SOL    HW230138   3.428   4.328  14.930 -1.6319  0.1955  0.5131
 6227SOL     OW30139   2.535   3.195   7.000  0.5442  0.0201  0.2002
 6227SOL    HW130140   2.534   3.113   7.050  1.2307 -2.2532 -3.5316
 6227SOL    HW230141   2.502   3.173   6.913 -1.9162  1.6215  0.7200
 6228SOL     OW30142   4.633   2.698   2.687  0.2369  0.1117  0.4635
 6228SOL    HW130143   4.665   2.653   2.765  1.3230  0.2655  0.1083
 6228SOL    HW230144   4.703   2.764   2.684 -0.7882  1.2527  1.3362
 6229SOL     OW30145   2.099   0.884   7.599 -0.0791 -0.3243  0.3125
 6229SOL    HW130146   2.025   0.922   7.645  1.0844 -0.1623  2.0618
 6229SOL    HW230147   2.068   0.893   7.509  1.0487  1.8076  0.1073
 6230SOL     OW30148   4.359   1.684   4.665  0.3662 -0.2257 -0.1178
 6230SOL    HW130149   4.294   1.746   4.633  0.0010 -1.2433 -1.3535
 6230SOL    HW230150   4.395   1.739   4.735 -0.6094  0.1931  0.0502
 6231SOL     OW30151   4.149   0.475   7.420 -0.4213 -0.1158 -0.3692
 6231SOL    HW130152   4.117   0.493   7.508 -1.2566 -0.3592 -0.6249
 6231SOL    HW230153   4.231   0.524   7.429 -0.3069 -0.0661 -1.7258
 6232SOL     OW30154   0.054   4.016   2.219  0.1192  0.5506  0.4806
 6232SOL    HW130155   0.092   3.954   2.156  1.3027  1.4243  0.3387
 6232SOL    HW230156   0.110   4.093   2.208  2.0810 -0.5841  2.3978
 6233SOL     OW30157   1.452   1.728   0.964 -0.7882  0.2675 -0.0275
 6233SOL    HW130158   1.392   1.734   1.038 -0.3948  1.3938  0.1994
 6233SOL    HW230159   1.497   1.644   0.973 -0.1834  0.9807  3.5515
 6234SOL     OW30160   0.026   3.032   7.624 -0.2551  0.3206 -0.7384
 6234SOL    HW130161   0.034   3.110   7.570  0.1273  1.1096  0.4602
 6234SOL    HW230162   4.655   3.016   7.630 -0.5635  2.7750  0.6207
 6235SOL     OW30163   2.860   3.293   8.726  0.0021  0.3014  0.1543
 6235SOL    HW130164   2.809   3.305   8.807  1.1805 -0.0614  0.9520
 6235SOL    HW230165   2.788   3.259   8.673  0.0141  1.3131 -0.5114
 6236SOL     OW30166   3.786   3.180   7.902 -0.0390 -0.0622  0.2081
 6236SOL    HW130167   3.749   3.268   7.899  0.6971  0.2857  1.2824
 6236SOL    HW230168   3.712   3.127   7.930  0.0676 -0.7190 -0.7299
 6237SOL     OW30169   2.484   1.401   7.579  0.0556  0.0679  0.2168
 6237SOL    HW130170   2.493   1.470   7.645  2.0147  0.3669 -0.3604
 6237SOL    HW230171   2.391   1.396   7.559 -0.2772 -0.4783  1.8766
 6238SOL     OW30172   2.874   2.501   7.254  0.0448 -0.2345 -0.0271
 6238SOL    HW130173   2.949   2.490   7.313 -0.0201  2.1246  0.5122
 6238SOL    HW230174   2.898   2.439   7.185  0.2326 -2.0477  1.6727
 6239SOL     OW30175   0.041   2.216   7.980 -0.2592 -0.0021 -0.5748
 6239SOL    HW130176   4.693   2.214   7.915 -1.5874  1.2791  0.8645
 6239SOL    HW230177   0.082   2.131   7.964  0.7990  0.2284  0.9523
 6240SOL     OW30178   2.313   2.522   1.540 -0.2267  0.2064 -0.1308
 6240SOL    HW130179   2.389   2.556   1.493 -0.3812 -1.4710 -1.5866
 6240SOL    HW230180   2.250   2.593   1.525 -1.7648 -1.8201 -3.2990
 6241SOL     OW30181   1.596   0.098   6.616 -0.4806 -0.0067  0.0894
 6241SOL    HW130182   1.690   0.111   6.608 -0.6266  1.2178  0.3682
 6241SOL    HW230183   1.599   0.002   6.608 -1.3802  0.0507 -0.8457
 6242SOL     OW30184   3.034   4.193   9.968  0.1553 -0.0816 -0.1696
 6242SOL    HW130185   2.942   4.173   9.985  0.3425 -0.6583  0.1833
 6242SOL    HW230186   3.027   4.288   9.978  0.5012  0.1891 -2.5058
 6243SOL     OW30187   4.632   0.779  14.626  0.0755  0.3964 -0.8257
 6243SOL    HW130188   4.615   0.693  14.663  1.8198  0.4579  0.1458
 6243SOL    HW230189   4.611   0.834  14.701 -3.6076 -0.3084 -1.3368
 6244SOL     OW30190   0.215   2.347   9.652 -0.3427 -0.2726  0.5089
 6244SOL    HW130191   0.245   2.256   9.649 -2.1197 -0.8709  0.4727
 6244SOL    HW230192   0.172   2.353   9.566 -0.9406 -0.4678  0.7922
 6245SOL     OW30193   2.055   4.354   4.779 -0.7099  0.5377  0.0869
 6245SOL    HW130194   2.030   4.433   4.828 -0.2669 -1.3936  3.4294
 6245SOL    HW230195   2.130   4.384   4.728 -1.9515 -0.2191 -2.2064
 6246SOL     OW30196   3.810   0.469   6.494  0.1042  0.4201 -0.1846
 6246SOL    HW130197   3.731   0.521   6.478 -0.4971 -0.1132  1.0585
 6246SOL    HW230198   3.782   0.447   6.583 -1.5439 -0.6223 -0.9614
 6247SOL     OW30199   0.333   4.459   8.031  0.3701  0.3540  0.1652
 6247SOL    HW130200   0.427   4.457   8.049  0.9296  3.6996 -2.3899
 6247SOL    HW230201   0.338   4.405   7.952 -2.5729  0.0170  0.2088
 6248SOL     OW30202   2.342   3.328   3.065 -0.4786 -0.0718 -0.3942
 6248SOL    HW130203   2.436   3.344   3.068 -0.3589 -0.7985 -0.4736
 6248SOL    HW230204   2.305   3.344   3.152  0.6868  3.6108 -0.5774
 6249SOL     OW30205   2.151   0.101   8.318 -0.0055  0.4447 -0.1100
 6249SOL    HW130206   2.230   0.153   8.334  1.2391 -1.3609 -0.3292
 6249SOL    HW230207   2.085   0.138   8.375 -1.3768  0.7589 -1.8991
 6250SOL     OW30208   3.220   3.119  17.112  0.5314  0.1347 -0.0232
 6250SOL    HW130209   3.291   3.166  17.155  0.4417 -0.1122  0.3860
 6250SOL    HW230210   3.184   3.066  17.183 -0.7637  1.6348  0.4423
 6251SOL     OW30211   0.580   0.830  13.829  0.6726 -0.4329 -0.5810
 6251SOL    HW130212   0.619   0.808  13.744  0.9123 -1.8251 -0.1141
 6251SOL    HW230213   0.625   0.772  13.890 -0.1913  0.7362  1.1682
 6252SOL     OW30214   4.567   3.720   6.468  0.2564  0.0311 -0.1964
 6252SOL    HW130215   4.510   3.669   6.409 -2.5256 -0.8942  3.2889
 6252SOL    HW230216   4.506   3.746   6.537  1.0343  2.6385 -0.5084
 6253SOL     OW30217   2.703   2.496  16.928 -0.0813  0.0212  0.8969
 6253SOL    HW130218   2.623   2.538  16.959 -1.7136 -2.3629 -0.0440
 6253SOL    HW230219   2.743   2.490  17.015 -0.8961 -1.3366  1.1877
 6254SOL     OW30220   0.995   4.717   2.637 -0.5919  0.4158  0.2760
 6254SOL    HW130221   0.924   4.713   2.572  0.2618 -0.2496 -0.6060
 6254SOL    HW230222   1.067   0.016   2.579 -1.9009  1.5506 -0.9270
 6255SOL     OW30223   2.251   3.944   4.602 -0.2963 -0.4043  0.1824
 6255SOL    HW130224   2.185   3.876   4.597 -0.8191  0.1103  0.0661
 6255SOL    HW230225   2.274   3.959   4.510  1.3570 -0.3054  0.6098
 6256SOL     OW30226   4.602   4.001   2.748 -0.6912 -0.8059  0.8964
 6256SOL    HW130227   4.581   3.912   2.775  0.1118 -0.7668  1.6865
 6256SOL    HW230228   4.654   3.985   2.669 -0.3452  1.4362  0.6672
 6257SOL     OW30229   1.750   3.643   8.798  0.5148 -0.3404  0.1375
 6257SOL    HW130230   1.711   3.560   8.772  1.4155  0.1593 -2.8383
 6257SOL    HW230231   1.763   3.643   8.893  0.6746  0.7744  0.1225
 6258SOL     OW30232   0.087   1.220   1.129  0.1025 -0.0627  0.1225
 6258SOL    HW130233   0.122   1.131   1.124 -2.7944 -1.1882  0.1845
 6258SOL    HW230234   0.135   1.250   1.206 -0.0685 -0.4360  0.3767
 6259SOL     OW30235   0.850   0.902  17.555 -0.5083 -0.0070  0.0498
 6259SOL    HW130236   0.935   0.859  17.563 -0.3950  0.5875  2.1290
 6259SOL    HW230237   0.795   0.836  17.597 -1.0171 -0.6607 -1.6651
 6260SOL     OW30238   2.716   1.341   4.053 -0.8628  0.6416  0.4028
 6260SOL    HW130239   2.669   1.372   4.131 -1.7665  2.3058 -0.8041
 6260SOL    HW230240   2.720   1.416   3.993 -1.2486 -0.4556 -0.9987
 6261SOL     OW30241   3.913   2.289  13.807 -0.2444 -0.1452 -0.0418
 6261SOL    HW130242   3.820   2.269  13.818 -0.0287  0.3182  2.4204
 6261SOL    HW230243   3.953   2.269  13.891  0.0012  0.5097 -0.0029
 6262SOL     OW30244   1.836   4.049   6.878  0.1278  0.4048  0.2046
 6262SOL    HW130245   1.749   4.013   6.893  0.0724  0.8627  1.0060
 6262SOL    HW230246   1.815   4.106   6.805  0.4738  2.3272  1.5898
 6263SOL     OW30247   1.361   3.698  16.699 -0.7980 -0.1848  0.0537
 6263SOL    HW130248   1.361   3.780  16.650 -0.3493  0.5944  1.3602
 6263SOL    HW230249   1.447   3.659  16.679  0.5874  3.1637 -0.4547
 6264SOL     OW30250   2.798   2.784   5.628 -0.0588  0.0719  0.1604
 6264SOL    HW130251   2.839   2.772   5.714 -1.4750  1.2932  1.0050
 6264SOL    HW230252   2.867   2.831   5.582 -0.2332  0.8453  0.7032
 6265SOL     OW30253   2.123   3.983   7.652 -0.2536  0.1517 -0.1706
 6265SOL    HW130254   2.141   3.893   7.676 -0.6752 -0.8105 -3.4238
 6265SOL    HW230255   2.054   4.009   7.713 -0.7132  0.4183 -0.7948
 6266SOL     OW30256   1.764   1.610   0.983  0.3702  0.2233 -0.2274
 6266SOL    HW130257   1.747   1.631   1.075  0.1198  0.4569 -0.3252
 6266SOL    HW230258   1.838   1.550   0.988  0.5494  0.6806  2.7582
 6267SOL     OW30259   2.788   4.620  11.449  0.3459  0.5383  0.2248
 6267SOL    HW130260   2.775   4.640  11.541 -1.8395 -2.7592  0.6265
 6267SOL    HW230261   2.781   4.525  11.448  0.8924  0.5006 -2.1337
 6268SOL     OW30262   0.380   1.512   4.926 -0.1555  0.3619  0.2222
 6268SOL    HW130263   0.385   1.499   5.020 -1.0498 -0.8265  0.1143
 6268SOL    HW230264   0.443   1.582   4.910 -1.6175  1.4355 -0.9373
 6269SOL     OW30265   3.847   0.532  16.750  0.0623  0.5421 -0.2243
 6269SOL    HW130266   3.904   0.525  16.826  1.9659  1.9294 -1.5222
 6269SOL    HW230267   3.902   0.573  16.683 -0.3018 -0.7298 -1.3079
 6270SOL     OW30268   2.495   4.450   1.837 -0.2402  0.0549 -0.1559
 6270SOL    HW130269   2.463   4.376   1.888 -1.6356  1.3115  0.8122
 6270SOL    HW230270   2.587   4.458   1.859 -0.0333 -1.6447 -0.4178
 6271SOL     OW30271   1.024   0.400  10.920 -0.1290  0.8639 -0.2161
 6271SOL    HW130272   1.091   0.417  10.853 -0.1503  1.9346  0.0325
 6271SOL    HW230273   1.059   0.363  11.000 -2.6993 -2.5740 -0.6892
 6272SOL     OW30274   1.572   1.583   1.577 -0.6870 -0.3002 -0.4898
 6272SOL    HW130275   1.609   1.568   1.664 -1.0572  0.1358 -0.2568
 6272SOL    HW230276   1.559   1.493   1.548 -0.0280 -0.4081 -0.4493
 6273SOL     OW30277   2.813   4.311   1.181  0.2586 -0.0428  0.3722
 6273SOL    HW130278   2.818   4.384   1.242 -2.2696  0.9597 -0.6086
 6273SOL    HW230279   2.830   4.242   1.245 -1.1348 -0.7941 -0.0554
 6274SOL     OW30280   3.465   1.453   5.272 -0.2381  0.0685 -0.4726
 6274SOL    HW130281   3.402   1.463   5.344 -0.1685 -0.6727 -0.3108
 6274SOL    HW230282   3.504   1.373   5.307 -0.9762 -0.7914 -1.6085
 6275SOL     OW30283   3.326   2.602   0.649 -0.4579 -0.1499  0.0591
 6275SOL    HW130284   3.328   2.590   0.744  0.9660 -1.3645 -0.1240
 6275SOL    HW230285   3.393   2.668   0.633 -1.7875  1.0115 -0.7400
 6276SOL     OW30286   4.618   1.042   7.224 -0.2231  0.1891 -0.9591
 6276SOL    HW130287   4.636   1.131   7.254 -0.7291  0.4999 -1.5687
 6276SOL    HW230288   4.524   1.053   7.207 -0.5270  0.1909  0.7868
 6277SOL     OW30289   3.339   2.574  15.194 -0.0211  0.5187 -0.4067
 6277SOL    HW130290   3.275   2.504  15.206  0.2306  0.3038 -0.3144
 6277SOL    HW230291   3.334   2.597  15.101 -1.1340  3.4849  0.3661
 6278SOL     OW30292   2.894   4.319  13.445 -0.6664 -0.2239 -0.1347
 6278SOL    HW130293   2.859   4.397  13.402  0.0885  0.0662 -0.2159
 6278SOL    HW230294   2.810   4.280  13.470  0.2758 -0.5741  2.5369
 6279SOL     OW30295   3.122   1.902   2.634  0.4986 -0.1538 -0.4013
 6279SOL    HW130296   3.069   1.835   2.592  0.4774  0.7964 -1.8780
 6279SOL    HW230297   3.054   1.968   2.627  1.0080  0.3865 -0.2648
 6280SOL     OW30298   2.384   0.251  13.444 -0.2581 -0.2115 -0.0740
 6280SOL    HW130299   2.391   0.166  13.401  1.6337 -0.2882  0.4111
 6280SOL    HW230300   2.357   0.216  13.529  0.4216 -3.4123 -1.1890
 6281SOL     OW30301   1.987   3.940   9.230  0.6927 -0.0854  0.3163
 6281SOL    HW130302   1.995   3.905   9.319 -2.1537  0.1511  0.6608
 6281SOL    HW230303   1.897   3.916   9.208  1.6279 -3.1696 -0.0999
 6282SOL     OW30304   2.782   3.331   2.044  0.2877 -0.5687 -0.4257
 6282SOL    HW130305   2.789   3.244   2.083  1.9418  0.0617  0.6634
 6282SOL    HW230306   2.690   3.346   2.066  0.3410 -0.2068 -0.4516
 6283SOL     OW30307   3.770   0.186   5.724 -0.1180  0.2975 -0.4472
 6283SOL    HW130308   3.792   0.266   5.677 -0.1986  1.8257  2.1029
 6283SOL    HW230309   3.709   0.152   5.659  0.6953  0.8717 -1.5069
 6284SOL     OW30310   1.855   2.164   2.424  0.0099  1.0368  0.5517
 6284SOL    HW130311   1.765   2.143   2.400 -0.2866 -0.2861  2.8600
 6284SOL    HW230312   1.869   2.128   2.511  0.3844 -3.2661 -1.2702
 6285SOL     OW30313   3.362   4.564   1.541 -0.1682  0.2838 -0.4332
 6285SOL    HW130314   3.418   4.492   1.511  2.7571  2.2908  0.2181
 6285SOL    HW230315   3.297   4.561   1.471  0.2510  2.3604 -0.9074
 6286SOL     OW30316   4.319   4.051   9.310 -0.3109 -0.5426 -0.4133
 6286SOL    HW130317   4.366   4.133   9.323 -0.6010 -0.3398 -0.6318
 6286SOL    HW230318   4.235   4.086   9.279 -0.0187 -0.7657 -1.4655
 6287SOL     OW30319   4.264   0.641   8.529 -0.2437 -0.1534  0.0518
 6287SOL    HW130320   4.241   0.637   8.622  0.1155  0.1734  0.1531
 6287SOL    HW230321   4.339   0.700   8.530 -1.5057  1.4668 -0.4337
 6288SOL     OW30322   3.526   2.825  16.578  0.5772  0.2624  0.2272
 6288SOL    HW130323   3.507   2.875  16.658 -0.6369  1.2231 -0.6746
 6288SOL    HW230324   3.612   2.857  16.550  1.1181 -2.0707 -0.7290
 6289SOL     OW30325   3.855   1.966   4.728 -0.0489 -0.3686  0.1565
 6289SOL    HW130326   3.824   1.998   4.813  1.8490 -0.7116  0.9624
 6289SOL    HW230327   3.773   1.967   4.678  1.8022 -0.1382 -2.8614
 6290SOL     OW30328   2.602   4.283   4.797  0.2758  0.0054 -0.3949
 6290SOL    HW130329   2.540   4.220   4.761  1.6904 -0.0005 -2.7946
 6290SOL    HW230330   2.644   4.307   4.715  2.1645 -1.9426  0.0358
 6291SOL     OW30331   0.359   3.557  17.624  0.4047 -0.0547  0.3248
 6291SOL    HW130332   0.416   3.596  17.559  0.1414  1.2440  0.8774
 6291SOL    HW230333   0.315   3.637  17.655  0.1214  0.0835 -0.4405
 6292SOL     OW30334   0.873   0.152   7.547 -0.0151  0.3752 -0.6482
 6292SOL    HW130335   0.833   0.227   7.502  0.0122  0.6786 -0.1719
 6292SOL    HW230336   0.858   0.176   7.639 -1.2283 -1.9288 -0.2531
 6293SOL     OW30337   3.518   3.007   3.597  0.2380 -0.1961 -0.4729
 6293SOL    HW130338   3.598   3.051   3.571 -1.3533  2.6750 -0.4940
 6293SOL    HW230339   3.519   3.013   3.692  2.9412 -1.3301 -0.4422
 6294SOL     OW30340   0.987   3.209   8.579  0.2013  0.3856 -0.1404
 6294SOL    HW130341   1.000   3.119   8.548 -0.2525  0.0768  0.5743
 6294SOL    HW230342   0.910   3.225   8.524 -0.2750  0.2122  0.4805
 6295SOL     OW30343   3.277   1.203  10.567 -0.1539 -0.4963  0.8963
 6295SOL    HW130344   3.367   1.190  10.597 -0.1128 -0.7001  0.6831
 6295SOL    HW230345   3.249   1.267  10.633  0.7565  1.5111 -0.6574
 6296SOL     OW30346   0.123   2.330   2.376  0.4798 -0.5807 -0.4274
 6296SOL    HW130347   0.182   2.261   2.406  0.1412 -0.1274  1.2495
 6296SOL    HW230348   0.138   2.331   2.281  0.2482 -0.5187 -0.4633
 6297SOL     OW30349   2.600   4.492   4.606 -0.2009  0.1057 -0.0425
 6297SOL    HW130350   2.628   4.559   4.544 -0.2985  2.7495  2.7963
 6297SOL    HW230351   2.592   4.546   4.685  1.7023  1.6233 -0.8889
 6298SOL     OW30352   4.357   4.308   9.438 -0.2059 -0.0236 -0.2912
 6298SOL    HW130353   4.329   4.257   9.514 -0.2913 -2.0466 -1.7015
 6298SOL    HW230354   4.299   4.383   9.450 -0.2196 -0.5371  2.9376
 6299SOL     OW30355   1.491   1.466   1.201  0.4308  0.1581  0.2277
 6299SOL    HW130356   1.474   1.545   1.252  0.3912  0.4784 -0.2850
 6299SOL    HW230357   1.526   1.410   1.270  0.4551  0.2515  0.2912
 6300SOL     OW30358   0.081   0.692   3.615  0.4974  0.5035 -0.4587
 6300SOL    HW130359   0.014   0.638   3.574  0.5941 -0.0192  0.0654
 6300SOL    HW230360   0.095   0.631   3.688  0.7863  2.5169  1.1843
 6301SOL     OW30361   0.478   3.516   1.505 -0.2589 -0.1405 -0.0524
 6301SOL    HW130362   0.463   3.604   1.469  0.8824  1.6274  3.7614
 6301SOL    HW230363   0.483   3.535   1.599  1.2278 -1.7970  0.1847
 6302SOL     OW30364   1.792   1.648  17.435 -0.1117 -0.0104 -0.4098
 6302SOL    HW130365   1.713   1.606  17.403 -0.8089  0.0113  1.3098
 6302SOL    HW230366   1.809   1.600  17.516 -3.1332  1.4063  1.0599
 6303SOL     OW30367   2.460   2.494   5.448  0.4102  0.3908 -0.3607
 6303SOL    HW130368   2.365   2.482   5.452  0.7705 -1.5662  2.0543
 6303SOL    HW230369   2.470   2.439   5.370  0.2809 -0.5063  0.2501
 6304SOL     OW30370   0.645   1.960   8.430  0.3169 -0.4589 -0.4856
 6304SOL    HW130371   0.568   1.905   8.418  0.2954 -0.6577  0.5535
 6304SOL    HW230372   0.653   1.991   8.340 -1.9983  0.4387 -0.3784
 6305SOL     OW30373   1.640   4.307   8.823  0.3285 -0.2533  0.3332
 6305SOL    HW130374   1.646   4.212   8.829 -0.5929 -0.4899 -2.5630
 6305SOL    HW230375   1.732   4.332   8.826  0.1646  0.2355  1.1917
 6306SOL     OW30376   3.552   3.861  12.353  0.0294  0.1149 -0.1436
 6306SOL    HW130377   3.473   3.884  12.306 -0.4889 -0.9336  0.2178
 6306SOL    HW230378   3.551   3.768  12.332  0.5463  0.1323 -0.2515
 6307SOL     OW30379   1.247   1.549   2.606  0.8082  0.4764 -0.2409
 6307SOL    HW130380   1.184   1.620   2.594 -0.8962 -1.3451 -2.1338
 6307SOL    HW230381   1.303   1.564   2.530  0.7074  0.4512 -0.3215
 6308SOL     OW30382   2.479   4.165   8.929  0.2913 -0.2872  0.3221
 6308SOL    HW130383   2.494   4.075   8.902 -1.1500  0.6851 -3.8116
 6308SOL    HW230384   2.492   4.154   9.023  3.2619  0.0279 -0.0678
 6309SOL     OW30385   1.958   2.607  16.738  0.1262  0.4849  0.4099
 6309SOL    HW130386   1.911   2.530  16.707  1.0245  0.0522  0.1295
 6309SOL    HW230387   1.902   2.614  16.815 -1.8124 -1.0377 -0.8643
 6310SOL     OW30388   0.131   1.467   3.187  0.1009 -0.2735 -0.3440
 6310SOL    HW130389   0.105   1.375   3.188 -0.8657 -0.0037 -1.1428
 6310SOL    HW230390   0.127   1.487   3.094 -0.1827 -0.5257 -0.3836
 6311SOL     OW30391   3.576   0.886   0.793  0.0432  0.4680  0.7343
 6311SOL    HW130392   3.638   0.828   0.748  1.4832  1.3561  1.5947
 6311SOL    HW230393   3.627   0.958   0.830  0.4368 -0.2921  1.6849
 6312SOL     OW30394   3.370   4.214   6.221 -0.7301  0.1562  0.1744
 6312SOL    HW130395   3.427   4.185   6.149 -0.0060  2.8313 -0.3274
 6312SOL    HW230396   3.347   4.130   6.261 -0.7485 -1.1208 -2.5668
 6313SOL     OW30397   3.916   2.048  13.082  0.2553  0.1144  0.5253
 6313SOL    HW130398   3.846   2.100  13.042 -0.7412 -1.2802  0.4456
 6313SOL    HW230399   3.956   2.024  12.998 -1.3986  0.2890 -0.3124
 6314SOL     OW30400   3.203   0.719  11.954  0.1911 -0.3176 -0.4894
 6314SOL    HW130401   3.262   0.646  11.935  2.1038  1.0035  0.3320
 6314SOL    HW230402   3.134   0.676  12.004 -0.0388 -1.2921 -1.6335
 6315SOL     OW30403   2.139   4.368  17.674 -0.2355  0.5827 -0.0654
 6315SOL    HW130404   2.120   4.353   0.074  1.2538  0.6662  0.2634
 6315SOL    HW230405   2.171   4.284  17.640 -0.5589  1.0266 -1.4467
 6316SOL     OW30406   1.257   3.370   7.372  0.6070 -0.8084  0.1871
 6316SOL    HW130407   1.226   3.343   7.286 -1.6783  0.1024  0.7108
 6316SOL    HW230408   1.350   3.358   7.351  1.2714  2.3987  1.2334
 6317SOL     OW30409   2.976   4.681  10.253 -0.1294  0.4696 -0.0911
 6317SOL    HW130410   2.966   0.045  10.214 -0.5410  0.2068 -0.5624
 6317SOL    HW230411   2.947   4.696  10.343 -2.4363 -1.0066 -0.5975
 6318SOL     OW30412   1.727   0.768  10.060 -0.4693 -0.0394 -0.0662
 6318SOL    HW130413   1.662   0.707  10.026  1.0711 -0.9584 -1.3638
 6318SOL    HW230414   1.678   0.850  10.056 -0.7617 -0.2380 -0.5313
 6319SOL     OW30415   2.621   0.572   7.927  0.0789  0.2472  0.3956
 6319SOL    HW130416   2.602   0.501   7.866  0.7687  0.8961 -0.5906
 6319SOL    HW230417   2.546   0.632   7.921  1.3459  1.9506  1.7231
 6320SOL     OW30418   0.252   3.695  15.391  0.3476  0.0797 -0.2223
 6320SOL    HW130419   0.271   3.658  15.478  0.6658  1.5801  0.3432
 6320SOL    HW230420   0.341   3.687  15.356  0.4386  1.4172 -0.2813
 6321SOL     OW30421   2.580   4.079   9.903  0.4190 -0.0468  0.2307
 6321SOL    HW130422   2.628   4.162   9.906  0.3840 -0.0168 -0.0395
 6321SOL    HW230423   2.657   4.028   9.878  1.1298 -0.2151  2.7546
 6322SOL     OW30424   1.574   3.256   5.492 -0.8363  0.9696 -0.0947
 6322SOL    HW130425   1.661   3.298   5.492 -0.1899 -0.3704 -0.2395
 6322SOL    HW230426   1.529   3.337   5.466 -2.1009 -0.6251 -2.8885
 6323SOL     OW30427   2.068   2.458   4.272 -0.2338  0.3999  0.1004
 6323SOL    HW130428   2.140   2.434   4.330  1.8981  0.6749 -2.4014
 6323SOL    HW230429   2.039   2.535   4.322  0.2066  0.9622 -0.5036
 6324SOL     OW30430   2.851   4.700   6.148  0.7265 -0.0760 -0.1528
 6324SOL    HW130431   2.862   0.072   6.163 -1.1510  0.0762  0.2982
 6324SOL    HW230432   2.758   4.699   6.171  1.2258  3.8425  2.0663
 6325SOL     OW30433   0.976   1.187  12.982  0.4894 -0.3636 -0.2159
 6325SOL    HW130434   1.024   1.109  12.953  1.1873 -1.1711  3.1998
 6325SOL    HW230435   1.033   1.255  12.945 -0.0975 -0.2735 -0.9669
 6326SOL     OW30436   0.554   1.679   7.714 -0.7216  0.3650 -0.3457
 6326SOL    HW130437   0.557   1.585   7.734  0.3669  0.2366 -1.1350
 6326SOL    HW230438   0.582   1.720   7.795  0.1792  1.0318 -0.9998
 6327SOL     OW30439   1.531   1.207   3.529 -0.8780  0.3028  0.3828
 6327SOL    HW130440   1.538   1.211   3.434  1.1288  0.5133  0.5326
 6327SOL    HW230441   1.605   1.262   3.555  0.3456 -1.9882  1.7354
 6328SOL     OW30442   2.943   0.251   0.549  0.4082  0.1862  1.1747
 6328SOL    HW130443   2.942   0.343   0.574 -0.2455  0.8965 -1.5063
 6328SOL    HW230444   2.905   0.210   0.627 -1.1220  0.2171  0.4436
 6329SOL     OW30445   1.180   1.488  13.047  0.8453  0.0293 -0.4967
 6329SOL    HW130446   1.105   1.494  13.106  1.0622 -1.5957 -0.0674
 6329SOL    HW230447   1.220   1.575  13.042 -0.8673  0.9149  1.2274
 6330SOL     OW30448   2.210   2.933   4.495 -0.5725  0.3260  0.0319
 6330SOL    HW130449   2.202   2.854   4.442  3.0681  1.2249 -1.8837
 6330SOL    HW230450   2.195   2.987   4.417 -0.0280  0.1757 -0.1813
 6331SOL     OW30451   2.394   1.031   7.444 -0.3214  0.2110 -0.1723
 6331SOL    HW130452   2.354   0.959   7.493 -0.0296  0.8996  1.0840
 6331SOL    HW230453   2.347   1.100   7.491  2.1000  0.1476  2.3604
 6332SOL     OW30454   1.852   1.274   5.883  0.2453 -0.1141  0.3174
 6332SOL    HW130455   1.914   1.311   5.947  0.7786 -0.0566 -0.2301
 6332SOL    HW230456   1.915   1.268   5.811  1.4838 -0.1732  1.4171
 6333SOL     OW30457   3.989   2.986   5.238  0.4186  0.1192 -0.0166
 6333SOL    HW130458   3.926   2.954   5.303 -0.9323  0.1988 -1.2870
 6333SOL    HW230459   3.942   2.973   5.156 -0.2049 -1.6021  0.6117
 6334SOL     OW30460   3.997   1.488  15.838 -0.7119  0.4565  0.0019
 6334SOL    HW130461   4.007   1.583  15.827 -1.4438  0.2531 -2.5131
 6334SOL    HW230462   3.976   1.458  15.749  0.3592 -0.3217  0.0145
 6335SOL     OW30463   0.982   2.360   2.676 -0.4630 -0.2661  0.0062
 6335SOL    HW130464   1.035   2.365   2.597  0.5178  2.2726  0.8393
 6335SOL    HW230465   1.021   2.399   2.754  2.0988 -2.1880 -0.3495
 6336SOL     OW30466   1.570   0.394   0.328 -0.2559  0.0184 -0.3878
 6336SOL    HW130467   1.483   0.414   0.293 -0.4421  0.8524  0.5420
 6336SOL    HW230468   1.627   0.464   0.297 -2.1404  1.2793 -0.9810
 6337SOL     OW30469   3.264   0.213  14.279 -0.3613 -0.1217 -0.5365
 6337SOL    HW130470   3.261   0.128  14.322 -1.8944  0.1568 -0.0742
 6337SOL    HW230471   3.357   0.226  14.261 -0.3719 -1.1771 -1.3840
 6338SOL     OW30472   1.102   3.455  14.660 -0.0192  0.9197 -0.1501
 6338SOL    HW130473   1.072   3.543  14.639 -2.5839  0.2613  0.7613
 6338SOL    HW230474   1.100   3.404  14.579 -1.7892  0.3304  0.2728
 6339SOL     OW30475   1.016   3.183   0.699  0.0359 -0.1995  0.2189
 6339SOL    HW130476   0.952   3.229   0.753 -1.6919  0.0429 -2.0504
 6339SOL    HW230477   1.077   3.170   0.772 -0.3929 -0.8108  0.4705
 6340SOL     OW30478   0.096   2.077   1.238  0.1908  0.6417 -0.0489
 6340SOL    HW130479   0.184   2.061   1.204  0.0387  0.2150 -0.2467
 6340SOL    HW230480   0.058   2.147   1.185 -1.8286 -1.6165 -1.6423
 6341SOL     OW30481   0.897   4.236   5.876  0.2401 -0.0736  0.2738
 6341SOL    HW130482   0.845   4.250   5.955  1.5834  0.4767  1.0548
 6341SOL    HW230483   0.989   4.248   5.899  0.3906 -0.0637 -0.3222
 6342SOL     OW30484   2.852   2.880   1.740 -0.7799 -0.2531  0.4213
 6342SOL    HW130485   2.905   2.838   1.808  1.2426  1.0278 -0.3418
 6342SOL    HW230486   2.891   2.838   1.663 -0.7958 -0.6367  0.6278
 6343SOL     OW30487   4.359   0.745  13.581  0.4958  0.0372 -0.4456
 6343SOL    HW130488   4.442   0.725  13.623  1.4018  1.5716 -1.4975
 6343SOL    HW230489   4.302   0.680  13.622 -0.2235  0.1878 -1.1889
 6344SOL     OW30490   1.176   2.495  13.756  0.6055  0.2761 -0.4655
 6344SOL    HW130491   1.130   2.509  13.839  2.5206 -1.1511  0.8147
 6344SOL    HW230492   1.113   2.538  13.698 -2.7061  1.5521  4.0724
 6345SOL     OW30493   0.200   1.601   8.869  0.2873  0.1069 -0.2701
 6345SOL    HW130494   0.148   1.539   8.920  0.0197 -0.5460 -1.3446
 6345SOL    HW230495   0.133   1.635   8.809 -0.7352 -1.2217  0.1290
 6346SOL     OW30496   1.908   1.615  10.080  0.1149 -0.2477 -0.3953
 6346SOL    HW130497   1.872   1.615  10.168  0.1989 -0.9540 -0.3658
 6346SOL    HW230498   1.836   1.637  10.021 -0.2170 -1.5971 -0.4752
 6347SOL     OW30499   1.120   1.061   5.497  0.3958  0.1231  0.0766
 6347SOL    HW130500   1.028   1.074   5.474  0.5624  0.1705 -0.5584
 6347SOL    HW230501   1.153   1.149   5.516 -0.3220  0.3521  0.2353
 6348SOL     OW30502   1.546   0.810   6.347 -0.5868  0.2277 -0.0033
 6348SOL    HW130503   1.571   0.782   6.259  0.2150  1.0099 -0.0281
 6348SOL    HW230504   1.596   0.891   6.360  1.0750 -1.0007  1.3435
 6349SOL     OW30505   1.465   3.470   8.941  0.5679  0.1006  0.6191
 6349SOL    HW130506   1.387   3.417   8.922  1.2419 -0.7700  0.2921
 6349SOL    HW230507   1.431   3.513   9.020 -1.5955  0.1353 -0.3363
 6350SOL     OW30508   1.028   3.403   3.761  0.2654 -0.6910  0.3491
 6350SOL    HW130509   0.945   3.436   3.794 -0.4455  0.7971 -2.9195
 6350SOL    HW230510   1.078   3.479   3.731 -3.3648  1.7265  0.4989
 6351SOL     OW30511   4.410   2.272   8.730 -0.0321  0.9468  0.1410
 6351SOL    HW130512   4.352   2.195   8.726  0.7915  0.2381  2.4874
 6351SOL    HW230513   4.488   2.254   8.678 -0.8794 -2.3967  0.0263
 6352SOL     OW30514   0.727   1.038   4.898  0.4153 -0.2893 -0.4890
 6352SOL    HW130515   0.704   1.130   4.886  1.2506 -0.0502 -0.1978
 6352SOL    HW230516   0.695   1.023   4.987  1.3728 -1.3746 -0.3272
 6353SOL     OW30517   1.303   3.143   6.195  0.5494 -0.3102 -0.1320
 6353SOL    HW130518   1.218   3.124   6.156  0.2947 -1.0601  0.7758
 6353SOL    HW230519   1.288   3.207   6.265  2.6887  1.1482 -1.0201
 6354SOL     OW30520   2.926   2.168   7.794 -0.4379  0.1560  0.0176
 6354SOL    HW130521   2.988   2.109   7.837 -0.1280  0.7089  0.3335
 6354SOL    HW230522   2.984   2.245   7.793  3.3706 -2.7463 -0.0886
 6355SOL     OW30523   0.744   0.616  13.928  0.1771 -0.2194 -0.3234
 6355SOL    HW130524   0.664   0.570  13.954  0.9906 -0.7302  1.2604
 6355SOL    HW230525   0.796   0.536  13.930 -0.5423 -0.7245 -1.8468
 6356SOL     OW30526   4.008   1.833   2.313  0.4378 -0.5623  0.1444
 6356SOL    HW130527   3.988   1.925   2.298  0.6813 -0.3453  1.1389
 6356SOL    HW230528   3.935   1.791   2.358  1.0982 -2.2687 -0.3791
 6357SOL     OW30529   0.858   4.035   6.135  0.0891  0.0662  0.2000
 6357SOL    HW130530   0.936   4.039   6.190 -0.8701  3.4220  1.3021
 6357SOL    HW230531   0.828   4.126   6.132 -0.2785 -0.0767 -0.5137
 6358SOL     OW30532   3.452   3.384   4.293 -0.1229  0.0329 -0.2813
 6358SOL    HW130533   3.369   3.343   4.318  0.9410 -1.1335  1.3630
 6358SOL    HW230534   3.499   3.313   4.249 -2.7030 -1.1593 -1.1471
 6359SOL     OW30535   0.496   0.259   2.064 -0.1247  0.2709  0.9034
 6359SOL    HW130536   0.558   0.331   2.071 -2.8286  2.6918  0.0973
 6359SOL    HW230537   0.416   0.300   2.031 -0.8273 -0.7845  1.3030
 6360SOL     OW30538   4.620   0.137   8.113  0.7012  0.4190 -0.0575
 6360SOL    HW130539   4.587   0.060   8.158  0.4342  0.4924 -0.1221
 6360SOL    HW230540   4.547   0.144   8.051  0.6772  1.7205  0.1115
 6361SOL     OW30541   2.094   2.640   4.610 -0.3560  0.2328 -0.1102
 6361SOL    HW130542   2.026   2.643   4.543  0.2428 -1.7783 -0.8015
 6361SOL    HW230543   2.108   2.735   4.610  0.2901  0.1406  0.4270
 6362SOL     OW30544   4.552   1.052   5.199  0.1392  0.4468  0.7927
 6362SOL    HW130545   4.495   0.979   5.175  1.0305  0.0409 -0.1079
 6362SOL    HW230546   4.643   1.023   5.187 -0.0980  1.9108 -4.6453
 6363SOL     OW30547   4.267   4.142   8.566  0.0524  0.1698 -0.5579
 6363SOL    HW130548   4.316   4.208   8.518  1.5637 -1.1406 -0.8274
 6363SOL    HW230549   4.314   4.059   8.556 -2.0459 -0.8916 -1.6191
 6364SOL     OW30550   4.628   4.261  15.918  0.1798  0.0582 -0.4714
 6364SOL    HW130551   4.683   4.214  15.980 -1.2186  0.3018  0.9439
 6364SOL    HW230552   4.690   4.277  15.847  0.0437 -0.3886 -0.6878
 6365SOL     OW30553   1.932   1.477   3.511 -0.1631  0.1350 -0.1376
 6365SOL    HW130554   1.948   1.561   3.555 -3.2348  0.0606  1.1144
 6365SOL    HW230555   1.997   1.460   3.442 -1.6367  1.3131 -1.8347
 6366SOL     OW30556   2.861   4.626   9.462  0.5037  0.1464  0.3341
 6366SOL    HW130557   2.920   4.553   9.484  0.9047 -0.1880 -1.8928
 6366SOL    HW230558   2.859   4.630   9.367  1.9229  0.5698  0.3125
 6367SOL     OW30559   3.895   0.370   3.458  0.2177  0.7192 -0.2965
 6367SOL    HW130560   3.944   0.294   3.425 -1.1358  0.3619 -1.4586
 6367SOL    HW230561   3.809   0.354   3.420  0.3821 -1.6215  0.2905
 6368SOL     OW30562   0.461   3.217   2.130  0.6636  0.0021 -0.2546
 6368SOL    HW130563   0.494   3.234   2.218  0.2146 -1.7390  0.2490
 6368SOL    HW230564   0.444   3.304   2.095 -1.2821  0.4995  1.9196
 6369SOL     OW30565   0.900   4.375   3.652 -0.1023  0.1323 -0.0419
 6369SOL    HW130566   0.950   4.446   3.691 -0.1527  0.5985 -0.8093
 6369SOL    HW230567   0.864   4.335   3.731 -1.4016  0.0317 -0.6677
 6370SOL     OW30568   4.721   0.789   6.505  0.2376 -0.3727 -0.0256
 6370SOL    HW130569   0.017   0.745   6.588  0.5785 -1.1677 -0.5240
 6370SOL    HW230570   4.653   0.732   6.470 -1.1128  0.4750  1.2360
 6371SOL     OW30571   0.959   2.822  14.799  0.0879 -0.1118  0.3404
 6371SOL    HW130572   0.934   2.762  14.870 -0.3401  0.9799  1.1053
 6371SOL    HW230573   1.010   2.890  14.842 -0.4017  0.4368  0.0550
 6372SOL     OW30574   2.288   2.276  16.056  0.0090  0.3815  0.0550
 6372SOL    HW130575   2.312   2.183  16.063 -0.9290  0.0588 -1.1051
 6372SOL    HW230576   2.224   2.258  15.987 -0.2118  0.0491  0.3469
 6373SOL     OW30577   1.823   2.977   7.669 -0.1039  0.1431 -0.3099
 6373SOL    HW130578   1.761   2.928   7.615 -0.6469  1.7830 -1.1849
 6373SOL    HW230579   1.878   2.909   7.708  0.4039  0.2468 -0.8526
 6374SOL     OW30580   2.389   0.272   4.077 -0.0253 -0.6960  0.1894
 6374SOL    HW130581   2.311   0.219   4.065 -0.0043 -0.1697 -2.2037
 6374SOL    HW230582   2.436   0.200   4.120  0.5546  0.9942  2.4393
 6375SOL     OW30583   4.119   2.610   1.254  0.4512 -0.3842  0.5394
 6375SOL    HW130584   4.055   2.636   1.320 -0.5727 -1.4658 -0.0328
 6375SOL    HW230585   4.200   2.604   1.303  0.6933 -1.5030  0.0060
 6376SOL     OW30586   0.793   4.054  11.592  0.2486 -0.1787  0.2636
 6376SOL    HW130587   0.761   3.964  11.597  0.5601 -0.4861 -3.6838
 6376SOL    HW230588   0.872   4.041  11.645  0.1706 -2.3070 -0.1460
 6377SOL     OW30589   1.307   1.062  15.727  0.0814 -0.0507  0.2906
 6377SOL    HW130590   1.340   1.075  15.638 -3.3154 -0.5157 -1.0443
 6377SOL    HW230591   1.392   1.055  15.770 -0.3147 -1.0853  0.9084
 6378SOL     OW30592   0.687   3.086   5.011  0.1781  0.0369 -0.1995
 6378SOL    HW130593   0.687   3.179   4.989 -1.8514 -0.0073 -0.4241
 6378SOL    HW230594   0.723   3.055   4.927 -0.2782  1.1568 -0.8089
 6379SOL     OW30595   2.577   0.606   6.743  0.4672  0.1844  0.1486
 6379SOL    HW130596   2.517   0.535   6.722 -0.6376  1.4215 -0.9245
 6379SOL    HW230597   2.579   0.595   6.838 -1.0262 -1.3866  0.0133
 6380SOL     OW30598   0.990   2.441  11.224  0.5083  0.2870  0.0133
 6380SOL    HW130599   0.994   2.353  11.263 -1.1513  1.4000  2.6580
 6380SOL    HW230600   0.963   2.495  11.297  0.4471  2.0700 -1.3406
 6381SOL     OW30601   2.610   0.667   4.403  0.0242  0.0602  0.2658
 6381SOL    HW130602   2.624   0.717   4.483  0.0827  0.5172 -0.0277
 6381SOL    HW230603   2.692   0.685   4.358  0.1490  1.5027  1.0771
 6382SOL     OW30604   2.113   1.285   0.679 -0.5037  0.8762  0.1608
 6382SOL    HW130605   2.099   1.194   0.653  1.9999  1.2256 -2.4339
 6382SOL    HW230606   2.057   1.336   0.621  0.7539  2.9018  0.7381
 6383SOL     OW30607   1.387   4.288   5.722  0.3144  0.0869 -0.8020
 6383SOL    HW130608   1.416   4.237   5.646 -2.7937 -3.8408  0.6343
 6383SOL    HW230609   1.427   4.243   5.797 -0.8801  1.8487  0.8948
 6384SOL     OW30610   0.322   2.965   7.260 -0.5416 -0.6483 -0.0389
 6384SOL    HW130611   0.229   2.973   7.284 -0.5897 -0.4715 -0.2895
 6384SOL    HW230612   0.308   2.912   7.182 -0.9291 -2.5355  1.3075
 6385SOL     OW30613   2.121   1.514   3.274  0.1331  0.3576 -1.1550
 6385SOL    HW130614   2.177   1.511   3.352  0.3365  0.5078 -1.2949
 6385SOL    HW230615   2.088   1.603   3.282  0.6394  0.4880 -0.5029
 6386SOL     OW30616   0.496   1.044   0.429 -0.1172 -0.6014 -0.4371
 6386SOL    HW130617   0.508   1.108   0.358  1.5795 -1.0255 -0.5329
 6386SOL    HW230618   0.428   1.092   0.478 -1.3595 -0.8398 -1.9212
 6387SOL     OW30619   2.534   2.986   7.158  0.1624 -0.0766  0.3385
 6387SOL    HW130620   2.579   3.022   7.234 -0.3453  2.7950 -0.7252
 6387SOL    HW230621   2.582   2.903   7.148 -1.1327 -0.8073  0.1935
 6388SOL     OW30622   2.786   0.470   1.473  0.0489 -0.4398 -0.0564
 6388SOL    HW130623   2.742   0.474   1.558  0.8128  1.2044  0.2659
 6388SOL    HW230624   2.711   0.453   1.417 -0.8056  0.0675  0.9327
 6389SOL     OW30625   3.352   4.686   6.539 -0.3382  0.0552 -0.1267
 6389SOL    HW130626   3.426   0.015   6.570 -0.6883 -0.3485  1.3949
 6389SOL    HW230627   3.276   0.015   6.565 -0.1721  0.1459  0.1772
 6390SOL     OW30628   0.099   4.668   4.188  0.6145  0.7669 -0.5276
 6390SOL    HW130629   0.109   4.697   4.279  0.6801 -0.9933  0.0124
 6390SOL    HW230630   0.173   4.711   4.144  0.2803  1.4997 -0.3690
 6391SOL     OW30631   0.781   1.698   2.506  0.2016 -0.7576 -0.7830
 6391SOL    HW130632   0.781   1.754   2.428 -3.3528 -0.5965 -0.6652
 6391SOL    HW230633   0.756   1.609   2.480 -1.8742 -0.1407 -0.9289
 6392SOL     OW30634   0.398   3.157   1.740 -0.3130 -0.3838  0.3321
 6392SOL    HW130635   0.477   3.143   1.793 -0.2530  0.8824  0.5876
 6392SOL    HW230636   0.348   3.078   1.759  0.3102 -0.7653  0.3972
 6393SOL     OW30637   3.144   2.956   6.375  0.0841 -0.0590  0.2392
 6393SOL    HW130638   3.139   3.016   6.449 -1.6625 -0.1400  0.1852
 6393SOL    HW230639   3.056   2.918   6.374  0.4382 -0.8947  0.6334
 6394SOL     OW30640   2.446   2.558   6.617 -0.0915  0.3288  0.1331
 6394SOL    HW130641   2.370   2.525   6.569 -0.4324 -1.8010  2.1628
 6394SOL    HW230642   2.493   2.477   6.638  0.9342  0.7583 -0.4708
 6395SOL     OW30643   4.611   4.548   6.725  0.1594 -0.2143 -0.3299
 6395SOL    HW130644   4.536   4.598   6.753  0.0185 -0.0285 -1.0346
 6395SOL    HW230645   4.677   4.616   6.712 -1.3861  0.7940 -2.8559
 6396SOL     OW30646   3.098   3.592  11.992  0.4637  0.7601 -0.6056
 6396SOL    HW130647   3.096   3.579  11.897 -1.1278 -0.1295 -0.4452
 6396SOL    HW230648   3.020   3.647  12.000  1.0571  0.9927  3.7181
 6397SOL     OW30649   3.438   2.063   4.076  0.4902 -0.4699  0.6398
 6397SOL    HW130650   3.492   2.131   4.035 -0.6046 -0.8006 -1.3765
 6397SOL    HW230651   3.399   2.034   3.993 -0.5370  1.6175  0.4042
 6398SOL     OW30652   0.497   2.138  10.350 -0.0058  0.0639 -0.0354
 6398SOL    HW130653   0.498   2.077  10.277 -2.4266 -0.1369  0.0800
 6398SOL    HW230654   0.577   2.188  10.332  0.9282  0.0113  3.9584
 6399SOL     OW30655   2.461   3.029   2.642 -0.0149  0.2353 -0.2056
 6399SOL    HW130656   2.507   3.101   2.685  1.3990  0.4309 -2.0766
 6399SOL    HW230657   2.377   3.072   2.626 -0.9942 -1.6028 -0.1046
 6400SOL     OW30658   0.349   0.223   2.932  0.1298 -0.0809 -0.6246
 6400SOL    HW130659   0.414   0.292   2.918  1.0130 -0.5892  0.9942
 6400SOL    HW230660   0.264   0.266   2.922 -0.5139 -1.0244  0.7614
 6401SOL     OW30661   2.762   1.074  14.701 -0.3436 -0.1785 -0.1449
 6401SOL    HW130662   2.818   1.013  14.748 -0.5327 -0.2035  0.0445
 6401SOL    HW230663   2.814   1.077  14.620 -0.9793 -1.3210 -0.5892
 6402SOL     OW30664   4.105   3.174   6.271  0.0690 -0.5812  0.0596
 6402SOL    HW130665   4.195   3.158   6.244  0.8097  1.8858  1.0172
 6402SOL    HW230666   4.091   3.246   6.210  1.7809 -0.4365 -0.1510
 6403SOL     OW30667   2.482   1.421   1.423 -0.1886 -0.5605 -0.7803
 6403SOL    HW130668   2.453   1.335   1.454 -3.5474  0.9492  0.2004
 6403SOL    HW230669   2.455   1.418   1.331  0.6153 -0.0058 -1.0336
 6404SOL     OW30670   3.498   4.284   8.288  0.2355 -0.4178 -0.1815
 6404SOL    HW130671   3.455   4.221   8.347 -0.5742  0.1081 -0.2001
 6404SOL    HW230672   3.520   4.226   8.216 -0.3211  1.0287 -1.5084
 6405SOL     OW30673   0.069   2.493   4.695  0.0288  0.0114  0.4577
 6405SOL    HW130674   0.124   2.445   4.634 -0.3131  0.3228 -0.0969
 6405SOL    HW230675   0.092   2.585   4.682  1.7686 -0.6226 -0.9026
 6406SOL     OW30676   1.705   3.176   6.445 -0.3428  0.3147 -0.0364
 6406SOL    HW130677   1.620   3.208   6.473  0.5780  2.1652  0.6681
 6406SOL    HW230678   1.763   3.244   6.480 -2.4023  1.6642  0.7631
 6407SOL     OW30679   2.694   1.109   5.260 -0.3564  0.5480  0.0063
 6407SOL    HW130680   2.731   1.036   5.310 -0.4777  0.2981 -0.2730
 6407SOL    HW230681   2.651   1.057   5.193  1.7971 -2.6484  1.1230
 6408SOL     OW30682   0.194   3.656   1.794 -0.7056 -0.1675 -0.5137
 6408SOL    HW130683   0.197   3.722   1.724  1.8502  1.1863  0.8590
 6408SOL    HW230684   0.103   3.631   1.780 -0.6269 -0.2922 -0.8098
 6409SOL     OW30685   3.149   1.337   3.055  0.2618  0.0050  0.2033
 6409SOL    HW130686   3.086   1.289   3.108 -0.4759 -1.0505 -1.6108
 6409SOL    HW230687   3.239   1.320   3.082  0.8632  0.0391 -1.7595
 6410SOL     OW30688   2.195   2.188  16.597  0.4193 -0.5994 -0.1379
 6410SOL    HW130689   2.262   2.242  16.638 -0.4566 -1.1197  1.9654
 6410SOL    HW230690   2.114   2.218  16.639  0.8312 -0.7694  0.7858
 6411SOL     OW30691   3.228   3.759   9.230 -0.2519 -0.4285  0.3648
 6411SOL    HW130692   3.240   3.665   9.215 -1.2451 -0.2517 -1.5963
 6411SOL    HW230693   3.259   3.773   9.319  0.1939 -0.1945  0.1732
 6412SOL     OW30694   1.729   3.352   0.811  0.2473 -0.0405  0.3380
 6412SOL    HW130695   1.773   3.435   0.827  0.1227  0.0978 -0.0349
 6412SOL    HW230696   1.804   3.293   0.810 -1.6849 -2.5176  0.0664
 6413SOL     OW30697   2.335   4.177   8.552 -0.1968  0.7544  0.2371
 6413SOL    HW130698   2.351   4.230   8.630  0.7365  0.4279  0.2720
 6413SOL    HW230699   2.240   4.164   8.560 -0.1696  0.0555 -0.6806
 6414SOL     OW30700   3.074   1.662   7.365  0.1037  0.3610  0.4495
 6414SOL    HW130701   3.096   1.643   7.274 -0.6289  0.0423  0.3427
 6414SOL    HW230702   3.031   1.747   7.355 -0.0607  0.3666  1.1916
 6415SOL     OW30703   4.416   4.694  15.016 -0.1776  0.4762 -0.8614
 6415SOL    HW130704   4.401   0.016  14.933  0.0889  1.3469 -0.4440
 6415SOL    HW230705   4.394   4.602  15.007 -0.7022  0.6292 -1.1610
 6416SOL     OW30706   3.541   4.701   8.209 -0.1344  0.3479  0.6574
 6416SOL    HW130707   3.621   4.649   8.204  0.3359  0.7051  3.8964
 6416SOL    HW230708   3.567   0.052   8.155  1.4748 -1.1404 -0.6095
 6417SOL     OW30709   3.676   2.608   8.900  0.2306  1.0764 -0.1684
 6417SOL    HW130710   3.728   2.624   8.978  1.2850 -0.2253 -0.6069
 6417SOL    HW230711   3.617   2.537   8.927  0.3045  1.0985  0.0479
 6418SOL     OW30712   4.050   0.297   2.225 -0.6524  0.5189 -0.3207
 6418SOL    HW130713   4.097   0.219   2.252  0.2354  0.9967 -0.4813
 6418SOL    HW230714   4.009   0.332   2.304 -2.2149  3.2941 -2.3260
 6419SOL     OW30715   4.634   3.697   7.748  0.4516  0.2576  0.0334
 6419SOL    HW130716   4.699   3.719   7.815  0.9767 -0.8124 -0.1085
 6419SOL    HW230717   4.662   3.616   7.704  0.8803 -0.2718  1.2756
 6420SOL     OW30718   1.470   1.027   0.715  0.0748  0.6563 -0.0482
 6420SOL    HW130719   1.394   1.045   0.771 -0.2266 -1.5549  0.2465
 6420SOL    HW230720   1.442   1.080   0.640  3.8541  0.8207 -1.3238
 6421SOL     OW30721   4.708   3.352  12.590  0.9499  0.0041 -0.7406
 6421SOL    HW130722   4.652   3.362  12.513 -0.2171 -0.5057  0.0529
 6421SOL    HW230723   0.016   3.261  12.584 -0.5689 -0.4904 -0.9171
 6422SOL     OW30724   1.668   4.107   0.967 -0.5898  0.3793 -0.2742
 6422SOL    HW130725   1.669   4.202   0.979  0.6557  0.3899 -0.5012
 6422SOL    HW230726   1.608   4.092   1.041 -1.0645  1.4661 -0.4384
 6423SOL     OW30727   4.286   2.852   2.146 -0.2157 -0.9427  0.4060
 6423SOL    HW130728   4.342   2.909   2.093 -0.8298  0.5780  1.4024
 6423SOL    HW230729   4.301   2.769   2.101 -0.0929  0.0170 -1.3242
 6424SOL     OW30730   3.253   4.716   4.120  0.4243 -0.3234  0.3949
 6424SOL    HW130731   3.207   0.077   4.115 -0.9788 -1.0252  1.2636
 6424SOL    HW230732   3.323   0.002   4.056  2.4644 -0.0938  2.6482
 6425SOL     OW30733   3.668   0.139   6.939 -0.5377  0.6816  0.7527
 6425SOL    HW130734   3.655   0.119   6.846  0.3539 -0.6831  0.9320
 6425SOL    HW230735   3.754   0.103   6.955 -1.8554 -2.9648 -0.4334
 6426SOL     OW30736   3.509   3.114   5.859 -0.2681 -0.5339 -0.6975
 6426SOL    HW130737   3.460   3.105   5.940  1.8460  0.0255  0.6675
 6426SOL    HW230738   3.504   3.027   5.820  0.0672 -1.3339  1.0661
 6427SOL     OW30739   0.631   2.136   9.356  0.6552 -0.1764 -0.5268
 6427SOL    HW130740   0.537   2.134   9.339  0.6447 -1.5881 -0.3335
 6427SOL    HW230741   0.642   2.044   9.380  0.8494 -0.2643 -0.9504
 6428SOL     OW30742   4.024   3.186   4.150 -0.4663  0.0035  0.0690
 6428SOL    HW130743   3.982   3.121   4.208  0.1753  1.6076  2.2993
 6428SOL    HW230744   4.031   3.122   4.078  0.4070  1.7954 -1.4300
 6429SOL     OW30745   3.657   1.114  11.815 -0.1531  0.6486 -0.4384
 6429SOL    HW130746   3.719   1.058  11.768 -0.4829  0.6746 -0.9151
 6429SOL    HW230747   3.707   1.125  11.895  2.0703 -0.3091 -1.6900
 6430SOL     OW30748   2.876   1.812   3.782  0.2174 -0.0251  0.1860
 6430SOL    HW130749   2.885   1.904   3.756  1.6850  0.3258  1.9735
 6430SOL    HW230750   2.905   1.758   3.708 -2.1777 -0.5182 -0.4076
 6431SOL     OW30751   3.896   0.886   1.869 -0.0596 -0.3403 -0.2728
 6431SOL    HW130752   3.869   0.811   1.816 -0.8096  0.6199 -1.2399
 6431SOL    HW230753   3.913   0.952   1.802 -0.4300 -1.3698 -1.3880
 6432SOL     OW30754   1.017   3.463   8.695  0.0892 -0.4447  0.3453
 6432SOL    HW130755   1.002   3.378   8.654  0.8464 -0.0972 -0.6604
 6432SOL    HW230756   1.079   3.436   8.763  0.6701  0.1013  0.0404
 6433SOL     OW30757   2.517   4.182   2.081  0.2611 -0.0269 -0.3408
 6433SOL    HW130758   2.427   4.204   2.106  0.6230  0.4509  0.5227
 6433SOL    HW230759   2.575   4.247   2.122 -0.7248 -0.2901  1.4586
 6434SOL     OW30760   3.572   4.239  14.519  0.1845  0.2767  0.6213
 6434SOL    HW130761   3.568   4.165  14.459  1.2547 -0.3518  1.3205
 6434SOL    HW230762   3.558   4.207  14.608 -0.4450 -0.6672  0.1806
 6435SOL     OW30763   0.168   2.799   2.903 -0.3053  0.5731  0.3045
 6435SOL    HW130764   0.143   2.850   2.826 -1.9399  1.3529  1.3457
 6435SOL    HW230765   0.166   2.713   2.861  4.5062 -0.7123  2.7707
 6436SOL     OW30766   2.025   1.459   7.560  0.0288  0.3811 -0.3202
 6436SOL    HW130767   1.950   1.514   7.541 -1.2509 -1.9231 -1.9574
 6436SOL    HW230768   1.983   1.387   7.607  1.0098  1.1439  1.7230
 6437SOL     OW30769   1.844   1.756  17.193 -0.3815 -0.1755 -0.2012
 6437SOL    HW130770   1.821   1.848  17.180  0.1381  0.0175  0.2632
 6437SOL    HW230771   1.834   1.730  17.285  1.7392 -0.5195 -0.0675
 6438SOL     OW30772   3.251   4.672   8.953 -0.3761 -0.1246 -0.1016
 6438SOL    HW130773   3.284   4.622   9.028 -0.1731  0.9223  0.5009
 6438SOL    HW230774   3.158   4.649   8.942 -0.3267 -1.9739  3.0104
 6439SOL     OW30775   4.308   2.302   2.294  0.0370 -0.3605  0.7705
 6439SOL    HW130776   4.265   2.225   2.257  4.2526 -0.9157 -2.8698
 6439SOL    HW230777   4.366   2.267   2.362  1.0026  0.2899  0.2755
 6440SOL     OW30778   1.263   2.910   5.143  0.0417  0.5027  0.1497
 6440SOL    HW130779   1.285   2.912   5.236  0.1820 -3.0885  0.1771
 6440SOL    HW230780   1.332   2.957   5.096  0.3720  2.3254  2.4289
 6441SOL     OW30781   3.769   3.664  16.985  0.1363 -0.1317  0.6968
 6441SOL    HW130782   3.741   3.622  16.904  1.3231 -1.6610  1.0766
 6441SOL    HW230783   3.689   3.673  17.037 -0.9704  0.0433 -1.0338
 6442SOL     OW30784   3.568   2.682   7.262 -0.0715 -0.3394 -0.5295
 6442SOL    HW130785   3.633   2.625   7.221 -1.6780 -2.8502  0.4086
 6442SOL    HW230786   3.527   2.616   7.318 -1.5534  1.3701  0.4074
 6443SOL     OW30787   2.733   1.627  16.179 -0.6105 -0.2232  0.1675
 6443SOL    HW130788   2.752   1.537  16.207  1.6585 -0.1235 -1.1478
 6443SOL    HW230789   2.641   1.631  16.206 -1.3643  0.7621 -2.6388
 6444SOL     OW30790   4.035   2.491  15.045 -0.3216  0.4318 -0.4027
 6444SOL    HW130791   4.129   2.496  15.027 -0.5087 -1.9810 -1.9779
 6444SOL    HW230792   3.981   2.505  14.967  0.3847 -2.6674 -1.4571
 6445SOL     OW30793   0.974   4.561   2.863  0.3431  0.2010  0.8120
 6445SOL    HW130794   1.039   4.495   2.840  1.6363  2.4584 -1.9260
 6445SOL    HW230795   0.978   4.624   2.791  1.0623 -1.3155 -0.4620
 6446SOL     OW30796   1.190   0.712  16.248 -0.2085  0.1291  0.0133
 6446SOL    HW130797   1.129   0.759  16.305 -2.1397 -0.4716 -1.5700
 6446SOL    HW230798   1.194   0.772  16.174  1.1001 -0.5126 -0.4323
 6447SOL     OW30799   2.940   3.618   2.889  0.1840  0.3265  0.3022
 6447SOL    HW130800   2.978   3.569   2.963  0.3856 -1.1807 -0.8096
 6447SOL    HW230801   3.021   3.660   2.862  1.1033 -1.8360 -0.3258
 6448SOL     OW30802   1.416   3.888  16.006 -0.1082  0.0284 -0.3130
 6448SOL    HW130803   1.370   3.822  15.953 -0.0726 -0.0169 -0.2876
 6448SOL    HW230804   1.481   3.910  15.940  1.5310 -2.7816  0.3731
 6449SOL     OW30805   2.494   0.012   5.271 -1.0587 -0.1270  0.0057
 6449SOL    HW130806   2.444   0.062   5.206 -0.9616 -1.1270 -0.8400
 6449SOL    HW230807   2.526   0.086   5.323 -0.1341 -2.0232  2.0884
 6450SOL     OW30808   0.744   4.089   4.399  0.0575 -0.0506  0.0612
 6450SOL    HW130809   0.787   4.174   4.391 -1.8247  1.0164  1.2283
 6450SOL    HW230810   0.707   4.104   4.486 -1.5609  0.3810 -0.7101
 6451SOL     OW30811   4.401   0.517   3.080  1.0882  0.2697  0.2771
 6451SOL    HW130812   4.441   0.432   3.096  1.5079  0.9227  2.6133
 6451SOL    HW230813   4.341   0.500   3.007  0.1702  0.5542  0.9739
 6452SOL     OW30814   4.680   3.720   6.079  0.4584  0.0733 -0.3822
 6452SOL    HW130815   0.005   3.718   6.162  0.6354 -1.4297 -0.5223
 6452SOL    HW230816   4.631   3.799   6.098 -0.8485 -0.9274  0.4086
 6453SOL     OW30817   4.125   0.789   3.852  0.3293  0.6436 -0.3958
 6453SOL    HW130818   4.115   0.872   3.900  1.2054  1.0516 -0.9112
 6453SOL    HW230819   4.090   0.810   3.766  3.1704  1.7783 -1.2635
 6454SOL     OW30820   0.462   0.799   1.671 -0.2898  0.1339  0.0372
 6454SOL    HW130821   0.488   0.715   1.708  0.0987  0.4374  0.4506
 6454SOL    HW230822   0.381   0.799   1.722  1.0110  0.6241  2.0972
 6455SOL     OW30823   3.977   3.856  17.563 -0.1949  0.0559 -0.4485
 6455SOL    HW130824   3.886   3.842  17.591  0.0810 -0.1747  0.3316
 6455SOL    HW230825   3.981   3.831  17.471 -0.2061 -4.9672  0.8953
 6456SOL     OW30826   4.606   3.102   1.583  0.1847  0.1272  0.0552
 6456SOL    HW130827   4.646   3.019   1.607  1.3242  0.3850 -0.9314
 6456SOL    HW230828   4.681   3.160   1.568 -1.3363  2.4172  1.2864
 6457SOL     OW30829   0.994   3.363   5.823  0.3293  0.0069  0.2514
 6457SOL    HW130830   1.072   3.405   5.860  0.6589 -1.4037  1.1783
 6457SOL    HW230831   0.943   3.438   5.795  0.5118  0.9586  2.5363
 6458SOL     OW30832   1.432   2.082   6.440 -0.9152  0.1766 -0.0420
 6458SOL    HW130833   1.356   2.055   6.389 -0.8727  0.8504 -0.4685
 6458SOL    HW230834   1.443   2.002   6.490  0.8102  0.7701  0.5303
 6459SOL     OW30835   2.820   1.296   3.417  0.3737 -0.1243  0.0507
 6459SOL    HW130836   2.844   1.375   3.369  1.2622 -0.7850 -0.5995
 6459SOL    HW230837   2.799   1.341   3.498  0.9874 -1.1695  0.7826
 6460SOL     OW30838   1.261   3.621  14.932  0.1288 -0.3975 -0.2344
 6460SOL    HW130839   1.285   3.687  14.867 -1.5575  0.3905 -0.0714
 6460SOL    HW230840   1.166   3.617  14.917  0.1461  0.7474 -0.6439
 6461SOL     OW30841   1.685   3.701  15.320 -0.6639  0.6301 -0.1743
 6461SOL    HW130842   1.666   3.614  15.284 -1.6666  0.8070 -0.0814
 6461SOL    HW230843   1.617   3.750  15.273  0.0291  0.7272 -1.0735
 6462SOL     OW30844   3.616   2.800   4.491 -0.9880  0.1932  0.1767
 6462SOL    HW130845   3.537   2.747   4.490  0.7037 -2.3428  0.1833
 6462SOL    HW230846   3.664   2.755   4.561 -0.6786 -0.3314 -0.3782
 6463SOL     OW30847   2.207   4.671   2.629  0.3562 -0.2154 -0.1345
 6463SOL    HW130848   2.147   4.680   2.703  0.8762 -0.3865  0.3144
 6463SOL    HW230849   2.282   0.000   2.659  0.2377 -1.0510  1.6283
 6464SOL     OW30850   0.302   0.824   8.942  0.3033 -0.2535 -0.5704
 6464SOL    HW130851   0.249   0.902   8.925 -0.4382 -0.6365 -0.0120
 6464SOL    HW230852   0.381   0.859   8.983  0.2242  1.6423 -1.9858
 6465SOL     OW30853   4.002   2.086  13.333 -0.0429  0.1321 -0.1289
 6465SOL    HW130854   3.946   2.159  13.356  0.5593  1.5379 -3.1450
 6465SOL    HW230855   3.969   2.075  13.244 -0.9997  1.5546  0.0546
 6466SOL     OW30856   2.285   3.623   5.979  0.0627  0.0500  0.6646
 6466SOL    HW130857   2.280   3.709   5.938 -1.9185  0.8389  2.5877
 6466SOL    HW230858   2.381   3.616   5.982  0.0481 -0.0028  1.0855
 6467SOL     OW30859   2.463   2.630   7.517 -0.4987  0.3447 -0.5005
 6467SOL    HW130860   2.371   2.615   7.540  0.3669 -0.2513  2.5338
 6467SOL    HW230861   2.442   2.714   7.476  0.2750 -0.3303 -2.2995
 6468SOL     OW30862   4.292   0.696  16.863 -0.0028 -0.6199  0.0300
 6468SOL    HW130863   4.250   0.707  16.777  1.0542 -0.2050 -0.4260
 6468SOL    HW230864   4.353   0.626  16.844  1.2418 -0.5051  3.6040
 6469SOL     OW30865   4.297   3.015  12.686 -0.2074 -0.5217  0.0134
 6469SOL    HW130866   4.253   3.072  12.623  0.5894  0.3928  0.2823
 6469SOL    HW230867   4.246   3.033  12.765 -2.8975  0.3207 -1.9008
 6470SOL     OW30868   1.989   0.407   9.363  0.1067 -0.0930 -0.0844
 6470SOL    HW130869   1.928   0.338   9.390 -1.4394  1.6043  0.7571
 6470SOL    HW230870   2.007   0.371   9.276  0.8131 -1.1109  0.4897
 6471SOL     OW30871   0.082   3.002   5.229  0.0214 -0.4056 -0.2578
 6471SOL    HW130872   0.062   3.087   5.188  0.1268  0.4072  1.3971
 6471SOL    HW230873   0.043   2.998   5.316  1.1939  2.6260  0.4074
 6472SOL     OW30874   2.278   3.047  10.686 -0.0253 -0.2335 -0.1226
 6472SOL    HW130875   2.206   3.063  10.626  0.8809 -0.3735 -1.2467
 6472SOL    HW230876   2.231   3.053  10.769 -0.6766  1.6635 -0.6285
 6473SOL     OW30877   3.497   2.400   8.680  0.2310 -0.3238 -0.5703
 6473SOL    HW130878   3.511   2.394   8.774  3.2140  0.3682 -0.9742
 6473SOL    HW230879   3.556   2.471   8.652 -0.8477  0.1241 -1.7172
 6474SOL     OW30880   4.615   0.951  17.658 -0.0269  0.1230  0.1491
 6474SOL    HW130881   4.604   0.942   0.060 -0.9448 -0.1616  0.0211
 6474SOL    HW230882   4.530   0.921  17.626  0.5997 -2.0989  0.5840
 6475SOL     OW30883   1.361   0.142   1.297 -0.5007 -0.3095 -0.1275
 6475SOL    HW130884   1.266   0.131   1.283 -0.4503 -1.2754  0.3085
 6475SOL    HW230885   1.364   0.231   1.332 -1.2279  0.5248 -2.1635
 6476SOL     OW30886   0.677   0.593   3.465 -0.0393  0.0304 -1.1467
 6476SOL    HW130887   0.589   0.606   3.499  0.2193 -0.0577 -0.4541
 6476SOL    HW230888   0.723   0.637   3.536 -1.0174 -2.3205  0.9283
 6477SOL     OW30889   0.286   2.528   8.517  0.6379 -0.0537 -0.3354
 6477SOL    HW130890   0.314   2.564   8.601 -0.6690 -0.7256  0.3765
 6477SOL    HW230891   0.311   2.595   8.452 -2.0269  1.1783 -0.0768
 6478SOL     OW30892   4.405   1.231   5.013 -0.1723 -0.0406 -0.0910
 6478SOL    HW130893   4.433   1.235   5.104 -1.5619 -3.0982  0.4658
 6478SOL    HW230894   4.489   1.249   4.971 -0.4731  0.0375 -0.6636
 6479SOL     OW30895   1.164   0.746   8.650 -0.3418 -0.9976  0.2439
 6479SOL    HW130896   1.114   0.828   8.655  0.2200 -0.7283  1.6367
 6479SOL    HW230897   1.236   0.778   8.594  0.6762 -1.3691  1.3424
 6480SOL     OW30898   2.240   4.376  15.195 -0.0820  0.3469 -0.2185
 6480SOL    HW130899   2.331   4.350  15.209 -0.8070 -1.8836  0.3484
 6480SOL    HW230900   2.245   4.422  15.111  2.1519  0.8285  0.1848
 6481SOL     OW30901   0.893   1.325   4.564 -0.1406 -0.1099 -0.3079
 6481SOL    HW130902   0.931   1.254   4.511 -0.1232  0.5989 -1.2553
 6481SOL    HW230903   0.920   1.289   4.648  0.6246 -0.1588 -0.5681
 6482SOL     OW30904   1.966   3.389   8.962  0.1447  0.3547  0.2723
 6482SOL    HW130905   1.969   3.373   8.868  1.0696  0.7749  0.2289
 6482SOL    HW230906   2.047   3.348   8.991  1.2804  1.6087 -1.1430
 6483SOL     OW30907   0.843   0.675  13.394 -0.2094  0.0182  0.3676
 6483SOL    HW130908   0.918   0.635  13.349  0.5360  1.2185  0.5367
 6483SOL    HW230909   0.858   0.631  13.478  0.4141 -0.4729 -0.0051
 6484SOL     OW30910   0.137   4.031   6.401  0.2346  0.1910 -0.1351
 6484SOL    HW130911   0.198   4.104   6.411 -1.1129  1.3018 -0.1124
 6484SOL    HW230912   0.069   4.070   6.346 -0.1271 -3.5103 -2.3013
 6485SOL     OW30913   4.079   2.822   6.378  0.0726  0.5058  0.0582
 6485SOL    HW130914   4.125   2.864   6.306  2.6268 -1.2549  0.6521
 6485SOL    HW230915   3.995   2.806   6.335 -0.4350  0.7422  0.9588
 6486SOL     OW30916   1.820   2.030   4.656  0.2339 -0.2641 -0.5355
 6486SOL    HW130917   1.769   2.069   4.727 -2.6963 -0.4572 -2.4929
 6486SOL    HW230918   1.754   2.010   4.590 -0.1711 -2.4908  0.5631
 6487SOL     OW30919   0.999   4.046   3.873  0.2948  0.4785 -0.1603
 6487SOL    HW130920   1.018   3.992   3.796  1.1041  0.0434  0.3386
 6487SOL    HW230921   1.070   4.111   3.872 -0.5801  1.4416  0.4728
 6488SOL     OW30922   1.486   1.027  16.334  0.0923  0.0518  0.9639
 6488SOL    HW130923   1.413   1.014  16.395 -0.3998 -1.9407 -0.0432
 6488SOL    HW230924   1.471   1.119  16.311  2.0709 -0.0038 -0.5018
 6489SOL     OW30925   3.807   3.498   8.196  0.0183  0.0381  0.2895
 6489SOL    HW130926   3.853   3.499   8.280  1.4050  1.6250 -0.5149
 6489SOL    HW230927   3.879   3.501   8.134 -0.4060 -0.2949 -0.2238
 6490SOL     OW30928   4.260   0.272   4.417 -0.1711 -0.5272 -0.1601
 6490SOL    HW130929   4.217   0.341   4.467  0.6616  0.4851 -0.8483
 6490SOL    HW230930   4.219   0.286   4.332  0.8948 -2.3769 -0.9849
 6491SOL     OW30931   4.231   3.693   2.895  0.1141  0.1079 -0.2480
 6491SOL    HW130932   4.196   3.766   2.945 -1.0327 -0.0280 -0.8366
 6491SOL    HW230933   4.193   3.624   2.949  2.2048 -0.5249  0.3799
 6492SOL     OW30934   1.697   3.119   7.417  0.6502 -0.4730  0.5810
 6492SOL    HW130935   1.785   3.155   7.428  0.9834 -0.8421 -0.9685
 6492SOL    HW230936   1.710   3.032   7.455 -2.0136 -0.9410  0.3955
 6493SOL     OW30937   4.714   4.597  17.381 -0.1303 -0.4695 -0.4796
 6493SOL    HW130938   4.668   4.651  17.446  0.9166 -2.1532  1.6900
 6493SOL    HW230939   0.036   4.669  17.338  2.2382 -1.7712 -0.2022
 6494SOL     OW30940   1.073   0.754   4.105 -0.2950  0.1549  0.2167
 6494SOL    HW130941   0.985   0.732   4.136  0.9115 -0.3320  3.2239
 6494SOL    HW230942   1.106   0.670   4.073 -2.8353 -0.6456 -0.3020
 6495SOL     OW30943   3.130   0.631   1.285  0.0829  0.3909  0.0635
 6495SOL    HW130944   3.194   0.688   1.242 -1.2457  1.8522 -0.0150
 6495SOL    HW230945   3.088   0.703   1.333 -1.4689 -0.2689 -0.3019
 6496SOL     OW30946   3.984   2.367  10.964 -0.0734 -0.0712 -0.2988
 6496SOL    HW130947   4.013   2.426  11.033  1.1304 -0.9724 -0.0328
 6496SOL    HW230948   3.893   2.370  10.993 -0.1357  3.0827 -0.9032
 6497SOL     OW30949   4.401   0.328  16.454  0.1452  0.0859 -0.1187
 6497SOL    HW130950   4.452   0.289  16.383 -0.3684  1.5943 -1.3277
 6497SOL    HW230951   4.382   0.415  16.418 -1.1596  0.1465  0.7124
 6498SOL     OW30952   2.582   0.235   5.396  0.1055 -0.2169  0.0504
 6498SOL    HW130953   2.507   0.293   5.411 -1.0620 -1.6950 -0.0845
 6498SOL    HW230954   2.645   0.296   5.357  2.1048 -2.0354  0.4414
 6499SOL     OW30955   0.603   2.014   9.056  0.0817 -0.1259 -0.1654
 6499SOL    HW130956   0.582   2.063   9.135 -0.4619 -0.6727  0.0286
 6499SOL    HW230957   0.670   2.074   9.022 -0.6709  1.1676  0.5892
 6500SOL     OW30958   3.455   0.469   8.697  0.2759 -1.1858  0.2848
 6500SOL    HW130959   3.470   0.375   8.682 -2.2352 -1.2382 -1.8734
 6500SOL    HW230960   3.548   0.485   8.711  0.2935 -0.9389 -0.1146
 6501SOL     OW30961   0.348   1.329   4.716  1.0891 -0.6394 -0.2971
 6501SOL    HW130962   0.408   1.367   4.651 -0.0621  1.0921 -0.3386
 6501SOL    HW230963   0.349   1.401   4.780 -0.0236  0.4378 -1.4744
 6502SOL     OW30964   4.352   1.987   4.218  0.2270  0.1398 -0.9345
 6502SOL    HW130965   4.326   1.923   4.152 -1.0697 -1.3588  1.0246
 6502SOL    HW230966   4.445   1.998   4.199  0.3467 -1.7161 -1.3626
 6503SOL     OW30967   1.170   0.589   0.807  0.1987 -0.0896  0.2809
 6503SOL    HW130968   1.117   0.579   0.728  2.4021 -1.1155 -1.0780
 6503SOL    HW230969   1.165   0.681   0.832  1.4854  0.7264 -2.4983
 6504SOL     OW30970   3.505   1.714   3.552  0.0220  0.4780  0.1673
 6504SOL    HW130971   3.560   1.697   3.629 -1.7369 -1.4956  0.9838
 6504SOL    HW230972   3.540   1.655   3.486  1.6639  0.8118  0.7374
 6505SOL     OW30973   1.343   3.074   3.862 -0.2952  0.5170  0.3875
 6505SOL    HW130974   1.308   3.014   3.796 -0.3754  1.3616 -0.3337
 6505SOL    HW230975   1.373   3.139   3.799  0.9756  0.4400  0.9024
 6506SOL     OW30976   1.139   4.251   5.409  0.1317  0.6075  0.6762
 6506SOL    HW130977   1.122   4.276   5.319 -1.1741 -1.9681  0.2141
 6506SOL    HW230978   1.159   4.340   5.438  1.5013  1.1949 -2.0601
 6507SOL     OW30979   4.143   0.015   6.200  0.1227 -0.4421 -0.0588
 6507SOL    HW130980   4.143   4.647   6.169 -0.9497 -1.3892  2.7286
 6507SOL    HW230981   4.062   0.014   6.252  0.3750  0.6689  0.3505
 6508SOL     OW30982   2.364   4.256  16.176 -0.1316 -0.2251 -0.6228
 6508SOL    HW130983   2.292   4.214  16.223  0.4212 -3.0220 -2.3080
 6508SOL    HW230984   2.311   4.309  16.116  0.0874  3.1852  2.1530
 6509SOL     OW30985   3.294   4.479  15.544  0.3225 -0.3508 -0.6312
 6509SOL    HW130986   3.209   4.520  15.562 -0.8383 -3.2060  0.5435
 6509SOL    HW230987   3.319   4.546  15.480 -1.1080  0.4597 -0.3421
 6510SOL     OW30988   2.258   3.739   4.203 -0.2165 -0.3178  0.4318
 6510SOL    HW130989   2.205   3.662   4.222  2.6292 -2.6365 -1.1771
 6510SOL    HW230990   2.239   3.748   4.109 -0.2527  1.0133  0.5632
 6511SOL     OW30991   2.686   0.176   4.921 -0.1656 -0.6341  0.5885
 6511SOL    HW130992   2.779   0.164   4.941 -0.0984 -2.6645 -0.8645
 6511SOL    HW230993   2.660   0.233   4.992  1.2192 -0.6927  1.1558
 6512SOL     OW30994   2.615   2.987  11.052 -0.1530 -0.0355  0.8472
 6512SOL    HW130995   2.695   2.938  11.036  1.0785  2.2583  0.0438
 6512SOL    HW230996   2.563   2.973  10.973  2.1066  2.0208 -0.9529
 6513SOL     OW30997   2.927   3.975   2.830  0.2039  0.2080 -0.5356
 6513SOL    HW130998   2.856   3.920   2.798  0.5668 -1.9564  2.3853
 6513SOL    HW230999   2.893   4.002   2.915  2.3762  2.6527 -0.4424
 6514SOL     OW31000   4.660   2.252   8.221  0.0261 -0.5167  0.3655
 6514SOL    HW131001   4.708   2.250   8.138 -0.5511 -0.8168  0.0388
 6514SOL    HW231002   4.722   2.206   8.278 -0.1812 -1.6384 -0.3131
 6515SOL     OW31003   2.382   1.277   6.304 -0.4159  0.7974 -0.1662
 6515SOL    HW131004   2.396   1.188   6.272  1.2486  0.4330  1.5269
 6515SOL    HW231005   2.397   1.258   6.396  1.3334  0.9169 -0.4223
 6516SOL     OW31006   2.430   3.365   0.340 -0.3912  0.2959 -0.4461
 6516SOL    HW131007   2.402   3.395   0.253 -0.0620  0.2956 -0.5529
 6516SOL    HW231008   2.368   3.421   0.387 -1.7336 -0.3265 -1.5002
 6517SOL     OW31009   2.535   0.193   8.672 -0.3097  0.1957  0.1759
 6517SOL    HW131010   2.566   0.193   8.581 -3.0607 -0.8045 -0.7464
 6517SOL    HW231011   2.484   0.113   8.672 -1.2653  0.8317  2.6039
 6518SOL     OW31012   1.717   4.003   4.497 -0.2227  0.1787 -0.0319
 6518SOL    HW131013   1.767   4.011   4.578 -1.6393  1.2377  0.7364
 6518SOL    HW231014   1.733   3.911   4.480  0.3157  0.1597  0.6054
 6519SOL     OW31015   0.149   3.844   7.842  0.6095 -0.3646  0.5096
 6519SOL    HW131016   0.237   3.807   7.853  0.8316  0.1484  0.4578
 6519SOL    HW231017   0.175   3.908   7.775  0.7810 -0.1797  0.7486
 6520SOL     OW31018   4.073   3.518   9.477 -0.7635 -0.3576 -0.1202
 6520SOL    HW131019   4.039   3.607   9.482 -0.4790 -0.2419 -0.2007
 6520SOL    HW231020   4.004   3.490   9.417 -0.5988  1.5668 -1.2216
 6521SOL     OW31021   1.599   2.618   7.072  0.1672 -0.3209  0.3005
 6521SOL    HW131022   1.626   2.546   7.129  1.7263  0.2473  0.2913
 6521SOL    HW231023   1.638   2.592   6.988  0.1289 -0.1349  0.2246
 6522SOL     OW31024   1.988   1.977  11.115 -0.0566  0.3561  0.2388
 6522SOL    HW131025   2.022   2.056  11.156 -0.5305  0.4520  0.4453
 6522SOL    HW231026   1.934   1.938  11.183 -0.0664  1.9484  1.1474
 6523SOL     OW31027   2.659   2.737   8.553 -0.6067 -0.2928  0.0766
 6523SOL    HW131028   2.589   2.671   8.560 -0.8661 -0.0949 -0.6275
 6523SOL    HW231029   2.620   2.816   8.517 -1.0078 -0.4530  0.1577
 6524SOL     OW31030   1.768   4.024   3.865 -0.0405 -0.7666 -0.3692
 6524SOL    HW131031   1.675   4.039   3.845  0.2960  1.1559 -0.4625
 6524SOL    HW231032   1.789   4.117   3.859  2.4968 -1.4516 -1.8103
 6525SOL     OW31033   2.413   4.110   1.685 -0.2896  0.1967 -0.1150
 6525SOL    HW131034   2.389   4.157   1.606 -0.2262  0.6016  0.1046
 6525SOL    HW231035   2.498   4.152   1.697 -1.6158  2.7657  0.3572
 6526SOL     OW31036   3.770   0.068   1.699 -0.4159 -0.8336 -0.0905
 6526SOL    HW131037   3.791   0.025   1.616 -1.5349 -0.5973 -0.4913
 6526SOL    HW231038   3.676   0.052   1.698 -0.2814 -1.6512  0.2307
 6527SOL     OW31039   0.044   4.467   6.240 -0.6942 -0.1701  0.0209
 6527SOL    HW131040   4.712   4.391   6.258  1.0295 -1.5844 -0.6808
 6527SOL    HW231041   4.718   4.536   6.285 -1.2695  1.6420 -3.3533
 6528SOL     OW31042   2.097   2.533   1.111 -0.1373  0.1508 -0.1905
 6528SOL    HW131043   2.183   2.503   1.140 -1.3727 -2.0884  1.1538
 6528SOL    HW231044   2.119   2.626   1.104 -1.3403  0.4735  0.4577
 6529SOL     OW31045   2.832   0.831  12.938  0.1067  0.6666  0.0158
 6529SOL    HW131046   2.854   0.924  12.932  0.7773  0.3636 -2.3163
 6529SOL    HW231047   2.746   0.832  12.979  0.1879  0.3396  0.1920
 6530SOL     OW31048   0.105   1.812  11.447  0.3205  0.1523  0.5802
 6530SOL    HW131049   0.122   1.721  11.470 -0.2039  0.1697  1.0629
 6530SOL    HW231050   0.092   1.799  11.353  0.7155 -0.7112  0.6476
 6531SOL     OW31051   3.935   0.331   0.471 -0.6977 -0.3290  0.0141
 6531SOL    HW131052   3.972   0.310   0.386  2.5508  3.3240  0.5223
 6531SOL    HW231053   3.878   0.254   0.480  0.4342 -1.0669  0.9323
 6532SOL     OW31054   0.018   2.133   8.831  0.2858 -0.6207 -0.5766
 6532SOL    HW131055   4.671   2.082   8.790 -1.9358  0.9255  1.2557
 6532SOL    HW231056   4.718   2.213   8.783  1.3604 -1.7277 -2.8995
 6533SOL     OW31057   0.698   3.782   2.267 -0.3545  0.2889  0.5958
 6533SOL    HW131058   0.686   3.873   2.297 -0.5009  0.6624 -0.6167
 6533SOL    HW231059   0.638   3.775   2.193  0.1935  0.7715  0.1102
 6534SOL     OW31060   3.644   0.753   4.771  0.2312 -0.7285  0.0011
 6534SOL    HW131061   3.570   0.776   4.827  1.1155  0.2697  0.7605
 6534SOL    HW231062   3.716   0.742   4.834  0.0914 -0.8631  0.1365
 6535SOL     OW31063   2.324   3.259   6.794  0.4583 -0.4433  0.2232
 6535SOL    HW131064   2.293   3.343   6.762  1.0711 -0.5780 -0.7387
 6535SOL    HW231065   2.242   3.227   6.832  0.6289  0.0961  1.0388
 6536SOL     OW31066   0.013   4.709  15.929  0.1412  0.4033 -0.1193
 6536SOL    HW131067   4.642   4.712  15.951  0.4507  2.3324  0.9910
 6536SOL    HW231068   0.038   0.035  16.008  1.1168 -2.3369  1.2561
 6537SOL     OW31069   0.619   2.978  14.525 -0.4048  0.2942  0.1655
 6537SOL    HW131070   0.536   2.972  14.573  0.7367 -0.0875  2.0865
 6537SOL    HW231071   0.676   2.974  14.601 -0.7845 -1.6937  0.3630
 6538SOL     OW31072   2.653   0.253   4.542 -0.2053 -0.1536 -0.2514
 6538SOL    HW131073   2.664   0.312   4.468  0.0018 -1.1054 -0.9739
 6538SOL    HW231074   2.582   0.197   4.510 -0.0717  1.0869 -2.6692
 6539SOL     OW31075   0.418   4.404   3.838 -0.6779 -0.4281  0.5293
 6539SOL    HW131076   0.463   4.333   3.884 -0.3179 -0.8169 -0.4126
 6539SOL    HW231077   0.336   4.402   3.888 -0.9189  1.0666  0.1987
 6540SOL     OW31078   1.716   3.523   9.303 -1.0520  0.0066 -0.0555
 6540SOL    HW131079   1.687   3.540   9.392 -1.0109  1.4723 -0.3114
 6540SOL    HW231080   1.672   3.439   9.292 -2.3001  0.5489  0.8475
 6541SOL     OW31081   1.523   1.981   6.804  0.0150 -0.4425 -0.2623
 6541SOL    HW131082   1.429   1.987   6.822 -0.0012  0.6286 -0.6638
 6541SOL    HW231083   1.553   2.071   6.820  1.0460 -1.1492  1.6964
 6542SOL     OW31084   2.747   3.157   3.914 -0.2084  0.2375 -0.1013
 6542SOL    HW131085   2.686   3.199   3.854 -0.1246  2.1004  1.1027
 6542SOL    HW231086   2.803   3.105   3.857 -0.7260  0.9800 -1.2812
 6543SOL     OW31087   0.391   0.520   3.146 -0.2499 -0.2469  0.0172
 6543SOL    HW131088   0.371   0.528   3.052  0.9351  1.9039 -0.0553
 6543SOL    HW231089   0.313   0.550   3.193  1.5403  1.7298  1.7432
 6544SOL     OW31090   2.256   1.467  10.620 -0.0818  0.1090 -0.0644
 6544SOL    HW131091   2.285   1.542  10.672  1.4080  1.4155 -2.7733
 6544SOL    HW231092   2.238   1.503  10.532 -1.4101  1.2193  0.6544
 6545SOL     OW31093   4.196   1.609   8.629 -0.2782  0.0645  0.3348
 6545SOL    HW131094   4.144   1.568   8.560 -3.3045  0.9985  2.0516
 6545SOL    HW231095   4.123   1.635   8.686 -2.6631 -1.1434 -2.1878
 6546SOL     OW31096   2.023   4.339   8.254 -0.2875  0.4447  0.3146
 6546SOL    HW131097   2.023   4.417   8.309 -2.8130 -0.3788  1.4538
 6546SOL    HW231098   1.967   4.377   8.186 -0.2637 -2.9084 -1.5806
 6547SOL     OW31099   2.093   2.474   6.921  0.1959 -0.4469 -0.5604
 6547SOL    HW131100   2.081   2.558   6.876 -0.3161  0.4868  1.3305
 6547SOL    HW231101   2.186   2.475   6.944 -0.8051 -2.2400  3.5361
 6548SOL     OW31102   1.030   2.004   2.792 -0.4352 -0.0149 -0.5037
 6548SOL    HW131103   1.083   2.061   2.737  1.5974 -2.5300 -1.1533
 6548SOL    HW231104   0.946   2.045   2.774  0.2796  1.5195 -0.3618
 6549SOL     OW31105   3.533   0.291   7.604 -0.2375  0.1874 -0.5384
 6549SOL    HW131106   3.600   0.230   7.572 -0.2924 -1.0483  1.7066
 6549SOL    HW231107   3.487   0.320   7.526 -1.2949  0.7087  0.2805
 6550SOL     OW31108   2.060   3.486   3.273  0.2884 -0.5155 -0.3671
 6550SOL    HW131109   2.000   3.412   3.271 -1.4367  0.9185 -2.2433
 6550SOL    HW231110   2.005   3.565   3.279 -0.8790 -1.1214 -3.4470
 6551SOL     OW31111   3.992   3.689   0.259 -0.3071  0.4206 -0.0580
 6551SOL    HW131112   4.028   3.667   0.346  0.0750  0.5436 -0.1843
 6551SOL    HW231113   4.000   3.606   0.214 -1.0104 -0.8836  2.2169
 6552SOL     OW31114   1.659   4.152   4.787  0.2389 -0.3472  0.1616
 6552SOL    HW131115   1.742   4.143   4.741  0.8678 -0.9712  1.4409
 6552SOL    HW231116   1.592   4.180   4.724 -0.7291 -2.1531  0.3907
 6553SOL     OW31117   0.523   3.356   8.062  0.0500 -0.0703  0.6956
 6553SOL    HW131118   0.599   3.409   8.039 -0.5624  1.3856  2.0598
 6553SOL    HW231119   0.479   3.338   7.979  0.2339  0.3553  0.5050
 6554SOL     OW31120   0.260   1.882   4.957 -0.0176  0.2413  0.0551
 6554SOL    HW131121   0.171   1.910   4.978 -0.3194  0.1672 -1.1416
 6554SOL    HW231122   0.246   1.787   4.962  3.7917 -0.3058 -0.3524
 6555SOL     OW31123   4.121   1.046   9.952  0.0070 -0.2076 -0.3232
 6555SOL    HW131124   4.051   1.004  10.003 -0.4519  0.8293 -0.0871
 6555SOL    HW231125   4.196   1.057  10.011 -1.1921 -0.9733  1.3640
 6556SOL     OW31126   1.653   3.282  15.081  0.0642  0.2384  0.4772
 6556SOL    HW131127   1.710   3.259  15.155 -2.6990 -2.3501  1.7968
 6556SOL    HW231128   1.587   3.213  15.084 -2.1613  2.3838  0.1714
 6557SOL     OW31129   1.119   0.842  16.678  0.6708 -1.1627  0.0802
 6557SOL    HW131130   1.206   0.837  16.716  1.0036 -1.8042 -0.7688
 6557SOL    HW231131   1.108   0.937  16.684  1.0311 -1.1789  0.9906
 6558SOL     OW31132   3.952   2.944  13.615 -0.0675 -0.2509  0.1957
 6558SOL    HW131133   4.042   2.926  13.642  0.8332  0.7110 -2.1400
 6558SOL    HW231134   3.925   3.032  13.639  0.8029 -0.0719  0.4959
 6559SOL     OW31135   0.248   4.716   4.438 -0.0463 -0.5865 -0.0641
 6559SOL    HW131136   0.238   0.042   4.520  2.5577 -0.9611  0.4437
 6559SOL    HW231137   0.329   0.023   4.397  0.2153 -1.6549 -0.3025
 6560SOL     OW31138   3.139   2.329   5.586  0.0825 -0.5275  0.0541
 6560SOL    HW131139   3.122   2.422   5.571  0.7120 -0.5207 -0.6041
 6560SOL    HW231140   3.106   2.298   5.502  1.8340 -1.4047 -0.3186
 6561SOL     OW31141   2.453   1.188   4.952 -0.0495 -0.8566 -0.2732
 6561SOL    HW131142   2.491   1.270   4.985  0.7923 -1.1751 -0.4540
 6561SOL    HW231143   2.403   1.157   5.027  0.5421  1.2404  0.9996
 6562SOL     OW31144   1.525   3.335   7.359 -0.4450  0.1117  0.2956
 6562SOL    HW131145   1.589   3.295   7.417 -0.3886 -0.7423 -0.3579
 6562SOL    HW231146   1.578   3.401   7.314 -0.5756  0.0079 -0.0074
 6563SOL     OW31147   1.386   2.380  11.619  0.0219  0.8450  0.3830
 6563SOL    HW131148   1.315   2.422  11.570  0.0819 -0.3564 -0.7278
 6563SOL    HW231149   1.462   2.433  11.593 -0.9384  1.5903 -0.8887
 6564SOL     OW31150   1.619   0.238  16.453  0.2424 -0.2289  0.0446
 6564SOL    HW131151   1.692   0.275  16.502  0.1737  1.3037 -1.0266
 6564SOL    HW231152   1.556   0.310  16.443  0.2536 -0.1652  0.4425
 6565SOL     OW31153   0.387   2.580   4.898  0.1243  0.1038 -0.0901
 6565SOL    HW131154   0.471   2.590   4.852  0.7401 -1.4657  0.7261
 6565SOL    HW231155   0.327   2.639   4.851  0.8427  1.5040  0.7471
 6566SOL     OW31156   3.162   3.781   5.711 -0.2175 -0.3419 -0.2578
 6566SOL    HW131157   3.138   3.869   5.680  0.9166 -0.4666 -1.4864
 6566SOL    HW231158   3.186   3.740   5.628 -0.2832 -0.5220 -0.1869
 6567SOL     OW31159   1.450   0.743   5.076  0.5403  0.0845 -0.5845
 6567SOL    HW131160   1.507   0.819   5.067 -1.3995  1.6989  1.0550
 6567SOL    HW231161   1.407   0.746   5.161  0.7842 -1.5358 -0.4025
 6568SOL     OW31162   3.634   3.174   5.613  0.0952 -0.3788  0.1928
 6568SOL    HW131163   3.640   3.188   5.708  0.7886 -1.6895  0.3511
 6568SOL    HW231164   3.718   3.203   5.578 -0.4275 -0.9567 -1.5469
 6569SOL     OW31165   0.184   0.944   3.512 -0.1810 -0.2885 -0.1894
 6569SOL    HW131166   0.150   0.860   3.541  1.3954  0.0156  2.5786
 6569SOL    HW231167   0.104   0.996   3.500 -2.2047 -3.5643 -0.7880
 6570SOL     OW31168   1.901   0.973  16.335  0.0180  0.5057  1.0688
 6570SOL    HW131169   1.987   1.009  16.312 -0.9011  0.7077 -2.0147
 6570SOL    HW231170   1.912   0.964  16.430 -0.1718 -0.2376  1.0224
 6571SOL     OW31171   1.511   1.232   3.264  0.2686  0.2296  0.6785
 6571SOL    HW131172   1.502   1.279   3.181 -1.8193 -1.3291  0.0377
 6571SOL    HW231173   1.498   1.140   3.243 -0.9709  0.3534  0.9402
 6572SOL     OW31174   3.735   4.619   0.193  0.1172  0.0444 -0.1412
 6572SOL    HW131175   3.661   4.677   0.178 -0.6831 -1.1352 -0.7688
 6572SOL    HW231176   3.684   4.544   0.222  0.9304 -0.4641 -0.0243
 6573SOL     OW31177   3.836   1.600   7.475  0.1108  0.1728  0.8189
 6573SOL    HW131178   3.830   1.690   7.507 -1.9602  0.5544 -0.6288
 6573SOL    HW231179   3.923   1.588   7.438 -0.6129 -1.3557 -0.3533
 6574SOL     OW31180   4.154   2.049   3.677  0.1475  0.2966 -0.1175
 6574SOL    HW131181   4.168   2.092   3.761 -1.0100 -0.6820  0.5623
 6574SOL    HW231182   4.187   1.960   3.688 -0.6999  0.1755  1.3077
 6575SOL     OW31183   1.844   1.147   1.512 -0.0609 -0.0324 -0.6162
 6575SOL    HW131184   1.750   1.160   1.521  0.4761  1.0769  3.5735
 6575SOL    HW231185   1.882   1.214   1.569 -0.1121 -0.5457  0.0210
 6576SOL     OW31186   0.938   4.290   7.198 -0.5242 -0.0046  0.0819
 6576SOL    HW131187   0.944   4.351   7.272  0.1690  0.2123 -0.1448
 6576SOL    HW231188   0.961   4.200   7.220  0.7633  0.2976  0.0056
 6577SOL     OW31189   1.858   1.510  13.573 -0.3554  0.0528  0.1520
 6577SOL    HW131190   1.908   1.438  13.535  1.5053  0.8971  0.9824
 6577SOL    HW231191   1.924   1.550  13.629 -0.8717  1.9727 -0.5993
 6578SOL     OW31192   4.267   4.402   2.905  0.0193 -0.1215 -0.2732
 6578SOL    HW131193   4.352   4.362   2.888 -0.7940 -1.7943 -0.3587
 6578SOL    HW231194   4.230   4.336   2.964  1.0389 -0.1622  0.3128
 6579SOL     OW31195   4.110   2.226   5.809  0.2204  0.0836  0.3784
 6579SOL    HW131196   4.083   2.270   5.889  1.9189  1.4494  0.1878
 6579SOL    HW231197   4.200   2.251   5.792 -0.3417  0.8812 -1.4304
 6580SOL     OW31198   3.055   0.465  14.981  0.1963  0.1252  0.1039
 6580SOL    HW131199   3.050   0.370  14.969 -1.6317  0.2558 -0.1704
 6580SOL    HW231200   2.962   0.487  14.984 -0.3222 -2.3091  1.8848
 6581SOL     OW31201   4.033   4.519  16.074 -0.3663  0.0419 -0.3314
 6581SOL    HW131202   4.124   4.532  16.046 -0.5420  0.3461 -0.7640
 6581SOL    HW231203   4.020   4.592  16.135  3.1828 -1.1504  1.8929
 6582SOL     OW31204   1.386   1.645   2.392 -0.4934 -0.4562  0.4673
 6582SOL    HW131205   1.317   1.675   2.333  2.4644  2.4445 -1.5313
 6582SOL    HW231206   1.458   1.700   2.360  1.0895 -2.9089 -0.2250
 6583SOL     OW31207   2.715   0.756  11.819  0.5140 -0.4643  0.1932
 6583SOL    HW131208   2.790   0.753  11.760 -0.3038 -1.8714 -0.7860
 6583SOL    HW231209   2.759   0.761  11.904 -1.6451 -0.6644  1.3129
 6584SOL     OW31210   4.009   1.560   4.540  0.0036 -0.3175  0.2750
 6584SOL    HW131211   4.047   1.647   4.530  0.7682 -0.8013 -1.0846
 6584SOL    HW231212   3.942   1.582   4.605 -0.5882 -0.1835 -0.3704
 6585SOL     OW31213   2.520   1.261   1.795  0.5305 -0.0622  0.2577
 6585SOL    HW131214   2.582   1.329   1.766 -0.7564  1.6692  1.5679
 6585SOL    HW231215   2.440   1.313   1.798  1.0638  0.8905 -1.5545
 6586SOL     OW31216   2.086   1.139  11.809 -0.2297 -0.0083  0.4117
 6586SOL    HW131217   2.149   1.077  11.771 -0.1992 -0.2752  0.8944
 6586SOL    HW231218   2.062   1.197  11.738  0.1284  2.0986  2.0049
 6587SOL     OW31219   4.496   4.149  15.005  0.3716 -0.2540  0.1363
 6587SOL    HW131220   4.410   4.112  15.025  1.4325 -2.7831 -0.0175
 6587SOL    HW231221   4.527   4.106  14.926  1.2653 -0.8677  0.8149
 6588SOL     OW31222   0.815   2.239   2.129  0.3756 -0.7114  0.2025
 6588SOL    HW131223   0.813   2.330   2.160 -1.2107 -0.2724 -1.1767
 6588SOL    HW231224   0.724   2.237   2.102  0.8075 -1.6518 -1.1850
 6589SOL     OW31225   1.908   3.286   5.843 -0.1221  0.1634  0.2117
 6589SOL    HW131226   1.967   3.247   5.779  0.2298  0.9297  0.0658
 6589SOL    HW231227   1.959   3.254   5.917 -0.0788 -2.0172 -0.7771
 6590SOL     OW31228   0.349   1.907  11.852  0.1573 -0.0251  0.1046
 6590SOL    HW131229   0.309   1.961  11.784 -1.0180  0.5505  1.2428
 6590SOL    HW231230   0.417   1.867  11.798  0.9375  0.4320  0.7421
 6591SOL     OW31231   1.623   2.019  12.869 -0.4183 -0.4478  0.5679
 6591SOL    HW131232   1.686   2.004  12.939 -0.9253  1.1262  1.3688
 6591SOL    HW231233   1.583   2.100  12.902  0.9410  0.2142  0.5878
 6592SOL     OW31234   1.742   1.593  12.416 -0.6847  0.5299  0.3502
 6592SOL    HW131235   1.778   1.679  12.395  1.3564 -0.3024  0.4627
 6592SOL    HW231236   1.702   1.601  12.502 -0.9862  1.5137  0.1168
 6593SOL     OW31237   4.251   4.473  10.752 -0.6129  0.2613  0.2973
 6593SOL    HW131238   4.223   4.386  10.779 -2.0176  0.8466  0.7307
 6593SOL    HW231239   4.202   4.537  10.804  2.1995  2.6438  0.0283
 6594SOL     OW31240   4.529   3.863   2.260  0.0696 -0.7231 -0.5462
 6594SOL    HW131241   4.618   3.897   2.252 -0.3184  0.8599  1.8296
 6594SOL    HW231242   4.549   3.799   2.328 -2.9607 -2.1346 -1.0124
 6595SOL     OW31243   1.429   1.924   0.215  0.1232  0.5267 -0.1185
 6595SOL    HW131244   1.440   1.963   0.129  1.4789 -1.7860 -1.0047
 6595SOL    HW231245   1.399   1.999   0.266 -1.3307  0.0487 -0.2840
 6596SOL     OW31246   4.501   4.238  11.371 -0.3294  0.3706  0.2919
 6596SOL    HW131247   4.503   4.222  11.276 -0.3299 -1.9453  0.6952
 6596SOL    HW231248   4.424   4.196  11.408 -0.1321 -2.0910 -2.0850
 6597SOL     OW31249   3.804   3.009  12.258 -0.0576  0.0934  0.0669
 6597SOL    HW131250   3.725   3.063  12.254 -0.0323  0.0700 -0.7737
 6597SOL    HW231251   3.805   2.985  12.350  3.2975 -0.4153 -0.1091
 6598SOL     OW31252   2.374   0.696  15.172 -0.3012  0.1443  0.6988
 6598SOL    HW131253   2.363   0.613  15.218 -3.6493  0.8161  1.1430
 6598SOL    HW231254   2.283   0.708  15.146 -0.2528 -1.5977 -0.2586
 6599SOL     OW31255   4.308   2.191   2.831  0.0951 -0.3479 -0.2545
 6599SOL    HW131256   4.227   2.223   2.791  1.1855  1.0828 -1.3232
 6599SOL    HW231257   4.357   2.273   2.834 -1.1624  0.4220 -0.4959
 6600SOL     OW31258   0.259   3.859  13.544 -0.1532 -0.2249  0.4858
 6600SOL    HW131259   0.338   3.862  13.599  1.4562  1.7567 -1.9376
 6600SOL    HW231260   0.294   3.833  13.459  0.7465  0.0276  0.7739
 6601SOL     OW31261   4.282   1.561   8.975  0.3908  0.3716 -0.5133
 6601SOL    HW131262   4.224   1.485   8.988  1.1259  0.0665  1.0631
 6601SOL    HW231263   4.218   1.629   8.996 -0.7604 -1.2612  1.3292
 6602SOL     OW31264   1.174   0.990  15.951  0.1745  0.1913  0.2524
 6602SOL    HW131265   1.203   1.025  15.866 -1.3092 -0.8741 -0.6893
 6602SOL    HW231266   1.164   0.897  15.931 -1.3370  0.4946 -0.3974
 6603SOL     OW31267   2.460   1.026   6.639 -0.0036 -0.4832  0.6503
 6603SOL    HW131268   2.447   1.120   6.633  3.7017 -0.0119 -0.0704
 6603SOL    HW231269   2.529   1.023   6.705  1.1659 -2.1014 -0.6326
 6604SOL     OW31270   3.894   0.379  15.508  0.0295  0.1268  0.0592
 6604SOL    HW131271   3.851   0.295  15.491  1.6146 -0.6002 -0.3852
 6604SOL    HW231272   3.957   0.381  15.436  1.2742  0.2963  1.1423
 6605SOL     OW31273   2.182   2.488   8.545 -0.1394 -0.9032 -0.1827
 6605SOL    HW131274   2.161   2.448   8.630  0.9909 -0.2140  0.4255
 6605SOL    HW231275   2.145   2.425   8.483 -2.9430  0.7406 -0.1767
 6606SOL     OW31276   2.697   2.777   6.769  0.4082 -0.3333 -0.1710
 6606SOL    HW131277   2.669   2.750   6.857  0.3486  4.0899  1.1833
 6606SOL    HW231278   2.786   2.805   6.791  0.3567  1.3193 -2.1395
 6607SOL     OW31279   3.463   3.996  15.403  0.2244 -0.2693 -0.1818
 6607SOL    HW131280   3.489   4.042  15.482  0.5473 -0.1809 -0.3435
 6607SOL    HW231281   3.403   3.928  15.436 -0.7284  0.4808 -0.3853
 6608SOL     OW31282   0.531   0.546   6.407  0.0479 -0.7996 -0.0558
 6608SOL    HW131283   0.491   0.627   6.438  1.4669 -0.2589  0.3773
 6608SOL    HW231284   0.609   0.581   6.365 -0.6354 -0.6665 -1.1972
 6609SOL     OW31285   2.800   0.267   0.198  0.1481  0.0485 -0.1268
 6609SOL    HW131286   2.880   0.220   0.224  0.6669  1.4660  0.8259
 6609SOL    HW231287   2.844   0.316   0.129  0.5821  0.0550  0.1511
 6610SOL     OW31288   0.840   1.670   7.680  0.2370 -0.1847 -0.3037
 6610SOL    HW131289   0.745   1.669   7.669  0.5280  0.8973 -2.8882
 6610SOL    HW231290   0.860   1.721   7.602  0.4043 -0.3815 -0.3899
 6611SOL     OW31291   2.516   3.610  12.042  0.0857 -0.3909  0.1849
 6611SOL    HW131292   2.453   3.538  12.040 -0.5979  0.2371 -0.4886
 6611SOL    HW231293   2.531   3.607  12.136 -0.0248  0.0056  0.2126
 6612SOL     OW31294   2.767   1.384   3.672 -0.3078 -0.0492 -0.1148
 6612SOL    HW131295   2.854   1.355   3.701 -1.3950 -1.4602  1.7249
 6612SOL    HW231296   2.727   1.302   3.702 -1.5454  0.3240 -0.7500
 6613SOL     OW31297   1.284   1.794  10.967 -0.1198 -0.3957  0.4970
 6613SOL    HW131298   1.342   1.727  11.002 -0.3649 -1.7737 -1.7294
 6613SOL    HW231299   1.227   1.739  10.913  0.2629 -1.0697  0.7901
 6614SOL     OW31300   0.894   1.029  12.117  0.3607  0.4247 -0.3966
 6614SOL    HW131301   0.814   0.980  12.099  0.3333  0.1531  0.4375
 6614SOL    HW231302   0.951   1.008  12.043  1.2955 -1.2806  0.7834
 6615SOL     OW31303   2.756   1.737   5.256  0.1351 -0.2139  0.2241
 6615SOL    HW131304   2.721   1.815   5.213  0.8044 -0.0538 -0.0352
 6615SOL    HW231305   2.804   1.694   5.185 -0.3052 -1.5546  0.7404
 6616SOL     OW31306   0.053   1.715   9.724 -0.6008 -0.2082  0.2563
 6616SOL    HW131307   0.067   1.629   9.764  1.8626  0.0285 -0.1528
 6616SOL    HW231308   0.124   1.722   9.661  0.3430 -0.1969  1.3245
 6617SOL     OW31309   3.353   1.803   9.626  0.7302 -0.4267  0.6284
 6617SOL    HW131310   3.396   1.844   9.551  1.6677 -2.6151 -0.0443
 6617SOL    HW231311   3.342   1.715   9.589 -1.4832  0.9324 -1.9766
 6618SOL     OW31312   4.075   2.262   2.706 -0.0878 -0.2978 -0.1349
 6618SOL    HW131313   4.068   2.201   2.633  1.8280  1.1702 -1.5856
 6618SOL    HW231314   4.090   2.342   2.655 -1.0851  1.3748  2.1987
 6619SOL     OW31315   4.129   1.595  13.483  0.4351 -0.3345  0.2438
 6619SOL    HW131316   4.076   1.648  13.423  2.1319  1.2278  0.1053
 6619SOL    HW231317   4.159   1.666  13.540  0.3913  1.6556 -2.2005
 6620SOL     OW31318   1.387   0.450   0.872  0.2079  0.4148 -0.3853
 6620SOL    HW131319   1.318   0.507   0.839 -0.4516 -0.0143  0.2547
 6620SOL    HW231320   1.362   0.441   0.964  3.5329  0.4486  0.5165
 6621SOL     OW31321   2.953   0.028   6.486  0.2709  0.1168 -0.5784
 6621SOL    HW131322   2.941   4.697   6.565  1.1136 -2.2310 -2.0541
 6621SOL    HW231323   2.961   4.683   6.420 -0.8658  0.3272 -0.9383
 6622SOL     OW31324   0.261   0.949  12.995  0.3038 -0.0800 -0.2818
 6622SOL    HW131325   0.264   0.994  12.910  0.4838  1.1212  0.3503
 6622SOL    HW231326   0.349   0.968  13.027 -0.8294  1.4203  1.9129
 6623SOL     OW31327   3.790   0.921   2.185  0.2620 -0.1074 -0.3223
 6623SOL    HW131328   3.763   0.831   2.205  0.4648 -0.3549 -1.1881
 6623SOL    HW231329   3.865   0.929   2.245 -0.2470 -1.9946  0.5550
 6624SOL     OW31330   2.502   3.084   8.080 -0.3494 -0.2065  0.5256
 6624SOL    HW131331   2.550   3.106   8.000  0.3090  2.9092  1.7763
 6624SOL    HW231332   2.573   3.090   8.144 -0.1332 -3.8869  0.6660
 6625SOL     OW31333   1.772   1.298   4.356 -0.2326 -0.1961  0.3645
 6625SOL    HW131334   1.848   1.307   4.299 -2.5945  0.7096 -2.6364
 6625SOL    HW231335   1.773   1.375   4.412  1.5777 -0.2823  0.4302
 6626SOL     OW31336   3.633   4.331   2.943 -0.1485  0.2940 -0.4678
 6626SOL    HW131337   3.687   4.253   2.930  2.6406  2.1945 -0.4777
 6626SOL    HW231338   3.636   4.377   2.859  2.0049 -0.7450 -0.9632
 6627SOL     OW31339   3.658   3.154  15.130 -0.5142  0.6954  0.1734
 6627SOL    HW131340   3.596   3.083  15.149 -1.7473  2.1372  1.6174
 6627SOL    HW231341   3.676   3.150  15.036  0.5340 -1.5262  0.4669
 6628SOL     OW31342   1.551   2.315   5.104 -0.2344 -0.4172  0.7822
 6628SOL    HW131343   1.595   2.238   5.068  0.5449 -0.0604  0.9794
 6628SOL    HW231344   1.522   2.282   5.189  1.9264  0.4124  1.8450
 6629SOL     OW31345   0.284   2.625  13.378  0.0365 -0.0062  0.0976
 6629SOL    HW131346   0.341   2.611  13.302  1.0888  0.4302  0.8025
 6629SOL    HW231347   0.269   2.532  13.399 -1.2241 -0.0757 -1.1559
 6630SOL     OW31348   0.897   4.209   0.740 -0.0456 -0.2223 -0.4270
 6630SOL    HW131349   0.910   4.303   0.758  2.3255 -0.5718 -0.2667
 6630SOL    HW231350   0.988   4.181   0.728 -0.6461 -2.0317 -0.6467
 6631SOL     OW31351   1.392   4.532   8.237 -0.1946 -0.2085  0.4153
 6631SOL    HW131352   1.326   4.463   8.230 -0.0723 -0.3342  0.5013
 6631SOL    HW231353   1.367   4.607   8.183 -0.9836 -0.3094  0.6375
 6632SOL     OW31354   4.243   1.401   4.498 -0.2191 -0.0846 -0.2512
 6632SOL    HW131355   4.311   1.449   4.546 -0.4799  0.4041 -0.3647
 6632SOL    HW231356   4.169   1.453   4.529 -2.2436 -2.2361 -1.5030
 6633SOL     OW31357   2.487   3.168   5.290 -0.5104 -0.3902 -0.5891
 6633SOL    HW131358   2.503   3.082   5.329 -1.1594 -0.0447  0.4290
 6633SOL    HW231359   2.497   3.147   5.197 -0.6905  4.2068 -1.6271
 6634SOL     OW31360   4.702   2.860   4.543  0.3303 -0.2079 -0.2868
 6634SOL    HW131361   4.713   2.950   4.513 -0.3339 -0.5051 -1.3911
 6634SOL    HW231362   4.700   2.814   4.459  0.6790 -1.7788  0.5564
 6635SOL     OW31363   4.283   3.211   2.531  0.2419 -0.8456 -0.3562
 6635SOL    HW131364   4.271   3.148   2.602 -0.5671 -0.8428 -0.4932
 6635SOL    HW231365   4.253   3.163   2.454  1.2496 -3.7098  1.0486
 6636SOL     OW31366   3.653   4.535   4.982  0.3587  0.1446 -0.3511
 6636SOL    HW131367   3.656   4.630   4.998  0.4816  0.0415  0.2254
 6636SOL    HW231368   3.699   4.515   4.901  0.2346  1.1650 -0.6808
 6637SOL     OW31369   3.587   3.944   8.883  0.7526 -0.0328 -0.1016
 6637SOL    HW131370   3.638   4.024   8.897 -0.7097  1.4646 -3.2927
 6637SOL    HW231371   3.546   3.962   8.799  0.9638 -2.2124 -0.6520
 6638SOL     OW31372   1.190   3.490   6.823 -0.1797 -0.5693 -0.6888
 6638SOL    HW131373   1.143   3.535   6.753 -0.1509 -0.4646 -0.6396
 6638SOL    HW231374   1.208   3.411   6.770  0.6090 -1.3156  0.6866
 6639SOL     OW31375   1.065   4.393  16.365 -0.1879  0.0411 -0.3057
 6639SOL    HW131376   1.037   4.461  16.303 -0.4066 -0.4385 -0.7369
 6639SOL    HW231377   1.114   4.346  16.297  0.6812  0.6960 -0.1337
 6640SOL     OW31378   4.086   4.492  16.845  0.0473  0.0874 -0.1594
 6640SOL    HW131379   4.108   4.433  16.917 -4.0885  1.6735  2.3719
 6640SOL    HW231380   4.140   4.456  16.774 -0.0960  0.7169 -0.5860
 6641SOL     OW31381   3.972   3.974   2.501  0.0909 -0.0471  0.3279
 6641SOL    HW131382   3.893   3.978   2.555 -0.8106 -1.0341 -0.9238
 6641SOL    HW231383   3.935   3.978   2.412  2.7532  1.9863 -0.7115
 6642SOL     OW31384   0.059   1.772   8.250  0.2880 -0.1474  0.0899
 6642SOL    HW131385   0.057   1.710   8.322 -1.5835 -2.2982 -1.8197
 6642SOL    HW231386   0.122   1.836   8.284 -0.3764  1.1741 -1.1729
 6643SOL     OW31387   1.099   3.186  12.565 -0.5058  0.2355 -0.1141
 6643SOL    HW131388   1.081   3.248  12.636 -3.8287 -0.6176 -0.2384
 6643SOL    HW231389   1.019   3.196  12.513 -1.0872 -2.2490  0.3027
 6644SOL     OW31390   0.740   2.900   7.176  0.3199 -0.1949  0.0362
 6644SOL    HW131391   0.828   2.867   7.197  0.0324  0.6758  2.5605
 6644SOL    HW231392   0.724   2.930   7.265  0.0712  1.0802 -0.4390
 6645SOL     OW31393   0.230   2.898  11.142  0.6520 -0.1471 -0.0866
 6645SOL    HW131394   0.266   2.975  11.098 -1.0060  1.0314  0.6035
 6645SOL    HW231395   0.305   2.887  11.202  1.6712 -2.3937 -1.7826
 6646SOL     OW31396   3.149   1.494   2.393  0.3315 -0.1528 -0.2033
 6646SOL    HW131397   3.067   1.541   2.409  0.0426 -0.5027 -0.6322
 6646SOL    HW231398   3.182   1.557   2.329 -0.9546  0.5244 -0.2125
 6647SOL     OW31399   3.219   0.257   2.898 -0.0770 -0.2176 -0.1236
 6647SOL    HW131400   3.218   0.297   2.985  0.4173  1.0156 -0.6835
 6647SOL    HW231401   3.169   0.177   2.912  0.2375 -0.3514  0.2508
 6648SOL     OW31402   2.720   1.360   5.305  0.5183  0.2967  0.0724
 6648SOL    HW131403   2.695   1.279   5.262  1.2560 -0.5637  1.2515
 6648SOL    HW231404   2.814   1.362   5.322  0.7794 -1.4292 -1.2557
 6649SOL     OW31405   0.438   2.268  16.051 -0.2950  0.4758  0.0822
 6649SOL    HW131406   0.503   2.209  16.013  0.3503  1.5363 -0.4527
 6649SOL    HW231407   0.395   2.289  15.968 -1.5426  0.2605  0.6782
 6650SOL     OW31408   0.928   2.309   7.776 -0.3039  0.1951 -0.2536
 6650SOL    HW131409   0.914   2.288   7.868 -0.5316 -0.4508 -0.4379
 6650SOL    HW231410   0.842   2.321   7.737  1.2435  2.4924 -3.0409
 6651SOL     OW31411   1.592   2.725   8.420 -0.4326 -0.3643 -0.1041
 6651SOL    HW131412   1.555   2.809   8.448 -1.7646 -1.0153  0.1244
 6651SOL    HW231413   1.521   2.665   8.444  0.7090 -1.8402 -0.4977
 6652SOL     OW31414   4.598   3.762   9.812 -0.0038  0.1384  0.5711
 6652SOL    HW131415   4.560   3.674   9.805  1.1492 -0.1481 -2.2748
 6652SOL    HW231416   4.670   3.738   9.869  2.0420  2.5489 -1.0128
 6653SOL     OW31417   4.092   2.144   7.102  0.2716  0.0418 -0.4717
 6653SOL    HW131418   4.043   2.147   7.185  0.4279 -2.7447 -0.2907
 6653SOL    HW231419   4.173   2.188   7.130 -0.1179 -0.6734  1.7549
 6654SOL     OW31420   3.267   0.529  13.573  0.1430 -0.2667 -0.0513
 6654SOL    HW131421   3.173   0.521  13.558  0.4110 -2.1457 -0.7396
 6654SOL    HW231422   3.281   0.447  13.619 -1.6982 -0.7692 -0.3663
 6655SOL     OW31423   4.450   1.768   7.431 -0.0340 -0.2956 -0.2315
 6655SOL    HW131424   4.484   1.748   7.518 -1.5831 -0.3876  0.3489
 6655SOL    HW231425   4.390   1.838   7.456 -0.3454 -0.0664 -1.6375
 6656SOL     OW31426   2.387   1.344   0.283  0.1337 -0.2549  0.7513
 6656SOL    HW131427   2.351   1.394   0.210 -1.6878  2.0421  3.2463
 6656SOL    HW231428   2.448   1.294   0.227 -0.3632  1.0871 -0.9973
 6657SOL     OW31429   0.003   4.240  16.425  0.3170  0.2873  0.6910
 6657SOL    HW131430   4.650   4.198  16.465  0.0476 -2.1923 -2.4375
 6657SOL    HW231431   0.074   4.185  16.458  0.5970  0.0373 -0.3206
 6658SOL     OW31432   4.185   2.419   7.864  0.1302 -0.2310  0.5453
 6658SOL    HW131433   4.262   2.472   7.843 -0.9361  1.3117  0.4950
 6658SOL    HW231434   4.229   2.353   7.917  0.6552 -1.7283 -1.7416
 6659SOL     OW31435   3.774   1.639   4.247 -0.2625  0.2091 -0.9586
 6659SOL    HW131436   3.711   1.622   4.316 -0.8310  1.3793 -1.1776
 6659SOL    HW231437   3.761   1.734   4.254  1.3280  0.5516 -2.6860
 6660SOL     OW31438   1.595   3.167   4.043  0.4646 -0.2623 -0.3404
 6660SOL    HW131439   1.561   3.165   3.953  1.8413 -0.2916 -0.8635
 6660SOL    HW231440   1.571   3.254   4.073 -0.5606 -1.2583  1.7283
 6661SOL     OW31441   0.506   1.682  11.446 -0.0304 -0.5463  0.4711
 6661SOL    HW131442   0.585   1.665  11.393 -1.1379 -0.5038 -1.1911
 6661SOL    HW231443   0.428   1.654  11.398 -0.5330  2.1779 -0.2871
 6662SOL     OW31444   1.311   2.546  11.178 -0.3340 -0.1795 -0.4593
 6662SOL    HW131445   1.247   2.617  11.186  3.1754  3.1550 -2.0711
 6662SOL    HW231446   1.259   2.465  11.177 -1.2779  0.4749 -3.5954
 6663SOL     OW31447   1.016   3.092   7.204 -0.0942 -0.2336  0.8257
 6663SOL    HW131448   1.089   3.046   7.245 -0.6222  0.1734  2.2068
 6663SOL    HW231449   0.955   3.101   7.276  1.3970  1.0376  1.9286
 6664SOL     OW31450   3.941   4.664   8.506 -0.4618  0.3524 -0.1124
 6664SOL    HW131451   3.849   4.638   8.513 -0.6683  0.5567 -2.0808
 6664SOL    HW231452   3.972   4.597   8.445 -2.2239 -0.8099  0.2571
 6665SOL     OW31453   2.715   0.463   3.418  0.0282 -0.1267  0.5504
 6665SOL    HW131454   2.741   0.556   3.420 -0.4060  0.0260 -1.2450
 6665SOL    HW231455   2.649   0.463   3.349  0.2543 -0.6945  0.3356
 6666SOL     OW31456   0.904   3.301  13.416 -0.2954  0.0992  0.4864
 6666SOL    HW131457   0.910   3.208  13.437  2.5805  0.3941  0.9491
 6666SOL    HW231458   0.815   3.321  13.445 -0.2837 -1.6926  1.7627
 6667SOL     OW31459   0.531   3.424   5.569  0.2623  0.8558  0.1082
 6667SOL    HW131460   0.467   3.428   5.640  1.5364  0.4446  1.2909
 6667SOL    HW231461   0.502   3.498   5.516 -0.2457  1.8382  1.7809
 6668SOL     OW31462   1.032   3.109   8.144  0.4198  0.2508  0.1060
 6668SOL    HW131463   1.024   3.197   8.109  1.7640  0.5315  0.4962
 6668SOL    HW231464   1.122   3.088   8.117 -0.4053 -3.1479 -0.0582
 6669SOL     OW31465   4.290   4.648  10.442 -0.2968  0.3660  0.2396
 6669SOL    HW131466   4.313   0.018  10.441  1.2575 -0.0256 -0.5790
 6669SOL    HW231467   4.194   4.650  10.443 -0.2447  2.3279  1.5036
 6670SOL     OW31468   3.395   4.665   6.010  0.3111 -0.5580 -0.1257
 6670SOL    HW131469   3.438   4.588   5.974  0.5325  0.0218 -1.0849
 6670SOL    HW231470   3.354   4.708   5.935 -4.1705 -1.2928  1.8929
 6671SOL     OW31471   3.351   0.874  13.502 -0.1311  0.1454  0.3283
 6671SOL    HW131472   3.377   0.960  13.534 -0.2033  0.8727 -1.5688
 6671SOL    HW231473   3.334   0.904  13.413 -0.1183 -0.3376  0.1668
 6672SOL     OW31474   3.071   3.442   1.406 -0.0575 -0.2353 -0.2182
 6672SOL    HW131475   3.143   3.383   1.430  0.0163 -0.7138 -1.6561
 6672SOL    HW231476   3.091   3.515   1.465 -0.1512 -1.9094  1.9171
 6673SOL     OW31477   2.735   0.558   2.785  0.1033  0.7526 -0.5721
 6673SOL    HW131478   2.729   0.614   2.863 -1.1729  0.9888 -0.8455
 6673SOL    HW231479   2.779   0.620   2.726  0.5172  0.2885 -0.7499
 6674SOL     OW31480   1.425   0.843   8.079  0.1929  0.2418  0.6306
 6674SOL    HW131481   1.428   0.788   8.001  0.2724  0.9844  0.1039
 6674SOL    HW231482   1.420   0.767   8.137 -1.8198 -0.0801  0.0252
 6675SOL     OW31483   2.701   3.930   6.197 -0.0129  0.0175  0.3894
 6675SOL    HW131484   2.765   3.964   6.135  1.0592  0.7238  1.8817
 6675SOL    HW231485   2.706   3.994   6.267  0.2902  1.0193 -0.5569
 6676SOL     OW31486   0.047   3.064   0.349  0.3494 -0.3363 -0.1284
 6676SOL    HW131487   0.068   3.157   0.342  2.4795 -0.8055  0.0133
 6676SOL    HW231488   4.722   3.059   0.431 -1.3826 -2.0852 -1.2384
 6677SOL     OW31489   3.064   3.011  14.261  0.2022  0.4337  0.2651
 6677SOL    HW131490   3.046   3.042  14.173 -0.2968  1.4729  0.7346
 6677SOL    HW231491   3.087   2.919  14.251 -1.7432  0.1227 -1.3117
 6678SOL     OW31492   0.619   2.463   7.154  0.2074 -0.0441 -0.1598
 6678SOL    HW131493   0.589   2.535   7.098 -0.2209  1.0905  1.5130
 6678SOL    HW231494   0.598   2.385   7.102 -2.9553 -0.1286  1.1973
 6679SOL     OW31495   1.631   1.289   8.970  0.0154 -0.2573  0.2383
 6679SOL    HW131496   1.649   1.371   9.015 -2.2550  1.3070 -1.6645
 6679SOL    HW231497   1.553   1.259   9.017  0.2217  0.7087  1.1869
 6680SOL     OW31498   2.184   4.299   6.359 -0.3857 -0.2687 -0.0174
 6680SOL    HW131499   2.182   4.303   6.264  0.2923 -0.3979 -0.0372
 6680SOL    HW231500   2.266   4.251   6.366  1.0990  2.4891  1.1590
 6681SOL     OW31501   1.970   1.852   3.076 -0.0113  0.0245  0.6475
 6681SOL    HW131502   1.890   1.893   3.042  0.6192  2.0655  1.6238
 6681SOL    HW231503   2.019   1.927   3.110  2.4459 -0.9892 -0.6453
 6682SOL     OW31504   0.499   3.637  11.839  0.3747  0.0216  0.2541
 6682SOL    HW131505   0.508   3.542  11.829  2.6320  0.2757 -0.0548
 6682SOL    HW231506   0.417   3.649  11.791 -0.0948  0.0842  1.0683
 6683SOL     OW31507   1.494   0.334   7.144  0.8674  0.6274  0.5234
 6683SOL    HW131508   1.438   0.303   7.215 -2.2216 -0.5789 -2.4696
 6683SOL    HW231509   1.535   0.251   7.119  1.3775  0.5670  1.5566
 6684SOL     OW31510   0.216   3.967   1.290 -0.0860 -0.4153 -0.0720
 6684SOL    HW131511   0.194   4.045   1.239  1.0362 -0.1113 -0.1090
 6684SOL    HW231512   0.130   3.946   1.324  0.1243 -0.8667  0.1844
 6685SOL     OW31513   0.304   2.142  12.075 -0.0126 -0.0845  0.1496
 6685SOL    HW131514   0.345   2.129  12.160  0.1396  0.0302  0.0939
 6685SOL    HW231515   0.264   2.055  12.067 -2.4878  1.1856 -1.0638
 6686SOL     OW31516   2.909   1.333   6.630  0.1352 -0.0872 -0.2251
 6686SOL    HW131517   2.929   1.305   6.541 -1.2146  1.6612 -1.0872
 6686SOL    HW231518   2.894   1.426   6.612  1.2068 -0.0528 -0.9243
 6687SOL     OW31519   4.507   3.012  14.834 -0.4995  0.2823  0.2387
 6687SOL    HW131520   4.452   3.081  14.870 -1.4373 -1.2771  1.8140
 6687SOL    HW231521   4.449   2.970  14.771  0.1265 -0.4204  0.1140
 6688SOL     OW31522   4.025   2.797   8.053  0.6308 -0.1276  0.1708
 6688SOL    HW131523   3.960   2.789   8.124  1.6096 -0.8433  0.9958
 6688SOL    HW231524   4.024   2.703   8.036 -0.4580 -0.3034  1.1414
 6689SOL     OW31525   2.345   4.340   8.783  0.4568 -0.1943  0.2681
 6689SOL    HW131526   2.390   4.418   8.814  1.3167  0.2861 -2.1363
 6689SOL    HW231527   2.378   4.267   8.835  0.6791 -0.6092 -0.4570
 6690SOL     OW31528   4.018   0.907   2.359  0.1320  0.4689  0.0366
 6690SOL    HW131529   3.972   0.902   2.443  1.9238 -2.1500  0.8701
 6690SOL    HW231530   4.034   0.814   2.344  0.4318  0.3522  1.0502
 6691SOL     OW31531   4.099   1.310   8.526  0.7268 -0.4217  0.3276
 6691SOL    HW131532   4.071   1.397   8.495  1.2434 -0.5635 -0.5366
 6691SOL    HW231533   4.032   1.293   8.593  0.0330 -2.8016 -0.9620
 6692SOL     OW31534   2.346   4.332   8.338  0.1606 -0.3804 -0.0440
 6692SOL    HW131535   2.382   4.416   8.367  1.5595 -2.2047  3.3532
 6692SOL    HW231536   2.362   4.284   8.419  0.4786 -0.5639 -0.2189
 6693SOL     OW31537   4.584   3.636  13.973  0.3682 -0.4027  0.0789
 6693SOL    HW131538   4.591   3.731  13.963 -0.4737 -0.4773 -1.3173
 6693SOL    HW231539   4.606   3.624  14.065  0.7071  0.7144  0.1440
 6694SOL     OW31540   2.967   0.444   6.441  0.1840 -0.1768 -0.0390
 6694SOL    HW131541   2.915   0.470   6.365 -0.9049 -0.7425  0.5179
 6694SOL    HW231542   2.922   0.371   6.484  1.1632 -0.5302  0.3932
 6695SOL     OW31543   4.047   4.494  12.895  0.6758 -0.5436 -0.3034
 6695SOL    HW131544   4.135   4.505  12.929 -0.9738  4.0062  2.3965
 6695SOL    HW231545   4.038   4.585  12.868 -1.5283 -0.4400  0.8157
 6696SOL     OW31546   3.641   1.367   4.960 -0.4354 -0.0318 -0.5712
 6696SOL    HW131547   3.591   1.305   5.013 -0.2877  0.6792  0.4043
 6696SOL    HW231548   3.697   1.306   4.913  0.6681 -1.0284  2.0468
 6697SOL     OW31549   2.016   0.595   7.304 -0.1536 -0.3457 -0.1272
 6697SOL    HW131550   1.964   0.672   7.327 -1.8262 -1.2197 -1.0135
 6697SOL    HW231551   2.101   0.640   7.298  0.6142 -1.8296 -0.2119
 6698SOL     OW31552   4.055   0.232   4.702 -0.0174 -0.6988 -0.0530
 6698SOL    HW131553   3.965   0.219   4.731 -0.5651  2.9375 -0.0856
 6698SOL    HW231554   4.045   0.314   4.653 -1.1478 -0.6136  0.3236
 6699SOL     OW31555   3.406   1.406   1.704 -0.2995  0.3073 -0.7453
 6699SOL    HW131556   3.407   1.471   1.775 -1.1395 -1.4100  0.8354
 6699SOL    HW231557   3.483   1.427   1.653  0.9341  0.5627  1.2222
 6700SOL     OW31558   1.415   2.294   4.138  0.6168 -0.4418  0.0303
 6700SOL    HW131559   1.436   2.275   4.046  1.3900  1.4559 -0.2035
 6700SOL    HW231560   1.496   2.262   4.178  1.5039  0.8970 -0.6694
 6701SOL     OW31561   1.815   1.011  11.653  0.0248 -0.4732  0.2759
 6701SOL    HW131562   1.849   1.036  11.738 -0.7277 -1.8590  0.9905
 6701SOL    HW231563   1.806   1.099  11.616  0.1379 -0.6882 -0.2673
 6702SOL     OW31564   0.175   2.559   2.773  0.5795  0.1949  0.6001
 6702SOL    HW131565   0.174   2.467   2.748 -0.7269 -0.6329  3.6772
 6702SOL    HW231566   0.219   2.605   2.702  3.2532  0.6122  2.5448
 6703SOL     OW31567   0.751   4.379  11.054 -0.2614  0.0233 -0.5596
 6703SOL    HW131568   0.676   4.355  11.108  0.6340 -0.7436  0.3597
 6703SOL    HW231569   0.746   4.472  11.079  1.3517 -0.5379  1.8630
 6704SOL     OW31570   0.113   4.548   7.256 -0.2055 -0.1586  0.2146
 6704SOL    HW131571   0.158   4.531   7.174 -0.4707  0.4857 -0.0646
 6704SOL    HW231572   0.025   4.565   7.222 -0.7773 -1.9057  0.8429
 6705SOL     OW31573   2.834   3.179  11.852 -0.2933 -0.0924  0.4283
 6705SOL    HW131574   2.739   3.194  11.857 -0.3502 -0.6840  1.1680
 6705SOL    HW231575   2.860   3.204  11.940  0.2614 -1.6963  0.7228
 6706SOL     OW31576   0.034   4.166   9.648  0.4769 -0.2116 -0.0710
 6706SOL    HW131577   4.700   4.123   9.712 -0.0788  2.0839  0.9815
 6706SOL    HW231578   0.001   4.149   9.560 -1.6619 -0.8720  0.8471
 6707SOL     OW31579   2.404   2.318   4.939  0.0283 -0.1341 -0.6414
 6707SOL    HW131580   2.325   2.296   4.890  0.1583 -3.5512  0.7054
 6707SOL    HW231581   2.474   2.312   4.874 -1.3445  1.6963 -2.2828
 6708SOL     OW31582   4.315   0.366   4.007 -0.4734  0.4032  0.6067
 6708SOL    HW131583   4.333   0.404   4.093 -0.1441 -2.2142  1.6942
 6708SOL    HW231584   4.300   0.274   4.029 -4.0302  1.1241  1.1110
 6709SOL     OW31585   3.076   1.564  10.602  0.0858  0.5707 -0.1760
 6709SOL    HW131586   3.150   1.624  10.616  1.2889 -0.7153 -1.0690
 6709SOL    HW231587   3.100   1.489  10.656  1.1299  0.9819 -0.0529
 6710SOL     OW31588   0.601   4.367  14.154 -0.4352  0.0488 -0.2017
 6710SOL    HW131589   0.607   4.271  14.160  0.4039  0.0970 -0.2696
 6710SOL    HW231590   0.505   4.375  14.155 -0.3792  0.4486  1.1107
 6711SOL     OW31591   2.435   4.172   6.480  0.5047 -0.2167  0.0600
 6711SOL    HW131592   2.529   4.184   6.469  0.5522  1.0443  1.7082
 6711SOL    HW231593   2.441   4.076   6.483 -2.8664 -0.3579  2.6121
 6712SOL     OW31594   4.261   2.340  10.833  0.0824 -0.2334 -0.0996
 6712SOL    HW131595   4.290   2.427  10.861  1.5436 -0.8715  0.3816
 6712SOL    HW231596   4.179   2.334  10.882 -0.1587 -1.7936 -0.6741
 6713SOL     OW31597   4.068   4.053   6.927 -0.1306 -0.5510  0.0504
 6713SOL    HW131598   3.984   4.041   6.970 -0.0063  0.5478  0.6013
 6713SOL    HW231599   4.080   3.966   6.890  0.8836  0.6345 -2.4040
 6714SOL     OW31600   3.781   0.561   3.250  0.9235 -0.0669  0.2471
 6714SOL    HW131601   3.815   0.485   3.202  0.0988 -0.7861  0.7969
 6714SOL    HW231602   3.839   0.563   3.325 -0.3206  2.2707  1.1448
 6715SOL     OW31603   1.051   3.734   1.045  0.2287 -0.2767 -0.3269
 6715SOL    HW131604   0.976   3.794   1.050  0.2122 -0.5186  2.0853
 6715SOL    HW231605   1.036   3.696   0.958  1.2281 -2.1622  0.3496
 6716SOL     OW31606   4.412   2.797   4.763  0.2459 -0.3836  0.4283
 6716SOL    HW131607   4.493   2.788   4.815  0.9044 -0.2023 -0.5673
 6716SOL    HW231608   4.353   2.819   4.835 -2.3043 -0.7263 -1.5948
 6717SOL     OW31609   1.610   2.378  13.219 -0.2065 -0.1018  0.4341
 6717SOL    HW131610   1.520   2.403  13.239  0.3507 -1.0338  4.1740
 6717SOL    HW231611   1.620   2.363  13.125  1.0359  1.4532  0.3243
 6718SOL     OW31612   0.761   3.587   3.086  0.1961  0.4436 -0.1897
 6718SOL    HW131613   0.706   3.597   3.163 -0.8229 -1.2941 -0.6911
 6718SOL    HW231614   0.797   3.675   3.074  0.6306  0.5169  1.7100
 6719SOL     OW31615   0.274   2.167   3.586 -0.1070 -0.0878  0.6108
 6719SOL    HW131616   0.215   2.147   3.513  0.0432  3.3080 -0.4188
 6719SOL    HW231617   0.243   2.110   3.657  2.6530 -1.1978  0.9310
 6720SOL     OW31618   2.409   3.550   1.755  0.2785  0.0240 -0.1759
 6720SOL    HW131619   2.500   3.542   1.725  0.3184 -2.9594  0.8035
 6720SOL    HW231620   2.430   3.601   1.833  1.0591 -1.3877  0.5396
 6721SOL     OW31621   1.327   2.945   6.565  0.2719 -0.2087  0.0558
 6721SOL    HW131622   1.392   2.975   6.628  1.1544 -0.2624 -0.8300
 6721SOL    HW231623   1.267   3.020   6.560 -0.7486 -1.2390 -3.2860
 6722SOL     OW31624   1.429   4.328   8.661  0.4504 -0.1421 -0.2520
 6722SOL    HW131625   1.505   4.324   8.719  0.2499  0.9486  0.0913
 6722SOL    HW231626   1.411   4.234   8.656  1.2963 -0.2641 -1.0270
 6723SOL     OW31627   3.693   1.519   8.423 -0.0987 -0.0800  0.1435
 6723SOL    HW131628   3.703   1.424   8.421  1.5012  0.0682  1.3652
 6723SOL    HW231629   3.643   1.537   8.343 -0.1113  1.3314  0.4690
 6724SOL     OW31630   2.076   0.947  17.012  0.0600  0.3181  0.4024
 6724SOL    HW131631   2.155   0.991  17.045 -1.2234  3.2705 -0.4540
 6724SOL    HW231632   2.014   0.988  17.072 -1.3491 -1.2766  0.0270
 6725SOL     OW31633   0.375   1.324   2.675 -0.9440  0.3913 -0.2135
 6725SOL    HW131634   0.468   1.315   2.693 -0.9251  1.5641  0.2804
 6725SOL    HW231635   0.357   1.234   2.703  1.2847 -0.3030 -1.0375
 6726SOL     OW31636   1.646   2.767  14.417 -0.3040  0.8084  0.5313
 6726SOL    HW131637   1.732   2.731  14.440  0.3284  0.1046 -2.8961
 6726SOL    HW231638   1.668   2.860  14.406 -1.4276  0.9075 -0.7994
 6727SOL     OW31639   2.014   3.494   6.376 -0.6697  0.3918  0.0071
 6727SOL    HW131640   2.033   3.587   6.393  0.6605  0.2222 -0.5390
 6727SOL    HW231641   2.037   3.493   6.283  1.2694  0.4925  0.4898
 6728SOL     OW31642   1.652   4.569   6.554  0.1053  0.3906 -0.2951
 6728SOL    HW131643   1.681   4.489   6.511 -0.2336 -0.8217  1.7123
 6728SOL    HW231644   1.660   4.538   6.644 -0.3737  1.3586  0.0834
 6729SOL     OW31645   2.006   0.916   7.341 -0.0689 -0.3501 -0.3519
 6729SOL    HW131646   1.974   1.005   7.357  0.5137 -0.3394  0.7840
 6729SOL    HW231647   1.921   0.877   7.319 -0.8498  1.5936 -0.8143
 6730SOL     OW31648   0.554   1.786   4.126  0.2236 -0.6695 -0.4606
 6730SOL    HW131649   0.538   1.768   4.034 -2.9757 -0.8464  0.1135
 6730SOL    HW231650   0.515   1.703   4.153  1.2544 -1.7815 -2.3744
 6731SOL     OW31651   4.434   2.451  17.062 -0.4455 -0.7781  0.4479
 6731SOL    HW131652   4.432   2.478  16.970  1.6188  0.2524  0.6857
 6731SOL    HW231653   4.485   2.521  17.103 -2.9117 -0.4751  2.9977
 6732SOL     OW31654   4.158   2.263   6.490 -0.1877  0.1883  0.8875
 6732SOL    HW131655   4.220   2.336   6.486 -0.5605  0.4106 -0.6806
 6732SOL    HW231656   4.148   2.254   6.585  2.7181  2.7103  1.4190
 6733SOL     OW31657   3.560   1.447   1.493  0.1073 -0.4784  0.2596
 6733SOL    HW131658   3.555   1.533   1.536 -0.9449 -0.5637  0.2992
 6733SOL    HW231659   3.549   1.463   1.399  0.7662 -0.1887  0.2276
 6734SOL     OW31660   3.862   0.192   8.634 -0.3090  0.4826 -0.0561
 6734SOL    HW131661   3.841   0.217   8.544 -0.4387 -2.0126 -0.7124
 6734SOL    HW231662   3.899   0.105   8.623 -0.4852  0.4411 -0.3329
 6735SOL     OW31663   1.305   2.477   1.883 -0.6673 -0.1390  0.0975
 6735SOL    HW131664   1.277   2.436   1.965 -0.8588 -1.7131 -0.7400
 6735SOL    HW231665   1.371   2.414   1.851  0.0725  1.0057 -0.6420
 6736SOL     OW31666   0.823   1.268   9.056 -0.3819  0.4006  0.2557
 6736SOL    HW131667   0.754   1.259   8.990  0.3977  0.5089 -0.5784
 6736SOL    HW231668   0.805   1.185   9.100 -0.1092 -1.2883 -2.7957
 6737SOL     OW31669   3.828   4.124   8.050 -0.5196  0.2132  0.0241
 6737SOL    HW131670   3.857   4.143   8.139 -0.0372 -0.3448 -0.0199
 6737SOL    HW231671   3.880   4.048   8.026  0.3511  0.3897  1.3446
 6738SOL     OW31672   0.493   4.081   8.187 -0.3358  0.1893  0.3047
 6738SOL    HW131673   0.443   4.079   8.106  0.4208  2.4318 -0.2122
 6738SOL    HW231674   0.468   3.993   8.217 -2.2748  0.7751  0.4120
 6739SOL     OW31675   0.221   4.700   7.986 -0.4220  0.3042 -0.0206
 6739SOL    HW131676   0.247   4.611   8.009 -0.2787  0.1977 -0.5916
 6739SOL    HW231677   0.177   4.680   7.903 -0.0804 -0.0718 -0.1138
 6740SOL     OW31678   3.098   4.037   2.042  0.8220  0.2240 -0.4018
 6740SOL    HW131679   3.129   4.046   2.132 -1.1928 -0.7358  0.3873
 6740SOL    HW231680   3.161   3.975   2.007  0.2479 -1.3470  1.3144
 6741SOL     OW31681   3.448   3.320  11.338 -0.1728 -0.0919  0.0826
 6741SOL    HW131682   3.523   3.367  11.374  0.0254 -1.4405  1.4352
 6741SOL    HW231683   3.404   3.275  11.410  0.5496  0.0141  0.5813
 6742SOL     OW31684   0.094   0.213   9.114  0.1856  0.3576  0.4925
 6742SOL    HW131685   0.115   0.182   9.202  2.2988 -0.6914 -0.3820
 6742SOL    HW231686   0.127   0.303   9.119 -1.2728  0.9620 -0.5503
 6743SOL     OW31687   2.651   1.371  14.397  0.0270  0.1117 -0.3941
 6743SOL    HW131688   2.671   1.462  14.374 -0.9244  0.2239 -0.7504
 6743SOL    HW231689   2.643   1.327  14.312  0.0189  0.3804 -0.5325
 6744SOL     OW31690   1.411   1.873   5.988  0.2616 -0.2877 -0.2779
 6744SOL    HW131691   1.489   1.924   5.964  0.1859  0.5906  1.3282
 6744SOL    HW231692   1.338   1.933   6.001  1.2583  1.2398 -1.6540
 6745SOL     OW31693   3.822   3.178   6.168  0.4019 -0.0767 -0.1789
 6745SOL    HW131694   3.902   3.168   6.220  0.2726 -1.6491 -0.2874
 6745SOL    HW231695   3.814   3.095   6.122 -0.4818  1.0502 -2.0765
 6746SOL     OW31696   3.344   1.009   0.658 -0.3124  0.1516 -0.6294
 6746SOL    HW131697   3.379   1.098   0.666  1.0507 -0.6159  1.9453
 6746SOL    HW231698   3.405   0.957   0.711 -3.1665 -0.5300  1.9590
 6747SOL     OW31699   4.427   1.608   3.703  0.3605  0.3508 -0.0792
 6747SOL    HW131700   4.482   1.600   3.781  1.9119 -1.5317 -1.3592
 6747SOL    HW231701   4.477   1.567   3.633  2.1460  1.8063  0.3353
 6748SOL     OW31702   0.366   3.663   5.180  0.2897 -0.5239  0.4788
 6748SOL    HW131703   0.275   3.675   5.205  0.6006  0.7681  0.9866
 6748SOL    HW231704   0.356   3.662   5.084 -2.3903 -0.0712  0.7577
 6749SOL     OW31705   0.793   2.198   8.986 -0.4063 -0.2609 -0.3280
 6749SOL    HW131706   0.741   2.262   8.937  0.0208  0.1610 -0.2392
 6749SOL    HW231707   0.845   2.159   8.915 -0.5285 -0.0072 -0.5555
 6750SOL     OW31708   2.050   3.179   6.868  0.1450  0.3942  0.7297
 6750SOL    HW131709   1.971   3.231   6.852  0.5575  1.1975  1.3070
 6750SOL    HW231710   2.037   3.137   6.953 -1.4353 -1.3574 -0.3698
 6751SOL     OW31711   1.160   0.164  16.406  0.1728  0.1106 -0.2389
 6751SOL    HW131712   1.190   0.251  16.380 -1.0518  0.2379 -1.2409
 6751SOL    HW231713   1.130   0.170  16.496  0.8175  1.4715 -0.1243
 6752SOL     OW31714   3.329   2.593  14.910 -0.2717  0.3760  0.0794
 6752SOL    HW131715   3.377   2.555  14.836 -0.9842 -1.6299  0.6439
 6752SOL    HW231716   3.237   2.597  14.883 -0.5262  0.6185  0.9898
 6753SOL     OW31717   2.648   4.518   5.735 -0.8662  0.2081 -0.0386
 6753SOL    HW131718   2.605   4.547   5.655 -1.6127 -0.9269 -0.0454
 6753SOL    HW231719   2.650   4.592   5.796  1.5590 -0.4325  0.6409
 6754SOL     OW31720   1.344   2.609   6.448  0.1543  0.2792  0.0670
 6754SOL    HW131721   1.308   2.667   6.515 -1.1393 -1.2402  0.6797
 6754SOL    HW231722   1.341   2.518   6.477 -1.4626  0.6030  0.9101
 6755SOL     OW31723   3.115   3.867   4.494 -0.0747 -0.2855  0.0492
 6755SOL    HW131724   3.163   3.891   4.415  0.1415  0.5387  0.4209
 6755SOL    HW231725   3.085   3.781   4.467  0.4045  0.2140 -2.0337
 6756SOL     OW31726   0.121   1.065   8.945 -0.1666 -0.0876 -0.5315
 6756SOL    HW131727   0.073   1.058   8.863  0.1444 -0.7693 -0.6538
 6756SOL    HW231728   0.050   1.081   9.007  0.0245 -1.2590 -0.0009
 6757SOL     OW31729   0.058   3.522   5.309 -0.3121  0.0207  0.1204
 6757SOL    HW131730   0.116   3.451   5.338  0.5434  1.1652  1.1599
 6757SOL    HW231731   0.018   3.564   5.385  0.4273 -0.3463  0.7148
 6758SOL     OW31732   3.659   2.521   8.467 -1.4693 -0.2091  0.7574
 6758SOL    HW131733   3.686   2.567   8.388  1.6874 -0.8356  1.4699
 6758SOL    HW231734   3.738   2.474   8.495  0.0818  2.9555  1.7240
 6759SOL     OW31735   0.153   1.126   4.624  0.0654  0.8255  0.8230
 6759SOL    HW131736   0.185   1.046   4.667  0.8003  0.0685 -1.1124
 6759SOL    HW231737   0.198   1.198   4.668  0.3486  1.1654 -0.0209
 6760SOL     OW31738   1.122   2.057   3.704 -0.7198 -0.3869 -0.7039
 6760SOL    HW131739   1.077   1.976   3.724  0.2039 -0.9795 -1.0073
 6760SOL    HW231740   1.157   2.084   3.789 -3.7644 -1.6574  0.9200
 6761SOL     OW31741   0.957   1.958   6.526  0.0262 -0.0207  0.3406
 6761SOL    HW131742   0.884   1.932   6.582  0.3217 -0.2698  0.6115
 6761SOL    HW231743   1.019   1.889   6.551 -1.3549 -1.2785  0.2696
 6762SOL     OW31744   3.750   2.214   2.609  0.3463  0.0443  0.1985
 6762SOL    HW131745   3.809   2.153   2.653  1.0213  0.4918 -0.0734
 6762SOL    HW231746   3.761   2.289   2.667 -2.3101 -0.8857  1.9042
 6763SOL     OW31747   0.037   4.270   8.168  0.0543 -0.2816 -0.3175
 6763SOL    HW131748   4.703   4.283   8.091 -1.4392  0.8679  0.9750
 6763SOL    HW231749   0.077   4.185   8.148 -0.7540 -0.7083 -0.1348
 6764SOL     OW31750   2.186   3.243  10.129 -0.2954 -0.2018  0.0385
 6764SOL    HW131751   2.154   3.235  10.039  1.9920 -3.8525 -0.4525
 6764SOL    HW231752   2.215   3.156  10.154  0.3607 -0.5014 -1.7859
 6765SOL     OW31753   0.299   0.543   9.519 -0.2764 -0.1239  0.2423
 6765SOL    HW131754   0.320   0.627   9.558  0.9303 -0.5211  0.4566
 6765SOL    HW231755   0.212   0.529   9.556 -0.4558  0.5173  0.0546
 6766SOL     OW31756   1.547   2.979   8.599 -0.0770  0.4799 -0.4266
 6766SOL    HW131757   1.631   3.013   8.568 -0.4418  1.5972 -0.1668
 6766SOL    HW231758   1.529   3.029   8.678  1.5463  1.3260 -0.5943
 6767SOL     OW31759   3.503   4.440   5.843 -0.0910  0.4679  0.0371
 6767SOL    HW131760   3.572   4.487   5.797 -0.4099 -1.5426 -2.4775
 6767SOL    HW231761   3.563   4.394   5.901 -0.8638  1.1724  1.4017
 6768SOL     OW31762   4.548   1.978   3.196  0.0514 -0.0752 -0.0053
 6768SOL    HW131763   4.484   1.962   3.127  1.8172  0.7634 -1.8205
 6768SOL    HW231764   4.494   1.988   3.275  1.0279  2.3870  0.3320
 6769SOL     OW31765   0.198   4.545   2.932  0.1543 -0.4606  0.0010
 6769SOL    HW131766   0.179   4.548   3.026 -1.1524  1.7797 -0.3262
 6769SOL    HW231767   0.185   4.454   2.907 -2.3164 -0.1871  0.2897
 6770SOL     OW31768   2.889   3.579   3.615 -0.5198  0.2013  0.3437
 6770SOL    HW131769   2.896   3.660   3.565 -2.7438 -0.7430 -1.4804
 6770SOL    HW231770   2.969   3.535   3.586  0.3728  1.6703  0.6182
 6771SOL     OW31771   0.297   3.538   7.533 -1.0673  0.4195  0.3345
 6771SOL    HW131772   0.292   3.503   7.444 -0.3267  1.7346 -0.2199
 6771SOL    HW231773   0.386   3.515   7.561 -0.7408  0.7213 -0.4451
 6772SOL     OW31774   1.617   0.568   4.672  0.3420 -0.0415  0.3019
 6772SOL    HW131775   1.641   0.585   4.581  0.1247  0.1629  0.2833
 6772SOL    HW231776   1.607   0.659   4.702  1.0475  1.0359 -2.7415
 6773SOL     OW31777   3.319   2.695  12.196  0.0218 -0.1449  0.3195
 6773SOL    HW131778   3.384   2.764  12.205  0.4943 -0.4947 -0.3981
 6773SOL    HW231779   3.249   2.725  12.139 -0.6262 -1.0581  0.6274
 6774SOL     OW31780   0.714   1.306   8.017 -0.2179 -0.2567 -0.1073
 6774SOL    HW131781   0.782   1.293   8.083 -1.1103  0.4202  0.9378
 6774SOL    HW231782   0.630   1.294   8.061 -0.7009  0.3957 -0.8527
 6775SOL     OW31783   2.530   3.103   6.515  0.4437 -0.2534  0.4122
 6775SOL    HW131784   2.503   3.112   6.424 -0.3934 -1.6961  0.5303
 6775SOL    HW231785   2.566   3.015   6.522  0.9746 -0.1173 -0.6464
 6776SOL     OW31786   0.472   3.462   3.196  0.2046 -0.0917 -0.0436
 6776SOL    HW131787   0.524   3.486   3.273 -1.0352  0.8625  0.4970
 6776SOL    HW231788   0.391   3.443   3.242  1.9347  0.7891  3.3766
 6777SOL     OW31789   4.318   1.841   6.511 -0.0481 -0.3960  0.7752
 6777SOL    HW131790   4.400   1.810   6.473 -0.4698  1.5491 -1.7199
 6777SOL    HW231791   4.312   1.931   6.480 -1.5350 -0.8999 -0.3873
 6778SOL     OW31792   2.097   1.950  16.516 -0.1643  0.9908 -0.3909
 6778SOL    HW131793   2.143   2.025  16.554  1.7055  0.4857 -1.6662
 6778SOL    HW231794   2.035   1.924  16.584 -1.1888  0.9992 -1.3211
 6779SOL     OW31795   0.124   4.030   3.663  0.4695  0.0068 -0.4882
 6779SOL    HW131796   0.179   4.086   3.608  1.1540  0.7667  0.9946
 6779SOL    HW231797   0.185   4.019   3.735  0.9323 -2.0128 -1.1821
 6780SOL     OW31798   4.518   3.410   0.706 -0.7356  0.0838  0.0588
 6780SOL    HW131799   4.464   3.413   0.785 -0.5487 -1.2229  0.2484
 6780SOL    HW231800   4.462   3.366   0.642 -0.3064  1.1468 -1.0384
 6781SOL     OW31801   4.522   3.262   7.814 -0.2112 -0.0959  0.4686
 6781SOL    HW131802   4.435   3.222   7.823 -1.2785  1.6733 -1.8634
 6781SOL    HW231803   4.501   3.355   7.813 -2.6233 -0.6407 -0.2692
 6782SOL     OW31804   0.953   3.220   9.966 -0.2190  0.3972 -0.2400
 6782SOL    HW131805   0.947   3.166  10.044  2.1701  1.9836  1.0261
 6782SOL    HW231806   0.973   3.303  10.009 -1.2149  0.0645  0.8465
 6783SOL     OW31807   1.075   2.371  16.525 -0.1048  0.7345 -0.3340
 6783SOL    HW131808   1.153   2.329  16.488 -0.0496  1.8266 -1.4866
 6783SOL    HW231809   1.045   2.423  16.450 -1.0052  1.3236  0.4296
 6784SOL     OW31810   0.877   3.159   7.440 -0.4686 -0.1616  0.2210
 6784SOL    HW131811   0.849   3.122   7.524  0.9460 -1.0244  0.2937
 6784SOL    HW231812   0.932   3.231   7.471 -0.5729  1.0454 -2.3857
 6785SOL     OW31813   1.787   0.960   5.600  0.3414  0.1333  0.3943
 6785SOL    HW131814   1.714   1.020   5.586  0.8367  1.3396  2.9428
 6785SOL    HW231815   1.743   0.904   5.664  0.3668  1.0089  1.1748
 6786SOL     OW31816   0.023   1.665   7.246  0.0745 -0.2055  0.4789
 6786SOL    HW131817   0.065   1.631   7.324  2.0807  1.2811  0.0543
 6786SOL    HW231818   4.663   1.618   7.249 -0.8541  1.3302 -0.8310
 6787SOL     OW31819   2.947   4.037   8.819  0.5432 -0.6698  0.4423
 6787SOL    HW131820   2.879   3.982   8.781 -0.1595  0.9020 -0.5712
 6787SOL    HW231821   2.897   4.088   8.883  0.1708 -0.3811 -0.0801
 6788SOL     OW31822   4.693   3.333   8.150 -0.2267 -0.1599 -0.2745
 6788SOL    HW131823   4.696   3.311   8.243 -0.7799  0.3802 -0.1221
 6788SOL    HW231824   4.598   3.337   8.140 -0.0683  0.9662 -1.3448
 6789SOL     OW31825   3.395   3.424   6.008  0.3200 -0.6738  0.1194
 6789SOL    HW131826   3.321   3.391   6.059  1.0048  0.3522  1.7468
 6789SOL    HW231827   3.459   3.355   6.028  0.5766 -0.7639 -0.9713
 6790SOL     OW31828   0.877   0.597   4.479 -0.0601  0.1217  0.4389
 6790SOL    HW131829   0.864   0.691   4.470  0.4374  0.2037  0.6139
 6790SOL    HW231830   0.966   0.601   4.514 -0.2443  2.2812  0.6109
 6791SOL     OW31831   0.650   0.040   3.006  0.3092 -0.9897  0.6835
 6791SOL    HW131832   0.563   0.001   3.004  0.3211 -0.9696 -0.2796
 6791SOL    HW231833   0.654   0.077   3.094  3.1908  1.7429 -0.5635
 6792SOL     OW31834   1.394   4.505   0.448 -0.1379  0.2665  0.5145
 6792SOL    HW131835   1.328   4.543   0.507 -2.5671  0.9723 -2.6870
 6792SOL    HW231836   1.349   4.436   0.399 -0.5123  2.3623 -2.0695
 6793SOL     OW31837   3.481   3.180   8.255 -0.0544 -0.0206 -0.1641
 6793SOL    HW131838   3.549   3.113   8.248  0.9324  0.8161  1.4231
 6793SOL    HW231839   3.491   3.207   8.346 -1.9901  1.6263 -0.4368
 6794SOL     OW31840   2.413   3.454  16.427 -0.1203  0.7506 -0.3476
 6794SOL    HW131841   2.437   3.421  16.514 -1.0073  2.1671  0.4351
 6794SOL    HW231842   2.356   3.381  16.404 -1.4301  2.5802 -2.8554
 6795SOL     OW31843   1.990   0.284  10.848  0.0523  0.3499  0.1501
 6795SOL    HW131844   1.953   0.354  10.902 -2.9967  0.3028 -1.8812
 6795SOL    HW231845   1.912   0.242  10.811  0.0050 -0.4071  1.1200
 6796SOL     OW31846   2.292   1.455   5.716 -0.0306  0.0174  0.1768
 6796SOL    HW131847   2.361   1.389   5.719  0.8253  0.9027 -0.0138
 6796SOL    HW231848   2.310   1.502   5.634 -2.7420  0.2597 -0.3088
 6797SOL     OW31849   4.660   2.451  13.620  0.0241  0.3387  0.2464
 6797SOL    HW131850   4.566   2.466  13.613  0.0109 -0.5657 -1.4912
 6797SOL    HW231851   4.697   2.505  13.551  0.5606 -0.2344  0.0823
 6798SOL     OW31852   3.803   3.983   0.076 -0.0233  0.4123 -0.1488
 6798SOL    HW131853   3.888   3.994   0.117  0.8656 -2.4639 -1.2355
 6798SOL    HW231854   3.775   3.906   0.126  0.5336 -1.3467 -2.5516
 6799SOL     OW31855   2.231   2.142  11.617  0.4530 -0.2945 -0.0958
 6799SOL    HW131856   2.284   2.216  11.646  1.6745 -0.8800 -0.8172
 6799SOL    HW231857   2.293   2.093  11.564 -0.1541 -0.2528 -0.8481
 6800SOL     OW31858   4.063   4.252   3.056 -0.2843  0.2970 -0.2786
 6800SOL    HW131859   3.996   4.227   2.993  0.1696 -1.4437 -0.0968
 6800SOL    HW231860   4.028   4.332   3.094 -0.1487 -0.6083  1.7962
 6801SOL     OW31861   3.151   1.597   0.830  0.1680  0.3097  0.1418
 6801SOL    HW131862   3.145   1.528   0.764  0.1552 -0.4402  0.9347
 6801SOL    HW231863   3.057   1.615   0.838  0.0850 -0.7955  1.6586
 6802SOL     OW31864   3.727   4.545  15.498  0.0727  0.2278  0.1041
 6802SOL    HW131865   3.674   4.495  15.560  0.7389  0.4147  0.8151
 6802SOL    HW231866   3.678   4.506  15.425  1.8644  1.9533 -2.0336
 6803SOL     OW31867   1.357   1.469   4.709 -0.1052  0.2643  0.0631
 6803SOL    HW131868   1.329   1.463   4.800  0.0520 -1.4438 -0.0040
 6803SOL    HW231869   1.283   1.517   4.673 -2.0719 -1.5652  1.6994
 6804SOL     OW31870   2.758   1.745   8.213 -0.0263 -0.7181  0.2072
 6804SOL    HW131871   2.795   1.772   8.129  1.0389 -0.6209  0.7109
 6804SOL    HW231872   2.728   1.833   8.237  3.2994  0.5518 -0.2323
 6805SOL     OW31873   1.137   3.102   0.920  0.0677 -0.0343 -0.1561
 6805SOL    HW131874   1.157   3.019   0.962 -0.1504  0.8175  1.6279
 6805SOL    HW231875   1.134   3.152   1.001 -2.0161  2.3559 -1.6891
 6806SOL     OW31876   1.746   0.557   8.691 -0.4900 -0.3115  0.0137
 6806SOL    HW131877   1.652   0.547   8.677 -0.3027 -1.8410 -0.1771
 6806SOL    HW231878   1.740   0.637   8.743 -2.8825  0.2315 -1.1491
 6807SOL     OW31879   1.128   1.318   7.440  0.1321  0.1891  0.0893
 6807SOL    HW131880   1.187   1.327   7.366  1.1700  0.7817  1.0032
 6807SOL    HW231881   1.041   1.312   7.399 -0.4468  1.0128  1.1933
 6808SOL     OW31882   0.564   0.602   4.277  0.4990 -0.5533  0.1396
 6808SOL    HW131883   0.501   0.589   4.207 -0.0136 -0.4825  0.5870
 6808SOL    HW231884   0.515   0.562   4.349 -0.7025 -0.9316 -0.9028
 6809SOL     OW31885   2.673   1.082   6.829  0.3587  0.5893 -0.3072
 6809SOL    HW131886   2.747   1.054   6.776 -1.0577  1.4532 -2.7306
 6809SOL    HW231887   2.721   1.110   6.907  2.7650 -2.4410 -0.7200
 6810SOL     OW31888   4.110   0.679   2.587  0.4180  0.2114  0.4910
 6810SOL    HW131889   4.148   0.763   2.610 -0.3590  0.5627  0.5021
 6810SOL    HW231890   4.021   0.697   2.618  1.3410  1.0051  2.6074
 6811SOL     OW31891   0.950   2.204   6.381 -0.2700 -0.0027 -0.1920
 6811SOL    HW131892   0.973   2.113   6.400  3.0474  0.8996  0.2070
 6811SOL    HW231893   0.867   2.206   6.334  0.1761 -3.0365 -1.1173
 6812SOL     OW31894   4.218   1.581   2.626 -0.0657 -0.4441 -0.2877
 6812SOL    HW131895   4.174   1.578   2.541  1.4085  0.6312 -1.0796
 6812SOL    HW231896   4.312   1.583   2.609 -0.3386 -0.6431 -1.8013
 6813SOL     OW31897   4.085   3.740   2.594  0.1841  0.3340 -0.4873
 6813SOL    HW131898   4.009   3.687   2.620  2.3259 -1.4744  2.1157
 6813SOL    HW231899   4.047   3.818   2.553  1.1939  1.8589  1.4744
 6814SOL     OW31900   2.568   4.119   9.192  0.3095  0.0249  0.5534
 6814SOL    HW131901   2.606   4.173   9.260  0.8569 -0.6049  0.7479
 6814SOL    HW231902   2.528   4.047   9.240  0.9030 -1.4282 -1.1339
 6815SOL     OW31903   2.811   1.263   1.898  0.6131 -0.4099 -0.1030
 6815SOL    HW131904   2.742   1.249   1.962 -1.6087  1.5448 -2.0980
 6815SOL    HW231905   2.774   1.337   1.850 -1.6318 -1.4464  0.0426
 6816SOL     OW31906   1.920   1.092  14.616  0.2123  0.2402 -0.0059
 6816SOL    HW131907   1.937   1.007  14.576  2.5005  2.0880 -3.0166
 6816SOL    HW231908   1.912   1.066  14.708  0.5086 -0.0391 -0.0606
 6817SOL     OW31909   2.961   2.669   2.637 -0.2568  0.2170  0.2265
 6817SOL    HW131910   2.894   2.642   2.574 -0.3919 -0.4740  0.6649
 6817SOL    HW231911   3.045   2.657   2.593 -0.6642 -0.0398 -0.4856
 6818SOL     OW31912   2.088   3.268   5.265 -0.0946  0.2016  0.7275
 6818SOL    HW131913   2.134   3.224   5.193  1.1166 -0.3568  1.8428
 6818SOL    HW231914   2.104   3.361   5.247  0.2443  0.1454  0.7439
 6819SOL     OW31915   3.107   3.269   1.152  0.7674 -0.3530 -0.0259
 6819SOL    HW131916   3.179   3.213   1.181  0.1791 -0.1184  1.8882
 6819SOL    HW231917   3.104   3.326   1.229 -0.7442 -0.3535 -0.0917
 6820SOL     OW31918   3.093   3.716   8.245 -0.5365 -0.0027  0.0259
 6820SOL    HW131919   3.124   3.724   8.335 -1.7934 -1.3895  0.5620
 6820SOL    HW231920   3.026   3.651   8.261 -0.6811  0.5700  1.7276
 6821SOL     OW31921   0.731   3.204   2.821  0.0777  0.7997 -0.1293
 6821SOL    HW131922   0.646   3.172   2.790 -0.2760 -0.9111  2.5789
 6821SOL    HW231923   0.787   3.211   2.744 -1.4095  1.3803 -1.1596
 6822SOL     OW31924   3.147   0.249  10.189  0.2973 -0.5025 -0.3248
 6822SOL    HW131925   3.060   0.229  10.224  0.3962  0.2496  0.3386
 6822SOL    HW231926   3.204   0.187  10.234  0.6880 -1.1732 -1.7076
 6823SOL     OW31927   0.237   0.508  17.664 -0.0355  0.2661 -0.0725
 6823SOL    HW131928   0.225   0.601  17.684 -0.3042  0.4985 -1.3090
 6823SOL    HW231929   0.326   0.498  17.631  0.2124  0.0892  0.6597
 6824SOL     OW31930   0.784   1.450   6.718 -0.2077 -0.3993 -0.4247
 6824SOL    HW131931   0.722   1.523   6.710  1.6698  1.2102 -0.1045
 6824SOL    HW231932   0.731   1.382   6.761 -1.5852  0.7694 -0.2578
 6825SOL     OW31933   1.781   3.544  15.820 -0.8369  0.9470 -0.2194
 6825SOL    HW131934   1.876   3.554  15.816 -0.4943 -1.4471  1.8852
 6825SOL    HW231935   1.758   3.560  15.729 -2.4159 -0.0603 -0.0106
 6826SOL     OW31936   4.289   3.143   6.644  0.0625 -0.2085  0.0891
 6826SOL    HW131937   4.250   3.202   6.578  0.5768  0.2613  0.2084
 6826SOL    HW231938   4.289   3.195   6.724  0.3491 -1.8589  1.1414
 6827SOL     OW31939   3.537   2.178   5.018 -0.1978 -0.3806 -0.0102
 6827SOL    HW131940   3.619   2.130   5.007 -0.9707 -1.3060 -1.8170
 6827SOL    HW231941   3.520   2.195   4.925  2.1304 -1.3278 -0.6158
 6828SOL     OW31942   2.735   3.833   2.322 -0.5752 -0.6740 -0.1584
 6828SOL    HW131943   2.699   3.745   2.332 -1.3743 -0.3637 -0.3905
 6828SOL    HW231944   2.824   3.806   2.296 -0.5219  0.4059 -1.1177
 6829SOL     OW31945   0.875   4.338   4.294 -0.3775 -0.1288  0.3749
 6829SOL    HW131946   0.926   4.361   4.216  0.2314  2.9425  1.6824
 6829SOL    HW231947   0.828   4.420   4.311 -2.0049 -0.6770 -1.4980
 6830SOL     OW31948   0.462   1.285   1.075 -0.5489  0.1438  0.0784
 6830SOL    HW131949   0.403   1.302   1.148  0.6888 -2.4069  1.6459
 6830SOL    HW231950   0.533   1.248   1.127 -2.4316 -1.6204  1.3676
 6831SOL     OW31951   0.458   3.738  11.436  0.1414 -0.3280  0.3233
 6831SOL    HW131952   0.406   3.728  11.357  0.9579  0.6286 -0.3373
 6831SOL    HW231953   0.531   3.678  11.418  0.2047 -0.6720  1.6939
 6832SOL     OW31954   1.984   3.018   8.968 -0.0701 -0.0103  0.7573
 6832SOL    HW131955   2.065   2.972   8.993 -0.2115 -0.5505  0.2201
 6832SOL    HW231956   1.957   3.075   9.040 -1.4620 -0.0518  0.2749
 6833SOL     OW31957   3.659   0.319   5.155 -0.4577 -0.1701 -0.0333
 6833SOL    HW131958   3.700   0.355   5.076 -1.3139  0.4881 -0.1913
 6833SOL    HW231959   3.594   0.387   5.176 -0.6967  0.3414 -2.4177
 6834SOL     OW31960   0.578   2.838   5.638 -0.5279 -0.0078 -0.5632
 6834SOL    HW131961   0.615   2.768   5.585  1.2474 -0.9356  1.8755
 6834SOL    HW231962   0.592   2.910   5.576  1.3643  0.0995 -0.0332
 6835SOL     OW31963   1.789   3.789   7.662 -0.2755 -0.0208  0.2247
 6835SOL    HW131964   1.884   3.782   7.656 -0.5330 -0.4744 -3.3380
 6835SOL    HW231965   1.770   3.726   7.732  0.2185  1.0841  1.3518
 6836SOL     OW31966   0.833   4.517  15.890 -0.5951  0.1861  0.2390
 6836SOL    HW131967   0.868   4.447  15.835 -0.9623  0.2898 -0.1273
 6836SOL    HW231968   0.741   4.495  15.902 -0.5690 -0.3002 -0.4535
 6837SOL     OW31969   2.405   4.670   2.951 -0.3763 -0.4111 -0.3372
 6837SOL    HW131970   2.310   4.674   2.939 -0.3335 -0.3277 -0.6713
 6837SOL    HW231971   2.436   4.718   2.874  1.2994 -2.3055 -0.8378
 6838SOL     OW31972   0.674   3.448  15.212 -0.0039  0.3604  0.3902
 6838SOL    HW131973   0.629   3.408  15.138  1.6421 -1.9023  0.5771
 6838SOL    HW231974   0.758   3.486  15.187 -0.2822  0.0975 -0.9390
 6839SOL     OW31975   2.142   4.255   8.027 -0.2886  0.9960 -0.1558
 6839SOL    HW131976   2.211   4.321   8.021 -2.5943  3.5368  1.3639
 6839SOL    HW231977   2.102   4.282   8.110  3.2238 -0.1261  1.9146
 6840SOL     OW31978   2.585   1.028  11.092 -0.1482  0.1905  0.3830
 6840SOL    HW131979   2.660   1.075  11.057 -0.1806  0.1373  0.2420
 6840SOL    HW231980   2.624   0.950  11.132 -0.0212  0.0186 -0.0729
 6841SOL     OW31981   3.561   2.601   1.916  0.0100  0.2484  0.2645
 6841SOL    HW131982   3.496   2.570   1.853 -1.2460  3.3863  0.0172
 6841SOL    HW231983   3.553   2.696   1.908  0.8149  0.3414  0.4970
 6842SOL     OW31984   4.446   1.629   6.892 -0.7273 -0.3934 -0.0820
 6842SOL    HW131985   4.520   1.574   6.915 -0.2874  0.1983 -0.0647
 6842SOL    HW231986   4.468   1.695   6.825  0.2393 -1.3557 -0.7096
 6843SOL     OW31987   2.431   1.713   4.623 -0.0376  0.1289 -0.4951
 6843SOL    HW131988   2.368   1.665   4.676  0.1520  0.3048 -0.1133
 6843SOL    HW231989   2.478   1.749   4.698  0.4163  0.8256 -1.1041
 6844SOL     OW31990   2.866   1.814   7.224  0.1087  0.0367  0.2635
 6844SOL    HW131991   2.865   1.909   7.217  0.3371 -0.1885 -2.9182
 6844SOL    HW231992   2.807   1.791   7.295  0.4677  0.4811  0.7068
 6845SOL     OW31993   4.110   3.250   8.149  0.1050  0.0102 -0.3631
 6845SOL    HW131994   4.140   3.160   8.137 -2.2514 -0.6989 -0.8428
 6845SOL    HW231995   4.079   3.271   8.061  0.7168  1.1186 -0.3068
 6846SOL     OW31996   1.313   2.888   7.022 -0.2825 -0.4160  0.1147
 6846SOL    HW131997   1.339   2.871   7.112 -0.1533  1.3727  0.4138
 6846SOL    HW231998   1.256   2.812   7.012  0.6848 -1.0593 -0.4955
 6847SOL     OW31999   2.863   3.072   5.457  0.5117  0.2541 -0.3196
 6847SOL    HW132000   2.823   3.158   5.444 -0.9875  0.0817  3.1699
 6847SOL    HW232001   2.957   3.085   5.456  0.4100  1.0615  0.9285
 6848SOL     OW32002   4.369   3.990   2.090 -0.8039 -0.0235 -0.8589
 6848SOL    HW132003   4.359   4.085   2.098 -2.3781 -0.1955 -0.8191
 6848SOL    HW232004   4.428   3.986   2.165 -1.7189  0.3135 -0.1349
 6849SOL     OW32005   3.303   2.427   7.616 -0.0899 -0.3183  0.5464
 6849SOL    HW132006   3.295   2.339   7.652  1.2486 -0.4427  0.5442
 6849SOL    HW232007   3.211   2.443   7.594 -0.0921 -2.4092 -0.8951
 6850SOL     OW32008   4.489   0.043  15.298 -0.4019 -0.1298 -0.2679
 6850SOL    HW132009   4.475   4.678  15.332 -0.3590 -0.0407 -0.0218
 6850SOL    HW232010   4.463   0.020  15.209 -1.0173 -1.8720  0.3632
 6851SOL     OW32011   2.476   4.583   8.421 -0.0180  0.5152 -0.5153
 6851SOL    HW132012   2.570   4.601   8.428  0.3499 -2.3957  1.7642
 6851SOL    HW232013   2.444   4.642   8.489 -4.5688 -0.0818 -2.1470
 6852SOL     OW32014   4.714   3.434   1.503 -0.0749  0.0662 -0.0624
 6852SOL    HW132015   0.024   3.347   1.527  2.1149  1.3550  1.6438
 6852SOL    HW232016   4.707   3.438   1.407 -1.0832 -0.2608  0.0035
 6853SOL     OW32017   2.470   1.599   3.022  0.1598 -0.2824 -0.1958
 6853SOL    HW132018   2.385   1.599   3.067  1.5136 -0.9259  2.3672
 6853SOL    HW232019   2.468   1.682   2.975  3.4906  0.9952  1.8842
 6854SOL     OW32020   1.484   0.673   7.777 -0.0489  0.3671 -0.4108
 6854SOL    HW132021   1.496   0.603   7.713 -2.6435 -1.5245  1.1953
 6854SOL    HW232022   1.509   0.628   7.857 -0.0773  0.5508 -0.2973
 6855SOL     OW32023   3.162   1.420   4.957  0.3772 -0.0426 -0.1404
 6855SOL    HW132024   3.082   1.377   4.987  0.0242  1.1648  0.6630
 6855SOL    HW232025   3.169   1.503   5.004 -0.9457  0.5740 -0.9997
 6856SOL     OW32026   1.123   0.389   3.280  0.5443 -0.2380 -0.3235
 6856SOL    HW132027   1.068   0.468   3.275 -0.6320 -1.0309  0.2013
 6856SOL    HW232028   1.108   0.340   3.199  1.4398  1.1315 -1.3106
 6857SOL     OW32029   0.469   2.716   3.125  0.4440 -0.2000 -0.0319
 6857SOL    HW132030   0.385   2.671   3.121  0.7604 -0.8748  0.8536
 6857SOL    HW232031   0.449   2.789   3.184  1.3649  0.7253 -0.8685
 6858SOL     OW32032   1.922   3.739  11.232 -0.5325 -0.1492  0.0096
 6858SOL    HW132033   1.891   3.663  11.184 -0.1321 -1.2762  1.5140
 6858SOL    HW232034   1.862   3.740  11.307 -1.9769  0.3115 -1.1643
 6859SOL     OW32035   2.143   1.789   0.748 -0.5553  0.1454 -0.3726
 6859SOL    HW132036   2.136   1.800   0.654  1.0384 -0.2210 -0.5280
 6859SOL    HW232037   2.053   1.816   0.765  0.5472  3.5728  0.0693
 6860SOL     OW32038   3.989   0.815   1.615 -0.3724 -0.0400 -0.6306
 6860SOL    HW132039   3.920   0.881   1.611  0.3718  0.6688 -1.5073
 6860SOL    HW232040   3.941   0.735   1.592 -1.1809  0.3370 -0.2487
 6861SOL     OW32041   0.565   3.251   5.310  0.1381  0.0238 -0.0695
 6861SOL    HW132042   0.587   3.343   5.323  2.3516 -0.6546  1.0511
 6861SOL    HW232043   0.514   3.248   5.229 -0.8452 -0.4590  0.5741
 6862SOL     OW32044   3.210   1.210   1.826 -0.6194 -0.7239  0.2555
 6862SOL    HW132045   3.156   1.288   1.839 -1.3698 -1.1989 -0.0484
 6862SOL    HW232046   3.298   1.248   1.815 -1.4923  0.4308 -2.7596
 6863SOL     OW32047   2.749   1.637  15.666  0.7951  0.5561  0.1974
 6863SOL    HW132048   2.694   1.564  15.634  0.3827  0.1347  1.8821
 6863SOL    HW232049   2.751   1.684  15.582 -0.2562  2.3333  1.1664
 6864SOL     OW32050   2.750   3.912   8.674 -0.0110  0.2436  0.4368
 6864SOL    HW132051   2.704   3.942   8.596  1.1167  0.7967 -0.0198
 6864SOL    HW232052   2.731   3.819   8.688  1.5351 -0.4670 -2.2219
 6865SOL     OW32053   3.285   3.234   2.584 -0.0486 -0.1225 -0.1026
 6865SOL    HW132054   3.308   3.147   2.552 -0.8363 -1.2312  2.2724
 6865SOL    HW232055   3.368   3.281   2.578  0.1466 -0.3596  0.6672
 6866SOL     OW32056   0.782   2.233   6.970  0.0252 -0.4468  0.0157
 6866SOL    HW132057   0.849   2.270   7.026  1.0595 -2.8935  0.3905
 6866SOL    HW232058   0.784   2.288   6.891 -1.8627  0.6067  0.6940
 6867SOL     OW32059   0.935   1.857   7.512 -0.4137 -0.1395 -0.0204
 6867SOL    HW132060   0.896   1.861   7.424  0.8760 -0.0451 -0.5901
 6867SOL    HW232061   0.942   1.950   7.535 -0.1168 -0.5006  1.3279
 6868SOL     OW32062   0.846   0.723   5.093 -0.2207  0.1296 -0.1706
 6868SOL    HW132063   0.764   0.720   5.043 -0.2793  1.9463 -0.1997
 6868SOL    HW232064   0.913   0.738   5.027 -0.5470  0.9534 -0.3192
 6869SOL     OW32065   3.659   0.298   3.190  0.3705  0.0829  0.1856
 6869SOL    HW132066   3.620   0.357   3.126  0.4887  0.5144  0.5101
 6869SOL    HW232067   3.717   0.249   3.132  0.4806  1.0086 -0.4853
 6870SOL     OW32068   1.311   2.779   8.645  0.6620  0.1629 -0.2237
 6870SOL    HW132069   1.325   2.871   8.622 -2.0150  0.2950 -1.3032
 6870SOL    HW232070   1.344   2.773   8.735 -1.3592  1.2529  0.5979
 6871SOL     OW32071   0.208   0.688   6.139 -0.2577  0.0324  0.2543
 6871SOL    HW132072   0.197   0.705   6.232 -0.3991 -4.1457  1.0027
 6871SOL    HW232073   0.267   0.613   6.141 -0.5392 -0.1963 -0.0123
 6872SOL     OW32074   3.552   3.834   2.731  0.2259  0.3107  0.1632
 6872SOL    HW132075   3.604   3.815   2.653 -0.0480  0.1213  0.0236
 6872SOL    HW232076   3.588   3.769   2.791  1.9980  0.9154 -0.2631
 6873SOL     OW32077   0.710   2.960  15.914 -0.2819 -0.4527  0.7549
 6873SOL    HW132078   0.799   2.985  15.891 -0.2919  0.9081  2.1744
 6873SOL    HW232079   0.719   2.882  15.968  2.2273  0.0696  1.0811
 6874SOL     OW32080   3.135   3.925   4.758 -0.3660 -0.3159 -0.3455
 6874SOL    HW132081   3.117   3.831   4.749 -0.3245 -0.2183 -1.4169
 6874SOL    HW232082   3.144   3.949   4.666 -0.8398 -1.2420 -0.6393
 6875SOL     OW32083   3.401   1.778   4.574  0.2545 -0.2986 -0.0502
 6875SOL    HW132084   3.400   1.741   4.662 -1.9725 -1.0163 -0.3872
 6875SOL    HW232085   3.310   1.794   4.550  0.3116  0.0728 -0.0301
 6876SOL     OW32086   1.856   2.063  15.906 -0.5085 -0.2708  0.1712
 6876SOL    HW132087   1.762   2.075  15.923 -0.3059 -0.3395  1.3224
 6876SOL    HW232088   1.860   1.975  15.870  0.3023 -0.5239  0.8675
 6877SOL     OW32089   1.195   3.053   8.765 -0.3619 -0.1564  0.3601
 6877SOL    HW132090   1.120   2.996   8.750 -0.8940  0.7057 -0.2090
 6877SOL    HW232091   1.146   3.116   8.817 -0.5579  0.0376 -0.0646
 6878SOL     OW32092   2.802   1.525   1.285 -0.2651 -0.3711  0.4833
 6878SOL    HW132093   2.881   1.575   1.307  0.4972 -0.5842 -1.7591
 6878SOL    HW232094   2.792   1.471   1.363  0.3811 -1.3672 -0.1149
 6879SOL     OW32095   2.063   0.901  11.522 -0.7851  0.0834 -0.4309
 6879SOL    HW132096   2.052   0.870  11.611  1.0496 -1.5058 -0.7644
 6879SOL    HW232097   1.973   0.925  11.500  0.0936  2.9919 -0.8008
 6880SOL     OW32098   1.313   4.689   0.647 -0.0661 -0.4063  0.1663
 6880SOL    HW132099   1.331   0.056   0.675 -2.5529 -0.2835  1.3740
 6880SOL    HW232100   1.226   4.686   0.687 -0.1968  3.7292  0.2273
 6881SOL     OW32101   2.194   0.720   3.952  0.5446 -0.1929 -0.2163
 6881SOL    HW132102   2.232   0.807   3.938 -1.0842  0.1424 -2.4127
 6881SOL    HW232103   2.232   0.697   4.037  2.2228  0.1458 -0.8650
 6882SOL     OW32104   3.702   0.095   2.585 -0.1605 -0.0580 -0.1006
 6882SOL    HW132105   3.769   0.094   2.516  1.3208 -0.2338  1.3298
 6882SOL    HW232106   3.633   0.046   2.543  0.1317  0.3253 -1.0310
 6883SOL     OW32107   4.119   3.054   6.945 -0.1716  0.0969  0.4806
 6883SOL    HW132108   4.049   3.083   6.886 -2.1843  0.4573  3.0099
 6883SOL    HW232109   4.128   2.963   6.916  1.5358 -0.0915  1.6248
 6884SOL     OW32110   0.112   2.095   8.397  0.0660 -0.3178 -0.1680
 6884SOL    HW132111   0.200   2.094   8.357 -0.5971 -2.7258 -1.5707
 6884SOL    HW232112   0.136   2.106   8.489 -1.4636  0.9046  0.0705
 6885SOL     OW32113   3.037   1.926   8.537 -0.1786 -0.1951 -0.1947
 6885SOL    HW132114   3.008   1.845   8.495 -0.4873  0.1406 -0.6240
 6885SOL    HW232115   2.988   1.917   8.619  2.0722 -0.9763  1.0782
 6886SOL     OW32116   4.078   1.153   6.476 -0.2123  0.1048  0.6684
 6886SOL    HW132117   4.173   1.160   6.460 -0.3946  1.9631  0.4746
 6886SOL    HW232118   4.062   1.228   6.533  0.7114  0.4168  0.5247
 6887SOL     OW32119   4.222   4.401   6.926 -0.4017 -0.6193 -0.5866
 6887SOL    HW132120   4.179   4.357   6.999  0.3350  1.4082  1.0724
 6887SOL    HW232121   4.284   4.332   6.905  1.6831  0.6441  1.3642
 6888SOL     OW32122   2.200   2.281   6.683  0.9454  0.3820  0.0619
 6888SOL    HW132123   2.284   2.244   6.711  1.5825  1.9214  0.1321
 6888SOL    HW232124   2.166   2.333   6.756 -0.6366 -1.4079  0.6144
 6889SOL     OW32125   3.366   3.378   6.314  0.2891 -0.1693 -0.3362
 6889SOL    HW132126   3.434   3.322   6.278 -1.4668 -0.1186 -3.7540
 6889SOL    HW232127   3.291   3.368   6.254  0.0919 -0.4448 -0.0434
 6890SOL     OW32128   2.050   4.238   7.184  0.1043 -0.0366 -0.5502
 6890SOL    HW132129   1.995   4.316   7.193  0.5559  0.2830 -0.5281
 6890SOL    HW232130   2.028   4.194   7.266  0.5657 -0.3399 -0.5874
 6891SOL     OW32131   2.444   2.558   8.553  0.3484  0.4468  0.0547
 6891SOL    HW132132   2.481   2.474   8.581  1.6166  0.9943  0.0183
 6891SOL    HW232133   2.357   2.530   8.525  0.7272  1.4320 -2.1351
 6892SOL     OW32134   4.326   0.858  17.606 -1.1060  0.1324  0.6094
 6892SOL    HW132135   4.263   0.821  17.668 -3.0707 -1.7843 -2.5068
 6892SOL    HW232136   4.298   0.802  17.534 -0.9787  3.3068 -1.9205
 6893SOL     OW32137   0.748   0.084   7.785 -0.7299  0.2785 -0.4467
 6893SOL    HW132138   0.740   0.091   7.880 -2.5379  2.7073 -0.7733
 6893SOL    HW232139   0.659   0.103   7.755 -0.8324 -0.2693 -0.4927
 6894SOL     OW32140   3.879   3.710  10.658  0.1406  0.6573  0.6146
 6894SOL    HW132141   3.827   3.632  10.642  2.7472 -1.1162  0.7281
 6894SOL    HW232142   3.964   3.666  10.654 -1.0548 -1.5094 -0.7838
 6895SOL     OW32143   1.981   1.348   2.225 -0.0673 -0.3209 -0.5868
 6895SOL    HW132144   1.904   1.304   2.261 -0.9238 -0.3804 -2.4544
 6895SOL    HW232145   1.977   1.322   2.133 -1.5501 -0.3781 -0.5121
 6896SOL     OW32146   3.180   2.602   8.554 -0.6316 -0.4382  0.2826
 6896SOL    HW132147   3.187   2.565   8.642 -1.1945 -0.8423  0.1535
 6896SOL    HW232148   3.099   2.649   8.572  0.3095  0.6194  1.7823
 6897SOL     OW32149   1.614   1.628   6.754 -0.0158  0.4204 -0.3473
 6897SOL    HW132150   1.564   1.668   6.683 -0.9507 -1.0708 -0.5238
 6897SOL    HW232151   1.550   1.560   6.774 -0.8578  0.8201 -1.7025
 6898SOL     OW32152   3.558   1.863  17.041  0.0031 -0.2720  0.1676
 6898SOL    HW132153   3.634   1.906  17.002 -0.1920 -0.7282 -0.7129
 6898SOL    HW232154   3.497   1.857  16.968  1.7321 -2.0607 -1.1343
 6899SOL     OW32155   4.521   4.642   4.479 -0.2882  0.7215 -0.1012
 6899SOL    HW132156   4.611   4.618   4.504 -0.4964 -0.2096 -0.2303
 6899SOL    HW232157   4.546   4.675   4.393 -0.8577 -0.7470 -0.8332
 6900SOL     OW32158   4.272   0.229   4.849 -0.0902 -0.1722 -0.2901
 6900SOL    HW132159   4.196   0.227   4.791  0.0077 -0.4731 -0.4027
 6900SOL    HW232160   4.285   0.137   4.870  0.9985  0.3687  1.4219
 6901SOL     OW32161   0.354   2.716   7.814 -0.6523 -0.3094 -0.6280
 6901SOL    HW132162   0.316   2.765   7.741  0.2028 -0.1206 -0.9451
 6901SOL    HW232163   0.313   2.632   7.792 -1.8882  0.5380 -1.5187
 6902SOL     OW32164   3.426   1.624   0.776 -0.0913  0.4374 -0.1051
 6902SOL    HW132165   3.443   1.544   0.726 -0.1105 -0.1887  0.8755
 6902SOL    HW232166   3.336   1.612   0.804 -0.6947 -0.2243 -2.3656
 6903SOL     OW32167   0.709   3.121   8.854  0.4510 -0.2944 -0.7169
 6903SOL    HW132168   0.627   3.086   8.820  0.5712  0.1777 -1.5092
 6903SOL    HW232169   0.682   3.210   8.877  1.5177 -0.1222 -0.1443
 6904SOL     OW32170   0.731   2.942   3.454 -0.3921  0.5270  0.2376
 6904SOL    HW132171   0.789   2.920   3.381  0.3990 -0.0117  1.0254
 6904SOL    HW232172   0.776   3.023   3.475  0.3363  0.0181  0.6456
 6905SOL     OW32173   2.123   0.209   7.442 -0.2480 -0.4475 -0.1362
 6905SOL    HW132174   2.190   0.141   7.436 -0.0337 -0.2866  0.4224
 6905SOL    HW232175   2.177   0.288   7.442  0.1599 -0.7224 -0.3867
 6906SOL     OW32176   0.760   1.037  10.937  0.0175  0.0099  0.2575
 6906SOL    HW132177   0.844   0.995  10.955  0.2767  0.6877  0.6353
 6906SOL    HW232178   0.751   1.108  11.001 -0.6544  0.1445  0.0089
 6907SOL     OW32179   1.151   4.297   5.967  0.0991  0.2064  0.5199
 6907SOL    HW132180   1.188   4.276   6.053 -0.0578  0.1434  0.5722
 6907SOL    HW232181   1.227   4.301   5.909  0.1013 -0.0989  0.4988
 6908SOL     OW32182   2.736   0.569   8.622  0.1535  0.2838 -0.0859
 6908SOL    HW132183   2.646   0.553   8.593  0.5690  0.1724 -1.3130
 6908SOL    HW232184   2.755   0.652   8.578  1.9178 -0.2055 -0.2249
 6909SOL     OW32185   1.272   1.017   8.226 -0.2458 -0.2916 -0.1412
 6909SOL    HW132186   1.332   1.091   8.225 -0.2456 -0.2820  0.2963
 6909SOL    HW232187   1.310   0.959   8.161  0.1401 -1.7801  1.3928
 6910SOL     OW32188   0.276   2.695  15.205 -0.2465  0.3712 -0.1277
 6910SOL    HW132189   0.314   2.607  15.200  0.7670  0.8068 -0.0236
 6910SOL    HW232190   0.352   2.752  15.207  0.9066 -1.1240 -1.8730
 6911SOL     OW32191   3.393   4.420  11.705  0.7094  0.1723  0.0923
 6911SOL    HW132192   3.454   4.366  11.654  0.3173  2.4450 -2.8005
 6911SOL    HW232193   3.312   4.383  11.670 -0.8069  2.5171  1.1366
 6912SOL     OW32194   1.268   2.826   2.383 -0.1562  0.3078 -0.3007
 6912SOL    HW132195   1.290   2.895   2.446 -1.0627  1.2949 -1.0551
 6912SOL    HW232196   1.226   2.877   2.314 -1.0725  2.1248  1.5853
 6913SOL     OW32197   3.542   3.813   0.446  0.2194  0.2222 -0.0139
 6913SOL    HW132198   3.451   3.828   0.471 -0.1831 -1.2563 -0.5968
 6913SOL    HW232199   3.589   3.874   0.503 -0.2640 -0.3431  1.0102
 6914SOL     OW32200   1.448   1.820   1.981  0.3309  0.3046  0.0948
 6914SOL    HW132201   1.353   1.832   1.983  0.2518 -0.2273 -0.4934
 6914SOL    HW232202   1.455   1.725   1.978 -0.0065  0.2996 -0.3807
 6915SOL     OW32203   3.386   2.157   2.779  0.0998 -0.2774 -0.1227
 6915SOL    HW132204   3.334   2.223   2.732  1.5630  1.2538  0.4222
 6915SOL    HW232205   3.332   2.078   2.771  0.3536 -0.5458  0.7543
 6916SOL     OW32206   4.477   3.424   3.402  0.7326  0.1459  0.6603
 6916SOL    HW132207   4.408   3.412   3.336  1.7594  0.2147 -0.4423
 6916SOL    HW232208   4.431   3.382   3.474  1.3720  1.1180  1.6229
 6917SOL     OW32209   4.402   3.475   1.144 -0.0999 -0.2076 -0.6570
 6917SOL    HW132210   4.462   3.547   1.125 -0.6713  1.0551  2.3401
 6917SOL    HW232211   4.397   3.437   1.057  0.0459  0.3922 -0.9240
 6918SOL     OW32212   1.585   4.430   4.125  0.7792  0.1335 -0.0868
 6918SOL    HW132213   1.623   4.368   4.187 -0.8300  0.3845  1.1401
 6918SOL    HW232214   1.641   4.505   4.148 -0.6649  0.9279  0.8915
 6919SOL     OW32215   1.234   3.885  15.079  0.6338  0.3275  0.0689
 6919SOL    HW132216   1.272   3.973  15.076  1.3246 -0.0278 -1.5562
 6919SOL    HW232217   1.164   3.918  15.023  1.5605 -1.9572 -2.4145
 6920SOL     OW32218   2.059   4.633   9.559  0.4198 -0.2421  0.2564
 6920SOL    HW132219   2.075   4.721   9.524  0.1179 -0.9829 -1.7565
 6920SOL    HW232220   2.087   4.649   9.649 -1.1512  3.1492  0.1534
 6921SOL     OW32221   0.680   2.529   5.073  0.2440 -0.2653 -0.6388
 6921SOL    HW132222   0.731   2.473   5.131 -0.8360 -1.2218 -0.6208
 6921SOL    HW232223   0.636   2.475   5.007 -1.3321 -1.1467  1.1792
 6922SOL     OW32224   3.953   0.169   0.250  0.0570 -0.2370  0.4613
 6922SOL    HW132225   3.972   0.076   0.259  2.1426  0.0004 -1.5199
 6922SOL    HW232226   3.923   0.161   0.160  2.2044 -0.8969 -0.1909
 6923SOL     OW32227   2.484   2.086   3.204 -0.1144 -0.1435 -0.3637
 6923SOL    HW132228   2.557   2.025   3.216 -1.0009 -1.4197 -1.3756
 6923SOL    HW232229   2.458   2.099   3.295 -1.5491  1.3737 -0.9987
 6924SOL     OW32230   0.962   0.789   0.464  0.1122  0.0404  0.7425
 6924SOL    HW132231   0.990   0.863   0.518 -0.7530 -2.0278  4.0833
 6924SOL    HW232232   0.915   0.832   0.393  1.0249  0.4103  0.3592
 6925SOL     OW32233   2.879   3.743  12.043  0.0250  0.0694  0.0707
 6925SOL    HW132234   2.813   3.811  12.034  0.4463  0.7204  1.7721
 6925SOL    HW232235   2.877   3.753  12.138  1.9203 -1.0689  0.2435
 6926SOL     OW32236   1.793   0.044   9.243  0.0201  0.0393 -0.7048
 6926SOL    HW132237   1.716   4.721   9.277  0.8378 -0.6297  0.2317
 6926SOL    HW232238   1.833   0.066   9.327  3.0116  0.1601 -2.1833
 6927SOL     OW32239   2.637   0.345  10.915 -0.4286  0.7001  0.5097
 6927SOL    HW132240   2.697   0.275  10.937  0.7574  1.5836  0.0813
 6927SOL    HW232241   2.697   0.410  10.878 -1.9829  3.1763  2.2904
 6928SOL     OW32242   2.654   3.875  12.000  0.2985  0.2656  0.4912
 6928SOL    HW132243   2.611   3.960  11.985  0.7837  0.2816 -0.8985
 6928SOL    HW232244   2.588   3.809  12.020  0.9532 -0.3273  0.6466
 6929SOL     OW32245   3.521   3.144   3.144 -0.6646  0.0981 -0.2256
 6929SOL    HW132246   3.508   3.060   3.189 -1.1788  0.8869  1.1096
 6929SOL    HW232247   3.463   3.135   3.068 -0.2812  1.6461 -0.7099
 6930SOL     OW32248   2.683   1.973  11.795 -0.6901  0.0463  0.2666
 6930SOL    HW132249   2.658   1.905  11.733  1.5214 -0.4853 -0.0404
 6930SOL    HW232250   2.770   1.985  11.757 -0.3645  1.5434  1.4650
 6931SOL     OW32251   1.752   3.343  13.663 -0.2307 -0.0514 -0.5306
 6931SOL    HW132252   1.833   3.339  13.713 -1.1622  2.0287  1.1777
 6931SOL    HW232253   1.710   3.274  13.714 -1.0218  2.9405  2.8408
 6932SOL     OW32254   1.861   1.128   8.719  0.1529 -0.0150  0.4535
 6932SOL    HW132255   1.912   1.139   8.799  0.0266 -0.8982  0.6547
 6932SOL    HW232256   1.796   1.194   8.742 -0.7439  0.2992 -2.9889
 6933SOL     OW32257   4.305   3.642  11.757  0.4176  0.7094  0.0597
 6933SOL    HW132258   4.308   3.576  11.688  0.6967  1.3406 -0.5321
 6933SOL    HW232259   4.330   3.722  11.710  1.8228  1.0531  1.3973
 6934SOL     OW32260   3.382   0.943  11.998 -0.3442 -0.1541 -0.5814
 6934SOL    HW132261   3.311   0.902  12.046  0.2066 -0.5568 -0.1078
 6934SOL    HW232262   3.450   0.941  12.066 -1.2563  1.9645  0.4042
 6935SOL     OW32263   4.016   1.492   2.819 -0.4881 -0.4052 -0.1552
 6935SOL    HW132264   4.073   1.524   2.889  1.9225 -1.1048 -1.8312
 6935SOL    HW232265   4.073   1.491   2.743  0.4627  1.4630  0.5178
 6936SOL     OW32266   0.682   3.855   2.891 -0.2125  0.1855  0.7604
 6936SOL    HW132267   0.725   3.935   2.921  1.5757 -0.5608  0.1967
 6936SOL    HW232268   0.595   3.866   2.928 -1.1262  1.4612 -1.7683
 6937SOL     OW32269   3.633   3.626   2.927 -0.1306  0.4078 -0.2232
 6937SOL    HW132270   3.580   3.603   3.003  0.6172 -0.0362  0.1680
 6937SOL    HW232271   3.580   3.594   2.855  0.2250 -0.5701 -0.0576
 6938SOL     OW32272   1.432   0.585  13.396  0.5632 -0.3732 -0.2215
 6938SOL    HW132273   1.490   0.614  13.467  0.6198 -2.4866  0.5728
 6938SOL    HW232274   1.355   0.639  13.412  2.3276  0.9753  3.6224
 6939SOL     OW32275   2.907   4.490   5.603  0.0719  0.6287  0.1581
 6939SOL    HW132276   2.895   4.564   5.543 -0.4538  0.5123  0.1199
 6939SOL    HW232277   2.837   4.505   5.667  0.8495 -1.4267  1.4834
 6940SOL     OW32278   3.119   2.902   3.260  0.8099  0.5044  0.0794
 6940SOL    HW132279   3.166   2.840   3.205  1.6286 -0.2703  1.6401
 6940SOL    HW232280   3.119   2.841   3.334 -2.5889 -0.0653 -0.3989
 6941SOL     OW32281   3.344   0.768  11.055  0.2260 -0.1442  0.8496
 6941SOL    HW132282   3.424   0.774  11.004  0.4619 -0.6834  1.1572
 6941SOL    HW232283   3.313   0.858  11.046  0.7843  0.1405  1.8126
 6942SOL     OW32284   4.193   1.921   6.159  0.2756 -0.4189  0.0598
 6942SOL    HW132285   4.264   1.985   6.166  1.0857 -1.3357  0.2718
 6942SOL    HW232286   4.125   1.954   6.218  0.6553  0.7648 -0.1642
 6943SOL     OW32287   0.375   3.034  16.837  0.0603 -0.0996 -0.5186
 6943SOL    HW132288   0.460   3.044  16.794 -0.0178  2.0035 -0.1741
 6943SOL    HW232289   0.351   2.942  16.832 -1.4231  0.3919 -2.4530
 6944SOL     OW32290   3.294   2.385   4.935  0.1325  0.4585  0.2141
 6944SOL    HW132291   3.237   2.310   4.917  1.8988 -0.8227 -0.1327
 6944SOL    HW232292   3.371   2.341   4.897 -0.3511  0.6376 -0.9761
 6945SOL     OW32293   2.028   4.580   3.266 -0.1689 -0.4434  0.0080
 6945SOL    HW132294   2.068   4.601   3.182  1.7930 -2.0789  0.5339
 6945SOL    HW232295   1.969   4.655   3.278 -0.9407 -0.7903 -1.6220
 6946SOL     OW32296   3.224   4.387   5.824 -0.2273 -0.0191  0.1205
 6946SOL    HW132297   3.204   4.396   5.731 -0.2457  1.7075  0.2928
 6946SOL    HW232298   3.317   4.405   5.811 -0.4500 -0.2417 -1.7352
 6947SOL     OW32299   2.884   0.456   4.843  0.5005 -0.1396  0.4434
 6947SOL    HW132300   2.804   0.405   4.830  1.0049 -0.0987 -2.8626
 6947SOL    HW232301   2.910   0.499   4.761  1.7740 -0.0723  0.8830
 6948SOL     OW32302   4.455   1.410   5.842  0.0525  0.3245  0.1978
 6948SOL    HW132303   4.429   1.369   5.924 -0.4625 -0.9069 -0.5792
 6948SOL    HW232304   4.437   1.346   5.772 -1.1412 -1.0858  1.8124
 6949SOL     OW32305   0.582   2.421   8.196 -0.6878  0.1383 -0.1134
 6949SOL    HW132306   0.487   2.416   8.204 -0.5195  0.7057  2.1492
 6949SOL    HW232307   0.597   2.487   8.129  1.4164  1.7518  1.9420
 6950SOL     OW32308   1.794   1.814  14.449 -0.0449 -0.2961 -0.2899
 6950SOL    HW132309   1.767   1.725  14.475  0.7662 -1.1798 -2.4899
 6950SOL    HW232310   1.734   1.871  14.497  1.1031  0.4695  0.2274
 6951SOL     OW32311   1.855   2.148   8.124  0.8325 -0.8993  0.5153
 6951SOL    HW132312   1.903   2.082   8.073  1.1106  0.2966 -0.7883
 6951SOL    HW232313   1.839   2.215   8.057 -1.1367  1.0565  2.9774
 6952SOL     OW32314   0.787   3.467  11.042  0.2406  0.3574  0.1799
 6952SOL    HW132315   0.855   3.460  11.110 -0.2972 -0.2982  0.6492
 6952SOL    HW232316   0.825   3.423  10.966 -0.4913  1.5883 -0.8960
 6953SOL     OW32317   0.939   1.787   6.880 -0.3346 -0.4402  0.5702
 6953SOL    HW132318   0.876   1.715   6.889 -0.7788  0.1624  2.3877
 6953SOL    HW232319   0.898   1.825   6.802  2.2144 -0.8766 -0.9822
 6954SOL     OW32320   4.370   4.128   7.646  0.1198 -0.8938 -0.0137
 6954SOL    HW132321   4.432   4.079   7.699  1.6891 -0.1067 -1.1109
 6954SOL    HW232322   4.375   4.067   7.572 -2.2195  0.8483 -1.5988
 6955SOL     OW32323   1.192   0.770   7.800 -0.0416  0.0433  0.3637
 6955SOL    HW132324   1.187   0.681   7.836  2.2352 -0.5251 -0.6833
 6955SOL    HW232325   1.279   0.763   7.760 -0.5768  0.2468 -0.8437
 6956SOL     OW32326   0.668   0.259   4.343  0.0496  0.1015  0.6789
 6956SOL    HW132327   0.745   0.267   4.400  0.1502  0.4415  0.4919
 6956SOL    HW232328   0.619   0.331   4.381  1.5233  0.2410  2.3331
 6957SOL     OW32329   1.398   2.040   9.049  0.0791 -0.2624  0.0334
 6957SOL    HW132330   1.320   2.080   9.010  0.3823 -0.6892 -1.0002
 6957SOL    HW232331   1.443   2.118   9.080  0.1785 -0.5726  0.6878
 6958SOL     OW32332   1.620   3.111   4.550  0.4748 -0.3266 -0.3862
 6958SOL    HW132333   1.598   3.068   4.468  1.8225  0.0001 -0.9262
 6958SOL    HW232334   1.571   3.052   4.608 -3.5411  3.2316 -0.1681
 6959SOL     OW32335   2.676   3.845   5.516  0.0347 -0.2100 -0.0455
 6959SOL    HW132336   2.624   3.766   5.499  0.8537 -0.6619 -0.4715
 6959SOL    HW232337   2.754   3.798   5.546 -0.1474 -1.2261 -1.1411
 6960SOL     OW32338   2.469   0.384  17.245 -0.0285  0.2862  0.5254
 6960SOL    HW132339   2.471   0.373  17.340  2.8132  0.2545  0.4592
 6960SOL    HW232340   2.383   0.346  17.228  1.2626 -1.3948 -2.1270
 6961SOL     OW32341   0.989   3.050   2.502  0.1685  0.3871 -0.0282
 6961SOL    HW132342   0.969   2.960   2.525 -1.2510  0.3494 -1.3897
 6961SOL    HW232343   1.022   3.050   2.412 -2.1430 -2.4660 -0.8706
 6962SOL     OW32344   4.426   2.417   7.039  0.5737 -0.7382  0.1756
 6962SOL    HW132345   4.446   2.346   7.099  1.1527 -0.1092  0.7331
 6962SOL    HW232346   4.337   2.434   7.071 -0.4787  0.7291 -3.5082
 6963SOL     OW32347   3.166   4.141   4.919  0.2704 -0.1652 -0.0696
 6963SOL    HW132348   3.128   4.192   4.848  0.5553  0.7193  0.4083
 6963SOL    HW232349   3.182   4.057   4.875  1.4244  0.0301 -0.0299
 6964SOL     OW32350   4.296   3.646   1.691  0.1955 -0.5011  0.7351
 6964SOL    HW132351   4.233   3.585   1.653 -0.6261  0.9306 -0.2074
 6964SOL    HW232352   4.369   3.633   1.630  0.3264  0.3803  0.6993
 6965SOL     OW32353   2.570   4.222   6.737 -0.2510 -0.6100  0.3689
 6965SOL    HW132354   2.481   4.189   6.732 -0.0690 -1.4235  2.4030
 6965SOL    HW232355   2.566   4.270   6.655 -0.2456 -1.2023  0.0220
 6966SOL     OW32356   1.875   0.019   7.353  0.6113  0.1625 -0.1650
 6966SOL    HW132357   1.919   0.103   7.365  0.7055  0.1985 -0.7892
 6966SOL    HW232358   1.837   0.001   7.439  1.2988 -1.4057 -0.1952
 6967SOL     OW32359   1.640   4.643   8.708 -0.7993  1.0544  0.2651
 6967SOL    HW132360   1.666   0.007   8.739  0.0696  0.9646 -0.2183
 6967SOL    HW232361   1.723   4.599   8.691 -1.0873  0.8598 -0.6260
 6968SOL     OW32362   3.427   0.550   2.192 -0.1560  0.9998  0.5602
 6968SOL    HW132363   3.478   0.585   2.119  0.4482  2.1129  1.5300
 6968SOL    HW232364   3.354   0.515   2.140  2.0294 -0.6154 -1.4154
 6969SOL     OW32365   2.166   0.445   8.775 -0.1033  0.4024 -0.5120
 6969SOL    HW132366   2.262   0.446   8.770 -0.2427  0.4528 -3.2421
 6969SOL    HW232367   2.138   0.520   8.722  4.7110  2.2165 -0.5853
 6970SOL     OW32368   0.019   3.520   5.049 -0.0270  0.1300 -0.4747
 6970SOL    HW132369   0.004   3.615   5.050 -0.4883  0.0680 -1.1039
 6970SOL    HW232370   0.018   3.516   5.145  1.7002 -1.1975 -0.5025
 6971SOL     OW32371   2.932   3.500  15.221  0.3911  0.4132 -0.6398
 6971SOL    HW132372   2.965   3.433  15.280 -2.0480 -3.4633 -3.6744
 6971SOL    HW232373   2.932   3.454  15.137  3.3249  1.8610 -1.4274
 6972SOL     OW32374   0.827   1.586   4.548 -0.4798 -0.2892 -0.4916
 6972SOL    HW132375   0.848   1.493   4.561 -1.5880 -0.2472  1.4445
 6972SOL    HW232376   0.737   1.595   4.577  0.3174 -0.7018  2.0861
 6973SOL     OW32377   2.414   0.101   2.726  0.3305 -0.2216 -0.0738
 6973SOL    HW132378   2.500   0.104   2.685 -0.3493  0.8745 -1.4311
 6973SOL    HW232379   2.371   0.184   2.705  0.3023 -0.4982 -1.1323
 6974SOL     OW32380   1.034   3.555   6.591 -0.1739  0.2818 -1.0350
 6974SOL    HW132381   1.093   3.609   6.538 -1.3703  2.6717  0.0638
 6974SOL    HW232382   0.963   3.618   6.603  0.8819  1.1192  0.8405
 6975SOL     OW32383   0.988   0.920   2.594  0.1727 -0.0445 -0.1753
 6975SOL    HW132384   1.019   0.917   2.504 -0.4729  1.1494 -0.4275
 6975SOL    HW232385   0.930   0.844   2.591  0.4665 -0.3257  1.1601
 6976SOL     OW32386   2.745   0.054   3.500 -0.1966  0.0015 -0.2986
 6976SOL    HW132387   2.702   4.694   3.520 -3.5401  1.7623 -0.0308
 6976SOL    HW232388   2.689   0.121   3.540 -0.9828 -2.0268  1.9651
 6977SOL     OW32389   1.676   1.112   7.782 -0.0555  0.0073  0.7266
 6977SOL    HW132390   1.687   1.024   7.745  0.4919 -1.4811  4.4118
 6977SOL    HW232391   1.675   1.099   7.877  2.6238  1.7890  0.9953
 6978SOL     OW32392   3.438   4.514  14.599 -0.2415 -0.1644 -0.1228
 6978SOL    HW132393   3.460   4.457  14.673  2.3400 -1.3171 -1.7788
 6978SOL    HW232394   3.518   4.512  14.547 -0.6728  1.8761 -0.8537
 6979SOL     OW32395   1.302   0.298   2.001  0.3400 -0.0585 -0.2824
 6979SOL    HW132396   1.339   0.385   2.014  1.1931 -0.5825  0.9272
 6979SOL    HW232397   1.211   0.320   1.983  0.6453  0.5567 -1.0544
 6980SOL     OW32398   0.170   3.391   1.071  0.1823  0.2863 -0.0788
 6980SOL    HW132399   0.243   3.332   1.092 -0.6980 -0.4339  0.9363
 6980SOL    HW232400   0.223   3.470   1.058  1.2528 -0.2895  0.8161
 6981SOL     OW32401   1.794   0.252   9.462 -0.1222  0.1280  0.1513
 6981SOL    HW132402   1.723   0.312   9.439 -0.1441  0.0731  0.0776
 6981SOL    HW232403   1.781   0.242   9.556 -5.6380  1.9512 -0.4583
 6982SOL     OW32404   3.417   1.582   9.481 -0.3928 -0.3668 -0.1540
 6982SOL    HW132405   3.461   1.523   9.420 -2.0108 -0.1365 -1.5504
 6982SOL    HW232406   3.377   1.649   9.427 -0.6400 -0.0764  0.3876
 6983SOL     OW32407   2.056   2.823  17.289  0.2911 -0.4361 -1.0215
 6983SOL    HW132408   2.011   2.762  17.347 -1.9063  0.9363 -1.2969
 6983SOL    HW232409   1.987   2.864  17.237 -1.3235 -1.5458  0.2399
 6984SOL     OW32410   0.404   0.565   3.505  0.1685 -0.1397  0.0309
 6984SOL    HW132411   0.384   0.498   3.570 -0.7241  0.3701  0.2807
 6984SOL    HW232412   0.325   0.573   3.451 -0.3687  0.9591  0.9662
 6985SOL     OW32413   2.327   2.542   4.477  0.3103  0.2630 -0.0768
 6985SOL    HW132414   2.265   2.570   4.544 -0.5498 -1.7501 -0.0308
 6985SOL    HW232415   2.320   2.447   4.466  0.6466  0.2617 -0.2979
 6986SOL     OW32416   1.349   0.621   6.849 -0.3698 -0.3934 -0.3176
 6986SOL    HW132417   1.368   0.640   6.757 -1.5549  0.6044 -0.3588
 6986SOL    HW232418   1.256   0.599   6.852  0.2273 -2.8520  0.4496
 6987SOL     OW32419   1.079   3.587   0.802  0.0417 -0.2861 -0.5855
 6987SOL    HW132420   1.069   3.499   0.838 -1.3330 -0.2287 -0.8119
 6987SOL    HW232421   1.054   3.579   0.710 -1.2349  0.6333 -0.3311
 6988SOL     OW32422   0.309   4.521  11.486  0.0590  0.0357  0.5132
 6988SOL    HW132423   0.251   4.519  11.562 -0.0337  1.4473  0.4915
 6988SOL    HW232424   0.275   4.595  11.435  0.5589  0.2545  0.5003
 6989SOL     OW32425   4.408   0.927   7.916  0.4465  0.1096 -0.0541
 6989SOL    HW132426   4.502   0.920   7.928  0.5534  0.2322 -0.7999
 6989SOL    HW232427   4.397   1.016   7.884 -0.8789 -0.2340 -0.5862
 6990SOL     OW32428   0.320   1.126   2.889  0.4469 -0.2830  0.6728
 6990SOL    HW132429   0.398   1.113   2.944  0.3196 -0.0830  0.9031
 6990SOL    HW232430   0.302   1.217   2.915 -0.5452 -0.3163  0.0874
 6991SOL     OW32431   3.127   4.330   6.824 -0.1501 -0.0479  0.4375
 6991SOL    HW132432   3.217   4.308   6.848  0.0411 -0.1840 -0.4147
 6991SOL    HW232433   3.098   4.373   6.905 -0.5306 -1.1825  0.8962
 6992SOL     OW32434   3.612   1.255   8.189 -0.0791  0.1300  0.0890
 6992SOL    HW132435   3.618   1.164   8.159 -0.0302  0.2581 -0.2964
 6992SOL    HW232436   3.687   1.256   8.248  0.2113 -2.6714 -0.2214
 6993SOL     OW32437   1.998   3.684   8.013  0.8259  0.0354  0.4047
 6993SOL    HW132438   2.065   3.683   8.081  0.6295 -2.9481  0.5167
 6993SOL    HW232439   1.967   3.774   8.030 -2.2881 -0.6915 -1.4189
 6994SOL     OW32440   0.200   3.774  13.047 -0.3164 -0.4892  0.3316
 6994SOL    HW132441   0.111   3.806  13.055  0.3732  1.2657  0.9641
 6994SOL    HW232442   0.238   3.847  12.999 -0.4429 -2.7256 -3.1755
 6995SOL     OW32443   3.311   2.687   3.130 -0.0044 -0.0243  0.0019
 6995SOL    HW132444   3.296   2.669   3.037  3.2723 -0.3627 -0.4590
 6995SOL    HW232445   3.314   2.601   3.170  0.2655 -0.5782 -1.2053
 6996SOL     OW32446   2.541   1.107   8.718  0.6389  0.7288  0.5956
 6996SOL    HW132447   2.463   1.126   8.770 -0.5883 -1.0337 -0.6005
 6996SOL    HW232448   2.564   1.023   8.757  1.5100 -0.1052 -1.6990
 6997SOL     OW32449   0.294   2.665   7.374  0.6010 -0.0286  0.2276
 6997SOL    HW132450   0.256   2.597   7.430  2.5924 -1.4945 -0.2373
 6997SOL    HW232451   0.286   2.746   7.425  0.3885  0.3408 -0.3897
 6998SOL     OW32452   1.242   2.686   8.034  0.3701 -0.1478  0.9043
 6998SOL    HW132453   1.189   2.663   7.958  1.6779  2.8824 -0.9026
 6998SOL    HW232454   1.322   2.644   8.002 -0.5382 -0.5895 -0.7875
 6999SOL     OW32455   1.461   2.330  10.402  0.7970  0.0293  0.1224
 6999SOL    HW132456   1.537   2.280  10.431  0.0232 -1.2198 -0.0002
 6999SOL    HW232457   1.469   2.405  10.461  0.3290 -1.4063  1.9840
 7000SOL     OW32458   3.595   1.901   3.261 -0.0762 -0.3959 -0.1449
 7000SOL    HW132459   3.505   1.920   3.286 -0.3568 -0.7911 -0.8637
 7000SOL    HW232460   3.612   1.995   3.255 -0.7086 -0.3898 -1.8954
 7001SOL     OW32461   1.465   1.665  14.444 -0.4835  0.5812  0.3743
 7001SOL    HW132462   1.513   1.730  14.495  3.0373 -1.0791 -0.8041
 7001SOL    HW232463   1.437   1.601  14.509 -3.3948  0.1980 -1.2645
 7002SOL     OW32464   0.404   2.162   9.228  0.0903  0.0200  0.3336
 7002SOL    HW132465   0.376   2.245   9.266 -1.2475 -0.9450  1.4540
 7002SOL    HW232466   0.376   2.178   9.137 -0.7878 -1.7360  0.3076
 7003SOL     OW32467   3.576   4.566   3.838 -0.5612 -0.0267 -0.0668
 7003SOL    HW132468   3.595   4.560   3.745 -1.8493  0.4454 -0.3687
 7003SOL    HW232469   3.656   4.608   3.868 -0.2478 -0.9035  0.3369
 7004SOL     OW32470   3.101   2.366   7.914 -0.3192  0.5073  0.2330
 7004SOL    HW132471   3.024   2.399   7.960  1.1591  1.9358  1.6718
 7004SOL    HW232472   3.164   2.437   7.909  0.2271 -0.0960 -1.4411
 7005SOL     OW32473   3.663   3.346  17.186 -0.2571 -0.4809  0.4397
 7005SOL    HW132474   3.738   3.287  17.196 -0.1731 -0.6226 -0.9731
 7005SOL    HW232475   3.702   3.433  17.180 -1.3234  0.0191  0.7820
 7006SOL     OW32476   3.447   1.194   6.418  0.4272  0.3142  0.2376
 7006SOL    HW132477   3.417   1.208   6.507 -0.2236 -0.1723  0.0878
 7006SOL    HW232478   3.495   1.112   6.429 -0.2977 -0.3285 -1.3587
 7007SOL     OW32479   1.133   0.827   5.178  0.2448  0.1756 -0.4399
 7007SOL    HW132480   1.123   0.756   5.114  0.3027 -1.3347  1.2061
 7007SOL    HW232481   1.182   0.769   5.236  0.8514  0.4761 -0.6595
 7008SOL     OW32482   3.484   2.866   5.079 -0.2150 -0.5556 -0.3373
 7008SOL    HW132483   3.572   2.831   5.065  0.4939  1.1498 -0.1948
 7008SOL    HW232484   3.460   2.909   4.997  1.1570 -0.9993 -0.9663
 7009SOL     OW32485   4.529   1.463   4.617 -1.0845  0.1616 -0.1355
 7009SOL    HW132486   4.569   1.445   4.702 -1.7308 -1.1238 -0.1086
 7009SOL    HW232487   4.471   1.532   4.650  2.0588  0.4645  4.8029
 7010SOL     OW32488   2.085   3.307   2.941 -0.0901 -0.0492  0.1999
 7010SOL    HW132489   2.148   3.325   3.010  1.3708 -1.7000 -0.6974
 7010SOL    HW232490   2.109   3.223   2.903  0.6909 -0.4175  1.5155
 7011SOL     OW32491   1.024   4.594   3.299  0.6984  0.1978  0.2093
 7011SOL    HW132492   1.081   4.644   3.240  2.9048 -1.2421  1.1393
 7011SOL    HW232493   0.954   4.584   3.235  2.0782  3.8486 -1.9399
 7012SOL     OW32494   0.448   1.588  12.500  0.1653 -0.7647  0.1649
 7012SOL    HW132495   0.543   1.592  12.509  0.5341 -0.4523 -3.7033
 7012SOL    HW232496   0.415   1.660  12.553  1.3619 -2.2973  2.9881
 7013SOL     OW32497   3.526   1.003   2.111  0.2196  0.0390 -0.6730
 7013SOL    HW132498   3.557   1.032   2.025 -1.8844 -0.6249 -1.6520
 7013SOL    HW232499   3.608   0.968   2.147 -0.9452 -0.7433  1.1937
 7014SOL     OW32500   3.690   1.635   1.210 -0.1246 -0.2769  0.3131
 7014SOL    HW132501   3.726   1.552   1.178  0.9035  0.7586 -1.2069
 7014SOL    HW232502   3.771   1.664   1.251  1.3355 -1.0054 -2.0377
 7015SOL     OW32503   1.262   3.339   4.874  0.2077  0.4330 -0.7099
 7015SOL    HW132504   1.218   3.352   4.790  1.5272  0.3445 -1.4181
 7015SOL    HW232505   1.319   3.263   4.859 -1.7954 -1.3325  0.4751
 7016SOL     OW32506   2.321   4.128  11.666  0.5047 -0.3365  0.5972
 7016SOL    HW132507   2.309   4.033  11.667  1.7921 -0.4936  1.8372
 7016SOL    HW232508   2.407   4.127  11.623 -0.5262 -0.7857 -1.4684
 7017SOL     OW32509   2.706   0.405   8.188  0.5505  0.1920  0.5221
 7017SOL    HW132510   2.736   0.491   8.216 -0.9325  1.2294 -1.1201
 7017SOL    HW232511   2.782   0.394   8.130  1.1995  0.2867  1.3660
 7018SOL     OW32512   2.980   3.644   8.676  0.4008 -0.0876 -0.0513
 7018SOL    HW132513   2.954   3.735   8.664 -0.8386 -0.5453 -0.7630
 7018SOL    HW232514   2.897   3.606   8.702  0.1403 -0.4799 -1.4599
 7019SOL     OW32515   0.371   3.190   6.465  0.4196 -0.5233  0.0446
 7019SOL    HW132516   0.449   3.241   6.486  0.5503 -1.1200  1.0257
 7019SOL    HW232517   0.407   3.142   6.390  1.0050 -1.5731  0.9905
 7020SOL     OW32518   3.868   2.076   4.044 -0.9017  0.6530  0.4699
 7020SOL    HW132519   3.817   2.129   4.106 -1.9463  0.5508 -0.3090
 7020SOL    HW232520   3.815   2.066   3.965 -1.6405  0.4062  1.0005
 7021SOL     OW32521   1.955   2.090   3.774 -0.1944 -0.3209 -0.0573
 7021SOL    HW132522   1.930   2.092   3.866  1.2487  0.8694  0.3122
 7021SOL    HW232523   1.986   2.180   3.761  1.5185 -1.3561 -3.1124
 7022SOL     OW32524   3.939   3.794   6.936 -0.4303  0.2073 -0.4930
 7022SOL    HW132525   4.013   3.772   6.993 -0.0540  0.9417 -0.6858
 7022SOL    HW232526   3.965   3.760   6.850 -0.1602 -2.2860  0.5733
 7023SOL     OW32527   2.124   2.933  17.010  0.5998  0.2170 -0.2837
 7023SOL    HW132528   2.081   2.896  17.088 -0.9595  3.3978  0.3463
 7023SOL    HW232529   2.113   3.025  17.033  0.2567 -0.3516  1.8267
 7024SOL     OW32530   0.646   1.299   4.880  0.1851 -0.5424 -0.4674
 7024SOL    HW132531   0.555   1.329   4.875  0.4170  0.0185 -1.3596
 7024SOL    HW232532   0.659   1.330   4.970  0.5311 -1.4047 -0.2228
 7025SOL     OW32533   4.014   0.961   7.679 -0.5885 -0.3243 -0.1479
 7025SOL    HW132534   4.060   0.895   7.731  0.8644  0.0595 -0.9699
 7025SOL    HW232535   4.086   1.017   7.650 -1.1366  0.7422  0.5429
 7026SOL     OW32536   1.696   1.408   7.272  0.0532 -0.0000 -0.1022
 7026SOL    HW132537   1.667   1.324   7.306 -0.5863  0.3732  0.2762
 7026SOL    HW232538   1.655   1.395   7.186  0.5152 -0.9127 -0.1823
 7027SOL     OW32539   2.413   2.279   6.848  0.4900 -0.5228  0.4603
 7027SOL    HW132540   2.507   2.266   6.839  0.4924 -0.8429  0.9429
 7027SOL    HW232541   2.393   2.295   6.940 -1.0459 -1.4497  0.2984
 7028SOL     OW32542   1.089   1.004  11.886 -0.5240 -0.0751  0.3015
 7028SOL    HW132543   1.138   0.939  11.936  1.7747 -0.2305 -2.0927
 7028SOL    HW232544   1.152   1.076  11.884 -0.1286 -0.4571 -0.9137
 7029SOL     OW32545   1.184   2.354   7.873  0.2992 -0.0895 -0.1912
 7029SOL    HW132546   1.191   2.308   7.957 -1.2868 -5.5192 -3.0004
 7029SOL    HW232547   1.090   2.347   7.856 -0.0467  2.7051  0.6021
 7030SOL     OW32548   1.629   1.603  11.766 -0.1260 -0.6149 -0.4358
 7030SOL    HW132549   1.657   1.536  11.830 -2.0410 -2.7274 -1.8258
 7030SOL    HW232550   1.654   1.685  11.808 -2.4556  1.4356 -3.1107
 7031SOL     OW32551   0.266   4.474   8.326 -0.1725 -1.0502  0.9352
 7031SOL    HW132552   0.253   4.492   8.233 -1.0470  1.2058  1.5063
 7031SOL    HW232553   0.351   4.429   8.327  0.1876 -0.3733  0.3427
 7032SOL     OW32554   1.789   0.019   0.241  0.1357 -0.2511  0.2167
 7032SOL    HW132555   1.727   0.038   0.311 -0.9761  2.3865 -1.5125
 7032SOL    HW232556   1.810   0.110   0.223  0.3056 -0.4276 -0.4820
 7033SOL     OW32557   1.815   1.217   5.065 -0.2067 -0.1187  0.1229
 7033SOL    HW132558   1.805   1.196   5.158  0.3390  3.7675  1.0884
 7033SOL    HW232559   1.845   1.308   5.070 -0.2129 -0.2954  3.3403
 7034SOL     OW32560   2.826   4.430   9.229  0.1938 -0.2412  0.0512
 7034SOL    HW132561   2.750   4.480   9.201 -1.5310 -1.7038  2.1577
 7034SOL    HW232562   2.785   4.351   9.263 -0.1116 -0.4154 -0.7117
 7035SOL     OW32563   2.791   1.745   0.549  0.7026  0.1137  0.2292
 7035SOL    HW132564   2.699   1.717   0.556  1.0371 -0.9850  0.3323
 7035SOL    HW232565   2.803   1.806   0.621  0.8204 -0.1791  0.4605
 7036SOL     OW32566   1.389   0.761   7.121 -0.5116  0.6214  0.4981
 7036SOL    HW132567   1.386   0.756   7.026  1.5204  0.9088  0.4253
 7036SOL    HW232568   1.464   0.705   7.139  0.3955  1.2764 -1.2672
 7037SOL     OW32569   0.500   1.123  16.074  0.1930 -0.8744  0.2936
 7037SOL    HW132570   0.523   1.206  16.116 -0.0087 -0.0668 -1.1842
 7037SOL    HW232571   0.412   1.101  16.105 -0.6785 -0.3066 -1.7570
 7038SOL     OW32572   3.727   1.160  13.118 -0.5397 -0.9065  0.1348
 7038SOL    HW132573   3.749   1.122  13.203 -1.3518  1.1777  1.2697
 7038SOL    HW232574   3.673   1.233  13.149 -0.1228 -0.0230 -1.2360
 7039SOL     OW32575   3.167   1.253   6.999  0.4160  0.2404 -0.3920
 7039SOL    HW132576   3.256   1.222   7.016 -0.4443 -1.9263  0.1102
 7039SOL    HW232577   3.184   1.311   6.925  0.8460 -1.1493 -1.3750
 7040SOL     OW32578   0.814   1.146  13.189  0.1951  0.0977 -0.3928
 7040SOL    HW132579   0.875   1.159  13.117  1.0669  0.5579  0.4261
 7040SOL    HW232580   0.817   1.051  13.196  1.0156  0.4087  3.6619
 7041SOL     OW32581   1.618   2.477  11.456  0.0349 -0.2589 -0.2441
 7041SOL    HW132582   1.625   2.414  11.384 -1.6327 -2.5383  1.6115
 7041SOL    HW232583   1.623   2.557  11.403  0.3406 -0.1149  0.0035
 7042SOL     OW32584   4.164   2.480   7.049 -0.5375 -0.0786  0.1303
 7042SOL    HW132585   4.176   2.545   6.980  0.2290 -1.4495 -1.0232
 7042SOL    HW232586   4.073   2.466   7.025 -0.1816  1.7353 -2.2139
 7043SOL     OW32587   3.989   2.307  12.870 -0.4160 -0.5766  0.2556
 7043SOL    HW132588   3.925   2.276  12.806  1.5187 -1.3581 -1.3134
 7043SOL    HW232589   3.945   2.382  12.909 -1.2896 -0.2351 -1.3823
 7044SOL     OW32590   1.372   1.222   0.453 -0.3481  0.5479  0.2998
 7044SOL    HW132591   1.343   1.302   0.496  0.0789  0.4945  0.6940
 7044SOL    HW232592   1.371   1.256   0.363  0.0486 -1.0813 -0.3311
 7045SOL     OW32593   2.374   3.913  11.805  0.3091  0.0190  0.3963
 7045SOL    HW132594   2.446   3.969  11.833  1.4012 -0.2600 -1.8619
 7045SOL    HW232595   2.320   3.915  11.883  0.3553  0.9155  0.4031
 7046SOL     OW32596   2.967   2.706   1.908 -0.0795 -0.3730 -0.3004
 7046SOL    HW132597   3.001   2.661   1.985  0.3110 -1.8325 -1.3181
 7046SOL    HW232598   3.047   2.737   1.865  0.2769  1.6893  1.8409
 7047SOL     OW32599   4.335   3.207  10.944 -0.0596 -0.1540  0.0091
 7047SOL    HW132600   4.273   3.192  11.016 -0.8197  1.8160 -0.2432
 7047SOL    HW232601   4.325   3.300  10.926 -1.5361 -0.3651 -0.2745
 7048SOL     OW32602   1.997   1.886   6.699 -0.7177 -0.4508  0.3676
 7048SOL    HW132603   1.934   1.841   6.755 -0.4706  2.1127  2.6655
 7048SOL    HW232604   1.947   1.957   6.660  1.8184  1.2171  0.1787
 7049SOL     OW32605   1.763   1.020   0.437  0.2510 -0.3972  0.0073
 7049SOL    HW132606   1.781   1.085   0.505 -1.4760  0.0015  0.0855
 7049SOL    HW232607   1.720   1.072   0.369  1.4251 -1.9415 -1.8997
 7050SOL     OW32608   4.266   1.020   3.157  0.2842  0.1051 -0.5802
 7050SOL    HW132609   4.199   0.981   3.214 -0.2374 -0.7584 -1.7764
 7050SOL    HW232610   4.240   1.112   3.153  1.4820  0.6009  2.8974
 7051SOL     OW32611   3.570   2.689   6.222 -0.0024 -0.8745  1.0328
 7051SOL    HW132612   3.491   2.722   6.265  0.2511  0.1890  0.6916
 7051SOL    HW232613   3.550   2.596   6.230 -2.8639 -0.2493  1.1323
 7052SOL     OW32614   0.625   2.315   5.784 -0.2215 -0.0816  0.4625
 7052SOL    HW132615   0.688   2.386   5.794  0.1738  0.1725 -3.8796
 7052SOL    HW232616   0.595   2.331   5.694 -1.5541  2.8206  1.4078
 7053SOL     OW32617   4.569   3.917   4.760  0.3163  0.2069 -0.0867
 7053SOL    HW132618   4.556   3.999   4.712 -0.8690  1.4138  2.3239
 7053SOL    HW232619   4.606   3.866   4.688  0.4665 -0.2233  0.2976
 7054SOL     OW32620   4.059   1.439   6.598 -0.0003  0.3416  0.7150
 7054SOL    HW132621   4.128   1.452   6.664 -0.4676 -0.2404  1.3243
 7054SOL    HW232622   4.057   1.525   6.557 -1.0129  0.3273  0.7243
 7055SOL     OW32623   0.957   2.773   7.263  0.3842  0.2362 -0.2488
 7055SOL    HW132624   1.036   2.817   7.292 -0.8367  2.3850 -0.1976
 7055SOL    HW232625   0.934   2.713   7.334 -0.6540  0.4441 -0.4027
 7056SOL     OW32626   2.982   1.441   7.482  0.3993 -0.2615 -0.2542
 7056SOL    HW132627   2.981   1.400   7.395  1.5095 -1.7913  0.4688
 7056SOL    HW232628   2.999   1.531   7.453  0.5297 -0.1887  0.0509
 7057SOL     OW32629   2.500   1.156   4.004 -0.0670  0.3766 -0.5481
 7057SOL    HW132630   2.580   1.207   4.014  0.2851 -0.0521 -1.2668
 7057SOL    HW232631   2.520   1.070   4.042  0.0638  0.2169 -0.9883
 7058SOL     OW32632   3.864   1.959  16.270 -0.2055 -0.0257 -0.0810
 7058SOL    HW132633   3.914   2.018  16.214  1.6807 -0.2732  1.3412
 7058SOL    HW232634   3.835   2.017  16.340 -0.4542  1.2303 -1.2392
 7059SOL     OW32635   3.819   4.460   6.468 -0.0132  0.7400  1.0350
 7059SOL    HW132636   3.728   4.451   6.439  0.7616  3.3626 -2.2905
 7059SOL    HW232637   3.812   4.513   6.547 -1.7145 -0.7851  1.9202
 7060SOL     OW32638   4.648   3.709   7.071 -0.8054  0.0938 -0.5085
 7060SOL    HW132639   4.695   3.775   7.122  2.1371 -2.6270  0.3814
 7060SOL    HW232640   4.681   3.631   7.116 -2.6038 -1.1136 -1.2682
 7061SOL     OW32641   1.877   2.705  16.343 -0.5728  0.0439 -0.7145
 7061SOL    HW132642   1.919   2.662  16.417 -2.4024 -2.0774 -0.9062
 7061SOL    HW232643   1.935   2.688  16.269  1.6741  3.1860  0.3094
 7062SOL     OW32644   2.161   0.554   0.405  0.2062  0.5838 -0.2419
 7062SOL    HW132645   2.118   0.581   0.324  1.6316 -1.7298 -1.7665
 7062SOL    HW232646   2.198   0.470   0.378  0.0368  0.1483  0.8440
 7063SOL     OW32647   0.764   1.025   1.491 -0.6039 -0.1083 -1.2400
 7063SOL    HW132648   0.703   1.073   1.435  0.3202 -0.1420 -2.2828
 7063SOL    HW232649   0.835   1.003   1.431 -0.1603  1.1197 -1.1593
 7064SOL     OW32650   1.751   2.364   6.644 -0.2688  0.3690 -0.1581
 7064SOL    HW132651   1.778   2.454   6.626 -2.3506  0.5053 -2.6278
 7064SOL    HW232652   1.702   2.352   6.562  0.1421  0.2741 -0.3880
 7065SOL     OW32653   0.517   4.072   1.243  0.1575  0.6911 -0.5334
 7065SOL    HW132654   0.467   3.996   1.214  1.0416 -0.7583  1.7554
 7065SOL    HW232655   0.548   4.038   1.327 -1.6090  1.4914  0.4463
 7066SOL     OW32656   4.626   4.158  14.558  0.2728  0.4615  0.3095
 7066SOL    HW132657   4.689   4.120  14.497  0.3061 -1.6890  1.6823
 7066SOL    HW232658   4.546   4.141  14.508  0.1596  0.9115  0.3418
 7067SOL     OW32659   2.046   3.496   2.422 -0.0553  0.1417 -0.3828
 7067SOL    HW132660   2.020   3.582   2.390 -2.0105 -0.6242 -0.8257
 7067SOL    HW232661   1.979   3.432   2.398 -0.7934  1.1135 -0.8831
 7068SOL     OW32662   4.321   0.459   0.814  0.3271 -0.6294  0.1442
 7068SOL    HW132663   4.355   0.473   0.902  2.3459  0.7932 -0.8661
 7068SOL    HW232664   4.238   0.416   0.836  1.4486 -2.5468  0.5862
 7069SOL     OW32665   3.413   0.767   4.922  0.9777 -0.6301  0.4561
 7069SOL    HW132666   3.421   0.845   4.978 -0.5911 -0.2837  0.2134
 7069SOL    HW232667   3.348   0.714   4.968  0.4674 -2.0674 -1.9357
 7070SOL     OW32668   3.798   0.814   7.574 -0.0706  0.3567  0.5734
 7070SOL    HW132669   3.868   0.860   7.621  0.2324  0.0565  0.4228
 7070SOL    HW232670   3.736   0.785   7.640  0.4724  0.7083  1.2447
 7071SOL     OW32671   0.172   1.422   5.995  0.3786  0.5724  0.0523
 7071SOL    HW132672   0.185   1.516   6.011 -2.2265  1.3090 -2.0751
 7071SOL    HW232673   0.223   1.408   5.916 -0.7612  0.7495 -0.7306
 7072SOL     OW32674   2.518   1.276  10.979  0.0657 -0.7521  0.1892
 7072SOL    HW132675   2.461   1.234  10.915  2.6646 -0.7858 -2.0767
 7072SOL    HW232676   2.498   1.222  11.056  1.1334 -1.0231  0.2795
 7073SOL     OW32677   1.215   0.823   5.601  0.2110 -0.2989 -0.0254
 7073SOL    HW132678   1.184   0.893   5.544 -0.4725  0.5199  1.3445
 7073SOL    HW232679   1.157   0.755   5.569 -1.0637  0.3559  0.8772
 7074SOL     OW32680   4.689   1.683   1.827 -0.2947 -0.0846  0.3153
 7074SOL    HW132681   4.629   1.719   1.891  0.5568 -0.2981  1.2308
 7074SOL    HW232682   4.720   1.606   1.875 -0.4516  0.3449  1.1003
 7075SOL     OW32683   0.904   3.097   1.958  0.4213  0.1838 -0.4774
 7075SOL    HW132684   0.998   3.114   1.952  0.1855  0.9069 -2.2404
 7075SOL    HW232685   0.916   3.006   1.982 -1.4381  0.2784  0.8402
 7076SOL     OW32686   1.756   2.057   6.319 -0.2220  0.6150  0.4476
 7076SOL    HW132687   1.732   1.991   6.385  1.8442 -1.2066 -0.6355
 7076SOL    HW232688   1.741   2.027   6.230 -1.0576 -0.3581  0.9119
 7077SOL     OW32689   2.448   2.478  16.163  0.3687 -0.6688 -1.0268
 7077SOL    HW132690   2.508   2.508  16.095  0.0378  1.5799 -0.3274
 7077SOL    HW232691   2.391   2.416  16.117 -0.6078 -1.2016  0.8979
 7078SOL     OW32692   3.045   1.405   1.829  0.3098  1.1147 -0.0657
 7078SOL    HW132693   2.982   1.337   1.855 -0.8747  1.6298 -1.5918
 7078SOL    HW232694   2.983   1.479   1.827  0.1052  0.9980  1.4158
 7079SOL     OW32695   1.962   3.386   3.576  0.2171 -0.0233  0.2787
 7079SOL    HW132696   1.906   3.310   3.558 -0.1747 -0.3403  2.7764
 7079SOL    HW232697   1.946   3.442   3.501  0.7349 -0.3422 -0.0748
 7080SOL     OW32698   3.750   0.128   0.556 -0.1732  0.1311  0.7406
 7080SOL    HW132699   3.655   0.135   0.566  0.1898  4.1825  1.4546
 7080SOL    HW232700   3.756   0.033   0.564 -1.7683 -0.2511 -2.8718
 7081SOL     OW32701   3.292   2.314  10.482  0.1801 -0.0632  0.9651
 7081SOL    HW132702   3.301   2.409  10.469 -0.3712  0.1788  2.2382
 7081SOL    HW232703   3.297   2.308  10.578  0.4106 -0.6399  0.9147
 7082SOL     OW32704   1.883   0.185  10.107  0.4543 -0.2663  0.0244
 7082SOL    HW132705   1.803   0.135  10.123  0.4202 -0.7472 -1.6690
 7082SOL    HW232706   1.949   0.144  10.162 -2.7437 -4.5195  0.7221
 7083SOL     OW32707   0.337   4.353   7.785 -0.5764  0.1083 -0.0141
 7083SOL    HW132708   0.356   4.347   7.692 -0.8019 -0.5917 -0.0074
 7083SOL    HW232709   0.277   4.428   7.790 -0.5547  0.1498 -0.3650
 7084SOL     OW32710   0.426   1.189   4.367  0.5393  0.2699  0.3774
 7084SOL    HW132711   0.338   1.193   4.329  0.9811 -0.0618 -0.6833
 7084SOL    HW232712   0.471   1.128   4.308 -0.9806 -0.7288  0.2461
 7085SOL     OW32713   0.971   1.682   4.354  0.6380  0.1829  0.2546
 7085SOL    HW132714   1.017   1.601   4.332  1.6359  0.5039  1.1745
 7085SOL    HW232715   0.929   1.637   4.428  0.6615  1.8619  1.2847
 7086SOL     OW32716   4.258   3.405   5.832 -0.0211 -1.1526 -0.2728
 7086SOL    HW132717   4.320   3.449   5.889  0.3236 -1.0361 -0.7345
 7086SOL    HW232718   4.289   3.448   5.752 -0.0466 -1.5470 -0.4949
 7087SOL     OW32719   3.506   0.566   7.832  0.2840 -0.1075  0.6574
 7087SOL    HW132720   3.541   0.564   7.921  1.5848 -1.1264  0.1122
 7087SOL    HW232721   3.567   0.509   7.784  0.2333  1.3080 -1.0967
 7088SOL     OW32722   2.943   1.672   3.578  0.1592 -0.3148 -0.0518
 7088SOL    HW132723   2.899   1.696   3.496 -0.3464  2.6365  1.0674
 7088SOL    HW232724   3.034   1.650   3.561  0.1998  0.9069 -1.4284
 7089SOL     OW32725   2.678   4.521   8.987 -0.0957  0.1986 -0.6050
 7089SOL    HW132726   2.641   4.540   9.073  1.0632 -1.5687  0.2861
 7089SOL    HW232727   2.600   4.553   8.943  0.1413  1.2772 -0.2520
 7090SOL     OW32728   4.353   0.579  17.270  0.0003 -0.2758 -0.3944
 7090SOL    HW132729   4.396   0.652  17.315  0.7775 -1.4434  0.7274
 7090SOL    HW232730   4.430   0.541  17.227  1.2584  1.0585  0.6580
 7091SOL     OW32731   0.144   4.531   8.790 -0.3586  0.0622 -0.0760
 7091SOL    HW132732   0.182   4.563   8.872 -0.3539  1.5328 -0.6417
 7091SOL    HW232733   0.077   4.473   8.825 -0.2380 -0.6181 -0.9939
 7092SOL     OW32734   1.506   2.540   3.864 -0.1477  0.1220 -0.1716
 7092SOL    HW132735   1.446   2.490   3.809 -2.3363  0.8902  1.5446
 7092SOL    HW232736   1.443   2.609   3.881 -1.8626 -2.2979  3.2074
 7093SOL     OW32737   0.398   3.856   9.934  0.4641 -0.2604 -0.1443
 7093SOL    HW132738   0.398   3.891  10.024  0.3380  1.3028 -0.7453
 7093SOL    HW232739   0.325   3.795   9.931 -1.1587  1.7691 -1.9057
 7094SOL     OW32740   0.110   3.526   8.656 -0.0585  0.1954  0.3843
 7094SOL    HW132741   0.146   3.439   8.637  0.6349  0.6681 -0.4848
 7094SOL    HW232742   0.158   3.588   8.601  2.4613 -0.5152  1.7817
 7095SOL     OW32743   2.993   2.137   0.350  0.2923  0.2022  0.1759
 7095SOL    HW132744   3.059   2.129   0.418  0.7597 -2.5525 -0.6176
 7095SOL    HW232745   2.926   2.072   0.371  0.3000  0.7576  1.8835
 7096SOL     OW32746   4.102   0.126  17.634 -0.1726  0.3764  0.3030
 7096SOL    HW132747   4.088   0.067  17.560  0.9987  0.3278  0.1177
 7096SOL    HW232748   4.020   0.173  17.623 -0.4325 -0.0333  0.4838
 7097SOL     OW32749   4.509   3.779   7.444 -0.1973 -0.0192 -0.1093
 7097SOL    HW132750   4.601   3.754   7.450  0.1897  1.7668  1.4050
 7097SOL    HW232751   4.469   3.692   7.448 -2.7754  1.1316 -0.7069
 7098SOL     OW32752   2.732   2.272  17.500  0.2881  0.2982  0.8779
 7098SOL    HW132753   2.819   2.264  17.540  1.1567  2.4296 -0.5396
 7098SOL    HW232754   2.727   2.364  17.473  0.4948  0.0056 -0.1279
 7099SOL     OW32755   1.618   3.767   6.565  0.0499 -0.1803 -0.2642
 7099SOL    HW132756   1.592   3.695   6.622 -0.7114  2.4830  2.7419
 7099SOL    HW232757   1.698   3.801   6.606 -0.8009 -1.7841  2.6512
 7100SOL     OW32758   1.198   1.935   2.994  0.0662  0.0021 -0.1579
 7100SOL    HW132759   1.135   1.965   2.929  0.5760  2.6737  0.5948
 7100SOL    HW232760   1.234   1.862   2.944  0.2148 -0.2893  0.3704
 7101SOL     OW32761   4.708   3.131  14.032 -0.2564  0.1463  0.0390
 7101SOL    HW132762   4.720   3.049  13.984 -0.8779  1.1210 -1.7684
 7101SOL    HW232763   0.069   3.168  14.007 -0.1094 -1.2212 -1.4955
 7102SOL     OW32764   1.528   0.330  10.654 -0.3219  0.3343 -0.7909
 7102SOL    HW132765   1.441   0.333  10.694 -0.1506  3.6169 -0.6295
 7102SOL    HW232766   1.543   0.236  10.647 -0.3407  0.3624 -1.1754
 7103SOL     OW32767   2.515   3.665   3.723  0.1767  0.7430 -0.5639
 7103SOL    HW132768   2.583   3.599   3.715 -1.5910 -1.2257  0.5648
 7103SOL    HW232769   2.441   3.615   3.758  0.5482 -0.0373 -0.9064
 7104SOL     OW32770   0.315   1.015   7.910  0.5566  0.1914 -0.2187
 7104SOL    HW132771   0.402   0.976   7.899  0.0697 -0.1017 -2.9751
 7104SOL    HW232772   0.275   0.955   7.974  0.4366  0.8109  0.2831
 7105SOL     OW32773   4.206   2.071  13.732  0.3731 -0.3653 -0.5506
 7105SOL    HW132774   4.288   2.030  13.704  0.4982  0.0736 -0.8396
 7105SOL    HW232775   4.242   2.159  13.741 -1.2978  0.1719  0.7999
 7106SOL     OW32776   0.174   2.245  16.685 -0.4571 -0.0514  0.2407
 7106SOL    HW132777   0.187   2.172  16.746  2.8806 -0.4678 -0.9188
 7106SOL    HW232778   0.232   2.213  16.616  0.3636  0.7326  0.5594
 7107SOL     OW32779   2.635   4.016  11.260 -0.3897 -0.0147 -0.2625
 7107SOL    HW132780   2.595   4.034  11.175  1.5217 -0.7091 -1.3152
 7107SOL    HW232781   2.651   3.922  11.246  1.8278  0.1105  1.2957
 7108SOL     OW32782   1.183   3.333   4.021 -0.2381  0.0825 -0.3983
 7108SOL    HW132783   1.254   3.384   3.982  0.1211 -0.3283 -0.2818
 7108SOL    HW232784   1.126   3.307   3.949  0.4351  2.4743 -1.8056
 7109SOL     OW32785   2.262   1.981   6.100  0.3112  0.1231 -0.0407
 7109SOL    HW132786   2.334   2.024   6.054  1.0252 -2.5225 -1.4069
 7109SOL    HW232787   2.238   2.051   6.160 -0.8902 -0.8292  0.5940
 7110SOL     OW32788   0.783   4.612  10.151  0.1766 -0.1648 -0.2127
 7110SOL    HW132789   0.782   4.666  10.072  0.4212  1.6803  1.0632
 7110SOL    HW232790   0.856   4.556  10.122 -0.6493 -0.3852 -1.8793
 7111SOL     OW32791   2.441   4.146   9.659 -0.1977  0.0066  0.0293
 7111SOL    HW132792   2.503   4.114   9.725  0.4476  0.4820 -0.3437
 7111SOL    HW232793   2.412   4.227   9.700  0.3320  1.0990 -1.7856
 7112SOL     OW32794   1.607   3.002  11.514  0.2597  0.6312  0.1721
 7112SOL    HW132795   1.591   3.011  11.608  1.5935  1.2035  0.3322
 7112SOL    HW232796   1.624   3.095  11.505 -1.0693  0.6931 -1.5602
 7113SOL     OW32797   3.971   3.438   5.122  0.5340 -0.4783  0.0273
 7113SOL    HW132798   3.915   3.391   5.184  2.2893 -1.4418  0.8761
 7113SOL    HW232799   3.903   3.463   5.059  0.3209 -0.2185  0.3578
 7114SOL     OW32800   4.390   0.838   4.749  0.2358  0.1255  0.4569
 7114SOL    HW132801   4.359   0.928   4.758  2.3455  0.7888  1.0487
 7114SOL    HW232802   4.315   0.790   4.785  0.4467  0.2171  1.0220
 7115SOL     OW32803   1.832   1.110   4.772 -0.3885 -0.3561 -0.8557
 7115SOL    HW132804   1.809   1.065   4.853 -1.2174  1.2620 -0.2000
 7115SOL    HW232805   1.757   1.088   4.716 -0.3962 -0.6485 -0.7311
 7116SOL     OW32806   0.989   3.063  16.403  0.4183  0.4163 -0.5915
 7116SOL    HW132807   1.039   3.133  16.445  1.9096 -0.2387 -1.2888
 7116SOL    HW232808   0.945   3.017  16.475  2.9256 -0.5412  0.3446
 7117SOL     OW32809   0.115   2.638   0.800 -0.4812  0.6429 -0.1782
 7117SOL    HW132810   0.160   2.598   0.724 -1.8545 -2.0641  0.4196
 7117SOL    HW232811   0.068   2.564   0.840  0.9012  1.2707  2.6016
 7118SOL     OW32812   0.443   1.231  14.022  0.9684 -0.1223  0.0697
 7118SOL    HW132813   0.505   1.304  14.021 -0.6844  1.2957  0.2839
 7118SOL    HW232814   0.367   1.282  14.049  1.0857  0.1902 -0.1917
 7119SOL     OW32815   1.401   1.495  14.637  0.6374 -0.0939  0.2524
 7119SOL    HW132816   1.355   1.412  14.625 -0.4523  0.5480  0.0218
 7119SOL    HW232817   1.338   1.528  14.701  0.7334 -0.0646  0.3322
 7120SOL     OW32818   0.107   2.039  12.713 -0.0621  0.7171  0.0763
 7120SOL    HW132819   0.023   1.993  12.711  1.0568 -1.2462 -2.3589
 7120SOL    HW232820   0.086   2.097  12.640 -1.5107 -0.4756 -0.4654
 7121SOL     OW32821   2.659   4.402   6.940 -0.1977  0.3620  0.4265
 7121SOL    HW132822   2.605   4.357   6.875  0.5916  0.9904 -0.6739
 7121SOL    HW232823   2.661   4.333   7.006 -0.7358 -0.2434 -0.2037
 7122SOL     OW32824   3.380   0.421  10.641 -0.6311 -0.4428  0.0465
 7122SOL    HW132825   3.321   0.448  10.571 -1.4235 -0.6003  0.6522
 7122SOL    HW232826   3.405   0.331  10.623  2.2337  0.5059 -0.6406
 7123SOL     OW32827   3.401   0.876   3.723 -0.0433 -0.2383 -0.4507
 7123SOL    HW132828   3.402   0.957   3.774  1.0948 -1.3829  1.3233
 7123SOL    HW232829   3.370   0.819   3.793 -1.4045 -2.7579 -3.0917
 7124SOL     OW32830   2.800   1.857   2.946 -0.1340 -0.2562 -0.2327
 7124SOL    HW132831   2.765   1.905   2.871  1.0834  0.0415 -0.6147
 7124SOL    HW232832   2.779   1.768   2.917  2.3638 -0.4133 -1.5320
 7125SOL     OW32833   4.526   2.932   3.648  0.2337 -0.1926 -0.1318
 7125SOL    HW132834   4.619   2.952   3.641  0.1906  0.8377  2.3722
 7125SOL    HW232835   4.520   2.867   3.578 -1.2276 -1.9231  1.6086
 7126SOL     OW32836   2.896   3.582   6.520 -0.3429  0.7735 -0.3255
 7126SOL    HW132837   2.950   3.628   6.456 -0.3376 -0.7050 -1.3833
 7126SOL    HW232838   2.850   3.514   6.470 -0.6377 -0.0130  1.0011
 7127SOL     OW32839   0.568   4.169   3.844  0.3480  0.1891  0.2232
 7127SOL    HW132840   0.660   4.181   3.825  0.2871 -0.7194 -0.6174
 7127SOL    HW232841   0.580   4.165   3.939 -0.0507  1.7181  0.3370
 7128SOL     OW32842   2.016   1.101   3.041 -0.4506  0.0806 -0.0370
 7128SOL    HW132843   2.010   1.008   3.060  1.7761  0.3215  1.8846
 7128SOL    HW232844   1.966   1.120   2.961  0.8280  0.9080 -0.6494
 7129SOL     OW32845   4.393   1.922   5.884  0.2178 -0.0081  0.2525
 7129SOL    HW132846   4.453   1.994   5.906 -0.2995  0.5515 -0.1972
 7129SOL    HW232847   4.328   1.932   5.953 -0.3680 -2.4652  0.0471
 7130SOL     OW32848   4.708   2.773  10.872 -0.2305 -0.5413 -0.9777
 7130SOL    HW132849   0.013   2.796  10.784  0.5036 -2.0519 -1.1387
 7130SOL    HW232850   4.613   2.789  10.870 -0.4476 -1.4770  1.9239
 7131SOL     OW32851   3.651   1.394   2.162 -0.3073 -0.4424 -0.0656
 7131SOL    HW132852   3.592   1.462   2.195  0.5013  0.0597  0.3523
 7131SOL    HW232853   3.684   1.364   2.246  0.2609 -1.0742 -0.5141
 7132SOL     OW32854   2.465   2.961   7.643  0.1587 -0.5651  0.2649
 7132SOL    HW132855   2.558   2.942   7.640 -0.6544 -4.1103 -2.8107
 7132SOL    HW232856   2.433   2.914   7.566 -0.3551 -0.2589  0.2900
 7133SOL     OW32857   1.687   0.875   4.058 -0.3815 -0.2753 -0.0742
 7133SOL    HW132858   1.743   0.882   3.981 -0.2725 -2.8384 -0.2148
 7133SOL    HW232859   1.737   0.836   4.129  1.4795 -1.2931 -1.9572
 7134SOL     OW32860   1.919   0.139   8.797 -0.0800 -0.5493 -0.3267
 7134SOL    HW132861   1.952   0.081   8.865 -3.5346 -1.7088  0.3543
 7134SOL    HW232862   1.842   0.168   8.845 -0.1243 -0.5302 -0.4083
 7135SOL     OW32863   2.023   3.042   6.626  0.6005  0.2748  0.2937
 7135SOL    HW132864   2.098   3.045   6.567  0.5840 -0.7488  0.2275
 7135SOL    HW232865   2.055   3.076   6.710 -1.5223  1.3585  0.6685
 7136SOL     OW32866   1.969   1.725  10.372  0.1591 -0.2515  0.0364
 7136SOL    HW132867   1.908   1.653  10.387  0.5878 -0.2019  2.0689
 7136SOL    HW232868   2.058   1.690  10.363 -0.0507 -0.3449 -1.5971
 7137SOL     OW32869   2.609   0.834   1.547  0.2035  0.1271  0.3750
 7137SOL    HW132870   2.542   0.847   1.614  1.3726  1.2188  1.3154
 7137SOL    HW232871   2.630   0.927   1.549  0.8484 -0.0281  0.7817
 7138SOL     OW32872   3.610   3.051   5.344 -0.3941  0.4311 -0.0210
 7138SOL    HW132873   3.650   3.053   5.432  2.0733  0.5992 -1.1407
 7138SOL    HW232874   3.561   2.970   5.357 -0.6336  0.7610  1.1848
 7139SOL     OW32875   0.534   0.134   8.437 -0.4234 -0.6639 -0.4646
 7139SOL    HW132876   0.444   0.126   8.405 -1.0039  2.0509  0.5086
 7139SOL    HW232877   0.537   0.222   8.475  0.7988 -0.7904 -0.2866
 7140SOL     OW32878   2.470   4.428  13.928 -0.5825  0.5399 -0.0859
 7140SOL    HW132879   2.541   4.375  13.891 -2.2878 -0.2483 -2.2461
 7140SOL    HW232880   2.431   4.354  13.975  1.1944  0.6972  1.6241
 7141SOL     OW32881   3.480   0.604  17.126 -0.1878  0.2685  0.4933
 7141SOL    HW132882   3.571   0.596  17.097 -0.3203 -1.4093  0.5225
 7141SOL    HW232883   3.450   0.683  17.082 -0.7317 -0.4957 -0.5192
 7142SOL     OW32884   3.322   3.393   6.618 -0.3847  0.2906 -0.0204
 7142SOL    HW132885   3.349   3.356   6.534 -2.0154  1.9082 -1.2570
 7142SOL    HW232886   3.228   3.376   6.620 -0.2048 -0.6979  0.1855
 7143SOL     OW32887   3.190   2.650   2.458 -0.2676 -0.1327 -0.4609
 7143SOL    HW132888   3.260   2.657   2.523  1.0064  1.5770 -2.0191
 7143SOL    HW232889   3.195   2.733   2.412  2.5864  1.3981  2.5504
 7144SOL     OW32890   0.664   3.648   7.015  0.7467 -0.0934 -0.0708
 7144SOL    HW132891   0.693   3.573   7.065  1.7243 -0.7413 -1.6200
 7144SOL    HW232892   0.574   3.616   7.008 -0.0233  1.7473  1.2851
 7145SOL     OW32893   0.430   1.715   6.441  0.0186 -0.2612 -0.2183
 7145SOL    HW132894   0.391   1.673   6.364 -0.3333 -0.3398  0.0006
 7145SOL    HW232895   0.514   1.745   6.406 -1.4188  2.0868 -1.6598
 7146SOL     OW32896   0.396   0.441   4.437 -0.0459  0.3389 -0.0101
 7146SOL    HW132897   0.396   0.471   4.528 -0.0968 -0.1253  0.1433
 7146SOL    HW232898   0.306   0.407   4.440  0.7153 -1.8488 -2.1942
 7147SOL     OW32899   0.978   2.923  15.319 -0.2733 -0.6933 -0.1245
 7147SOL    HW132900   1.029   2.949  15.243  0.0197  2.9615  1.3419
 7147SOL    HW232901   1.056   2.883  15.358  0.7746  2.5229  1.0858
 7148SOL     OW32902   4.227   2.314   1.689 -0.0445 -0.1655  0.5036
 7148SOL    HW132903   4.291   2.331   1.758 -0.0299  0.3294  0.3711
 7148SOL    HW232904   4.143   2.301   1.734 -0.3256  0.0861  0.0615
 7149SOL     OW32905   2.319   4.708  11.643 -0.3951 -0.1908  0.6822
 7149SOL    HW132906   2.382   0.001  11.573 -0.4480  2.2591  1.1891
 7149SOL    HW232907   2.285   0.074  11.630 -0.7665 -0.4986 -0.4732
 7150SOL     OW32908   2.792   3.280   4.897 -0.1829 -0.3185  0.5360
 7150SOL    HW132909   2.707   3.239   4.912 -0.0909 -0.8129 -0.2801
 7150SOL    HW232910   2.848   3.225   4.952 -0.9104 -0.4128  1.1795
 7151SOL     OW32911   0.384   0.367   2.638  0.0280  0.1928  0.5063
 7151SOL    HW132912   0.425   0.424   2.703  0.6481 -2.3663  2.3791
 7151SOL    HW232913   0.462   0.321   2.606  2.0007  1.1449  3.9787
 7152SOL     OW32914   2.766   4.522   4.149 -0.1326  0.0918 -0.3415
 7152SOL    HW132915   2.799   4.580   4.080 -0.1302  1.5868  0.9251
 7152SOL    HW232916   2.847   4.477   4.171  0.2092  2.3491  3.1434
 7153SOL     OW32917   1.247   1.541   6.712 -0.5550 -0.1243 -0.4757
 7153SOL    HW132918   1.183   1.487   6.665  1.2378 -0.0820 -2.9337
 7153SOL    HW232919   1.312   1.471   6.709 -1.0289 -0.6118  0.3936
 7154SOL     OW32920   2.451   2.924   4.194 -0.2603  0.2160  0.1264
 7154SOL    HW132921   2.388   2.996   4.206  0.6659  1.2047 -0.8962
 7154SOL    HW232922   2.530   2.972   4.220 -0.8691  0.5820  1.2810
 7155SOL     OW32923   2.937   1.757   4.400 -0.4242  0.4722  0.5958
 7155SOL    HW132924   2.969   1.690   4.340  0.2276  2.7269 -1.6171
 7155SOL    HW232925   2.857   1.713   4.427 -1.7132  0.8045 -2.6988
 7156SOL     OW32926   2.865   0.968   2.117  0.0443 -0.2298 -0.8646
 7156SOL    HW132927   2.848   0.946   2.026  0.4387  0.2148 -1.0458
 7156SOL    HW232928   2.776   0.989   2.144  0.7097  1.0901  0.3288
 7157SOL     OW32929   0.315   3.708   0.817 -0.1049 -0.0470 -0.2912
 7157SOL    HW132930   0.240   3.767   0.810 -0.0261 -0.2567 -2.8732
 7157SOL    HW232931   0.368   3.747   0.749  0.9774 -0.2481  0.4403
 7158SOL     OW32932   2.099   4.082   5.852 -0.2712 -0.2091  0.4641
 7158SOL    HW132933   2.073   4.112   5.765  0.7416  3.0719  1.2824
 7158SOL    HW232934   2.144   4.001   5.831  0.0336  1.1326 -4.0771
 7159SOL     OW32935   1.147   4.354   8.155  0.5458  0.0772 -0.6748
 7159SOL    HW132936   1.084   4.347   8.227 -0.4203 -1.0176 -1.6194
 7159SOL    HW232937   1.095   4.419   8.108  1.4357 -0.5103 -2.4624
 7160SOL     OW32938   0.983   0.518  15.408 -0.0551  0.1059  0.0154
 7160SOL    HW132939   0.987   0.498  15.502 -0.8648  0.0502  0.0456
 7160SOL    HW232940   1.030   0.601  15.395 -1.6041  0.7675 -1.4300
 7161SOL     OW32941   1.402   3.464   5.366 -0.3700 -0.4282 -0.2449
 7161SOL    HW132942   1.326   3.488   5.418 -0.0236  1.0347 -0.4180
 7161SOL    HW232943   1.364   3.437   5.283 -0.2971  0.6857 -0.6373
 7162SOL     OW32944   3.219   1.373   6.729 -0.4998 -0.1720 -0.6218
 7162SOL    HW132945   3.262   1.422   6.658 -1.0956  0.9539 -0.1980
 7162SOL    HW232946   3.130   1.399   6.704 -0.4063  2.9477  2.3789
 7163SOL     OW32947   1.739   3.145  14.712 -0.1966  0.2437 -0.2581
 7163SOL    HW132948   1.656   3.151  14.760 -0.5052 -0.0309 -0.7685
 7163SOL    HW232949   1.722   3.101  14.629  0.4506 -0.4930  0.0009
 7164SOL     OW32950   4.391   4.377  16.917  0.5656 -0.0133 -0.0892
 7164SOL    HW132951   4.351   4.378  16.830 -1.6236  0.7187  0.9149
 7164SOL    HW232952   4.463   4.439  16.908  1.0246 -0.2137  2.0435
 7165SOL     OW32953   0.628   0.995   2.826 -0.2590  0.2889 -0.0221
 7165SOL    HW132954   0.625   1.080   2.870  1.0746  2.0002 -3.2315
 7165SOL    HW232955   0.573   0.997   2.748  0.0478  0.3550 -0.2367
 7166SOL     OW32956   2.589   4.454   6.531 -0.0432  0.4692  0.3983
 7166SOL    HW132957   2.554   4.508   6.460  0.9323  0.0708 -0.3773
 7166SOL    HW232958   2.610   4.521   6.596  2.2121  1.2481 -1.1463
 7167SOL     OW32959   2.382   4.411   9.398 -0.2040 -0.1359  0.2413
 7167SOL    HW132960   2.294   4.393   9.367 -0.4279 -0.6857  1.1975
 7167SOL    HW232961   2.399   4.329   9.445 -2.7519 -1.0130 -0.3755
 7168SOL     OW32962   3.745   4.524   2.156 -0.3458 -0.3246 -0.2831
 7168SOL    HW132963   3.804   4.591   2.123 -2.0159 -0.5057 -3.5839
 7168SOL    HW232964   3.797   4.445   2.137 -0.7976 -0.7533  0.2654
 7169SOL     OW32965   3.985   3.212  12.297 -0.0356 -0.3375 -0.5699
 7169SOL    HW132966   4.028   3.184  12.378 -0.4389  1.2168  0.1783
 7169SOL    HW232967   3.917   3.145  12.285 -1.8686  1.4219  0.0745
 7170SOL     OW32968   1.911   0.154   2.585  0.1336  0.3981  0.3843
 7170SOL    HW132969   1.954   0.193   2.509  0.7374  1.0166  1.0256
 7170SOL    HW232970   1.899   0.235   2.635 -0.9161 -0.4050  1.4170
 7171SOL     OW32971   3.205   3.724   5.019  0.4243  0.2316  0.1421
 7171SOL    HW132972   3.188   3.646   5.072 -1.8023 -0.2861 -1.3433
 7171SOL    HW232973   3.250   3.785   5.078  1.6215 -1.5352  1.0590
 7172SOL     OW32974   1.703   0.472   5.739  0.0261  0.5466  0.5285
 7172SOL    HW132975   1.634   0.442   5.799 -0.9597  2.5600  0.4087
 7172SOL    HW232976   1.771   0.513   5.792  0.3880  2.0465 -1.0917
 7173SOL     OW32977   1.523   2.284   5.627 -0.1952 -0.0712  0.5556
 7173SOL    HW132978   1.496   2.375   5.632 -1.5780 -0.4795  0.4626
 7173SOL    HW232979   1.617   2.295   5.616 -0.0610 -1.9737 -0.2625
 7174SOL     OW32980   2.446   3.774  10.927 -0.9451 -0.5909 -0.5437
 7174SOL    HW132981   2.422   3.760  10.836 -1.5573  0.3959 -0.5362
 7174SOL    HW232982   2.407   3.860  10.943 -0.9784 -0.8861  0.9489
 7175SOL     OW32983   0.162   4.472   3.975  0.2349 -0.3551 -0.1746
 7175SOL    HW132984   0.069   4.490   3.993  1.2410  1.7738  2.9020
 7175SOL    HW232985   0.197   4.560   3.989 -1.6301  0.2586  0.6960
 7176SOL     OW32986   1.079   3.326   3.489 -0.0183 -0.5897 -0.4854
 7176SOL    HW132987   1.063   3.418   3.469 -0.0748 -0.4524  0.1759
 7176SOL    HW232988   1.075   3.326   3.585 -2.8562  1.1862 -0.6016
 7177SOL     OW32989   2.179   2.112  15.333 -0.1966  0.6026 -0.0431
 7177SOL    HW132990   2.175   2.078  15.422  0.1899 -0.2451 -0.3494
 7177SOL    HW232991   2.139   2.037  15.290 -0.4376  1.8989 -2.0702
 7178SOL     OW32992   2.407   2.615  13.030  0.3358  0.5759 -0.4227
 7178SOL    HW132993   2.333   2.614  12.969 -0.0095  0.0364  0.0117
 7178SOL    HW232994   2.385   2.538  13.081  1.4139 -0.2944 -1.2734
 7179SOL     OW32995   4.657   2.622   5.568  0.3070 -0.1164  0.0642
 7179SOL    HW132996   4.701   2.547   5.607  0.7500  0.0059 -0.2010
 7179SOL    HW232997   0.007   2.683   5.557 -1.9067  2.3437 -0.8505
 7180SOL     OW32998   1.337   4.495   7.906  0.5541  0.1403 -0.0115
 7180SOL    HW132999   1.254   4.473   7.863 -0.7124  1.3630  1.8034
 7180SOL    HW233000   1.326   4.588   7.928 -2.8097  0.1982 -2.0354
 7181SOL     OW33001   1.725   1.238  13.437  0.1751  0.0359  0.0005
 7181SOL    HW133002   1.716   1.261  13.345  1.0074 -0.6567 -0.2518
 7181SOL    HW233003   1.754   1.148  13.426 -2.3125 -0.7633 -0.0260
 7182SOL     OW33004   0.490   3.304   2.393  0.0772  0.0631 -0.0330
 7182SOL    HW133005   0.581   3.333   2.387 -0.1354  0.3254 -1.8142
 7182SOL    HW233006   0.494   3.280   2.486  0.4970  0.4703  0.0549
 7183SOL     OW33007   3.616   2.120   3.761  0.0331 -0.5107 -0.4412
 7183SOL    HW133008   3.687   2.060   3.741 -0.8254 -1.5963 -0.2124
 7183SOL    HW233009   3.539   2.068   3.738  1.6462 -2.7395 -0.7147
 7184SOL     OW33010   4.689   0.369   7.496  1.0567  0.3347  0.5980
 7184SOL    HW133011   4.654   0.418   7.422 -0.7306 -0.9451  0.5837
 7184SOL    HW233012   4.655   0.282   7.472 -0.2463  0.3808  2.2688
 7185SOL     OW33013   4.053   2.848  13.238  0.3748 -0.4289  0.3237
 7185SOL    HW133014   4.105   2.817  13.165  0.5668 -1.1019  0.7497
 7185SOL    HW233015   4.118   2.823  13.304  2.0900  0.7380 -0.9332
 7186SOL     OW33016   4.492   2.849  12.623 -0.1498  0.3217  0.0713
 7186SOL    HW133017   4.429   2.905  12.669 -0.0311  0.7180 -0.2418
 7186SOL    HW233018   4.483   2.882  12.533  0.8083  1.0583  0.2444
 7187SOL     OW33019   4.665   1.921   2.904  0.1154  0.2997  0.0494
 7187SOL    HW133020   0.012   1.978   2.935 -1.2885  1.5500  0.9238
 7187SOL    HW233021   4.583   1.965   2.928  0.4222  1.4663 -1.0330
 7188SOL     OW33022   4.636   0.175  13.075 -0.1056  0.4976 -0.2584
 7188SOL    HW133023   4.709   0.238  13.069  0.0887  0.3456  0.5256
 7188SOL    HW233024   4.567   0.241  13.069 -0.2457  0.4517  0.8129
 7189SOL     OW33025   1.533   4.039   1.178 -0.4057  0.1145 -0.1387
 7189SOL    HW133026   1.613   4.054   1.227  0.4813  1.0015 -1.8860
 7189SOL    HW233027   1.473   4.082   1.239 -1.1646  2.3992 -2.5052
 7190SOL     OW33028   2.948   3.492  11.716 -0.4578  0.1030  0.0553
 7190SOL    HW133029   2.963   3.397  11.713  1.0506  0.3357  0.0154
 7190SOL    HW233030   2.902   3.504  11.799  1.8223  2.2736  1.0098
 7191SOL     OW33031   0.721   3.747  11.040 -0.6655 -0.4315  0.0414
 7191SOL    HW133032   0.640   3.728  10.992 -0.5270  0.3986 -0.5301
 7191SOL    HW233033   0.760   3.661  11.051 -0.6635 -0.6821 -1.9555
 7192SOL     OW33034   4.273   2.566  14.504  0.3446  0.1019 -0.3329
 7192SOL    HW133035   4.191   2.546  14.549  2.4425 -0.8720  3.0206
 7192SOL    HW233036   4.231   2.575  14.418  1.3646  2.6266 -0.5616
 7193SOL     OW33037   4.214   1.491   7.314  0.2606  0.8540 -0.1662
 7193SOL    HW133038   4.181   1.570   7.359  0.6436 -0.7969  2.9753
 7193SOL    HW233039   4.229   1.538   7.232 -0.6103  2.5451  0.6247
 7194SOL     OW33040   3.884   1.989   1.174  0.3095 -0.0125 -0.6440
 7194SOL    HW133041   3.820   2.000   1.104 -0.6868  1.7116  0.5153
 7194SOL    HW233042   3.834   2.036   1.242 -4.6264 -1.9809 -2.9058
 7195SOL     OW33043   3.969   3.371   8.674 -0.4272  0.6787 -0.2771
 7195SOL    HW133044   3.967   3.465   8.658  1.0610  0.9016  0.8299
 7195SOL    HW233045   3.965   3.347   8.581 -1.1690  0.0060 -0.0660
 7196SOL     OW33046   2.811   0.161   3.227  0.5345  0.2283 -0.2265
 7196SOL    HW133047   2.863   0.088   3.194 -0.1782 -0.2534 -0.2737
 7196SOL    HW233048   2.770   0.123   3.304  1.3470  0.7052  0.4491
 7197SOL     OW33049   2.773   0.507   6.231  0.2705  0.1090  0.3965
 7197SOL    HW133050   2.687   0.476   6.201  0.5223 -1.1826  1.0421
 7197SOL    HW233051   2.829   0.441   6.193 -1.3145 -0.6611 -0.5922
 7198SOL     OW33052   3.976   0.304   6.778  0.2218 -0.1218 -0.1308
 7198SOL    HW133053   3.881   0.314   6.778  0.2100 -0.2323  0.3665
 7198SOL    HW233054   4.003   0.392   6.806 -0.3620 -0.3882  1.2992
 7199SOL     OW33055   3.641   1.465   5.605  0.1533  0.3491  0.6078
 7199SOL    HW133056   3.552   1.487   5.578  0.4733  2.1594  1.0628
 7199SOL    HW233057   3.684   1.442   5.523  1.2806  2.0347  0.7229
 7200SOL     OW33058   2.053   2.791   0.000  0.2111 -0.1648 -0.3528
 7200SOL    HW133059   2.041   2.791  17.598 -1.6411 -2.4554 -0.1035
 7200SOL    HW233060   2.092   2.706   0.022  0.5871  0.6039  1.9350
 7201SOL     OW33061   4.557   1.788  11.046  0.4110  0.6430  0.2735
 7201SOL    HW133062   4.493   1.858  11.059 -0.4878  0.0512 -1.0220
 7201SOL    HW233063   4.635   1.829  11.083  1.4190  1.8013 -3.2083
 7202SOL     OW33064   0.932   1.971   5.674  0.4157 -0.4782  0.1220
 7202SOL    HW133065   0.846   2.013   5.672  0.2294 -0.8863 -0.2536
 7202SOL    HW233066   0.936   1.930   5.760 -0.2101 -0.9370 -0.0725
 7203SOL     OW33067   4.207   2.622   4.349 -0.0715  0.2380  0.3609
 7203SOL    HW133068   4.267   2.548   4.342  0.6996  1.0581 -1.5306
 7203SOL    HW233069   4.253   2.704   4.331 -1.1690  0.8036  0.0911
 7204SOL     OW33070   3.339   1.941   2.953 -0.4862  1.1251 -0.2303
 7204SOL    HW133071   3.349   2.026   2.993 -1.7845  1.2916 -0.2327
 7204SOL    HW233072   3.249   1.925   2.982 -0.7436 -0.0353 -1.6399
 7205SOL     OW33073   3.480   3.417   8.503 -0.5364  0.0755 -0.3092
 7205SOL    HW133074   3.558   3.362   8.501 -0.4547  0.2213 -1.2484
 7205SOL    HW233075   3.426   3.371   8.568 -2.3522 -1.6245 -3.0404
 7206SOL     OW33076   1.162   3.548   5.517 -0.4536 -0.8648  0.0290
 7206SOL    HW133077   1.155   3.606   5.593 -0.1971 -0.9234  0.0982
 7206SOL    HW233078   1.083   3.495   5.526  0.0811 -2.0342 -2.2786
 7207SOL     OW33079   1.945   3.798   6.819 -0.0180  0.0350 -0.6782
 7207SOL    HW133080   1.926   3.888   6.791 -3.2204 -0.2606  0.5045
 7207SOL    HW233081   1.897   3.789   6.901  0.2147 -1.0853 -0.6695
 7208SOL     OW33082   3.526   0.682   1.980 -0.4724 -0.0469 -0.2838
 7208SOL    HW133083   3.577   0.763   1.974 -0.5865  0.1537  1.5653
 7208SOL    HW233084   3.478   0.673   1.897 -1.3473 -0.2687  0.2479
 7209SOL     OW33085   3.272   4.694   7.813  0.0405 -0.1194  0.2399
 7209SOL    HW133086   3.315   4.609   7.819  1.9804  0.8789  0.4805
 7209SOL    HW233087   3.313   0.030   7.877  1.1199 -2.4352  1.6917
 7210SOL     OW33088   4.004   0.536   8.212 -0.0605  0.3436 -0.0244
 7210SOL    HW133089   4.061   0.508   8.284 -2.7647 -0.4891  1.7938
 7210SOL    HW233090   3.985   0.452   8.171 -1.0798 -0.4652  2.0972
 7211SOL     OW33091   1.294   1.108   6.301 -0.0455  0.4886 -0.1132
 7211SOL    HW133092   1.295   1.077   6.392  2.4529 -0.9472 -0.6324
 7211SOL    HW233093   1.262   1.032   6.253  0.0369 -1.8171  3.4696
 7212SOL     OW33094   0.139   2.202   4.057 -0.2625 -0.0422  0.0065
 7212SOL    HW133095   0.058   2.156   4.033 -0.2530 -0.4580  0.7662
 7212SOL    HW233096   0.207   2.137   4.042  0.1212  0.4742 -0.4683
 7213SOL     OW33097   3.128   4.253  11.233 -0.0509 -0.0494  0.6926
 7213SOL    HW133098   3.124   4.347  11.221 -2.9978 -0.2316  0.3029
 7213SOL    HW233099   3.036   4.231  11.245  0.9643 -3.4392  2.3735
 7214SOL     OW33100   3.072   4.091   8.009  0.1538 -0.5890 -0.0970
 7214SOL    HW133101   3.094   4.081   8.101  1.9607  1.5269 -0.2828
 7214SOL    HW233102   3.157   4.108   7.967 -0.3642  0.9847 -0.5314
 7215SOL     OW33103   2.825   2.462   2.253  0.8038  0.0495  0.1651
 7215SOL    HW133104   2.804   2.445   2.161  0.2414  1.1936  0.0812
 7215SOL    HW233105   2.913   2.425   2.261 -0.7247 -3.3927  1.4987
 7216SOL     OW33106   3.560   0.002  16.250 -0.6090  0.2910 -0.2101
 7216SOL    HW133107   3.606   4.664  16.307 -0.0359 -0.4506 -1.4963
 7216SOL    HW233108   3.619   0.013  16.176  0.1415 -0.5104  0.2769
 7217SOL     OW33109   1.135   0.727  15.861  0.6656 -0.4325 -0.2333
 7217SOL    HW133110   1.219   0.719  15.815  0.7511 -2.5708  0.2792
 7217SOL    HW233111   1.127   0.647  15.912  0.1765 -0.3410 -0.1644
 7218SOL     OW33112   1.056   3.995  10.114  0.0448  0.2079  0.4010
 7218SOL    HW133113   1.002   4.074  10.117  0.2282  0.3062  1.2074
 7218SOL    HW233114   1.133   4.024  10.066 -1.2539  1.0851 -1.1657
 7219SOL     OW33115   2.248   2.427  13.295  0.0253 -0.2250  0.9091
 7219SOL    HW133116   2.173   2.450  13.350 -0.4331  0.3318  0.0548
 7219SOL    HW233117   2.248   2.333  13.313  0.0021 -0.8261 -2.2469
 7220SOL     OW33118   0.630   4.657  13.828 -0.3770  0.1749 -0.2582
 7220SOL    HW133119   0.708   4.623  13.783 -1.4840 -0.2261 -1.8722
 7220SOL    HW233120   0.634   4.598  13.903 -0.2450  2.2419  1.3810
 7221SOL     OW33121   0.225   1.032   2.477  0.2456  0.0922 -0.5688
 7221SOL    HW133122   0.187   0.952   2.442  0.0704  0.5798 -1.5015
 7221SOL    HW233123   0.237   1.082   2.396 -3.6312 -0.6280 -1.5879
 7222SOL     OW33124   0.602   0.694   8.490 -0.6103 -0.5964  0.2227
 7222SOL    HW133125   0.663   0.761   8.520 -1.0901  0.3742 -0.9981
 7222SOL    HW233126   0.582   0.718   8.400  0.0466  1.8618  0.7511
 7223SOL     OW33127   0.536   0.841   7.810  0.4604  0.1348  0.0473
 7223SOL    HW133128   0.581   0.813   7.730  1.8681  1.3485  0.4276
 7223SOL    HW233129   0.508   0.753   7.838 -4.0204  1.8904  1.0666
 7224SOL     OW33130   2.721   3.985   6.693  0.8201  0.2239 -0.2032
 7224SOL    HW133131   2.707   4.071   6.734 -1.5587 -0.2152 -0.0987
 7224SOL    HW233132   2.754   3.933   6.766 -0.2186 -1.4666 -0.9357
 7225SOL     OW33133   1.177   3.092   1.954  0.3647  0.1323 -0.0928
 7225SOL    HW133134   1.203   3.069   1.865 -1.2910  0.5376 -0.6735
 7225SOL    HW233135   1.249   3.065   2.010  2.1596  0.5952 -2.1522
 7226SOL     OW33136   1.638   1.065   1.795  0.0532 -0.4169 -0.2921
 7226SOL    HW133137   1.629   1.103   1.708  0.8804  1.1738  0.3041
 7226SOL    HW233138   1.713   1.008   1.783 -0.1661 -0.8323  0.3030
 7227SOL     OW33139   4.119   3.094  15.417 -0.1175 -0.1966 -0.1239
 7227SOL    HW133140   4.029   3.112  15.388 -0.2082 -0.6310 -0.1162
 7227SOL    HW233141   4.117   3.094  15.513  1.0369 -1.4994 -0.1057
 7228SOL     OW33142   0.925   4.243   1.557  0.1001  0.6483 -0.4501
 7228SOL    HW133143   0.837   4.248   1.595 -0.1316  1.0940 -1.0310
 7228SOL    HW233144   0.971   4.179   1.611  0.7673  0.5500 -1.1267
 7229SOL     OW33145   3.654   3.247   2.902  0.1695 -0.3293  0.4627
 7229SOL    HW133146   3.601   3.272   2.978 -0.1284 -1.4036  0.6120
 7229SOL    HW233147   3.698   3.169   2.934 -1.3505 -0.7901  1.4375
 7230SOL     OW33148   0.046   2.385   5.720 -0.2258 -0.2827 -0.1850
 7230SOL    HW133149   0.055   2.430   5.803  1.4085 -2.2394  0.7029
 7230SOL    HW233150   0.137   2.362   5.700 -0.0688  1.4236 -1.4126
 7231SOL     OW33151   1.401   2.716   2.076 -0.3310  0.3307  0.2321
 7231SOL    HW133152   1.461   2.680   2.141 -1.3377 -1.0321  0.4146
 7231SOL    HW233153   1.418   2.664   1.998 -0.4555  0.2628  0.2494
 7232SOL     OW33154   1.637   3.485   3.725  0.0408  0.1952 -0.7250
 7232SOL    HW133155   1.641   3.508   3.632  0.6933  1.6285 -0.3414
 7232SOL    HW233156   1.630   3.571   3.767 -1.5718 -0.7804  0.9950
 7233SOL     OW33157   0.464   3.574  12.306 -0.3501  0.2955 -0.0923
 7233SOL    HW133158   0.517   3.559  12.228  1.3054  0.3810  1.0062
 7233SOL    HW233159   0.429   3.662  12.291  0.6320  0.6700 -0.2063
 7234SOL     OW33160   0.486   1.020   2.577  0.4499  0.1112  0.4138
 7234SOL    HW133161   0.414   1.061   2.529  0.2389  1.1904  1.6331
 7234SOL    HW233162   0.560   1.074   2.551  0.7666 -0.4297  0.1989
 7235SOL     OW33163   4.279   0.980   5.988  0.9082  0.1502  0.1193
 7235SOL    HW133164   4.331   1.059   5.973  2.1013 -1.1385 -2.5917
 7235SOL    HW233165   4.249   1.003   6.076  2.7427 -0.0414  0.7992
 7236SOL     OW33166   1.149   3.135   5.504 -0.2550 -0.3046 -0.0229
 7236SOL    HW133167   1.129   3.221   5.467 -0.7103  0.8310  2.8472
 7236SOL    HW233168   1.069   3.111   5.551  0.4464 -1.1028  0.7521
 7237SOL     OW33169   1.865   1.258   7.663 -0.1600  0.1326  0.7329
 7237SOL    HW133170   1.926   1.204   7.714 -0.8019 -2.8700 -1.6581
 7237SOL    HW233171   1.789   1.214   7.702 -0.6902  1.5641  1.2960
 7238SOL     OW33172   2.721   2.012   2.740  0.1337  0.5208  0.3181
 7238SOL    HW133173   2.689   2.099   2.763 -0.0933  0.7648 -0.8952
 7238SOL    HW233174   2.697   2.006   2.647  1.2574 -0.3500  0.0911
 7239SOL     OW33175   2.815   2.466   4.688 -0.0583 -0.6706 -0.3990
 7239SOL    HW133176   2.739   2.467   4.629 -0.5703 -1.2362  0.2531
 7239SOL    HW233177   2.770   2.457   4.771 -0.1585 -2.0696 -0.6104
 7240SOL     OW33178   2.176   4.011   6.393 -0.3925 -0.2097 -0.3367
 7240SOL    HW133179   2.124   4.088   6.371 -2.6294 -1.1289  1.6984
 7240SOL    HW233180   2.166   4.011   6.488  1.3783  2.0318 -0.1410
 7241SOL     OW33181   4.473   1.611   2.520 -0.4315 -0.2453 -0.4405
 7241SOL    HW133182   4.466   1.706   2.513  2.1491 -0.1886 -2.2804
 7241SOL    HW233183   4.451   1.577   2.433 -1.2206  1.3793 -0.8743
 7242SOL     OW33184   0.728   1.138  12.773 -0.1815  0.0272 -0.4453
 7242SOL    HW133185   0.790   1.165  12.841  0.6567  3.5086 -2.5926
 7242SOL    HW233186   0.675   1.071  12.816 -1.4042  0.2598 -1.5963
 7243SOL     OW33187   1.090   0.044   3.594  0.1561  0.2048 -0.1970
 7243SOL    HW133188   1.146   0.011   3.522 -0.9378 -1.3098 -0.3549
 7243SOL    HW233189   1.107   0.137   3.581 -1.2972  0.2585 -1.7107
 7244SOL     OW33190   3.054   0.426  12.609  0.0001 -0.0448 -0.1774
 7244SOL    HW133191   3.139   0.456  12.641  0.4176  0.3837 -1.6949
 7244SOL    HW233192   3.002   0.409  12.687  2.1032 -0.7555  1.0805
 7245SOL     OW33193   4.171   4.390   9.706 -0.5738  0.0504  0.4387
 7245SOL    HW133194   4.081   4.414   9.728 -0.5457  0.5932 -0.0037
 7245SOL    HW233195   4.183   4.459   9.640  1.4908  0.0568  0.8360
 7246SOL     OW33196   3.547   3.817   3.324 -0.4874  0.1037 -0.0509
 7246SOL    HW133197   3.600   3.750   3.367 -1.0647 -0.7059 -0.5878
 7246SOL    HW233198   3.607   3.850   3.257  1.3596 -1.0313  1.0713
 7247SOL     OW33199   3.828   2.482   6.385  0.4195 -0.1941  0.2849
 7247SOL    HW133200   3.745   2.525   6.405  0.6364  1.5881 -2.6262
 7247SOL    HW233201   3.875   2.491   6.468 -0.4183  1.2788  0.6067
 7248SOL     OW33202   1.260   2.246   4.857 -0.7606 -0.1103 -0.2586
 7248SOL    HW133203   1.203   2.309   4.814 -1.0917 -0.5529 -0.4628
 7248SOL    HW233204   1.260   2.283   4.946 -1.0703  0.4894 -0.5104
 7249SOL     OW33205   0.821   4.536   6.313 -0.7362 -0.3273 -0.2995
 7249SOL    HW133206   0.893   4.542   6.250  0.1880 -1.9045  0.6041
 7249SOL    HW233207   0.871   4.503   6.387 -1.4329  1.7321  1.0840
 7250SOL     OW33208   3.295   0.486  14.043 -0.1882  0.6362 -0.4630
 7250SOL    HW133209   3.355   0.528  14.105 -0.2438  0.2595 -0.1579
 7250SOL    HW233210   3.206   0.506  14.072  0.2495 -0.1041  1.4053
 7251SOL     OW33211   2.092   4.415   8.911  0.3217 -0.1609 -0.2527
 7251SOL    HW133212   2.174   4.407   8.862 -0.6582 -2.1369 -1.5604
 7251SOL    HW233213   2.074   4.323   8.931  2.4908 -0.8149 -1.2480
 7252SOL     OW33214   1.552   0.469   5.972 -0.2262  0.1381  0.1655
 7252SOL    HW133215   1.522   0.389   5.928  0.5524  1.2120 -2.3198
 7252SOL    HW233216   1.622   0.432   6.026 -1.5536  0.1398  1.8874
 7253SOL     OW33217   3.082   1.996   3.407  0.8809 -0.2438 -0.1349
 7253SOL    HW133218   3.011   2.042   3.364  1.5593  0.0895 -0.9043
 7253SOL    HW233219   3.056   1.908   3.380 -2.1770 -0.1512  2.5591
 7254SOL     OW33220   0.774   1.706  15.015 -0.9406  0.0965 -0.0593
 7254SOL    HW133221   0.785   1.690  15.109 -3.3653  0.1506  0.2368
 7254SOL    HW233222   0.691   1.661  14.998  0.9986 -3.8976  0.9121
 7255SOL     OW33223   1.779   3.562  11.072  0.3745 -0.7697  0.4984
 7255SOL    HW133224   1.731   3.636  11.034  0.7929  0.2205  1.8881
 7255SOL    HW233225   1.787   3.510  10.992  0.8232  2.7153 -1.7401
 7256SOL     OW33226   2.730   2.232  15.324  0.0649  0.0155  0.3953
 7256SOL    HW133227   2.709   2.318  15.287 -0.3629 -1.6271 -3.2398
 7256SOL    HW233228   2.645   2.193  15.303 -0.5060  1.3933  0.1448
 7257SOL     OW33229   1.235   4.656  10.384 -0.8372  0.4102  0.0695
 7257SOL    HW133230   1.328   4.665  10.364 -1.0940 -1.2418 -1.9056
 7257SOL    HW233231   1.207   0.022  10.362  0.7521  0.7313 -0.6722
 7258SOL     OW33232   0.825   1.884   7.261  0.5701  0.1845 -0.3690
 7258SOL    HW133233   0.894   1.915   7.202  0.0964  1.3533 -0.3022
 7258SOL    HW233234   0.768   1.960   7.268  1.2188  0.7350 -1.0566
 7259SOL     OW33235   0.850   4.088  16.311 -0.0705  0.0151  0.2875
 7259SOL    HW133236   0.791   4.163  16.316  2.0179  1.5294  2.3167
 7259SOL    HW233237   0.845   4.041  16.394 -0.5317  1.7680  1.2526
 7260SOL     OW33238   2.998   2.588   4.547 -0.0124  0.1535 -1.0212
 7260SOL    HW133239   2.925   2.544   4.590  0.6300 -0.8110 -0.9163
 7260SOL    HW233240   2.978   2.591   4.453  0.8567 -1.8381 -1.2694
 7261SOL     OW33241   3.908   0.574   2.868 -0.6469 -0.0533  0.6072
 7261SOL    HW133242   3.955   0.653   2.893 -1.7482  0.7183  0.2540
 7261SOL    HW233243   3.838   0.613   2.815 -2.1739 -0.0635  2.6099
 7262SOL     OW33244   2.827   1.426   6.322 -0.5044 -0.6681  0.4346
 7262SOL    HW133245   2.833   1.357   6.256  1.6478 -0.4841  0.4391
 7262SOL    HW233246   2.917   1.457   6.332 -1.3572  2.4246 -1.5075
 7263SOL     OW33247   1.247   1.785   7.565 -0.3981 -0.3088 -0.1454
 7263SOL    HW133248   1.160   1.746   7.554 -0.5055  0.3864 -1.6621
 7263SOL    HW233249   1.232   1.879   7.573  1.1823  0.0219 -1.1490
 7264SOL     OW33250   1.110   4.085   3.359 -0.5604  0.3433  0.9448
 7264SOL    HW133251   1.116   4.101   3.453 -1.6175 -1.4154  1.3293
 7264SOL    HW233252   1.040   4.141   3.327 -0.9929  0.7083  2.5829
 7265SOL     OW33253   3.298   4.151   2.803 -0.4804 -0.0324 -0.3562
 7265SOL    HW133254   3.310   4.065   2.843 -0.0913 -0.2786 -1.0135
 7265SOL    HW233255   3.259   4.206   2.871 -0.7145  0.2775 -0.7392
 7266SOL     OW33256   1.283   3.409   5.141  0.1236  0.4885 -0.1902
 7266SOL    HW133257   1.267   3.398   5.047 -3.8182 -0.8638  0.6123
 7266SOL    HW233258   1.199   3.369   5.165 -0.7574  1.7850 -1.0718
 7267SOL     OW33259   4.436   1.690  13.569 -0.2628  0.0251 -0.1047
 7267SOL    HW133260   4.358   1.727  13.609 -0.2901  1.4431 -1.4937
 7267SOL    HW233261   4.478   1.765  13.526 -0.5090  0.0735 -0.2555
 7268SOL     OW33262   2.347   2.379   3.038 -0.4267 -0.0564 -0.1759
 7268SOL    HW133263   2.383   2.451   2.986 -0.0882  1.8194  2.6777
 7268SOL    HW233264   2.405   2.379   3.114 -0.8329  0.3099  0.1360
 7269SOL     OW33265   1.808   2.996  12.737 -0.0309  0.3868 -0.3554
 7269SOL    HW133266   1.718   3.024  12.755  0.3215 -0.2378  2.4042
 7269SOL    HW233267   1.842   3.082  12.713  0.0537  0.9401  1.7584
 7270SOL     OW33268   2.211   0.491   6.195 -0.0916  0.4740  0.1065
 7270SOL    HW133269   2.190   0.568   6.248 -1.9866 -0.3388  0.5401
 7270SOL    HW233270   2.194   0.432   6.269 -0.6789 -0.8034 -1.0541
 7271SOL     OW33271   3.419   1.729  16.094  0.4388 -0.1507 -0.5216
 7271SOL    HW133272   3.424   1.676  16.015 -1.6053 -1.7390  0.4178
 7271SOL    HW233273   3.380   1.671  16.159  0.0638  0.1015 -0.5169
 7272SOL     OW33274   2.470   2.029  11.543  0.2465 -0.8090 -0.4854
 7272SOL    HW133275   2.541   2.043  11.606  1.1407 -0.3053 -1.6083
 7272SOL    HW233276   2.503   2.084  11.472 -1.0473  2.4493  1.4185
 7273SOL     OW33277   3.021   2.278   1.827  0.2517  0.2352 -0.3503
 7273SOL    HW133278   3.109   2.244   1.811  0.0407 -0.3110 -0.3606
 7273SOL    HW233279   2.995   2.284   1.735 -0.2840  1.6069 -0.1182
 7274SOL     OW33280   2.488   3.901   8.881 -0.4456 -0.7183 -0.1442
 7274SOL    HW133281   2.553   3.830   8.886  0.2768  0.1109  2.0068
 7274SOL    HW233282   2.407   3.851   8.884  0.3288 -1.9276  0.8112
 7275SOL     OW33283   3.521   1.342   3.664 -0.0859  0.6883 -0.0555
 7275SOL    HW133284   3.486   1.329   3.752 -1.6674  0.2078 -0.7507
 7275SOL    HW233285   3.542   1.435   3.667  2.9397  0.0206 -0.3109
 7276SOL     OW33286   4.267   0.125   0.145 -0.1132  0.3798 -0.4403
 7276SOL    HW133287   4.213   0.093   0.218  1.0392 -1.1485 -0.2635
 7276SOL    HW233288   4.197   0.128   0.079  0.3906 -1.3621 -1.0636
 7277SOL     OW33289   3.129   3.152   5.505 -0.1220 -0.6238  0.3266
 7277SOL    HW133290   3.215   3.194   5.508  0.4627 -1.8214  0.2942
 7277SOL    HW233291   3.147   3.064   5.538 -1.7726 -0.6056  1.3290
 7278SOL     OW33292   1.425   3.748   6.868 -0.3368 -0.1639  0.4812
 7278SOL    HW133293   1.439   3.680   6.934 -0.7409 -1.2834 -0.5752
 7278SOL    HW233294   1.337   3.726   6.837  0.5404 -2.9156 -0.0556
 7279SOL     OW33295   1.843   4.717   7.954 -0.4780 -0.6953  0.2672
 7279SOL    HW133296   1.894   0.069   7.985  2.5609 -2.3202 -0.7905
 7279SOL    HW233297   1.834   4.659   8.030 -0.0796 -2.2629 -0.8855
 7280SOL     OW33298   0.662   0.567   6.687  0.1862 -0.1512 -0.6980
 7280SOL    HW133299   0.657   0.653   6.645 -1.4774 -0.2518 -0.7402
 7280SOL    HW233300   0.607   0.584   6.765 -1.1634  0.4305 -1.7689
 7281SOL     OW33301   4.662   1.438  10.875 -0.0855  0.1451  0.3567
 7281SOL    HW133302   4.586   1.495  10.864  0.6380  1.0397 -0.0260
 7281SOL    HW233303   0.005   1.501  10.904 -1.5339  0.2216  3.4662
 7282SOL     OW33304   4.046   3.177   2.890  0.5996  0.2894  0.6762
 7282SOL    HW133305   4.034   3.119   2.965 -0.3148 -1.1133 -0.5443
 7282SOL    HW233306   4.100   3.118   2.837 -0.6154 -1.3243  1.2027
 7283SOL     OW33307   2.967   4.247  12.641 -0.6171 -0.4642  0.0445
 7283SOL    HW133308   2.919   4.168  12.616  0.9579 -1.4696  0.1782
 7283SOL    HW233309   3.048   4.198  12.652  0.1026  1.1579  2.0629
 7284SOL     OW33310   3.696   4.268   9.316  0.2659 -0.2548  0.1016
 7284SOL    HW133311   3.623   4.300   9.263  0.0888 -0.6584  0.1046
 7284SOL    HW233312   3.762   4.330   9.286 -1.6581  0.3747 -2.7655
 7285SOL     OW33313   2.321   0.689   1.071 -0.4312 -0.0614  0.1261
 7285SOL    HW133314   2.284   0.773   1.044  4.4682  1.5399 -1.6381
 7285SOL    HW233315   2.246   0.632   1.057  1.7215 -3.2735  1.6172
 7286SOL     OW33316   0.473   0.348   1.055  0.4580 -0.1446 -0.6314
 7286SOL    HW133317   0.562   0.337   1.090 -0.5482  1.8247  2.5588
 7286SOL    HW233318   0.430   0.265   1.074  1.4216 -0.4363  0.2932
 7287SOL     OW33319   1.455   3.016   7.363 -0.2796 -0.4232 -0.2761
 7287SOL    HW133320   1.516   2.969   7.306 -1.5810 -0.2604 -1.8388
 7287SOL    HW233321   1.506   3.082   7.409  0.9887 -1.0728 -0.7429
 7288SOL     OW33322   4.438   3.981   3.875 -0.1815 -0.0776 -0.1789
 7288SOL    HW133323   4.351   3.975   3.836 -0.4849  1.6939  0.2151
 7288SOL    HW233324   4.490   4.009   3.799  0.4489 -3.0389 -0.8395
 7289SOL     OW33325   3.491   1.331  11.682  0.4232 -0.0284 -0.2522
 7289SOL    HW133326   3.544   1.310  11.605  0.4369 -0.8255 -0.0234
 7289SOL    HW233327   3.514   1.260  11.741 -0.9375 -1.1067 -1.0068
 7290SOL     OW33328   4.720   4.280   3.500 -0.2289 -0.1063  1.1026
 7290SOL    HW133329   0.087   4.253   3.484 -0.9714 -1.0726 -1.4071
 7290SOL    HW233330   0.007   4.368   3.537 -1.8067  0.5688 -0.0663
 7291SOL     OW33331   0.253   3.970   1.776 -0.1297  0.0823 -0.0758
 7291SOL    HW133332   0.162   3.946   1.792 -0.6982  2.4410  0.2088
 7291SOL    HW233333   0.234   3.985   1.684 -1.2814  2.9224  0.6398
 7292SOL     OW33334   1.916   4.482   7.607  0.0989  0.2901  0.0797
 7292SOL    HW133335   1.969   4.560   7.624 -0.7514  0.1974  3.3301
 7292SOL    HW233336   1.903   4.460   7.700  0.0419 -0.8128 -0.1878
 7293SOL     OW33337   4.369   2.545   7.314  0.6538  0.7336  0.0077
 7293SOL    HW133338   4.319   2.611   7.361 -0.2647  0.3415 -0.4293
 7293SOL    HW233339   4.319   2.552   7.233  3.2314 -2.5125 -1.8696
 7294SOL     OW33340   2.912   1.823   6.425  0.1142 -0.3839 -0.8947
 7294SOL    HW133341   2.862   1.905   6.420 -1.3230 -1.3108 -1.5123
 7294SOL    HW233342   2.999   1.862   6.435 -0.2856  0.4102 -0.4632
 7295SOL     OW33343   1.493   1.651   7.376  0.1200 -0.0642 -0.1008
 7295SOL    HW133344   1.445   1.663   7.294 -0.6969  0.8263  0.5101
 7295SOL    HW233345   1.504   1.733   7.424  0.9689  1.6341 -3.1996
 7296SOL     OW33346   1.329   0.775  12.364  0.0853 -0.0854 -0.1528
 7296SOL    HW133347   1.340   0.757  12.458  0.8137  3.2124  0.3817
 7296SOL    HW233348   1.408   0.729  12.334 -0.2094 -0.4721 -0.3377
 7297SOL     OW33349   0.263   3.506   9.401 -0.3878 -0.4590  0.2245
 7297SOL    HW133350   0.345   3.471   9.369 -0.8595  0.4266 -1.9972
 7297SOL    HW233351   0.195   3.439   9.392  0.0378 -0.9221  0.5348
 7298SOL     OW33352   1.340   2.342   6.513  0.0048  0.1848 -0.0990
 7298SOL    HW133353   1.371   2.337   6.603 -0.1841  0.3391 -0.0248
 7298SOL    HW233354   1.366   2.254   6.485  0.6952 -0.7903  3.6342
 7299SOL     OW33355   0.482   4.605   6.180  0.3592 -0.1400 -0.5189
 7299SOL    HW133356   0.554   4.654   6.140 -0.8434  0.6921 -1.6761
 7299SOL    HW233357   0.421   4.678   6.188 -0.7395 -1.2466  1.0827
 7300SOL     OW33358   3.498   0.253   4.882  0.9844 -0.6326  0.1163
 7300SOL    HW133359   3.584   0.242   4.842  0.8830  0.5474 -0.4477
 7300SOL    HW233360   3.484   0.339   4.841 -2.4287 -1.0424  0.4428
 7301SOL     OW33361   3.423   0.216  16.149  0.5408 -0.2166 -0.1599
 7301SOL    HW133362   3.438   0.286  16.212  0.9569  0.6620 -1.2388
 7301SOL    HW233363   3.465   0.140  16.189 -1.0808 -0.0265  1.9000
 7302SOL     OW33364   4.582   0.590   8.717  0.0833 -0.8357  0.8456
 7302SOL    HW133365   4.666   0.561   8.682  0.1586 -0.0286  0.3764
 7302SOL    HW233366   4.553   0.650   8.648 -0.6246 -2.0389  0.0768
 7303SOL     OW33367   3.146   1.118  11.788 -0.4476  0.5148  0.0710
 7303SOL    HW133368   3.131   1.045  11.849 -1.9721  1.6998  1.0883
 7303SOL    HW233369   3.220   1.076  11.744  0.0847  1.3927  0.1409
 7304SOL     OW33370   3.707   0.419   6.756  0.0248 -0.6768 -0.0894
 7304SOL    HW133371   3.615   0.438   6.738  0.3516 -0.0802 -1.1278
 7304SOL    HW233372   3.716   0.457   6.844 -1.2021  2.4727 -1.3356
 7305SOL     OW33373   4.144   4.043   4.320  0.3733  0.0803  0.3427
 7305SOL    HW133374   4.162   3.949   4.316 -1.2039 -0.2227  0.5025
 7305SOL    HW233375   4.173   4.059   4.230 -0.4440  0.2897  0.1188
 7306SOL     OW33376   1.145   2.176   8.995  0.5014  0.3543  0.3371
 7306SOL    HW133377   1.174   2.266   8.980  0.4820  0.0716 -1.3135
 7306SOL    HW233378   1.102   2.149   8.915 -0.3541  0.2242  0.8433
 7307SOL     OW33379   0.560   0.775  11.474  0.7063  0.3772  0.5381
 7307SOL    HW133380   0.558   0.683  11.500 -0.7915  0.2608 -0.0085
 7307SOL    HW233381   0.469   0.803  11.486  0.0162 -2.7206  2.4081
 7308SOL     OW33382   1.000   3.281  15.918  0.4374 -0.5630  0.0064
 7308SOL    HW133383   0.908   3.307  15.909  0.5142 -0.1343  0.4651
 7308SOL    HW233384   0.998   3.187  15.898  0.2877 -0.8200  1.1733
 7309SOL     OW33385   3.038   4.019   2.559  0.5314 -0.2127 -0.0651
 7309SOL    HW133386   3.016   4.030   2.651  0.6923 -0.3480 -0.0104
 7309SOL    HW233387   3.128   3.987   2.567  0.7503  0.4241  0.0583
 7310SOL     OW33388   2.414   4.310   7.942  0.2131  0.5668 -0.1881
 7310SOL    HW133389   2.369   4.307   7.858  1.0715 -1.0373 -0.5931
 7310SOL    HW233390   2.475   4.381   7.924  0.6662  0.5181  1.1818
 7311SOL     OW33391   0.059   1.711  11.196 -0.4839 -0.0556 -0.2793
 7311SOL    HW133392   0.035   1.708  11.103  1.2145  1.4392 -0.7489
 7311SOL    HW233393   4.699   1.684  11.236 -0.3580 -2.6104 -1.7115
 7312SOL     OW33394   0.716   2.272   1.512 -1.0888 -0.6352  0.4468
 7312SOL    HW133395   0.737   2.364   1.500 -1.7910 -0.5015  0.2079
 7312SOL    HW233396   0.649   2.264   1.444  0.2220  1.3081 -1.0477
 7313SOL     OW33397   1.889   4.688   0.771  0.1581 -0.4975 -0.2464
 7313SOL    HW133398   1.825   0.031   0.744  1.2370 -0.7388 -3.3798
 7313SOL    HW233399   1.944   0.028   0.818 -0.2627 -0.9174  0.8182
 7314SOL     OW33400   3.370   2.467  13.341  0.0494 -0.7276  0.3173
 7314SOL    HW133401   3.442   2.521  13.310  0.7861 -0.3276  2.6819
 7314SOL    HW233402   3.422   2.393  13.372  2.0619  0.0596 -1.2056
 7315SOL     OW33403   3.306   0.371   3.536  0.2416 -0.0345 -0.0754
 7315SOL    HW133404   3.289   0.280   3.514 -2.1363  1.1688 -3.2410
 7315SOL    HW233405   3.381   0.354   3.593 -1.6782 -0.3135  2.3765
 7316SOL     OW33406   3.916   0.737   8.025 -0.6556  0.1188 -0.6921
 7316SOL    HW133407   3.986   0.802   8.015 -0.1014 -0.3143  0.3155
 7316SOL    HW233408   3.953   0.678   8.090 -0.6842  1.6662  0.7491
 7317SOL     OW33409   0.932   0.813  16.850  0.1830  0.0269  0.0997
 7317SOL    HW133410   1.006   0.804  16.791  0.8346  3.1649  0.3959
 7317SOL    HW233411   0.980   0.818  16.933  0.0157 -0.9144  0.2456
 7318SOL     OW33412   4.694   0.464   5.030 -0.3887 -0.6717 -0.5193
 7318SOL    HW133413   0.016   0.464   4.946 -0.0406  1.3873 -0.3291
 7318SOL    HW233414   4.624   0.400   5.011  0.2070 -1.2410 -0.7896
 7319SOL     OW33415   1.675   1.428   3.391  0.1476 -0.7677  0.7298
 7319SOL    HW133416   1.752   1.471   3.429  1.1861 -1.0179 -1.0536
 7319SOL    HW233417   1.703   1.350   3.343 -0.4827 -1.3130  1.2502
 7320SOL     OW33418   1.370   0.507   2.873 -0.0663 -0.3535  0.2063
 7320SOL    HW133419   1.404   0.425   2.910  1.1853  0.4320  0.7951
 7320SOL    HW233420   1.351   0.492   2.781  1.6030 -2.5720  0.1964
 7321SOL     OW33421   1.634   4.267   5.019  0.4712  0.1400  0.3600
 7321SOL    HW133422   1.654   4.236   4.931 -1.8427  3.1139 -1.2135
 7321SOL    HW233423   1.542   4.242   5.032  0.8538 -1.4136 -0.0521
 7322SOL     OW33424   2.974   1.257   1.083  0.2770 -0.1307  0.1850
 7322SOL    HW133425   3.013   1.342   1.101  0.4002 -0.3502  0.9365
 7322SOL    HW233426   3.016   1.227   1.002  1.4898  0.3725  0.6250
 7323SOL     OW33427   0.814   2.364   3.152 -0.1904 -0.5179 -0.0044
 7323SOL    HW133428   0.802   2.392   3.061 -3.1443  0.6215  0.7404
 7323SOL    HW233429   0.758   2.429   3.195  0.6648  0.0134  0.2969
 7324SOL     OW33430   3.579   2.380   4.529 -0.0474 -0.1512  0.2456
 7324SOL    HW133431   3.610   2.436   4.458 -0.4017  0.7245  0.7772
 7324SOL    HW233432   3.546   2.304   4.481 -0.6412  0.6132 -0.5579
 7325SOL     OW33433   3.774   0.391   4.900  0.2322 -0.1172  0.0223
 7325SOL    HW133434   3.790   0.477   4.938  0.0519  0.1261 -0.4562
 7325SOL    HW233435   3.816   0.407   4.815 -0.0439  2.3053  0.3612
 7326SOL     OW33436   0.164   2.938   6.361 -0.6668  0.3240  0.2896
 7326SOL    HW133437   0.125   3.026   6.360  0.0878  0.6722  1.1095
 7326SOL    HW233438   0.255   2.960   6.339 -0.1163 -1.3612  0.8829
 7327SOL     OW33439   1.045   4.090   6.341  0.2025 -0.5587 -0.3400
 7327SOL    HW133440   1.118   4.029   6.350  0.0157 -0.8829 -0.9876
 7327SOL    HW233441   1.024   4.098   6.434  1.4220 -1.6206  0.0293
 7328SOL     OW33442   0.172   0.133   5.532  0.0629  0.1283 -0.0543
 7328SOL    HW133443   0.092   0.172   5.495 -0.1716 -0.4991 -0.2065
 7328SOL    HW233444   0.216   0.205   5.577  0.6887 -1.1400  1.3729
 7329SOL     OW33445   3.702   0.083  15.055 -0.1070 -0.1013 -0.0418
 7329SOL    HW133446   3.788   0.073  15.096  0.8989  0.3277 -2.0637
 7329SOL    HW233447   3.722   0.100  14.963 -1.3259  0.4195 -0.2138
 7330SOL     OW33448   1.022   0.998   8.279 -0.3231 -0.2201 -0.4441
 7330SOL    HW133449   1.054   1.045   8.356 -2.5058  0.5543  0.0118
 7330SOL    HW233450   1.101   0.997   8.227 -0.2173 -2.1976 -0.2517
 7331SOL     OW33451   4.524   2.196  17.063 -0.3201 -0.8556  0.7223
 7331SOL    HW133452   4.612   2.226  17.083 -1.1811  2.7600 -0.8313
 7331SOL    HW233453   4.476   2.279  17.059 -0.5849 -1.0144  0.6029
 7332SOL     OW33454   1.395   0.625   8.240 -0.5407  0.3810  0.9819
 7332SOL    HW133455   1.452   0.554   8.211  0.2086  0.7836  1.4520
 7332SOL    HW233456   1.308   0.591   8.222 -0.4406  0.4702  0.3035
 7333SOL     OW33457   1.392   3.182  17.635 -0.4540 -0.6233  0.2789
 7333SOL    HW133458   1.465   3.127  17.665 -0.3297 -0.7620 -0.2673
 7333SOL    HW233459   1.329   3.116  17.605  2.3255 -2.5358 -1.3751
 7334SOL     OW33460   4.303   0.955   2.068  0.1966  0.1567  0.5722
 7334SOL    HW133461   4.284   1.030   2.011 -1.8444 -0.5498  0.3133
 7334SOL    HW233462   4.226   0.900   2.052  1.6639 -0.9488 -2.5418
 7335SOL     OW33463   0.225   1.259   3.453 -0.0506 -0.5504  0.2431
 7335SOL    HW133464   0.159   1.204   3.494 -0.4614 -0.3484 -0.1374
 7335SOL    HW233465   0.199   1.231   3.365 -0.8992  1.6568 -0.2074
 7336SOL     OW33466   2.712   4.303   3.513  0.4860 -0.2998 -0.0952
 7336SOL    HW133467   2.770   4.334   3.582  0.5148  0.7632 -0.6014
 7336SOL    HW233468   2.762   4.337   3.438 -1.5910  0.6814 -1.0304
 7337SOL     OW33469   0.987   0.746   8.036  0.1877  0.1405 -0.6145
 7337SOL    HW133470   1.050   0.789   7.980  0.6702 -1.4532 -1.3010
 7337SOL    HW233471   0.913   0.802   8.015  0.6087  0.8730 -0.1380
 7338SOL     OW33472   0.187   3.859   2.903 -0.2107 -0.4720  0.0950
 7338SOL    HW133473   0.206   3.815   2.819  1.0145 -0.4092  0.3294
 7338SOL    HW233474   0.122   3.921   2.871  2.7836  2.3216 -0.6216
 7339SOL     OW33475   0.608   3.389  10.395  0.6243  0.0389 -0.3300
 7339SOL    HW133476   0.613   3.293  10.402  0.3508 -0.0529 -1.4788
 7339SOL    HW233477   0.575   3.399  10.306  2.2983 -1.6209 -1.1560
 7340SOL     OW33478   3.371   1.213   7.698 -0.3099  0.1865  0.0226
 7340SOL    HW133479   3.333   1.279   7.640 -0.4836  0.6771  0.6999
 7340SOL    HW233480   3.417   1.163   7.630 -0.6753  1.1227 -0.9082
 7341SOL     OW33481   1.373   4.673  15.581  0.0251  0.2045 -0.0125
 7341SOL    HW133482   1.371   4.661  15.676 -2.6571 -2.9686 -0.4399
 7341SOL    HW233483   1.438   4.605  15.563 -1.8432 -1.6636  0.2021
 7342SOL     OW33484   4.145   1.820  16.403  0.2975 -0.5554  0.5249
 7342SOL    HW133485   4.115   1.795  16.316  1.4387  0.4317 -0.1379
 7342SOL    HW233486   4.072   1.872  16.438  2.3943  1.3358  2.0496
 7343SOL     OW33487   2.571   0.190   3.867 -0.2982 -0.5008  0.2064
 7343SOL    HW133488   2.541   0.242   3.792  3.1460  0.8458 -0.2380
 7343SOL    HW233489   2.642   0.242   3.904 -0.5277  0.7193 -1.0985
 7344SOL     OW33490   3.322   3.139   4.335  0.3106  0.4517 -0.1565
 7344SOL    HW133491   3.268   3.061   4.325  0.5766  0.4793 -1.6809
 7344SOL    HW233492   3.313   3.144   4.431  0.9795 -0.3262 -0.0593
 7345SOL     OW33493   1.720   1.905   7.162 -0.7766 -0.5286 -0.2697
 7345SOL    HW133494   1.748   1.834   7.220  1.0399  1.5850  1.3950
 7345SOL    HW233495   1.750   1.882   7.074 -1.1847  0.5254 -0.6788
 7346SOL     OW33496   2.023   2.004   4.310 -1.1632 -0.1936 -0.1892
 7346SOL    HW133497   2.114   1.976   4.299 -1.5684 -1.7247  0.2669
 7346SOL    HW233498   2.031   2.054   4.391  2.9750 -0.8674 -0.1597
 7347SOL     OW33499   2.864   3.955   3.146  0.5555  0.8665 -1.1029
 7347SOL    HW133500   2.825   3.876   3.109 -0.3650  0.7808  0.0386
 7347SOL    HW233501   2.791   3.991   3.196  1.1474 -0.4042  0.6558
 7348SOL     OW33502   0.811   0.203   2.366 -0.1944  0.2471 -0.0291
 7348SOL    HW133503   0.762   0.129   2.330  1.8541 -1.6778  1.1140
 7348SOL    HW233504   0.747   0.252   2.417 -0.7095 -2.0101  1.5238
 7349SOL     OW33505   2.859   3.754   6.800  0.2770  0.1649  0.2385
 7349SOL    HW133506   2.910   3.693   6.746 -1.4526  0.1412 -1.3796
 7349SOL    HW233507   2.796   3.697   6.844  1.6779  0.8799  3.1202
 7350SOL     OW33508   2.232   3.824   7.021  0.1125  0.2812 -0.9510
 7350SOL    HW133509   2.169   3.756   7.044  1.6015 -0.7134  0.1449
 7350SOL    HW233510   2.177   3.894   6.986  0.3947  0.1747 -1.6127
 7351SOL     OW33511   4.326   3.641  13.762 -0.4408 -0.2210  0.2131
 7351SOL    HW133512   4.404   3.670  13.714 -2.3716  1.9381 -1.6940
 7351SOL    HW233513   4.253   3.687  13.720 -0.5211 -0.2460  0.3281
 7352SOL     OW33514   2.934   1.819   4.697 -0.0573  0.0188 -0.0116
 7352SOL    HW133515   2.994   1.885   4.732  0.4250 -0.8603  0.8007
 7352SOL    HW233516   2.939   1.826   4.602 -0.0653 -4.6695 -0.3721
 7353SOL     OW33517   1.628   2.762   3.650 -0.3062  0.5893  0.1973
 7353SOL    HW133518   1.688   2.724   3.714 -0.0057  0.6132 -0.0701
 7353SOL    HW233519   1.635   2.697   3.580  1.2795  1.2201 -0.2217
 7354SOL     OW33520   0.918   3.345   0.486  0.1408  0.1940 -0.3163
 7354SOL    HW133521   0.942   3.430   0.522  0.7898 -0.1044 -0.0544
 7354SOL    HW233522   0.976   3.289   0.539  0.4384 -2.2732 -3.2484
 7355SOL     OW33523   0.284   1.995   0.995 -0.1191  0.3866 -0.7373
 7355SOL    HW133524   0.342   2.050   1.048 -0.0530 -0.3082 -0.0908
 7355SOL    HW233525   0.271   1.913   1.044  0.3601  0.8084  0.0953
 7356SOL     OW33526   1.660   1.043   6.369  0.0910 -0.7883  0.0355
 7356SOL    HW133527   1.747   1.077   6.387  0.0082 -0.0990 -0.8804
 7356SOL    HW233528   1.633   1.091   6.291  0.6399  0.4867  0.6280
 7357SOL     OW33529   1.587   1.193   7.372 -0.5214 -0.2235  0.0658
 7357SOL    HW133530   1.570   1.130   7.442 -0.2733  0.2964  0.5958
 7357SOL    HW233531   1.549   1.149   7.297  1.2345 -0.7676 -0.5100
 7358SOL     OW33532   4.565   3.178   7.290  0.4930 -0.2847  0.0472
 7358SOL    HW133533   4.497   3.231   7.250  0.6347  1.0639  1.5957
 7358SOL    HW233534   4.580   3.232   7.368 -1.2197  0.2325  0.0018
 7359SOL     OW33535   4.360   3.020   3.245  0.7108  0.1303  0.1294
 7359SOL    HW133536   4.361   3.070   3.328 -0.9536  0.5168 -0.0860
 7359SOL    HW233537   4.369   2.930   3.276 -1.5077  0.9761  3.2079
 7360SOL     OW33538   3.604   3.589  11.382  0.4481 -0.2125  1.0518
 7360SOL    HW133539   3.511   3.588  11.406  0.6358  0.6074  1.8111
 7360SOL    HW233540   3.643   3.520  11.437  2.0442 -0.3280 -0.2385
 7361SOL     OW33541   3.853   2.189   2.885 -0.2513  0.3600  0.3948
 7361SOL    HW133542   3.944   2.170   2.862 -0.8799  0.4689 -2.2069
 7361SOL    HW233543   3.861   2.213   2.977 -0.5883  1.2664  0.1911
 7362SOL     OW33544   3.590   1.112  13.448 -0.6282  0.1093 -0.5352
 7362SOL    HW133545   3.678   1.094  13.413 -1.9112 -1.4460 -2.9681
 7362SOL    HW233546   3.540   1.135  13.369 -1.2429  2.7900  0.6551
 7363SOL     OW33547   4.164   1.129   6.216 -0.1106 -0.4497 -0.2863
 7363SOL    HW133548   4.130   1.107   6.303 -0.4425  1.1087 -0.0159
 7363SOL    HW233549   4.089   1.109   6.160  1.9447 -2.0368 -2.4215
 7364SOL     OW33550   0.522   1.036   4.138 -0.1473  0.3676  0.0276
 7364SOL    HW133551   0.597   1.025   4.080 -1.0853 -1.5239 -0.8196
 7364SOL    HW233552   0.526   1.132   4.141  1.4045  0.3137 -0.1881
 7365SOL     OW33553   2.634   1.323   5.995 -0.1277  0.0188  0.6237
 7365SOL    HW133554   2.722   1.307   6.031 -0.1771 -0.7211  0.4262
 7365SOL    HW233555   2.608   1.235   5.966  1.0804  0.0495 -0.5822
 7366SOL     OW33556   0.516   2.773   3.403  0.0542  0.6033 -0.2026
 7366SOL    HW133557   0.581   2.844   3.401  0.9521 -0.2317 -0.6561
 7366SOL    HW233558   0.548   2.719   3.475 -0.7789  0.6475  0.2013
 7367SOL     OW33559   1.497   2.369   2.114 -0.1739 -0.4139  0.4543
 7367SOL    HW133560   1.560   2.426   2.157 -1.0965  1.0138 -0.0878
 7367SOL    HW233561   1.543   2.330   2.039 -3.6930 -0.9872 -1.4263
 7368SOL     OW33562   2.469   2.700   4.856  0.2445  0.0238  0.4619
 7368SOL    HW133563   2.406   2.740   4.917 -0.8967 -1.6350  0.3609
 7368SOL    HW233564   2.413   2.626   4.833 -1.0379  0.3916  2.3107
 7369SOL     OW33565   2.989   2.987   7.994 -0.5563  0.9551  0.2944
 7369SOL    HW133566   2.997   3.061   8.053  1.7508  0.0694  1.1074
 7369SOL    HW233567   3.026   2.924   8.056  0.4276  0.3786 -0.8756
 7370SOL     OW33568   1.840   2.317   4.195  0.0412  0.1952 -0.0460
 7370SOL    HW133569   1.918   2.356   4.234 -0.6912  1.0652  0.5463
 7370SOL    HW233570   1.801   2.387   4.143 -2.0539 -0.6695  0.3766
 7371SOL     OW33571   0.194   3.940   9.559 -0.0395  0.3089  0.3283
 7371SOL    HW133572   0.143   3.866   9.590 -0.1222  0.7221  1.1766
 7371SOL    HW233573   0.139   4.015   9.580  0.4469  0.6730  0.3035
 7372SOL     OW33574   3.734   3.150   3.662  0.0368 -0.1253 -0.8499
 7372SOL    HW133575   3.670   3.145   3.734  1.0444  0.5705  0.0820
 7372SOL    HW233576   3.810   3.186   3.706  1.0642 -0.4556 -2.3729
 7373SOL     OW33577   3.946   2.414  17.389 -0.1531 -0.5203 -0.1589
 7373SOL    HW133578   3.954   2.509  17.399  2.6293 -0.8608  0.9676
 7373SOL    HW233579   4.028   2.390  17.347  0.0926 -0.8883  0.5400
 7374SOL     OW33580   2.255   3.667  11.955 -0.4207 -0.0237  0.0523
 7374SOL    HW133581   2.316   3.678  12.029  0.4923  0.0443 -0.7131
 7374SOL    HW233582   2.308   3.641  11.880  0.6026  0.2877  0.6593
 7375SOL     OW33583   2.053   2.370   3.483  0.2033  0.3922 -0.3893
 7375SOL    HW133584   2.068   2.421   3.562  1.7659 -0.9094  0.1596
 7375SOL    HW233585   2.087   2.437   3.423 -1.2787  0.0144 -1.6337
 7376SOL     OW33586   0.587   2.705   7.049  0.1204 -0.0496 -0.5849
 7376SOL    HW133587   0.623   2.730   6.964 -0.7372 -0.7033 -1.1507
 7376SOL    HW233588   0.613   2.784   7.096  0.4179 -0.3313 -0.2794
 7377SOL     OW33589   4.024   2.013   9.391 -0.0617  0.4663 -0.1781
 7377SOL    HW133590   4.068   1.940   9.349 -1.1614 -0.4508  0.2641
 7377SOL    HW233591   3.976   1.963   9.457  0.8234 -2.5854 -1.8876
 7378SOL     OW33592   1.684   3.555   1.793 -0.4271 -0.3282  0.3443
 7378SOL    HW133593   1.759   3.609   1.770  0.2811 -0.9058  1.2883
 7378SOL    HW233594   1.682   3.574   1.887  3.4739  0.2541  0.2868
 7379SOL     OW33595   1.232   1.823   6.614  0.3616 -0.0408  0.6023
 7379SOL    HW133596   1.217   1.739   6.657 -2.9901  0.8141  1.0874
 7379SOL    HW233597   1.240   1.885   6.686 -0.0374 -1.1116  1.5758
 7380SOL     OW33598   4.232   2.220   1.409 -0.0756 -0.2681 -0.1193
 7380SOL    HW133599   4.238   2.247   1.501  1.0452 -0.3246 -0.1846
 7380SOL    HW233600   4.283   2.297   1.383 -0.5273 -0.0988 -0.5172
 7381SOL     OW33601   1.072   3.731   8.743 -0.1013  0.2795 -0.1182
 7381SOL    HW133602   1.009   3.659   8.745  0.2584 -0.0866 -1.9568
 7381SOL    HW233603   1.107   3.731   8.832  2.2270  1.6230 -1.0172
 7382SOL     OW33604   3.082   1.408   7.770 -0.3542  0.5114  0.4777
 7382SOL    HW133605   3.071   1.387   7.677  0.3286  0.8043  0.3350
 7382SOL    HW233606   3.169   1.447   7.764  0.2405 -0.9180  0.0127
 7383SOL     OW33607   3.591   3.710   9.346 -0.5294 -0.3915  0.1130
 7383SOL    HW133608   3.583   3.785   9.405  0.4330 -1.6527  1.8439
 7383SOL    HW233609   3.564   3.745   9.261  2.0423 -2.2988 -1.4898
 7384SOL     OW33610   3.625   1.130  12.624  0.0287  0.2644  0.5568
 7384SOL    HW133611   3.647   1.223  12.622  0.1162  0.2301 -0.0305
 7384SOL    HW233612   3.628   1.116  12.529  1.8001 -1.0764  0.7951
 7385SOL     OW33613   2.070   0.930   1.149 -0.2762  0.2771  0.0612
 7385SOL    HW133614   2.124   0.917   1.226 -1.1958  0.4921  0.7480
 7385SOL    HW233615   2.048   1.021   1.168  0.4827 -0.0591  2.4704
 7386SOL     OW33616   4.657   0.616   7.161  0.1313 -0.0781  0.5051
 7386SOL    HW133617   0.007   0.573   7.207  1.4539  3.1384  1.4325
 7386SOL    HW233618   4.581   0.566   7.190 -1.0761  0.2656 -2.1001
 7387SOL     OW33619   0.108   3.434   4.739  0.2373  0.1117 -0.2945
 7387SOL    HW133620   0.068   3.414   4.824  2.0046 -0.2014  0.4667
 7387SOL    HW233621   0.041   3.410   4.675  1.7379  1.2745 -2.3036
 7388SOL     OW33622   4.184   3.782   6.464 -0.5280  0.4630  0.0556
 7388SOL    HW133623   4.207   3.875   6.463 -1.3453  0.6408 -2.6151
 7388SOL    HW233624   4.105   3.791   6.411  1.2210 -0.3230 -2.7440
 7389SOL     OW33625   0.132   2.014   3.748 -0.7172 -0.3008 -0.0537
 7389SOL    HW133626   0.107   1.930   3.711 -0.3592 -1.0241  1.3450
 7389SOL    HW233627   0.059   2.037   3.805 -1.1406  0.0487 -0.7478
 7390SOL     OW33628   1.992   3.077   1.700  0.4392 -0.0272  0.3140
 7390SOL    HW133629   2.086   3.091   1.685  0.2268  0.8543 -0.2252
 7390SOL    HW233630   1.982   3.161   1.744 -1.6899  0.1485 -0.5022
 7391SOL     OW33631   2.100   4.421   4.126  0.1221  0.3948  0.0207
 7391SOL    HW133632   2.159   4.355   4.090  2.2817  1.7223  1.1232
 7391SOL    HW233633   2.043   4.448   4.054 -0.2552 -2.3938 -0.7313
 7392SOL     OW33634   0.652   4.664  16.756 -0.2556  0.3012 -0.4175
 7392SOL    HW133635   0.562   4.695  16.743 -0.3958  0.6546  1.3045
 7392SOL    HW233636   0.679   4.704  16.839 -1.4311  0.9898 -0.3660
 7393SOL     OW33637   2.011   3.136   8.717 -0.1070  0.0453  0.0055
 7393SOL    HW133638   1.973   3.056   8.682  0.9217 -0.5006  0.1426
 7393SOL    HW233639   2.019   3.108   8.808  1.0992  1.2814  0.2853
 7394SOL     OW33640   3.090   3.019   2.507 -0.3033 -0.7772  0.3034
 7394SOL    HW133641   3.106   2.952   2.440  0.0692 -0.6040  0.2158
 7394SOL    HW233642   3.045   3.087   2.458 -0.9986 -2.7032 -1.7439
 7395SOL     OW33643   3.929   1.479  16.248 -0.6292 -0.0641  0.1362
 7395SOL    HW133644   3.840   1.474  16.283 -1.1060  0.0616 -1.0577
 7395SOL    HW233645   3.928   1.572  16.226  0.1091  0.2035  1.1991
 7396SOL     OW33646   3.471   1.623   7.080  0.5481 -0.2302 -0.2104
 7396SOL    HW133647   3.549   1.598   7.031  2.0662 -0.1247  2.1207
 7396SOL    HW233648   3.418   1.670   7.017  0.0276 -2.7743 -1.6667
 7397SOL     OW33649   4.371   4.211   5.325 -0.3463 -0.0343  0.3413
 7397SOL    HW133650   4.353   4.117   5.319  0.2878 -0.1860  0.8356
 7397SOL    HW233651   4.400   4.232   5.236 -1.1139  2.0701  0.5798
 7398SOL     OW33652   1.376   2.759  14.343  0.2072  0.0971  0.1698
 7398SOL    HW133653   1.353   2.703  14.416  0.3804 -1.6550 -1.1259
 7398SOL    HW233654   1.470   2.765  14.357  0.2967  0.0189 -0.3899
 7399SOL     OW33655   1.411   3.442   7.979  0.1778  0.0397 -0.0086
 7399SOL    HW133656   1.448   3.366   8.024  1.3462  1.6249  1.7452
 7399SOL    HW233657   1.372   3.480   8.057 -0.0166 -0.6527  0.2288
 7400SOL     OW33658   3.963   4.485   3.540  0.6320  0.3333 -0.0775
 7400SOL    HW133659   4.050   4.445   3.537 -0.1129 -1.4574  1.9660
 7400SOL    HW233660   3.929   4.443   3.619  1.4112 -0.0940  0.0336
 7401SOL     OW33661   2.962   0.642   7.280  0.4958 -0.0222 -0.2998
 7401SOL    HW133662   2.914   0.569   7.319 -0.7997 -0.8141 -3.3743
 7401SOL    HW233663   2.896   0.710   7.269 -0.3451 -1.1359 -1.9451
 7402SOL     OW33664   4.216   3.922   0.004 -0.0610 -0.2356  0.2081
 7402SOL    HW133665   4.272   3.856   0.046  1.6120  1.2535  0.3232
 7402SOL    HW233666   4.160   3.874  17.636 -2.4144 -0.3422  2.4495
 7403SOL     OW33667   3.636   4.681   2.980 -0.0193  0.1293  0.0343
 7403SOL    HW133668   3.600   4.651   2.897  0.1342  0.2382 -0.0712
 7403SOL    HW233669   3.648   4.599   3.028 -1.2559  0.3641  0.7431
 7404SOL     OW33670   1.840   3.550   5.876 -0.1492 -0.6409  0.0608
 7404SOL    HW133671   1.773   3.515   5.935 -0.7605  1.1882  0.4312
 7404SOL    HW233672   1.879   3.465   5.856  1.7980 -0.2866  2.3431
 7405SOL     OW33673   1.151   1.476   8.234 -0.3315  0.4640  0.2151
 7405SOL    HW133674   1.198   1.497   8.315 -0.9773 -0.6027  0.8761
 7405SOL    HW233675   1.211   1.506   8.166 -0.5382 -1.7028 -0.9402
 7406SOL     OW33676   2.233   0.927   2.506 -0.1477 -0.1859  0.3835
 7406SOL    HW133677   2.159   0.988   2.516 -0.8878 -0.9541 -0.4252
 7406SOL    HW233678   2.247   0.907   2.599 -0.3096  0.2203  0.4948
 7407SOL     OW33679   2.478   0.506  13.562 -0.1569  0.1624  0.5769
 7407SOL    HW133680   2.455   0.433  13.505 -1.0120  1.0150 -0.1595
 7407SOL    HW233681   2.450   0.583  13.515  2.2540 -0.1790 -1.4335
 7408SOL     OW33682   0.566   2.587   6.476  0.2541 -0.1070 -0.0299
 7408SOL    HW133683   0.485   2.623   6.512  0.0505 -0.6799  0.0824
 7408SOL    HW233684   0.584   2.654   6.411  0.9259 -0.8900 -0.6492
 7409SOL     OW33685   0.367   3.803  13.299 -0.0069  0.0523  0.7456
 7409SOL    HW133686   0.406   3.881  13.259  0.4683 -0.2488  0.6188
 7409SOL    HW233687   0.304   3.775  13.233  0.4010  3.5606 -1.1561
 7410SOL     OW33688   1.613   2.115   8.582  0.0426  0.6642 -0.1535
 7410SOL    HW133689   1.562   2.069   8.649  0.9717  0.9315  0.7285
 7410SOL    HW233690   1.542   2.164   8.540 -1.3188 -0.5749  0.6628
 7411SOL     OW33691   0.414   3.302   8.360  0.2228 -0.5715 -0.0513
 7411SOL    HW133692   0.383   3.392   8.363  2.2894  0.2084 -2.2825
 7411SOL    HW233693   0.356   3.269   8.291 -0.1941  1.9185 -0.8976
 7412SOL     OW33694   3.541   1.866  12.389 -0.2358  0.1448 -0.5647
 7412SOL    HW133695   3.522   1.960  12.387  0.2686  0.2669  0.2513
 7412SOL    HW233696   3.456   1.826  12.370  1.3297 -3.1480 -0.6399
 7413SOL     OW33697   4.649   3.627   5.534  0.3468 -0.0752  0.2541
 7413SOL    HW133698   4.686   3.651   5.619  0.0622 -0.5990  0.5290
 7413SOL    HW233699   4.596   3.701   5.506 -0.5959 -1.6300 -2.0808
 7414SOL     OW33700   0.970   0.216   9.889  0.2088 -0.3311 -0.6180
 7414SOL    HW133701   1.022   0.251   9.818  2.0241  1.4633  1.5839
 7414SOL    HW233702   0.908   0.285   9.913 -0.4143 -1.2055  0.3372
 7415SOL     OW33703   4.346   0.684   6.007  0.1273  0.4300  0.3572
 7415SOL    HW133704   4.282   0.749   5.980 -0.0654 -0.7852 -2.1774
 7415SOL    HW233705   4.408   0.733   6.061 -1.6436  0.9356  1.9225
 7416SOL     OW33706   1.070   4.206   8.681  0.6928  0.1871 -0.2506
 7416SOL    HW133707   1.030   4.125   8.650 -0.3765  0.1214  1.2897
 7416SOL    HW233708   1.126   4.167   8.748  1.8053  0.1624 -1.2075
 7417SOL     OW33709   1.695   1.972   8.277  0.2074 -0.5827  0.1073
 7417SOL    HW133710   1.730   1.970   8.366  1.3245 -2.1893 -0.3735
 7417SOL    HW233711   1.756   2.031   8.232 -1.3834 -0.7195 -2.2355
 7418SOL     OW33712   3.319   3.718  11.683 -0.4982 -0.1023 -0.1948
 7418SOL    HW133713   3.225   3.723  11.705 -0.7429 -2.6499 -0.7279
 7418SOL    HW233714   3.331   3.808  11.651  0.8075 -0.5530 -0.9439
 7419SOL     OW33715   0.388   1.547   6.229 -0.9690 -0.2199 -0.3781
 7419SOL    HW133716   0.434   1.534   6.147 -0.3558 -0.7744  0.0497
 7419SOL    HW233717   0.306   1.583   6.194 -0.5575  0.3701 -0.7131
 7420SOL     OW33718   2.631   4.161   8.022 -0.2168 -0.0448 -0.5162
 7420SOL    HW133719   2.546   4.177   7.982 -0.5493 -2.0044 -0.5573
 7420SOL    HW233720   2.618   4.237   8.080 -1.0630 -0.7039  0.1575
 7421SOL     OW33721   1.113   3.732   6.419  0.4578  0.2681 -0.2479
 7421SOL    HW133722   1.038   3.782   6.453  0.9750 -0.6858  2.2940
 7421SOL    HW233723   1.182   3.798   6.417  0.3607  0.4162  0.7711
 7422SOL     OW33724   1.508   0.705  10.520 -0.0110 -0.2346 -0.6254
 7422SOL    HW133725   1.416   0.684  10.539 -0.9579  2.3615 -2.2673
 7422SOL    HW233726   1.523   0.764  10.593 -1.8708 -0.3079 -0.1776
 7423SOL     OW33727   4.473   3.344   5.315 -0.4239 -0.2239  0.4522
 7423SOL    HW133728   4.453   3.259   5.277 -1.4752 -0.2409  1.0274
 7423SOL    HW233729   4.551   3.369   5.266 -2.0339 -0.9179 -2.4693
 7424SOL     OW33730   0.927   2.596   4.223  0.8417  0.6680  0.1092
 7424SOL    HW133731   0.990   2.556   4.283 -0.4822 -1.8640 -0.1427
 7424SOL    HW233732   0.855   2.600   4.286  1.5112 -0.7007  0.9775
 7425SOL     OW33733   3.475   2.493  10.982  0.0159  0.3095  0.7355
 7425SOL    HW133734   3.555   2.546  10.984 -0.1554  0.5856  0.1324
 7425SOL    HW233735   3.467   2.472  10.889  0.5936  1.3721  0.4418
 7426SOL     OW33736   0.084   2.991   3.712 -0.2746 -0.0452  0.0913
 7426SOL    HW133737   0.161   3.043   3.686 -1.2052  0.4786 -1.6198
 7426SOL    HW233738   0.095   2.920   3.649 -1.3901  0.9413 -1.2143
 7427SOL     OW33739   0.121   3.671   9.544  0.0536  0.0745  0.1799
 7427SOL    HW133740   0.166   3.625   9.473 -0.4002 -0.1684  0.0510
 7427SOL    HW233741   0.118   3.609   9.617  2.6611 -1.3966 -0.9654
 7428SOL     OW33742   0.047   1.885   9.181 -0.2597 -0.3226 -0.2882
 7428SOL    HW133743   0.067   1.920   9.268 -0.7817  0.9926 -0.6996
 7428SOL    HW233744   0.098   1.804   9.177  1.0784  0.5815 -1.2769
 7429SOL     OW33745   1.840   2.932  17.164  0.4646  0.4753 -0.2054
 7429SOL    HW133746   1.773   2.952  17.230 -1.2384  1.4444 -2.2308
 7429SOL    HW233747   1.789   2.965  17.090 -1.9802 -0.2340  1.1453
 7430SOL     OW33748   3.196   2.349  15.195  0.0445  0.5857  0.6555
 7430SOL    HW133749   3.164   2.305  15.116  1.5096 -0.4607  0.6431
 7430SOL    HW233750   3.108   2.375  15.222 -0.8275 -2.1739  0.4856
 7431SOL     OW33751   2.553   4.028  16.103 -0.4861 -0.2237 -0.1078
 7431SOL    HW133752   2.500   3.974  16.162 -0.1996 -1.6810 -1.1704
 7431SOL    HW233753   2.519   4.116  16.114  2.1782  0.4392  3.0030
 7432SOL     OW33754   3.805   2.179   6.600 -0.0143 -0.2354 -0.8156
 7432SOL    HW133755   3.851   2.165   6.517  1.3176  0.5059 -0.1881
 7432SOL    HW233756   3.845   2.110   6.653 -0.8499 -1.4754 -1.7985
 7433SOL     OW33757   3.327   0.714   7.660 -0.4824 -0.0894 -0.0185
 7433SOL    HW133758   3.411   0.716   7.707 -0.6669  2.9690  0.1859
 7433SOL    HW233759   3.291   0.648   7.718 -3.8618  0.4041 -1.5878
 7434SOL     OW33760   0.766   2.809  12.719  0.3501  0.5663  0.2192
 7434SOL    HW133761   0.856   2.789  12.695  0.2546  1.0187 -0.5328
 7434SOL    HW233762   0.722   2.756  12.652  3.2231 -0.4116 -0.8860
 7435SOL     OW33763   2.889   1.696   6.984 -0.1402  0.4854  0.1230
 7435SOL    HW133764   2.897   1.744   7.066 -0.8197 -0.2500  0.6253
 7435SOL    HW233765   2.971   1.647   6.993 -0.5907 -0.0091  1.5737
 7436SOL     OW33766   4.141   2.239   6.771 -0.6056  0.2160 -0.1550
 7436SOL    HW133767   4.122   2.147   6.790  0.1071  0.1054  0.0230
 7436SOL    HW233768   4.232   2.248   6.799 -0.4840 -0.0789 -0.4617
 7437SOL     OW33769   0.596   3.894   9.253  0.2219  0.3575 -0.0429
 7437SOL    HW133770   0.589   3.871   9.346  1.6091  0.9477  0.2028
 7437SOL    HW233771   0.684   3.930   9.244  0.2925 -0.0248 -0.8348
 7438SOL     OW33772   1.052   3.940  13.190  0.4204  0.0650  0.1658
 7438SOL    HW133773   1.049   3.961  13.096  0.2654 -0.9327 -0.0487
 7438SOL    HW233774   0.967   3.902  13.212  1.5703 -2.8859 -0.4607
 7439SOL     OW33775   3.845   2.150  16.865  0.7627  0.1661 -0.2783
 7439SOL    HW133776   3.824   2.068  16.909 -1.5038 -0.9419 -3.3985
 7439SOL    HW233777   3.782   2.205  16.911  0.6760 -0.9567  0.9459
 7440SOL     OW33778   1.566   1.005  10.007  0.4647  0.0831  0.0457
 7440SOL    HW133779   1.485   0.962   9.981  0.1863  0.2957  0.5667
 7440SOL    HW233780   1.534   1.063  10.076  2.7471  0.1508  1.0581
 7441SOL     OW33781   2.544   0.613   8.918  0.6203 -0.1532 -0.4174
 7441SOL    HW133782   2.595   0.562   8.980  1.5606 -0.7343 -1.6589
 7441SOL    HW233783   2.494   0.552   8.864  0.3007 -0.9217  0.7511
 7442SOL     OW33784   4.253   0.836   5.741 -0.2073 -0.1912  0.1060
 7442SOL    HW133785   4.263   0.913   5.797  0.1917  0.2530 -0.5763
 7442SOL    HW233786   4.326   0.854   5.682  0.5171  1.1012  1.3916
 7443SOL     OW33787   3.709   1.087   4.232 -0.2062  0.1697 -0.2507
 7443SOL    HW133788   3.674   0.999   4.215 -1.8741  0.7126  0.3202
 7443SOL    HW233789   3.802   1.068   4.242  0.0209  1.3471 -0.1163
 7444SOL     OW33790   0.568   0.996   5.456 -0.3599  0.2036 -0.2471
 7444SOL    HW133791   0.522   0.919   5.490 -0.1910 -0.0236 -0.5264
 7444SOL    HW233792   0.493   1.033   5.408 -0.0910 -0.0309 -0.8503
 7445SOL     OW33793   2.740   1.272  14.088  0.1482 -0.5837  0.2621
 7445SOL    HW133794   2.699   1.329  14.022  0.0826 -0.2125  0.6256
 7445SOL    HW233795   2.819   1.243  14.043  1.7677  1.1453  2.0301
 7446SOL     OW33796   4.595   0.569   3.491 -0.0292 -0.3541  0.6368
 7446SOL    HW133797   4.511   0.551   3.448  0.3097  1.2204 -0.6764
 7446SOL    HW233798   4.563   0.634   3.552  2.1431  0.8245  0.5400
 7447SOL     OW33799   0.507   0.973  11.807  0.6072  0.2908 -0.3704
 7447SOL    HW133800   0.422   1.017  11.802  0.8337  0.7246 -0.3878
 7447SOL    HW233801   0.555   1.044  11.850 -0.0883  1.1621 -1.0382
 7448SOL     OW33802   3.153   3.521   5.187  0.1774 -0.1093 -0.6849
 7448SOL    HW133803   3.092   3.507   5.259  1.0248  1.4885  0.3257
 7448SOL    HW233804   3.235   3.496   5.230  0.5662  0.9270 -0.8232
 7449SOL     OW33805   0.548   1.036   7.036 -0.2954  0.0021  0.4336
 7449SOL    HW133806   0.500   0.959   7.004 -0.3373  0.3745 -0.4059
 7449SOL    HW233807   0.492   1.059   7.110 -0.3514  1.5915 -0.0946
 7450SOL     OW33808   3.678   2.322  14.557 -0.1013  0.5674  0.0527
 7450SOL    HW133809   3.602   2.342  14.612 -0.2700 -1.6108  0.5907
 7450SOL    HW233810   3.643   2.280  14.479  2.3330 -1.2131 -0.0637
 7451SOL     OW33811   1.252   1.300   0.013 -0.9181  0.3592 -0.1813
 7451SOL    HW133812   1.270   1.209  17.683 -0.0907  0.9146 -1.7239
 7451SOL    HW233813   1.224   1.338  17.623  1.7300 -0.3071 -1.3869
 7452SOL     OW33814   0.751   2.628  13.746  0.3779 -0.1726  0.5133
 7452SOL    HW133815   0.684   2.665  13.689  2.2472 -0.7926 -2.0397
 7452SOL    HW233816   0.710   2.541  13.750  1.2040 -0.7098 -2.7864
 7453SOL     OW33817   0.366   4.034   2.404  0.3754  0.0331  0.2944
 7453SOL    HW133818   0.377   3.939   2.405 -0.6817 -0.0676  1.4559
 7453SOL    HW233819   0.458   4.057   2.411  0.2876  1.0455 -1.8878
 7454SOL     OW33820   2.639   1.701   0.948  0.4690 -0.6768 -0.0578
 7454SOL    HW133821   2.616   1.790   0.973 -1.0924 -0.5884 -1.7389
 7454SOL    HW233822   2.566   1.666   0.897  1.1975 -1.3294 -0.6449
 7455SOL     OW33823   1.911   0.712  10.744 -0.3097  0.9593 -0.6651
 7455SOL    HW133824   1.994   0.712  10.792  0.2612 -1.9737 -1.6457
 7455SOL    HW233825   1.876   0.623  10.745 -0.5031  1.0298 -1.1910
 7456SOL     OW33826   3.538   3.718   6.073 -0.8444 -0.0056 -0.2658
 7456SOL    HW133827   3.528   3.728   6.168  1.1895 -0.8834  0.0513
 7456SOL    HW233828   3.523   3.624   6.069 -2.4100  0.2781 -0.7735
 7457SOL     OW33829   3.177   2.160   0.580  0.0271 -0.1474  0.8710
 7457SOL    HW133830   3.260   2.115   0.564  0.4089  1.1470 -0.7437
 7457SOL    HW233831   3.133   2.091   0.631  0.1408 -1.3437 -0.6394
 7458SOL     OW33832   3.895   2.408  15.278  0.3944  0.2209  0.2409
 7458SOL    HW133833   3.990   2.393  15.274  0.7838  2.6826  0.5386
 7458SOL    HW233834   3.883   2.426  15.185  0.1251  2.1404  0.6641
 7459SOL     OW33835   4.576   0.353   5.683 -0.0446 -0.3876  0.5140
 7459SOL    HW133836   4.530   0.278   5.646  2.2223 -1.2835 -0.4896
 7459SOL    HW233837   4.498   0.394   5.720  1.1688  3.1744 -0.8145
 7460SOL     OW33838   3.619   4.517   7.191  0.0393 -0.1427  0.2124
 7460SOL    HW133839   3.547   4.581   7.196  0.4184  0.3233 -0.4188
 7460SOL    HW233840   3.594   4.446   7.250 -1.0630  0.2125  0.1758
 7461SOL     OW33841   4.251   1.241   2.707 -0.9347 -0.3979 -0.4048
 7461SOL    HW133842   4.255   1.261   2.614  1.8550 -1.3453 -0.4885
 7461SOL    HW233843   4.170   1.192   2.725 -0.0163 -2.5905 -2.3941
 7462SOL     OW33844   1.020   0.118  10.558 -0.3155  0.5037 -0.2334
 7462SOL    HW133845   0.967   0.072  10.492 -1.4218  1.3705  0.0593
 7462SOL    HW233846   0.979   0.103  10.643 -0.1659 -2.4672 -0.6749
 7463SOL     OW33847   0.861   3.781   6.854 -0.1207  0.0758 -0.5695
 7463SOL    HW133848   0.948   3.746   6.875 -0.1107 -0.3693 -1.3330
 7463SOL    HW233849   0.805   3.720   6.902 -0.5578 -0.7511 -2.1117
 7464SOL     OW33850   3.776   4.120   0.313  0.2065 -0.4265  0.5260
 7464SOL    HW133851   3.779   4.076   0.228 -1.9925 -1.3190  0.8944
 7464SOL    HW233852   3.781   4.047   0.375  1.4223 -0.8515 -0.0908
 7465SOL     OW33853   1.297   3.935  15.726  0.0042  0.2206  0.8520
 7465SOL    HW133854   1.263   3.855  15.764  0.8841 -1.1015 -1.1406
 7465SOL    HW233855   1.383   3.908  15.694 -0.2099  1.0807 -0.4479
 7466SOL     OW33856   1.123   2.561   6.646 -0.7452  0.6494 -0.4149
 7466SOL    HW133857   1.092   2.479   6.609  2.5763 -0.3570 -1.0232
 7466SOL    HW233858   1.194   2.539   6.706  0.3543  0.6309 -1.7211
 7467SOL     OW33859   2.943   0.820  11.656  0.2872  0.1977  0.1238
 7467SOL    HW133860   3.037   0.804  11.665 -0.1327 -0.3883  3.3963
 7467SOL    HW233861   2.944   0.913  11.677 -0.3928  0.6922 -1.9869
 7468SOL     OW33862   2.954   2.721  17.614  0.2570 -0.2464 -0.0998
 7468SOL    HW133863   2.908   2.804  17.630 -1.8765 -1.2423 -0.9915
 7468SOL    HW233864   2.982   2.698   0.009  0.8825  1.5879  0.1726
 7469SOL     OW33865   4.007   1.709   8.793  0.3175 -0.1952 -0.0092
 7469SOL    HW133866   3.963   1.786   8.757  0.5511 -0.6311 -1.2013
 7469SOL    HW233867   4.068   1.751   8.854 -1.5952  3.2390 -0.4957
 7470SOL     OW33868   0.391   1.876   9.379 -0.5147 -0.3852  0.1165
 7470SOL    HW133869   0.387   1.836   9.293  2.3212  1.2190 -0.7607
 7470SOL    HW233870   0.355   1.963   9.361  0.2207 -0.2288 -0.5807
 7471SOL     OW33871   2.627   4.262   1.659 -0.4131  0.0416 -0.2820
 7471SOL    HW133872   2.628   4.283   1.566  2.9993  0.4963 -0.1494
 7471SOL    HW233873   2.606   4.347   1.698 -1.2401 -0.6184  0.7110
 7472SOL     OW33874   1.874   2.025   2.647  0.1416 -0.3017  0.2507
 7472SOL    HW133875   1.840   2.056   2.731  2.0615  0.8193  0.5953
 7472SOL    HW233876   1.897   1.933   2.664 -0.9612 -0.9240 -1.6480
 7473SOL     OW33877   2.587   2.909   6.147  0.1739  0.0952 -0.2392
 7473SOL    HW133878   2.614   2.963   6.073  0.8333  2.0111  1.3941
 7473SOL    HW233879   2.646   2.834   6.151 -0.2190 -0.0815  2.1905
 7474SOL     OW33880   3.691   4.282   4.588 -0.2779  0.4157 -0.3801
 7474SOL    HW133881   3.675   4.370   4.553  2.6392  1.2811  0.5002
 7474SOL    HW233882   3.778   4.271   4.550  0.1312 -2.4989  1.4040
 7475SOL     OW33883   0.828   0.879   8.424 -0.2626  0.3886 -0.4115
 7475SOL    HW133884   0.825   0.794   8.380 -3.4889  1.1742 -1.6883
 7475SOL    HW233885   0.902   0.919   8.379  0.5216 -0.4522  0.1123
 7476SOL     OW33886   3.209   3.859  13.364 -0.2834 -0.8427 -0.6161
 7476SOL    HW133887   3.165   3.788  13.409  0.8956 -0.8458  0.5222
 7476SOL    HW233888   3.144   3.895  13.303 -1.0352  0.9520  1.2505
 7477SOL     OW33889   0.047   3.076  14.434  0.1147  0.7685 -0.1869
 7477SOL    HW133890   0.109   3.135  14.477 -0.5609  1.3268  0.0199
 7477SOL    HW233891   0.058   3.016  14.508  0.2469  0.2146 -0.6556
 7478SOL     OW33892   2.718   3.075   4.187  0.1207 -0.0186 -0.2949
 7478SOL    HW133893   2.797   3.115   4.224 -0.6137 -0.2028  1.5002
 7478SOL    HW233894   2.727   3.106   4.097  2.5806  1.6212  0.4906
 7479SOL     OW33895   1.786   3.106   4.242  0.1343 -0.2896  0.1127
 7479SOL    HW133896   1.694   3.124   4.222  1.0450  3.7103 -0.4356
 7479SOL    HW233897   1.812   3.153   4.162 -0.2735  1.0754  0.7832
 7480SOL     OW33898   2.564   4.595   7.123 -0.0850  0.1008 -0.2827
 7480SOL    HW133899   2.598   4.532   7.060  3.3508  1.8705 -0.2135
 7480SOL    HW233900   2.510   4.543   7.183 -1.3104  0.7685 -0.7929
 7481SOL     OW33901   3.197   0.100  14.868 -0.4170 -0.1105  0.5816
 7481SOL    HW133902   3.258   0.173  14.879  1.6420 -2.0938  2.5521
 7481SOL    HW233903   3.245   0.053  14.799  2.1472  1.9419  0.9812
 7482SOL     OW33904   1.175   2.237   6.910 -0.2098 -0.1040 -0.0712
 7482SOL    HW133905   1.137   2.319   6.943  2.6237  1.3193 -0.4102
 7482SOL    HW233906   1.256   2.278   6.880 -0.4838  0.3580 -0.1855
 7483SOL     OW33907   3.111   3.436   3.524 -0.4803  0.3816 -0.9619
 7483SOL    HW133908   3.198   3.465   3.553 -1.1978  0.2214  1.4089
 7483SOL    HW233909   3.142   3.395   3.443 -0.4389  2.8588 -2.1835
 7484SOL     OW33910   4.504   0.887  16.222  0.5900 -0.3918  0.0434
 7484SOL    HW133911   4.593   0.917  16.240  0.6296  0.1301 -1.0606
 7484SOL    HW233912   4.455   0.966  16.198 -1.6177 -2.0288 -0.7914
 7485SOL     OW33913   3.242   0.961   2.085  0.2812  0.5908 -0.4998
 7485SOL    HW133914   3.249   1.055   2.074  2.2513  0.7451  2.1222
 7485SOL    HW233915   3.336   0.945   2.091  0.2085  0.0489 -0.8247
 7486SOL     OW33916   2.129   0.686   3.547  0.2583  0.0843 -0.3411
 7486SOL    HW133917   2.165   0.642   3.624  1.1975  2.1288  0.3876
 7486SOL    HW233918   2.047   0.702   3.594  0.7776  2.5889 -0.3005
 7487SOL     OW33919   4.407   2.644   9.394 -0.3821 -0.1610 -0.0361
 7487SOL    HW133920   4.347   2.580   9.432  1.7835 -2.2329 -0.0532
 7487SOL    HW233921   4.485   2.592   9.376 -1.2587 -0.7998 -1.8849
 7488SOL     OW33922   3.564   4.322   7.370  0.2944  0.2945  0.6259
 7488SOL    HW133923   3.612   4.248   7.407 -1.1535 -1.1176 -0.3449
 7488SOL    HW233924   3.482   4.310   7.418  0.5926 -3.3502  0.1810
 7489SOL     OW33925   1.816   1.854  16.112 -0.2236  0.0847 -0.3585
 7489SOL    HW133926   1.886   1.906  16.150 -0.9416  1.4952 -0.9454
 7489SOL    HW233927   1.865   1.816  16.039  1.0085 -0.8603  0.9667
 7490SOL     OW33928   3.796   1.405   6.539  0.4996  0.1986 -0.2721
 7490SOL    HW133929   3.883   1.444   6.534  0.7159 -0.1491  0.8179
 7490SOL    HW233930   3.790   1.366   6.452 -0.2049 -1.6545  0.6054
 7491SOL     OW33931   0.586   2.595   7.425  0.4803 -0.2714  0.0204
 7491SOL    HW133932   0.508   2.650   7.430 -0.9944 -2.3607 -0.0040
 7491SOL    HW233933   0.584   2.562   7.335 -2.0463 -1.0755  0.3857
 7492SOL     OW33934   3.014   3.255   0.640 -0.3930  0.5007 -0.2201
 7492SOL    HW133935   3.065   3.336   0.640 -1.1692  0.9879 -0.0201
 7492SOL    HW233936   3.008   3.233   0.733 -0.6679  0.6749 -0.1968
 7493SOL     OW33937   0.974   2.411  12.538  0.1557  0.8347  0.7485
 7493SOL    HW133938   0.924   2.420  12.620 -1.5480 -1.7574  0.0079
 7493SOL    HW233939   1.066   2.416  12.561  0.4839 -0.3459 -0.3235
 7494SOL     OW33940   3.487   3.569  11.811 -0.3444 -0.1174  0.2433
 7494SOL    HW133941   3.420   3.618  11.764  1.9226  1.5127 -1.2929
 7494SOL    HW233942   3.571   3.592  11.772 -0.5872 -2.0184 -1.3973
 7495SOL     OW33943   2.456   3.865  16.329  0.0820  0.1131  0.1333
 7495SOL    HW133944   2.535   3.814  16.342  0.6972  1.3873  1.3872
 7495SOL    HW233945   2.389   3.827  16.385 -0.6993 -1.7234 -2.0505
 7496SOL     OW33946   3.509   0.584  10.365 -0.8916 -0.5453  0.2225
 7496SOL    HW133947   3.576   0.599  10.431  1.2576 -0.9034 -1.8766
 7496SOL    HW233948   3.430   0.563  10.415 -0.6936 -1.2330  0.2393
 7497SOL     OW33949   2.380   1.292   6.652  0.3599 -0.1875 -0.0706
 7497SOL    HW133950   2.325   1.369   6.638  0.5924 -0.2982 -1.6140
 7497SOL    HW233951   2.462   1.335   6.678  0.2094  0.2624 -0.3228
 7498SOL     OW33952   3.305   3.950   0.515 -0.0067 -0.7730 -0.4089
 7498SOL    HW133953   3.256   4.025   0.550  0.0582 -0.4767 -0.9611
 7498SOL    HW233954   3.242   3.897   0.466 -0.5407  0.7723 -1.3875
 7499SOL     OW33955   3.162   3.854   8.491 -0.1612  1.1954  0.7711
 7499SOL    HW133956   3.180   3.874   8.583 -0.6981  0.4196  1.0464
 7499SOL    HW233957   3.240   3.801   8.475 -1.3922 -0.3762 -0.0622
 7500SOL     OW33958   2.975   1.197   6.400 -0.0248  0.3729  0.0097
 7500SOL    HW133959   2.899   1.139   6.394  0.2158  0.1281 -0.6393
 7500SOL    HW233960   3.034   1.161   6.334 -1.7551 -2.7822  0.1769
 7501SOL     OW33961   1.633   0.734   6.116  0.0401 -0.2067  0.2594
 7501SOL    HW133962   1.726   0.735   6.095 -0.1583  0.3755 -0.6305
 7501SOL    HW233963   1.596   0.668   6.057 -0.4516  1.9869 -1.9087
 7502SOL     OW33964   1.569   1.105   9.721 -0.0858  0.1378 -0.0820
 7502SOL    HW133965   1.612   1.126   9.639 -1.9837 -1.3199 -1.4614
 7502SOL    HW233966   1.583   1.010   9.716 -0.1851  0.1667 -0.9413
 7503SOL     OW33967   0.290   3.051   4.718 -0.3506 -0.0793 -0.5686
 7503SOL    HW133968   0.210   3.085   4.758 -0.7167 -1.3948 -0.1986
 7503SOL    HW233969   0.286   3.107   4.640  0.8241 -1.6199 -1.7264
 7504SOL     OW33970   0.438   0.168  16.780 -0.4763  0.0089  0.3528
 7504SOL    HW133971   0.402   0.104  16.719  2.1856  2.1830 -3.5187
 7504SOL    HW233972   0.392   0.247  16.751 -0.2416  0.7647  2.0059
 7505SOL     OW33973   3.081   3.114   3.080  0.0265 -0.4831 -0.0673
 7505SOL    HW133974   2.997   3.086   3.045 -0.9261 -0.3220  2.1057
 7505SOL    HW233975   3.080   3.044   3.145 -2.5077 -2.1074 -1.8772
 7506SOL     OW33976   4.622   4.006   5.801  0.7828  0.2663 -0.5339
 7506SOL    HW133977   4.604   4.057   5.722  2.4898  0.2080 -0.9643
 7506SOL    HW233978   4.704   4.049   5.826  0.5716  1.0525 -1.2339
 7507SOL     OW33979   2.824   3.228   7.086  0.2037 -0.6088 -0.2830
 7507SOL    HW133980   2.739   3.221   7.043 -0.1688 -2.8505  0.8299
 7507SOL    HW233981   2.793   3.253   7.173 -0.9993  0.4228 -1.0071
 7508SOL     OW33982   1.250   1.273   5.904 -0.2828 -0.1982  0.8805
 7508SOL    HW133983   1.269   1.181   5.888 -1.2530 -0.2403  0.0252
 7508SOL    HW233984   1.297   1.314   5.831  0.3884 -1.5071  0.5835
 7509SOL     OW33985   2.712   2.894   0.020 -0.1252  0.1864 -0.6704
 7509SOL    HW133986   2.646   2.963   0.011 -2.6395 -2.1344  0.2746
 7509SOL    HW233987   2.669   2.832  17.654  0.6132 -0.7198 -0.2480
 7510SOL     OW33988   2.216   4.574  10.288  0.4002 -0.6556  0.0050
 7510SOL    HW133989   2.210   4.480  10.299 -0.7970 -1.2058 -5.0290
 7510SOL    HW233990   2.299   4.585  10.334  0.2123  1.2257 -0.0874
 7511SOL     OW33991   3.608   0.169  12.982 -0.2878  0.4632 -0.2249
 7511SOL    HW133992   3.647   0.084  13.003  2.0845  2.1504  2.2193
 7511SOL    HW233993   3.688   0.218  12.960 -0.5925  0.2709 -1.7661
 7512SOL     OW33994   0.665   0.865  12.616 -0.1455  0.3225  0.1999
 7512SOL    HW133995   0.703   0.945  12.578 -0.6301 -1.4174 -4.0016
 7512SOL    HW233996   0.575   0.891  12.601  1.0960  3.7249 -1.4263
 7513SOL     OW33997   4.097   2.898   8.963  0.4242  0.1713 -0.0031
 7513SOL    HW133998   4.104   2.882   8.869 -0.6382  0.2717 -0.0970
 7513SOL    HW233999   4.031   2.967   8.963  1.3364  1.0442  0.6225
 7514SOL     OW34000   2.666   2.323  12.005 -0.0890 -0.8736 -0.4709
 7514SOL    HW134001   2.682   2.285  12.091 -0.8016 -0.7196 -0.2736
 7514SOL    HW234002   2.695   2.411  12.026 -0.8152 -0.2931 -1.8692
 7515SOL     OW34003   0.315   0.890   3.938  0.1892  0.4617 -0.0138
 7515SOL    HW134004   0.399   0.917   3.975 -0.2144  1.7451 -0.0331
 7515SOL    HW234005   0.278   0.969   3.898  1.5143  1.4904  0.8111
 7516SOL     OW34006   2.982   2.415   0.295  0.4916  0.0291 -0.3993
 7516SOL    HW134007   2.984   2.322   0.321  0.2338  0.1690  0.1284
 7516SOL    HW234008   3.055   2.442   0.351 -1.2525 -0.8526  2.2880
 7517SOL     OW34009   1.601   0.352  16.172 -0.0018  0.0152  0.0699
 7517SOL    HW134010   1.604   0.429  16.229  0.7504  0.1621 -0.1753
 7517SOL    HW234011   1.592   0.279  16.233  1.4375 -1.2623 -1.2461
 7518SOL     OW34012   1.614   1.052   4.632 -0.3236 -0.4117  0.1742
 7518SOL    HW134013   1.582   1.139   4.606 -3.2139 -0.5171  3.4142
 7518SOL    HW234014   1.533   1.004   4.649 -0.9310  0.7648  0.6321
 7519SOL     OW34015   1.043   4.621   9.956  0.0703  0.3832  0.5208
 7519SOL    HW134016   0.958   4.583   9.935  0.0472 -0.1640  1.6603
 7519SOL    HW234017   1.073   4.654   9.871  0.6357 -3.2515 -0.6729
 7520SOL     OW34018   4.203   3.024   2.353 -0.0812 -0.0039 -0.1313
 7520SOL    HW134019   4.116   2.984   2.361 -0.8131  0.3789 -6.3557
 7520SOL    HW234020   4.241   2.972   2.282  0.7871  0.0315  0.3165
 7521SOL     OW34021   0.151   0.772   2.956  0.6101  0.2204  0.0209
 7521SOL    HW134022   0.230   0.769   3.011  1.2922  0.0311 -0.9616
 7521SOL    HW234023   0.095   0.830   3.006  0.4568  0.0128  0.0883
 7522SOL     OW34024   4.536   4.440  16.106 -0.2758 -0.4119  0.1985
 7522SOL    HW134025   4.562   4.412  16.018 -2.0813 -1.4376  0.0009
 7522SOL    HW234026   4.481   4.362  16.114 -1.3629  0.3753  0.2592
 7523SOL     OW34027   3.517   3.671   4.927  0.0660  0.6425 -0.2195
 7523SOL    HW134028   3.498   3.596   4.871  1.1336  0.2833 -0.1029
 7523SOL    HW234029   3.434   3.685   4.972 -0.5043 -2.3796 -0.3495
 7524SOL     OW34030   2.898   3.896   5.914  0.0503 -0.3127 -0.0794
 7524SOL    HW134031   2.945   3.976   5.892  0.5078 -0.9117 -1.2480
 7524SOL    HW234032   2.808   3.915   5.887 -0.6303 -2.3648  0.7207
 7525SOL     OW34033   1.484   3.118   2.319 -0.4989  0.4499  0.1211
 7525SOL    HW134034   1.451   3.119   2.229 -0.4780  2.8918  0.1324
 7525SOL    HW234035   1.416   3.172   2.360  1.1989  0.2745  3.1247
 7526SOL     OW34036   2.203   0.962   7.956  0.5834  0.2556  0.2747
 7526SOL    HW134037   2.260   0.886   7.967  0.6142  0.2432  0.0345
 7526SOL    HW234038   2.139   0.945   8.025  1.5605  1.9249  1.5660
 7527SOL     OW34039   1.572   1.435   4.160  0.2870 -0.5420  0.4337
 7527SOL    HW134040   1.540   1.351   4.193  0.2043 -0.6759 -0.0003
 7527SOL    HW234041   1.636   1.410   4.093  1.5362  0.3742  1.2712
 7528SOL     OW34042   0.807   0.803   5.629 -0.2989  0.0967  0.2504
 7528SOL    HW134043   0.737   0.756   5.585  1.3808 -0.8351 -1.4139
 7528SOL    HW234044   0.875   0.779   5.567 -1.6483 -2.8381 -0.0934
 7529SOL     OW34045   0.644   2.035  14.516  0.3244  0.2549  0.3010
 7529SOL    HW134046   0.585   2.093  14.468 -0.9558 -1.8368 -0.6622
 7529SOL    HW234047   0.581   1.979  14.561 -1.5388  1.4415 -0.8573
 7530SOL     OW34048   3.635   3.329   7.582  0.1120 -0.9015  0.5541
 7530SOL    HW134049   3.599   3.346   7.496 -0.2727 -2.9862  0.3235
 7530SOL    HW234050   3.553   3.305   7.625 -0.5662  2.0945  0.9641
 7531SOL     OW34051   2.862   1.929   0.744  0.2536 -0.0694 -0.3242
 7531SOL    HW134052   2.954   1.937   0.717  0.2818  0.4438 -0.0640
 7531SOL    HW234053   2.869   1.961   0.833 -3.3418 -1.6126  0.5234
 7532SOL     OW34054   2.461   3.922   6.650  0.0364  0.2681  0.9190
 7532SOL    HW134055   2.552   3.950   6.659  0.9108 -2.4098  0.2993
 7532SOL    HW234056   2.455   3.866   6.727  1.5855 -0.8477  0.2365
 7533SOL     OW34057   0.469   1.988  15.213 -0.1425 -0.0672 -0.2547
 7533SOL    HW134058   0.484   1.957  15.302  1.4108  0.7345 -0.2281
 7533SOL    HW234059   0.561   2.006  15.194 -0.5035  0.9425 -1.0836
 7534SOL     OW34060   2.978   0.023  17.057  0.3175  0.6678 -0.3965
 7534SOL    HW134061   2.920   0.086  17.100  1.3477  2.2711 -1.3542
 7534SOL    HW234062   2.945   4.660  17.084 -3.1404  1.7400 -1.1965
 7535SOL     OW34063   2.847   1.689   6.121 -0.2044  0.0451 -0.0062
 7535SOL    HW134064   2.833   1.683   6.216  1.4213  2.4478  0.3782
 7535SOL    HW234065   2.943   1.697   6.118 -0.3560  1.5575 -0.6296
 7536SOL     OW34066   3.187   0.397   1.752  0.0165  0.1972 -0.4338
 7536SOL    HW134067   3.147   0.440   1.676 -0.8724  1.0472  0.5050
 7536SOL    HW234068   3.119   0.331   1.766  0.8589 -0.3854  0.9756
 7537SOL     OW34069   4.369   1.631   5.506  0.4856 -0.2863  0.1821
 7537SOL    HW134070   4.401   1.697   5.444  0.7806 -0.9325 -0.3460
 7537SOL    HW234071   4.437   1.634   5.574  1.9053  1.2245 -1.3101
 7538SOL     OW34072   0.641   0.934   6.328  0.0549 -0.1519 -0.2725
 7538SOL    HW134073   0.666   1.022   6.355 -0.7816 -0.0670  0.2162
 7538SOL    HW234074   0.557   0.952   6.285  0.2383  0.5345 -0.3279
 7539SOL     OW34075   3.700   4.575   4.705  0.3510  0.2761 -0.1090
 7539SOL    HW134076   3.688   4.543   4.616 -3.7558  0.3432  0.3949
 7539SOL    HW234077   3.694   4.670   4.692 -0.6252  0.1523 -0.6236
 7540SOL     OW34078   3.808   4.396   3.330 -0.5800  0.1568  0.6437
 7540SOL    HW134079   3.860   4.442   3.396  2.4227  0.4730 -1.9392
 7540SOL    HW234080   3.780   4.323   3.385  0.1347  0.2271  1.1020
 7541SOL     OW34081   4.258   0.944   1.679  0.0078 -0.1251  1.1041
 7541SOL    HW134082   4.175   0.902   1.657  0.9693 -1.8262  0.7943
 7541SOL    HW234083   4.304   0.932   1.596  1.1978  1.5070  1.5298
 7542SOL     OW34084   1.997   4.107   2.760  0.1603  0.5262 -0.1022
 7542SOL    HW134085   2.037   4.041   2.703 -2.4002  0.4137 -1.7837
 7542SOL    HW234086   2.075   4.159   2.779 -1.4612  3.2673 -0.7778
 7543SOL     OW34087   4.187   0.145   6.459 -0.2146 -0.0681 -0.4534
 7543SOL    HW134088   4.232   0.162   6.377  2.6546  1.7518  1.4996
 7543SOL    HW234089   4.095   0.151   6.432 -0.5925 -0.9997  0.6313
 7544SOL     OW34090   2.813   1.926   4.949 -0.2780 -0.3322  0.1393
 7544SOL    HW134091   2.866   1.985   4.897  0.4023 -0.6304  0.4970
 7544SOL    HW234092   2.880   1.857   4.952 -1.0571 -1.1087 -0.3172
 7545SOL     OW34093   3.923   3.040   8.421 -0.0871 -0.3272  0.7191
 7545SOL    HW134094   3.902   3.039   8.328 -0.1020 -0.7178  0.7244
 7545SOL    HW234095   3.929   3.135   8.433 -0.4791  0.0458 -2.0320
 7546SOL     OW34096   2.521   2.520   9.614 -0.7301  0.5142 -0.1821
 7546SOL    HW134097   2.493   2.605   9.647 -0.7855  1.4185 -2.5025
 7546SOL    HW234098   2.498   2.469   9.691 -0.7134  0.3941 -0.2567
 7547SOL     OW34099   0.266   1.548   3.410  0.0032 -0.1641  0.0715
 7547SOL    HW134100   0.277   1.460   3.446  0.7008  0.0242  0.3174
 7547SOL    HW234101   0.218   1.533   3.328  0.2011  0.3338 -0.1397
 7548SOL     OW34102   0.123   2.727   2.180 -0.0177 -0.0796  0.6863
 7548SOL    HW134103   0.104   2.643   2.138 -1.6239  0.5807  0.1129
 7548SOL    HW234104   0.190   2.758   2.119  0.5023 -0.5710  1.0079
 7549SOL     OW34105   3.969   4.216  13.712 -0.1393 -0.2028 -0.3046
 7549SOL    HW134106   3.934   4.193  13.626 -2.0477  1.0395  0.1414
 7549SOL    HW234107   3.990   4.308  13.695 -3.0609  1.1458  3.4562
 7550SOL     OW34108   0.129   4.530   9.931 -0.1942 -0.1931  0.1096
 7550SOL    HW134109   0.207   4.508   9.981 -0.5919  0.8283  1.1655
 7550SOL    HW234110   0.142   4.613   9.886 -0.4227  0.1337  0.6616
 7551SOL     OW34111   4.644   3.188  13.653  0.2478 -0.0220  0.1455
 7551SOL    HW134112   4.677   3.262  13.704  0.9850 -0.0010 -0.3627
 7551SOL    HW234113   4.682   3.216  13.570  0.6237  1.5888  0.8549
 7552SOL     OW34114   3.336   1.135   6.645  0.0338 -0.2281 -0.0214
 7552SOL    HW134115   3.263   1.085   6.607  0.0417  2.5800 -3.6899
 7552SOL    HW234116   3.292   1.213   6.682 -0.0720 -1.0127  1.5344
 7553SOL     OW34117   2.489   2.712  16.724 -0.6410  0.1894  0.2662
 7553SOL    HW134118   2.448   2.771  16.787 -0.7503  0.3097  0.0816
 7553SOL    HW234119   2.581   2.737  16.738 -1.2590  2.9779 -0.7200
 7554SOL     OW34120   0.969   4.261   4.520  0.2744  0.1789  0.2467
 7554SOL    HW134121   1.014   4.334   4.562  0.3031  1.5893 -2.2546
 7554SOL    HW234122   0.928   4.306   4.447 -0.7529 -0.6574  0.3048
 7555SOL     OW34123   2.692   3.657  10.788  0.2238 -0.4552 -0.6129
 7555SOL    HW134124   2.743   3.628  10.864 -0.3997  2.2534  0.8309
 7555SOL    HW234125   2.612   3.700  10.820  0.3252  0.3909 -1.5110
 7556SOL     OW34126   2.274   0.863  11.319  0.1846  0.0609 -0.6954
 7556SOL    HW134127   2.276   0.772  11.291 -1.4354 -0.4245  0.7895
 7556SOL    HW234128   2.208   0.857  11.388  1.8560 -1.9677  0.7118
 7557SOL     OW34129   2.173   2.988   3.784 -0.3727  0.6708  0.3586
 7557SOL    HW134130   2.216   2.913   3.824  0.1813 -0.2830 -2.0381
 7557SOL    HW234131   2.085   2.971   3.819 -0.3738 -0.0878 -0.0274
 7558SOL     OW34132   1.996   0.262   8.480 -0.1453 -0.0482 -0.0683
 7558SOL    HW134133   2.032   0.235   8.564 -1.0800 -1.8215 -0.2228
 7558SOL    HW234134   1.996   0.357   8.474 -1.4907 -0.1034 -1.1434
 7559SOL     OW34135   1.067   1.647   4.040 -0.6498 -0.2284 -0.2776
 7559SOL    HW134136   1.128   1.715   4.069 -1.5932  0.4063  0.2206
 7559SOL    HW234137   1.128   1.573   4.035  1.5790  1.6235 -0.2295
 7560SOL     OW34138   3.922   0.435   1.966  0.5877 -0.3463 -0.4056
 7560SOL    HW134139   3.840   0.430   2.015 -0.0550  1.8699 -1.2489
 7560SOL    HW234140   3.900   0.491   1.892  1.7198 -1.7938 -1.8397
 7561SOL     OW34141   2.536   2.368   8.866  0.4655  1.0850  0.1241
 7561SOL    HW134142   2.534   2.354   8.961 -0.3820  0.4049  0.0112
 7561SOL    HW234143   2.457   2.421   8.867 -0.2381  0.0003  2.6535
 7562SOL     OW34144   3.538   4.062   8.631 -0.0958  0.6386 -0.4231
 7562SOL    HW134145   3.564   4.154   8.640 -1.2269  1.0765 -1.6282
 7562SOL    HW234146   3.456   4.069   8.581 -0.3388 -0.7171 -0.2119
 7563SOL     OW34147   3.162   2.615   7.015  0.0363  0.0147 -0.2071
 7563SOL    HW134148   3.120   2.554   6.955 -0.0143 -1.5608  1.4328
 7563SOL    HW234149   3.108   2.601   7.092 -0.7622  0.3346 -0.7149
 7564SOL     OW34150   2.078   0.059   5.396  0.2575 -0.2579  0.0214
 7564SOL    HW134151   2.099   0.133   5.339 -2.8755  0.4124 -0.2286
 7564SOL    HW234152   2.017   0.105   5.453  0.0416 -1.2744  0.6056
 7565SOL     OW34153   2.312   4.574   6.757 -0.1749  0.2482  0.0600
 7565SOL    HW134154   2.269   4.574   6.842 -0.9828  1.0024 -0.3531
 7565SOL    HW234155   2.284   4.486   6.730  2.5805 -0.2148 -1.2980
 7566SOL     OW34156   3.505   1.512   0.437 -0.2578 -0.2126 -0.2434
 7566SOL    HW134157   3.488   1.418   0.449 -0.7199  0.1715  2.1967
 7566SOL    HW234158   3.567   1.525   0.509 -0.4361 -1.8013  0.1918
 7567SOL     OW34159   2.668   0.282   5.897 -0.0970  0.5288  0.1881
 7567SOL    HW134160   2.610   0.358   5.891 -0.8256 -0.0159  0.3176
 7567SOL    HW234161   2.634   0.227   5.827  1.1123 -0.7101  0.5891
 7568SOL     OW34162   0.076   0.575   8.531 -0.2246 -0.3803 -0.3118
 7568SOL    HW134163   0.043   0.573   8.442  0.4358  1.8225 -0.6091
 7568SOL    HW234164   0.139   0.504   8.538  0.3958  0.0096 -2.0090
 7569SOL     OW34165   0.827   2.932   8.092 -0.0147 -0.0085 -0.4238
 7569SOL    HW134166   0.868   2.853   8.127 -0.2741  0.4213  0.8532
 7569SOL    HW234167   0.896   2.996   8.110 -0.3257  0.1164  0.3037
 7570SOL     OW34168   2.909   2.219   8.186  0.1982 -0.4930 -0.3875
 7570SOL    HW134169   2.877   2.262   8.107 -1.8187 -2.3717 -0.6007
 7570SOL    HW234170   2.843   2.249   8.248  0.3608  1.7779 -1.3447
 7571SOL     OW34171   0.371   1.266   6.748 -0.3630  0.3708 -0.2925
 7571SOL    HW134172   0.428   1.310   6.685 -0.3441 -2.0706 -1.9967
 7571SOL    HW234173   0.430   1.246   6.821 -3.3983  1.6745  2.5024
 7572SOL     OW34174   0.072   0.150  16.700  0.2869  0.3648  0.2931
 7572SOL    HW134175   4.707   0.115  16.716  0.1964  0.4971  0.0855
 7572SOL    HW234176   0.094   0.093  16.626 -2.0140  0.4277 -0.4582
 7573SOL     OW34177   3.477   2.639   9.806 -0.3630  0.3563  0.4580
 7573SOL    HW134178   3.431   2.581   9.746 -0.6080  1.8021 -0.7518
 7573SOL    HW234179   3.458   2.599   9.891  0.0378 -1.1864 -0.1780
 7574SOL     OW34180   1.036   3.997   4.801  0.5740  0.3341  0.0333
 7574SOL    HW134181   0.999   3.999   4.889  1.3482 -0.9200  0.3893
 7574SOL    HW234182   1.112   4.053   4.817 -0.5479  1.9939 -0.4971
 7575SOL     OW34183   2.272   0.689   7.665 -0.3485  0.2129  0.1327
 7575SOL    HW134184   2.220   0.770   7.668 -0.5234  0.0750  0.7796
 7575SOL    HW234185   2.304   0.680   7.575  1.2758  0.0378  0.7318
 7576SOL     OW34186   2.724   0.556  14.597 -0.3462  0.0088  0.0704
 7576SOL    HW134187   2.658   0.624  14.585 -0.0322  0.8823  3.1254
 7576SOL    HW234188   2.803   0.600  14.567 -1.3847  1.3477 -0.6346
 7577SOL     OW34189   0.518   1.084   5.128  0.2223 -0.5243  0.8843
 7577SOL    HW134190   0.455   1.067   5.198 -1.5814  2.7338  0.0765
 7577SOL    HW234191   0.549   1.171   5.151  0.9486 -0.4386 -0.4482
 7578SOL     OW34192   0.455   3.967   5.206  0.1713 -0.2910  0.0068
 7578SOL    HW134193   0.532   3.938   5.157 -0.2091 -1.6810  0.2301
 7578SOL    HW234194   0.402   3.889   5.221 -1.2443  0.9618  1.5321
 7579SOL     OW34195   1.823   3.569   7.856  0.2376 -0.1555  0.3049
 7579SOL    HW134196   1.899   3.585   7.913  1.0865  1.6690 -1.3662
 7579SOL    HW234197   1.757   3.603   7.916  0.1273  0.5960 -0.2564
 7580SOL     OW34198   3.892   0.370   6.063  0.1256 -0.1422  0.7444
 7580SOL    HW134199   3.907   0.462   6.084  1.8849 -0.1749 -0.3239
 7580SOL    HW234200   3.916   0.376   5.970 -0.9485 -3.8825  0.2312
 7581SOL     OW34201   4.611   2.405   8.938  0.2943  0.1237  1.1049
 7581SOL    HW134202   4.538   2.353   8.904  1.0413 -0.2544  0.0635
 7581SOL    HW234203   4.673   2.409   8.866 -0.0941 -1.3699  0.6759
 7582SOL     OW34204   0.391   0.695   8.653  0.6875 -0.2198 -0.0858
 7582SOL    HW134205   0.466   0.676   8.596  1.7224 -1.0606  1.5547
 7582SOL    HW234206   0.414   0.641   8.729  0.6229  1.8678  1.4254
 7583SOL     OW34207   1.471   2.480   8.737 -0.4301  0.0970  0.2413
 7583SOL    HW134208   1.511   2.561   8.769 -0.7489  0.5919 -0.6234
 7583SOL    HW234209   1.537   2.413   8.755 -0.8426 -0.0983  1.0510
 7584SOL     OW34210   0.147   2.621   6.784  0.6410  0.0378  0.0732
 7584SOL    HW134211   0.056   2.650   6.780  1.4021  2.7104  1.5505
 7584SOL    HW234212   0.143   2.526   6.780 -1.4092  0.1915 -1.2408
 7585SOL     OW34213   0.919   2.346   8.650 -0.0002 -0.6676  0.0780
 7585SOL    HW134214   0.859   2.351   8.575  0.6493 -0.1765 -0.4037
 7585SOL    HW234215   0.971   2.425   8.637  2.5695 -2.5263 -0.8805
 7586SOL     OW34216   1.439   1.947   7.206  0.5333  0.1642  0.0153
 7586SOL    HW134217   1.532   1.938   7.185  0.1856 -0.4035 -1.3285
 7586SOL    HW234218   1.408   1.858   7.190 -0.8367  0.3761  1.5403
 7587SOL     OW34219   4.144   2.476   3.326 -0.2406  0.3659 -0.7593
 7587SOL    HW134220   4.075   2.421   3.364  0.1480  0.8921  0.6967
 7587SOL    HW234221   4.218   2.445   3.378 -0.2269 -0.3782 -1.2078
 7588SOL     OW34222   1.965   0.574  11.558 -0.2967 -0.1637 -0.1269
 7588SOL    HW134223   1.986   0.627  11.635  0.0300 -0.6400  0.1094
 7588SOL    HW234224   2.049   0.590  11.516 -1.1086 -1.8536 -2.3970
 7589SOL     OW34225   1.785   0.911   0.099  0.8293  0.3645 -0.3258
 7589SOL    HW134226   1.767   0.988   0.153  1.2176  0.0636  0.2180
 7589SOL    HW234227   1.876   0.925   0.072  0.8550 -0.3389 -0.5854
 7590SOL     OW34228   2.186   1.912   6.915  0.1132  0.0941  0.4327
 7590SOL    HW134229   2.124   1.899   6.843 -1.8941  0.7926  2.0195
 7590SOL    HW234230   2.156   1.997   6.947 -2.1083 -1.2294  1.9508
 7591SOL     OW34231   2.247   1.641  10.844  0.3684  0.7257 -0.2839
 7591SOL    HW134232   2.215   1.701  10.777  1.1411 -1.7231 -2.8175
 7591SOL    HW234233   2.196   1.666  10.921 -1.4802 -0.7794 -1.0129
 7592SOL     OW34234   4.373   4.123   8.924  0.6195 -0.5728  0.0416
 7592SOL    HW134235   4.430   4.165   8.860 -0.5210  3.6190  1.7899
 7592SOL    HW234236   4.437   4.073   8.975  1.5251  2.0917  1.5231
 7593SOL     OW34237   1.501   0.536   4.294 -0.2864  0.1023 -0.2932
 7593SOL    HW134238   1.592   0.563   4.310 -0.0966 -1.3106  1.0717
 7593SOL    HW234239   1.459   0.594   4.358 -3.9792 -1.3479 -1.4301
 7594SOL     OW34240   4.330   1.689   2.861 -0.0440 -0.1129  0.2908
 7594SOL    HW134241   4.293   1.655   2.780  1.5007 -0.8832 -0.1014
 7594SOL    HW234242   4.413   1.724   2.828  0.1344 -0.3825  0.4516
 7595SOL     OW34243   3.309   0.469  15.078 -0.0436  0.3979 -0.6043
 7595SOL    HW134244   3.268   0.512  15.154 -0.0689 -0.2161 -0.2698
 7595SOL    HW234245   3.235   0.434  15.029 -1.8610  0.4600  2.0964
 7596SOL     OW34246   0.455   2.435  16.561  0.7092 -0.3473 -0.3053
 7596SOL    HW134247   0.426   2.458  16.649 -0.7457 -0.2041 -0.8297
 7596SOL    HW234248   0.464   2.341  16.573  1.0351 -0.5398 -2.0071
 7597SOL     OW34249   1.056   3.936  16.679  0.2405 -0.1682  0.7411
 7597SOL    HW134250   1.050   4.000  16.749  2.6424 -0.6395  1.3509
 7597SOL    HW234251   1.139   3.962  16.639 -0.3546 -0.3789 -0.6570
 7598SOL     OW34252   2.134   0.668  10.875  0.2961 -0.1391  0.7029
 7598SOL    HW134253   2.209   0.609  10.868  1.2209  0.7773  2.6959
 7598SOL    HW234254   2.174   0.752  10.900  0.7710 -0.8357  2.2891
 7599SOL     OW34255   1.260   2.872   5.492 -0.1711  0.1397 -0.3593
 7599SOL    HW134256   1.171   2.841   5.476 -0.9516  1.4929  1.2805
 7599SOL    HW234257   1.242   2.966   5.484 -0.0819  0.3764  2.0541
 7600SOL     OW34258   4.060   0.586   3.251 -0.1325  0.3261 -0.1500
 7600SOL    HW134259   4.087   0.645   3.181 -2.8277 -0.9435 -2.2098
 7600SOL    HW234260   4.016   0.514   3.206 -0.9942 -1.3800  3.4024
 7601SOL     OW34261   4.334   1.038  13.688 -0.0593 -0.0327  0.1856
 7601SOL    HW134262   4.304   0.956  13.649  2.9216 -1.3839  0.7484
 7601SOL    HW234263   4.331   1.094  13.610  0.2606 -0.4820 -0.1487
 7602SOL     OW34264   3.716   4.625   6.694  0.5660 -0.5955  0.2317
 7602SOL    HW134265   3.693   4.702   6.641 -0.3130 -1.8939 -1.2828
 7602SOL    HW234266   3.630   4.591   6.717  0.7862 -1.2288  0.1220
 7603SOL     OW34267   2.340   0.472   5.280 -0.1337  0.4493 -0.0405
 7603SOL    HW134268   2.328   0.549   5.336  0.5965  1.1486 -0.8549
 7603SOL    HW234269   2.372   0.516   5.202  0.5488  2.2169  1.2445
 7604SOL     OW34270   0.458   4.310  11.449  0.1609  0.1445  0.1420
 7604SOL    HW134271   0.391   4.375  11.470 -0.1603 -0.1179 -0.0631
 7604SOL    HW234272   0.466   4.323  11.355 -0.8966 -1.1766 -0.1277
 7605SOL     OW34273   2.154   1.095  16.284  0.3260 -0.0353  0.3101
 7605SOL    HW134274   2.193   1.013  16.313 -2.0788 -0.6880  1.7301
 7605SOL    HW234275   2.231   1.125  16.237 -0.7990 -1.9915 -2.7569
 7606SOL     OW34276   4.718   1.097   6.419 -0.8190 -0.1708  0.7833
 7606SOL    HW134277   0.004   1.010   6.458  0.9396  1.3584  3.7876
 7606SOL    HW234278   0.070   1.141   6.459 -0.2630 -0.3890 -0.0240
 7607SOL     OW34279   1.909   4.557   4.484  0.6322 -0.1925 -0.1351
 7607SOL    HW134280   1.978   4.599   4.536  1.0452 -0.7364 -0.2411
 7607SOL    HW234281   1.831   4.591   4.528  0.5275 -0.3872 -0.1719
 7608SOL     OW34282   0.316   3.134  14.151 -0.4023 -0.4846  0.7238
 7608SOL    HW134283   0.340   3.225  14.168 -0.1014 -0.2523 -0.9401
 7608SOL    HW234284   0.288   3.129  14.060 -1.4531  1.1872  0.9638
 7609SOL     OW34285   1.396   2.222   3.884  0.4423  0.0919 -0.4883
 7609SOL    HW134286   1.319   2.197   3.935  1.1397 -2.3259 -0.6203
 7609SOL    HW234287   1.360   2.271   3.810 -0.7904  0.1042  0.1248
 7610SOL     OW34288   2.489   0.495  14.451  0.0476  0.5544  0.5508
 7610SOL    HW134289   2.584   0.490  14.459  0.1081  0.0104 -0.5984
 7610SOL    HW234290   2.470   0.506  14.358  0.6591  2.4288  0.6459
 7611SOL     OW34291   3.762   2.713   4.705  0.0091 -0.8043 -0.3734
 7611SOL    HW134292   3.830   2.780   4.701 -1.1889  0.3776 -1.0324
 7611SOL    HW234293   3.713   2.720   4.787 -0.9697  0.6039 -1.0811
 7612SOL     OW34294   4.177   1.904   7.219 -0.8336  0.4256  0.0594
 7612SOL    HW134295   4.115   1.973   7.194  0.7339  2.6401  2.2513
 7612SOL    HW234296   4.258   1.925   7.172 -1.8257  0.9728 -1.4017
 7613SOL     OW34297   0.982   4.508  16.138  0.0790 -0.1631 -0.2329
 7613SOL    HW134298   1.032   4.587  16.114 -0.6576  0.3876  0.0390
 7613SOL    HW234299   0.919   4.505  16.066  0.3325 -2.6027 -0.3214
 7614SOL     OW34300   1.276   0.412   5.241  0.1095 -0.5950  0.1499
 7614SOL    HW134301   1.186   0.434   5.217  0.2727 -0.5367 -0.4138
 7614SOL    HW234302   1.264   0.327   5.284  0.6240  2.2160  5.7654
 7615SOL     OW34303   2.528   3.367   6.539  0.2656 -0.1286 -0.3803
 7615SOL    HW134304   2.537   3.272   6.534  0.8931 -0.1604  1.2336
 7615SOL    HW234305   2.439   3.376   6.507  0.7464 -2.1430 -2.2325
 7616SOL     OW34306   4.649   3.969  11.418 -0.4951  0.0864 -0.0157
 7616SOL    HW134307   4.583   3.964  11.348  0.0034 -1.0379 -0.4002
 7616SOL    HW234308   4.712   3.903  11.390 -1.5496  0.4752 -3.3206
 7617SOL     OW34309   2.035   4.400  11.666  0.0061  0.3712 -0.6474
 7617SOL    HW134310   2.060   4.415  11.757 -0.6537  1.6568 -0.6938
 7617SOL    HW234311   2.119   4.429  11.630  0.1976  2.1408  1.2801
 7618SOL     OW34312   3.881   2.638   3.391 -0.2184 -0.0145 -0.7430
 7618SOL    HW134313   3.857   2.713   3.337  1.1138  0.7649 -0.2744
 7618SOL    HW234314   3.963   2.615   3.347  0.5946  2.5880 -0.5871
 7619SOL     OW34315   2.514   3.223   3.447 -0.3809 -0.0909  1.2070
 7619SOL    HW134316   2.440   3.283   3.443 -0.0463  0.1133 -1.7949
 7619SOL    HW234317   2.572   3.258   3.380 -2.3633  2.5635  0.8819
 7620SOL     OW34318   2.326   0.742   9.080 -0.4562  0.0504 -0.6179
 7620SOL    HW134319   2.389   0.710   9.016 -1.4962  0.1881 -1.7318
 7620SOL    HW234320   2.369   0.806   9.136 -1.4666  1.8758 -1.9375
 7621SOL     OW34321   0.398   2.110   1.216  0.1937 -0.4355 -0.2165
 7621SOL    HW134322   0.458   2.064   1.275  1.9283  1.7356 -0.2778
 7621SOL    HW234323   0.441   2.195   1.226  2.7431 -1.7564  0.0856
 7622SOL     OW34324   3.702   3.777  11.720 -0.1893 -0.7865  0.0623
 7622SOL    HW134325   3.675   3.810  11.634 -0.9121  0.0560  0.6254
 7622SOL    HW234326   3.697   3.860  11.767  0.0704 -0.9005  0.2965
 7623SOL     OW34327   2.697   3.149   0.683  0.1629  0.5399  0.2213
 7623SOL    HW134328   2.719   3.188   0.768  1.0218  1.5837 -0.4738
 7623SOL    HW234329   2.610   3.112   0.701 -0.3131  1.2289 -0.6773
 7624SOL     OW34330   1.445   0.814   2.552  0.1239 -0.1083  0.1357
 7624SOL    HW134331   1.451   0.749   2.623 -1.0679 -0.0609  0.2679
 7624SOL    HW234332   1.395   0.882   2.597  0.8792  0.1100  0.6494
 7625SOL     OW34333   1.499   0.080   8.318  0.5064  0.6019 -0.4989
 7625SOL    HW134334   1.483   4.709   8.305 -1.1493  0.4886  2.5001
 7625SOL    HW234335   1.408   0.101   8.336 -0.5852 -3.4458 -1.2530
 7626SOL     OW34336   0.140   4.351   2.725  0.3780 -0.5348  0.4511
 7626SOL    HW134337   0.123   4.393   2.640  0.5108 -0.8764  0.2527
 7626SOL    HW234338   0.166   4.266   2.688 -4.9745 -1.8187 -0.4219
 7627SOL     OW34339   0.098   2.765   9.522  0.5229 -0.1072  0.3896
 7627SOL    HW134340   0.137   2.842   9.480 -0.2833  0.1539  0.1289
 7627SOL    HW234341   0.149   2.777   9.602  0.1199 -1.3052  0.8158
 7628SOL     OW34342   1.520   1.908   7.486  0.7839  0.5895  0.2581
 7628SOL    HW134343   1.475   1.975   7.538  2.3994  0.3515  1.9660
 7628SOL    HW234344   1.492   1.935   7.399  1.3070  3.8388  1.0575
 7629SOL     OW34345   3.064   1.924   3.051 -0.3721  0.1229  0.3361
 7629SOL    HW134346   2.989   1.911   2.992 -1.0589  2.5380  0.6799
 7629SOL    HW234347   3.018   1.907   3.134 -0.5780  2.3020  0.6713
 7630SOL     OW34348   1.999   0.307  11.504  0.4347 -0.1923  0.6682
 7630SOL    HW134349   1.980   0.398  11.531  1.2180  0.1559  0.0304
 7630SOL    HW234350   2.034   0.322  11.417 -2.4456 -2.5421 -0.8875
 7631SOL     OW34351   4.631   3.288   8.423 -0.3541  0.0505  0.4318
 7631SOL    HW134352   4.682   3.223   8.471  0.8335  1.5619  1.2273
 7631SOL    HW234353   4.548   3.286   8.471 -0.6256  0.2367 -0.0338
 7632SOL     OW34354   1.454   4.258   8.005  0.4327  0.3939 -0.7858
 7632SOL    HW134355   1.418   4.347   8.004  0.0706  0.2346 -1.6658
 7632SOL    HW234356   1.522   4.267   8.072  1.5333 -1.0119 -1.7281
 7633SOL     OW34357   1.585   1.318   6.489 -0.4913 -0.2208 -0.0299
 7633SOL    HW134358   1.538   1.295   6.409  0.7073 -2.8404  0.0371
 7633SOL    HW234359   1.639   1.392   6.462 -0.5409 -0.2454 -0.1945
 7634SOL     OW34360   3.724   1.108   3.880  0.2814 -0.1770 -0.6442
 7634SOL    HW134361   3.646   1.139   3.925  1.4668 -0.5861  1.7178
 7634SOL    HW234362   3.767   1.185   3.845  1.1643  0.0593  0.9501
 7635SOL     OW34363   1.201   4.319   6.245  0.0991  0.3975 -0.6987
 7635SOL    HW134364   1.261   4.304   6.318 -2.1876  2.7707  1.6489
 7635SOL    HW234365   1.130   4.257   6.262  1.7259 -1.2562  0.2232
 7636SOL     OW34366   4.169   1.649   3.069  0.2286 -0.0258 -0.1401
 7636SOL    HW134367   4.235   1.585   3.095  0.0378  0.5730  1.8296
 7636SOL    HW234368   4.214   1.695   2.998 -0.4810  0.0990 -0.5101
 7637SOL     OW34369   3.056   0.289  14.627 -0.3325 -0.5537 -0.7521
 7637SOL    HW134370   3.058   0.352  14.555 -4.2252  0.6786  0.2075
 7637SOL    HW234371   3.147   0.302  14.654 -1.1133  0.3622  1.4280
 7638SOL     OW34372   3.264   2.275   7.089  0.4007 -0.5577  0.1452
 7638SOL    HW134373   3.299   2.186   7.083  0.2876 -0.5169 -1.1205
 7638SOL    HW234374   3.346   2.325   7.089 -0.2186  0.4411 -1.7665
 7639SOL     OW34375   0.621   4.432   3.245  0.0943  0.0966 -0.3156
 7639SOL    HW134376   0.692   4.466   3.190 -0.3918 -0.4247 -1.2692
 7639SOL    HW234377   0.572   4.386   3.176 -1.6547  2.4770 -0.6878
 7640SOL     OW34378   0.354   1.812  12.648 -0.2120  0.2026  0.3731
 7640SOL    HW134379   0.355   1.868  12.726  0.8287 -0.2001  0.6489
 7640SOL    HW234380   0.280   1.840  12.594  1.3653  1.4129 -1.1543
 7641SOL     OW34381   1.425   0.211  10.019  0.0952 -0.1098 -0.5317
 7641SOL    HW134382   1.380   0.166   9.947 -0.1747  0.0900 -0.4886
 7641SOL    HW234383   1.352   0.268  10.044  0.8579 -0.0464  1.5531
 7642SOL     OW34384   2.208   0.605  11.439 -0.2698 -0.0147  0.2199
 7642SOL    HW134385   2.276   0.645  11.494  1.3208 -0.9504 -1.0495
 7642SOL    HW234386   2.262   0.544  11.388 -1.1584 -0.9627  0.4044
 7643SOL     OW34387   1.671   0.093   8.971  0.2121  0.0088  0.6292
 7643SOL    HW134388   1.708   0.114   9.057  0.6606 -0.8838  0.6595
 7643SOL    HW234389   1.593   0.148   8.976  0.0412 -0.1852  0.0375
 7644SOL     OW34390   1.444   2.552   9.368  0.0016 -0.1831  0.0669
 7644SOL    HW134391   1.432   2.463   9.400 -0.1343 -0.5778 -1.0647
 7644SOL    HW234392   1.351   2.574   9.364  0.1479  0.4435  0.1612
 7645SOL     OW34393   2.641   4.334   4.005  0.1826  0.3148  0.2989
 7645SOL    HW134394   2.684   4.402   4.057  2.3375 -2.5854  2.2961
 7645SOL    HW234395   2.605   4.283   4.077 -0.8250 -2.0066 -1.8530
 7646SOL     OW34396   4.624   0.185   2.851  0.5883  0.7818  0.5647
 7646SOL    HW134397   4.617   0.089   2.846  2.2802  0.7306 -0.8797
 7646SOL    HW234398   4.626   0.203   2.758  1.4830 -2.7749 -0.1259
 7647SOL     OW34399   0.663   1.236   8.841 -0.7274  0.2135 -0.0073
 7647SOL    HW134400   0.726   1.250   8.771  0.6798 -0.1396  1.1799
 7647SOL    HW234401   0.592   1.212   8.781 -0.6720 -2.5596  1.0005
 7648SOL     OW34402   1.054   1.362   3.301 -0.5877  0.2058  0.3769
 7648SOL    HW134403   1.147   1.344   3.318 -1.6696 -3.0324  2.7546
 7648SOL    HW234404   1.042   1.336   3.210  0.9804 -1.3017  0.5892
 7649SOL     OW34405   1.099   0.545   5.438 -0.0842 -0.0979  0.1702
 7649SOL    HW134406   1.024   0.505   5.482  1.7586 -3.1104  0.5414
 7649SOL    HW234407   1.169   0.481   5.444  0.6958  0.5576 -1.8383
 7650SOL     OW34408   2.250   0.957   8.601 -0.8694  0.7183  0.6974
 7650SOL    HW134409   2.285   0.994   8.681  1.4268 -0.2250  0.1291
 7650SOL    HW234410   2.175   1.013   8.581 -0.0941  2.2221  2.0118
 7651SOL     OW34411   1.506   2.954   4.350 -0.2230 -0.2952 -0.2015
 7651SOL    HW134412   1.470   2.976   4.264 -0.3442  1.9236  0.4048
 7651SOL    HW234413   1.437   2.898   4.386  0.5905 -1.4567 -0.4478
 7652SOL     OW34414   2.111   3.785   2.776 -0.1499  0.5810 -0.2335
 7652SOL    HW134415   2.148   3.697   2.780  2.8724  1.8662  0.0689
 7652SOL    HW234416   2.019   3.778   2.752 -0.6427 -2.4604  2.3646
 7653SOL     OW34417   4.084   1.280   0.963 -0.0509 -0.5284 -0.1671
 7653SOL    HW134418   4.158   1.313   1.013 -1.9975 -0.2326  2.5251
 7653SOL    HW234419   4.116   1.301   0.875  1.1404 -0.5036  0.2861
 7654SOL     OW34420   4.521   2.718   8.034  0.0652  0.4588 -0.0003
 7654SOL    HW134421   4.609   2.756   8.028  1.2226 -2.4234 -1.9082
 7654SOL    HW234422   4.546   2.649   8.096 -1.3374  0.9617  1.1200
 7655SOL     OW34423   1.350   2.236   7.698 -0.0455 -0.2539 -0.3788
 7655SOL    HW134424   1.420   2.198   7.752  0.5183  0.3405 -0.6803
 7655SOL    HW234425   1.295   2.285   7.759 -0.8553 -1.1524 -0.3969
 7656SOL     OW34426   0.962   3.742   7.727 -0.3430 -0.1084 -0.0526
 7656SOL    HW134427   0.909   3.664   7.710  1.5758 -0.7974 -2.9455
 7656SOL    HW234428   1.046   3.708   7.694  0.3504  1.1880  0.3829
 7657SOL     OW34429   4.172   3.368   1.651  0.2611 -0.6547  0.3111
 7657SOL    HW134430   4.197   3.358   1.559  0.2559  0.0423  0.2328
 7657SOL    HW234431   4.239   3.314   1.694 -0.5093  0.9908  3.5771
 7658SOL     OW34432   1.554   2.539   7.838 -0.4771 -0.3740  0.3824
 7658SOL    HW134433   1.594   2.626   7.848 -0.7912 -0.4051  1.9703
 7658SOL    HW234434   1.475   2.555   7.786 -0.0903 -0.0127 -0.0977
 7659SOL     OW34435   2.727   3.820   2.742 -0.2165 -0.0288  0.4616
 7659SOL    HW134436   2.652   3.861   2.698 -0.1422 -0.3174  0.0640
 7659SOL    HW234437   2.714   3.725   2.732 -1.0865  0.2857 -1.4989
 7660SOL     OW34438   4.161   2.751   3.284 -0.2380 -0.1393  0.2282
 7660SOL    HW134439   4.158   2.658   3.309 -0.4526  0.3083  1.8561
 7660SOL    HW234440   4.143   2.749   3.190 -1.8122 -0.2718  0.5308
 7661SOL     OW34441   2.936   1.090   2.710 -0.2393  0.0117  0.3555
 7661SOL    HW134442   3.012   1.034   2.728 -0.3725 -0.5361 -0.7417
 7661SOL    HW234443   2.922   1.134   2.794  1.4623 -0.5598  0.9354
 7662SOL     OW34444   4.351   0.299  10.942  0.1623 -0.2121 -0.4060
 7662SOL    HW134445   4.318   0.349  10.868  0.0174  0.4984  0.1360
 7662SOL    HW234446   4.387   0.368  10.997  4.2024 -1.8310 -1.0245
 7663SOL     OW34447   2.472   4.259   7.134  0.1119  0.0481  0.2274
 7663SOL    HW134448   2.415   4.189   7.165 -0.9735  0.6302 -0.4860
 7663SOL    HW234449   2.557   4.214   7.134 -0.0991 -0.3454  1.9725
 7664SOL     OW34450   4.181   2.916   7.229  0.2741  0.5393  0.6417
 7664SOL    HW134451   4.266   2.883   7.200  0.4703  2.9127 -1.4514
 7664SOL    HW234452   4.163   2.988   7.168  0.3487 -0.2459 -0.3133
 7665SOL     OW34453   2.114   0.570   1.945  0.4476 -0.4055 -0.0570
 7665SOL    HW134454   2.096   0.499   2.007  0.5146  1.1399  1.7358
 7665SOL    HW234455   2.067   0.535   1.869  0.1666  3.9560 -1.8986
 7666SOL     OW34456   0.160   2.282  11.740 -0.1641 -0.0176  0.2441
 7666SOL    HW134457   0.219   2.266  11.666  0.5191 -2.1556  1.2604
 7666SOL    HW234458   0.080   2.252  11.696 -0.5897  1.6453 -0.1195
 7667SOL     OW34459   0.059   2.362   9.442  0.2364 -0.0391 -0.1333
 7667SOL    HW134460   0.057   2.329   9.353 -1.5419  0.8098 -0.4082
 7667SOL    HW234461   4.709   2.312   9.479 -1.3453  1.0752 -1.7637
 7668SOL     OW34462   4.107   1.022   5.119 -0.4529  0.2123  0.4306
 7668SOL    HW134463   4.104   1.110   5.157  0.2027  1.1903 -1.7467
 7668SOL    HW234464   4.146   1.029   5.031  0.5998 -1.6479  0.7473
 7669SOL     OW34465   3.538   4.618  14.939  0.7128 -0.3648 -0.2719
 7669SOL    HW134466   3.550   4.678  14.866 -2.3062 -0.1563 -0.6243
 7669SOL    HW234467   3.599   4.663  14.997 -0.1427 -0.2478  0.5424
 7670SOL     OW34468   0.381   4.414  11.050 -0.2051  0.1759 -0.2977
 7670SOL    HW134469   0.440   4.368  11.110 -2.9770  0.0688  2.3461
 7670SOL    HW234470   0.413   4.504  11.059  2.7704 -0.8072 -1.1727
 7671SOL     OW34471   2.091   2.619  12.478  0.4141 -0.1639  0.4916
 7671SOL    HW134472   2.094   2.659  12.391 -1.1324  0.7911  0.8749
 7671SOL    HW234473   2.052   2.689  12.530  1.8490  1.8628 -1.1667
 7672SOL     OW34474   1.658   2.751   3.140 -0.2562  0.4601 -0.1830
 7672SOL    HW134475   1.683   2.843   3.148 -0.4561  0.6219 -1.5030
 7672SOL    HW234476   1.747   2.718   3.139 -0.1492  0.7213  0.5328
 7673SOL     OW34477   1.513   0.073  12.372 -0.2993  0.1757 -0.1338
 7673SOL    HW134478   1.585   0.096  12.430 -0.1797  0.6693 -0.4741
 7673SOL    HW234479   1.499   4.703  12.389  0.5536  0.2577  0.9492
 7674SOL     OW34480   2.984   3.702   6.118  0.0883  0.2232  0.3119
 7674SOL    HW134481   3.013   3.651   6.042 -0.0876  1.5248 -0.6232
 7674SOL    HW234482   3.001   3.792   6.093 -0.2611 -0.2873 -1.7693
 7675SOL     OW34483   2.572   0.240  10.568 -0.3137  0.0352 -0.2850
 7675SOL    HW134484   2.597   0.332  10.571  1.5629 -0.4504 -1.0285
 7675SOL    HW234485   2.550   0.216  10.658  2.2053  0.4811  0.4406
 7676SOL     OW34486   4.229   4.495   5.267 -0.1355  0.3382  0.6477
 7676SOL    HW134487   4.266   4.569   5.220  1.7877 -1.0637 -0.0269
 7676SOL    HW234488   4.136   4.496   5.242  0.9260  2.6041 -3.2672
 7677SOL     OW34489   0.404   4.341   2.519  0.1977 -0.5063  0.6468
 7677SOL    HW134490   0.418   4.304   2.432 -1.4917  1.6622 -0.5158
 7677SOL    HW234491   0.320   4.385   2.508 -0.5878 -2.1340  0.1216
 7678SOL     OW34492   4.221   4.092   2.423  0.4812  0.8816  0.0776
 7678SOL    HW134493   4.221   4.186   2.436 -0.3286  0.7869  0.7362
 7678SOL    HW234494   4.139   4.060   2.461  1.2020 -1.2591 -0.1207
 7679SOL     OW34495   3.053   0.654   0.518 -0.1555  0.1492  0.3782
 7679SOL    HW134496   2.970   0.661   0.471 -1.3903 -0.5881  2.4475
 7679SOL    HW234497   3.034   0.587   0.583  1.1142 -0.5202  0.0740
 7680SOL     OW34498   1.660   4.168   6.676 -1.4839 -0.5221 -0.3117
 7680SOL    HW134499   1.602   4.243   6.676  2.2350  2.3561  1.4430
 7680SOL    HW234500   1.613   4.105   6.730 -0.3853 -1.5844 -0.5855
 7681SOL     OW34501   4.184   0.371  16.134  0.0406 -0.5073  0.1495
 7681SOL    HW134502   4.254   0.432  16.108  0.1046 -0.7023 -0.1341
 7681SOL    HW234503   4.205   0.294  16.081  2.0358 -1.0487  1.7361
 7682SOL     OW34504   0.400   0.474   8.992  0.2158  0.0491  0.0662
 7682SOL    HW134505   0.385   0.474   9.086 -0.1005 -0.4823  0.0167
 7682SOL    HW234506   0.479   0.529   8.986 -0.8362  1.5858  0.4374
 7683SOL     OW34507   1.291   4.472   9.998  0.0382 -0.3154 -0.0501
 7683SOL    HW134508   1.296   4.452   9.904  0.1193 -0.3242 -0.0440
 7683SOL    HW234509   1.199   4.489  10.018 -0.0799 -1.6237  0.4985
 7684SOL     OW34510   0.591   1.471  11.219 -0.2633 -0.5863 -0.3887
 7684SOL    HW134511   0.524   1.529  11.256  0.0887 -0.6896  0.4131
 7684SOL    HW234512   0.667   1.523  11.248  1.3630 -2.5901 -1.0268
 7685SOL     OW34513   1.317   0.930   4.632  0.0656  0.3111  0.0042
 7685SOL    HW134514   1.300   0.869   4.704 -1.0728  2.3618  1.4390
 7685SOL    HW234515   1.281   1.009   4.671  0.2402 -0.5334  1.9067
 7686SOL     OW34516   3.906   3.202   2.215  0.2560  0.0203 -0.3197
 7686SOL    HW134517   3.853   3.206   2.136  1.0627 -2.0674 -0.9644
 7686SOL    HW234518   3.948   3.288   2.227 -1.0527  0.6180  0.0137
 7687SOL     OW34519   2.731   2.908  14.869 -0.9910  0.3916  0.6073
 7687SOL    HW134520   2.733   2.965  14.792  1.0231 -0.8268 -0.2430
 7687SOL    HW234521   2.771   2.966  14.934 -0.7670 -0.0911  0.8969
 7688SOL     OW34522   3.544   0.068   3.319 -0.0739  0.0937 -0.5586
 7688SOL    HW134523   3.545   0.027   3.233 -1.4205 -1.1170 -0.0013
 7688SOL    HW234524   3.562   0.158   3.292 -1.7361  0.3905 -0.6780
 7689SOL     OW34525   2.996   0.820   6.929 -0.1367 -0.3161  0.1102
 7689SOL    HW134526   2.987   0.882   6.858 -1.4692 -0.8234 -0.1679
 7689SOL    HW234527   2.974   0.878   7.002  0.1898  1.5213 -1.2474
 7690SOL     OW34528   0.043   2.301  17.139 -0.2015 -0.0873 -0.2075
 7690SOL    HW134529   0.133   2.304  17.170 -0.5685  0.2853  0.8187
 7690SOL    HW234530   4.716   2.307  17.221 -0.4769 -3.2821 -0.1319
 7691SOL     OW34531   3.161   3.330   6.105 -1.3189  0.0495 -0.7003
 7691SOL    HW134532   3.083   3.361   6.061 -1.7276 -1.1224 -0.7910
 7691SOL    HW234533   3.152   3.234   6.108 -1.2269  0.0901  1.3963
 7692SOL     OW34534   2.640   4.336   6.207 -0.3324  0.2150  0.8430
 7692SOL    HW134535   2.641   4.327   6.302  2.9150 -1.3688  0.6367
 7692SOL    HW234536   2.700   4.264   6.187  0.8052  2.0609 -2.4276
 7693SOL     OW34537   1.346   0.799  11.510  0.4174 -0.1913 -0.0619
 7693SOL    HW134538   1.420   0.804  11.571 -0.1914  0.1862  0.6428
 7693SOL    HW234539   1.298   0.879  11.532 -0.4459 -1.1294  1.4442
 7694SOL     OW34540   2.539   3.479   7.832 -0.0402 -0.5524  0.0324
 7694SOL    HW134541   2.552   3.453   7.741  0.7528 -1.3177  0.3693
 7694SOL    HW234542   2.566   3.571   7.828  2.2395 -1.2004  0.4080
 7695SOL     OW34543   1.338   2.609  11.809  0.4883  0.4266 -0.9228
 7695SOL    HW134544   1.312   2.519  11.787 -0.5941  0.3227  0.7288
 7695SOL    HW234545   1.413   2.627  11.754  0.7256 -0.9749 -1.0695
 7696SOL     OW34546   3.919   1.502  17.637 -0.4307 -0.0462 -0.0601
 7696SOL    HW134547   3.984   1.532   0.008  1.0521 -1.6611 -0.8201
 7696SOL    HW234548   3.957   1.415  17.625  1.3974  0.6372  0.8678
 7697SOL     OW34549   4.097   0.798   2.037 -0.2402  0.0903 -0.5390
 7697SOL    HW134550   4.041   0.815   1.960  0.2950 -0.2874 -1.0132
 7697SOL    HW234551   4.041   0.790   2.114  0.1213  1.0314 -0.1743
 7698SOL     OW34552   3.218   1.688   3.498 -0.4365  0.1001  0.1158
 7698SOL    HW134553   3.259   1.662   3.415  0.0500 -1.9318  1.0043
 7698SOL    HW234554   3.295   1.725   3.541 -0.8238  1.3957 -0.2954
 7699SOL     OW34555   1.011   1.265   0.470  0.6540 -0.4590 -0.5495
 7699SOL    HW134556   1.022   1.268   0.375 -1.1864 -1.1046 -0.7864
 7699SOL    HW234557   1.093   1.308   0.495  0.1875 -0.6646  1.3218
 7700SOL     OW34558   3.230   0.751   6.649  0.0510 -0.0266 -0.2686
 7700SOL    HW134559   3.300   0.726   6.709 -0.3793 -1.7195 -0.4609
 7700SOL    HW234560   3.157   0.709   6.695  1.7009 -0.6061  1.8244
 7701SOL     OW34561   4.059   1.109   3.664  0.0820  0.0103 -0.2848
 7701SOL    HW134562   3.981   1.054   3.654  1.1577 -1.7040  0.7069
 7701SOL    HW234563   4.053   1.142   3.753  0.3862  2.8144 -1.3032
 7702SOL     OW34564   0.913   1.773  13.391  0.0875  0.1290 -0.9248
 7702SOL    HW134565   0.979   1.842  13.395  0.2237 -0.1240  1.2957
 7702SOL    HW234566   0.834   1.826  13.381 -0.0607  0.1030  0.1283
 7703SOL     OW34567   2.281   4.140   1.273 -0.2167  0.3276  0.3050
 7703SOL    HW134568   2.359   4.156   1.220 -0.6006 -0.5382 -0.5255
 7703SOL    HW234569   2.293   4.200   1.347 -0.9596 -2.8031  2.9465
 7704SOL     OW34570   1.496   0.896   4.237  0.3964  0.1819 -0.7125
 7704SOL    HW134571   1.553   0.898   4.161 -1.1221 -0.3586 -1.8536
 7704SOL    HW234572   1.461   0.985   4.235 -0.7823 -0.2424  0.5690
 7705SOL     OW34573   2.231   2.166  13.389 -0.3577 -0.2542  0.0020
 7705SOL    HW134574   2.282   2.105  13.442 -1.6176 -0.4425  0.9939
 7705SOL    HW234575   2.166   2.182  13.458  1.8863 -2.8317  2.6695
 7706SOL     OW34576   1.871   1.145   2.819 -0.3616 -0.2802 -0.0919
 7706SOL    HW134577   1.828   1.211   2.764 -1.7980 -0.9206  0.2677
 7706SOL    HW234578   1.805   1.077   2.812 -0.0125 -0.1436 -4.5715
 7707SOL     OW34579   2.866   0.898   9.855  0.1733 -0.8017  0.0284
 7707SOL    HW134580   2.819   0.844   9.791 -0.0756  0.3349 -0.7461
 7707SOL    HW234581   2.809   0.974   9.864 -0.8601 -1.6391  0.5612
 7708SOL     OW34582   4.654   1.432   4.852  0.3870 -0.1725 -0.1054
 7708SOL    HW134583   4.695   1.442   4.938 -0.6655  0.7833  0.2796
 7708SOL    HW234584   4.650   1.336   4.846  0.2873 -0.1394 -0.5403
 7709SOL     OW34585   2.726   1.483  11.347  0.0234 -0.3787  0.1208
 7709SOL    HW134586   2.656   1.418  11.357 -1.6394  1.1005 -2.0884
 7709SOL    HW234587   2.748   1.507  11.437 -0.8600 -2.7462  0.9693
 7710SOL     OW34588   0.304   1.598   8.341 -0.5586 -0.5344 -0.0207
 7710SOL    HW134589   0.226   1.546   8.357 -0.7611 -0.1560  0.2274
 7710SOL    HW234590   0.330   1.583   8.251 -0.4033  1.3016 -0.2953
 7711SOL     OW34591   0.525   2.012   4.908 -0.6330  0.1279 -0.3678
 7711SOL    HW134592   0.434   1.989   4.926 -0.7877  1.3863  0.4208
 7711SOL    HW234593   0.502   2.034   4.817  0.9314 -1.4154 -1.1334
 7712SOL     OW34594   1.370   4.720  17.637  0.4310  0.2145 -0.0988
 7712SOL    HW134595   1.433   4.704  17.566 -1.3896  0.8355 -1.8629
 7712SOL    HW234596   1.394   4.659   0.014  0.6003  1.4218  0.8871
 7713SOL     OW34597   4.282   2.483  15.919 -0.3321 -0.2405 -0.1596
 7713SOL    HW134598   4.331   2.510  15.841  2.0448 -2.4156  0.5860
 7713SOL    HW234599   4.190   2.493  15.895 -0.0925  1.0634 -0.5576
 7714SOL     OW34600   3.044   3.559   5.878 -0.1452 -0.6714 -0.4032
 7714SOL    HW134601   3.085   3.642   5.855  0.0475 -0.6038  0.1764
 7714SOL    HW234602   3.091   3.497   5.822  2.4867  3.7557 -3.0239
 7715SOL     OW34603   2.619   3.327   7.623 -0.3455 -0.1055  0.2337
 7715SOL    HW134604   2.578   3.334   7.537 -2.1613  2.7250  1.3252
 7715SOL    HW234605   2.687   3.394   7.628  0.3962 -0.7846 -0.8526
 7716SOL     OW34606   1.841   4.342  13.133  0.4294 -0.4902  0.1758
 7716SOL    HW134607   1.788   4.373  13.059  0.3482 -0.9836  0.0270
 7716SOL    HW234608   1.925   4.329  13.090  1.1645  1.2007  1.0920
 7717SOL     OW34609   0.487   4.397   6.615 -0.0978 -0.1838  0.0213
 7717SOL    HW134610   0.560   4.458   6.623  1.0018 -1.6044  0.7718
 7717SOL    HW234611   0.468   4.419   6.523 -0.5087  0.0436  0.1580
 7718SOL     OW34612   3.315   3.392   8.033 -0.1423 -0.6579  0.2379
 7718SOL    HW134613   3.310   3.443   8.114  1.1374  0.3254 -0.2856
 7718SOL    HW234614   3.230   3.404   7.992 -0.1510 -0.8847  0.1933
 7719SOL     OW34615   2.832   3.732   4.707 -0.6202 -0.0758  1.0092
 7719SOL    HW134616   2.740   3.742   4.682  0.1276 -0.5883 -1.9387
 7719SOL    HW234617   2.865   3.743   4.618  1.4201 -3.3909  1.3521
 7720SOL     OW34618   1.580   0.191   5.892  0.2253  0.0700  0.4688
 7720SOL    HW134619   1.638   0.150   5.829 -3.1923 -1.5935 -1.5761
 7720SOL    HW234620   1.560   0.119   5.952  0.1958  0.0168  0.3940
 7721SOL     OW34621   3.643   1.345   7.712 -0.0196 -0.4999  0.6663
 7721SOL    HW134622   3.574   1.281   7.729 -2.2317  1.3379 -1.2778
 7721SOL    HW234623   3.637   1.354   7.616 -2.8645 -0.3987  0.8423
 7722SOL     OW34624   0.456   2.174   8.137 -0.3789 -0.2053 -0.2498
 7722SOL    HW134625   0.429   2.245   8.194  1.0325 -0.9421  1.3406
 7722SOL    HW234626   0.542   2.144   8.165 -0.7645 -1.1164 -0.0284
 7723SOL     OW34627   2.899   4.548   3.444 -0.2420  0.6694  0.6137
 7723SOL    HW134628   2.899   4.523   3.536  0.4204 -0.9473  0.1724
 7723SOL    HW234629   2.850   4.630   3.443  0.5674  1.1497  0.2986
 7724SOL     OW34630   1.515   0.556   9.845 -0.0386 -0.0054 -0.1863
 7724SOL    HW134631   1.528   0.479   9.789 -0.0752  0.0350 -0.2497
 7724SOL    HW234632   1.433   0.524   9.883  0.6767 -0.0738  1.3070
 7725SOL     OW34633   1.807   0.655   6.987 -0.4760  0.0427 -0.3003
 7725SOL    HW134634   1.745   0.650   7.059  2.5665 -0.9972  2.2457
 7725SOL    HW234635   1.761   0.674   6.905  1.6779 -1.3251 -1.8427
 7726SOL     OW34636   3.557   1.580   4.800 -0.5127 -0.5927  0.0192
 7726SOL    HW134637   3.554   1.500   4.854  2.0481 -1.2426 -0.8008
 7726SOL    HW234638   3.596   1.643   4.861  0.3538  0.6915 -1.8605
 7727SOL     OW34639   3.208   2.479   8.799 -0.0502 -0.3546 -0.0923
 7727SOL    HW134640   3.261   2.509   8.872  0.5438 -1.5999 -0.0047
 7727SOL    HW234641   3.247   2.394   8.779  0.2993  0.0016 -0.9247
 7728SOL     OW34642   3.203   4.464   2.269  0.2012  0.3621 -0.6273
 7728SOL    HW134643   3.219   4.404   2.196  2.6596 -0.5535  0.6823
 7728SOL    HW234644   3.214   4.552   2.231  0.4178  1.1133  1.1943
 7729SOL     OW34645   3.805   3.201   2.477 -0.4564 -0.5541  0.0512
 7729SOL    HW134646   3.746   3.132   2.446  0.7955 -0.8425 -1.6602
 7729SOL    HW234647   3.856   3.231   2.402  0.0423  0.1191  0.6644
 7730SOL     OW34648   3.966   1.750  13.281  0.2942  0.0185 -0.0204
 7730SOL    HW134649   3.877   1.786  13.281  1.7887  3.8268 -3.3300
 7730SOL    HW234650   3.953   1.671  13.228 -0.0354 -0.6031  0.9937
 7731SOL     OW34651   1.382   3.976  16.244  0.8620  0.2080 -0.7851
 7731SOL    HW134652   1.398   3.904  16.305  0.8134 -0.8559 -2.0439
 7731SOL    HW234653   1.401   3.940  16.158 -1.7932 -0.3535 -1.1562
 7732SOL     OW34654   0.272   1.817   4.566  0.1181 -0.4939  0.0292
 7732SOL    HW134655   0.194   1.790   4.614  0.2421  0.8674  0.9923
 7732SOL    HW234656   0.289   1.752   4.498 -0.3488 -0.6372  0.0512
 7733SOL     OW34657   4.303   1.835   2.318  0.6530 -0.1386  0.2428
 7733SOL    HW134658   4.224   1.781   2.317  1.3652 -1.2322  2.0238
 7733SOL    HW234659   4.310   1.857   2.225 -0.2777 -0.9608 -0.0234
 7734SOL     OW34660   2.608   2.394   3.964  0.4177 -0.8289  0.5276
 7734SOL    HW134661   2.525   2.439   3.949  1.8457  1.0286 -1.6229
 7734SOL    HW234662   2.655   2.417   3.884  0.1902 -0.0407  0.6271
 7735SOL     OW34663   2.387   0.170   1.015 -0.4742 -0.0808  0.0005
 7735SOL    HW134664   2.318   0.172   1.080 -0.0892 -1.1146  0.4348
 7735SOL    HW234665   2.346   0.228   0.951 -3.1566  0.3016  2.0815
 7736SOL     OW34666   4.649   3.445  14.577  0.3144  0.1210  0.3427
 7736SOL    HW134667   0.011   3.455  14.532  2.5375 -1.7073  4.1106
 7736SOL    HW234668   4.675   3.438  14.668  1.3168  1.7025  0.1847
 7737SOL     OW34669   1.090   3.359   8.065 -0.3386  0.2277  0.3236
 7737SOL    HW134670   1.102   3.376   8.159 -0.9052 -1.9144  0.8000
 7737SOL    HW234671   1.148   3.425   8.030  0.8603 -0.7800  0.4098
 7738SOL     OW34672   2.273   3.364   3.347  0.1320  0.2218  0.4693
 7738SOL    HW134673   2.241   3.299   3.409 -2.2738 -1.3697 -2.4215
 7738SOL    HW234674   2.199   3.423   3.338  0.9462  1.3662  1.2776
 7739SOL     OW34675   1.615   2.780   9.445  0.1958 -0.1195  0.2302
 7739SOL    HW134676   1.664   2.823   9.515  0.8040 -3.2398  1.7000
 7739SOL    HW234677   1.548   2.845   9.424  0.3199 -0.0130  0.1605
 7740SOL     OW34678   0.148   3.252  12.873  0.5554 -0.1002 -0.0490
 7740SOL    HW134679   0.138   3.346  12.887  1.6183 -0.0104  0.1455
 7740SOL    HW234680   0.123   3.216  12.958 -0.1870 -2.7511 -1.3855
 7741SOL     OW34681   2.949   2.824   5.388  0.2081  0.0777 -0.2095
 7741SOL    HW134682   2.937   2.814   5.294  1.3939 -1.8751 -0.1387
 7741SOL    HW234683   2.915   2.912   5.405  0.5964 -0.0167  1.0504
 7742SOL     OW34684   1.107   0.490   7.527 -0.1447  0.4194  0.5167
 7742SOL    HW134685   1.165   0.416   7.508 -1.0144 -0.3966  1.0266
 7742SOL    HW234686   1.153   0.563   7.485 -0.2896  1.0888  1.5149
 7743SOL     OW34687   3.864   0.984   6.550  0.3907 -0.4331  0.2027
 7743SOL    HW134688   3.937   1.000   6.491  0.4600 -0.3590  0.3091
 7743SOL    HW234689   3.787   0.973   6.494 -0.4537 -2.7303  1.8156
 7744SOL     OW34690   2.925   0.769   2.350  0.6108  0.1196  0.6289
 7744SOL    HW134691   2.909   0.853   2.306  3.4652 -0.3692 -1.3524
 7744SOL    HW234692   2.969   0.728   2.275  0.0891  0.8540 -0.0914
 7745SOL     OW34693   2.164   0.143   5.916  0.1200  0.3472  0.4198
 7745SOL    HW134694   2.095   0.077   5.908 -0.1223  0.9674 -2.4589
 7745SOL    HW234695   2.218   0.106   5.986 -0.3125 -2.0359 -0.5067
 7746SOL     OW34696   3.539   3.634   7.088  0.0730 -0.2842  0.5008
 7746SOL    HW134697   3.564   3.649   7.180 -1.3562  0.3021  0.8018
 7746SOL    HW234698   3.613   3.679   7.049  0.2028  0.0344  1.1196
 7747SOL     OW34699   0.161   4.319  10.926  0.3362  0.2687 -0.3485
 7747SOL    HW134700   0.153   4.271  10.843  1.4928  2.7476 -1.8866
 7747SOL    HW234701   0.242   4.369  10.930  1.3424 -1.4020  0.3627
 7748SOL     OW34702   2.345   3.520   3.864  0.3448  0.4838  0.4048
 7748SOL    HW134703   2.394   3.502   3.944 -0.4301 -2.5996  0.1921
 7748SOL    HW234704   2.281   3.587   3.889 -1.5990 -1.0028 -0.4940
 7749SOL     OW34705   2.247   2.277  14.570  0.0128 -0.1434  0.2088
 7749SOL    HW134706   2.340   2.253  14.572  0.4726  1.5958 -0.2942
 7749SOL    HW234707   2.210   2.189  14.567  0.3057 -0.2320 -0.8139
 7750SOL     OW34708   1.723   1.203  14.436 -0.1167  0.1994  0.2699
 7750SOL    HW134709   1.744   1.264  14.507  1.5074  0.5268 -0.5164
 7750SOL    HW234710   1.704   1.121  14.483 -0.5964  0.5876  0.7565
 7751SOL     OW34711   4.379   4.330   7.443  0.0158 -0.1921 -0.2527
 7751SOL    HW134712   4.353   4.246   7.481  0.5942 -0.5549 -0.6634
 7751SOL    HW234713   4.474   4.329   7.438  0.0922 -1.1663  1.3038
 7752SOL     OW34714   3.551   4.426   0.186  0.3801 -0.1105  0.3287
 7752SOL    HW134715   3.537   4.376   0.266  0.4642 -2.1597 -0.9350
 7752SOL    HW234716   3.566   4.346   0.135 -1.2820 -0.5889  0.5732
 7753SOL     OW34717   2.626   2.849   6.511 -0.0689  0.1795 -0.2263
 7753SOL    HW134718   2.649   2.766   6.469 -1.8560 -0.5770  0.2868
 7753SOL    HW234719   2.641   2.825   6.602  0.1498 -1.1199 -0.6111
 7754SOL     OW34720   1.210   1.998   4.788 -0.6190 -0.6286  0.2887
 7754SOL    HW134721   1.249   1.965   4.707  1.5745  2.5557  0.0520
 7754SOL    HW234722   1.240   2.088   4.799 -1.5887 -0.3373  0.6112
 7755SOL     OW34723   1.388   2.155   0.348 -0.0530  0.5048 -0.3445
 7755SOL    HW134724   1.349   2.241   0.331  0.3298  0.2000 -2.8559
 7755SOL    HW234725   1.446   2.175   0.422 -0.3688 -1.4865  0.4248
 7756SOL     OW34726   2.732   1.146   3.798 -0.7251  1.0163 -0.2397
 7756SOL    HW134727   2.790   1.144   3.874 -0.7451 -0.0983 -0.2516
 7756SOL    HW234728   2.772   1.080   3.741 -1.7212 -1.1378  1.5993
 7757SOL     OW34729   0.348   4.431   7.096  0.2028  0.6547  0.0974
 7757SOL    HW134730   0.371   4.479   7.016 -0.4745  1.9230  0.6618
 7757SOL    HW234731   0.361   4.339   7.073  0.7023  0.6403  0.4317
 7758SOL     OW34732   0.040   3.589  15.002 -0.4050 -0.5617  0.3898
 7758SOL    HW134733   0.075   3.606  14.914  1.0611 -1.6035  0.7890
 7758SOL    HW234734   0.113   3.553  15.052  1.7237 -1.7096 -3.5787
 7759SOL     OW34735   0.601   1.575  15.427  0.1399 -0.0233 -0.2216
 7759SOL    HW134736   0.670   1.555  15.490 -0.0570  2.4169  0.7644
 7759SOL    HW234737   0.534   1.597  15.492 -1.2162 -0.9244 -1.3245
 7760SOL     OW34738   4.382   2.589   6.750  0.3001 -0.2960  0.4690
 7760SOL    HW134739   4.400   2.511   6.804  1.9633  0.3045  0.7751
 7760SOL    HW234740   4.337   2.550   6.675 -0.7060  0.0452  0.8952
 7761SOL     OW34741   2.925   1.529   9.029  0.1085 -0.8022 -0.3073
 7761SOL    HW134742   3.003   1.499   9.076  0.1774 -2.0378 -1.2145
 7761SOL    HW234743   2.849   1.483   9.066  1.0367 -1.2304  1.1065
 7762SOL     OW34744   4.665   0.908   0.296 -0.2243 -0.2426 -0.2595
 7762SOL    HW134745   4.700   0.859   0.370  0.8860  0.2346 -0.4707
 7762SOL    HW234746   4.588   0.853   0.280 -0.1252 -0.9374  1.6898
 7763SOL     OW34747   0.007   0.976   8.277  0.6590 -0.1900 -0.2368
 7763SOL    HW134748   4.638   0.950   8.272  0.1701  1.4494  0.3193
 7763SOL    HW234749   0.013   1.028   8.357 -0.9007  2.8228 -2.0820
 7764SOL     OW34750   2.461   4.259  15.335  0.2393 -0.5130  0.4197
 7764SOL    HW134751   2.504   4.239  15.252  0.9878  1.0779  0.4218
 7764SOL    HW234752   2.516   4.224  15.406  1.5178 -1.6169 -1.1045
 7765SOL     OW34753   3.675   4.540   7.535 -0.1701  0.2209 -0.1065
 7765SOL    HW134754   3.586   4.543   7.499 -0.4991  0.8435  0.7559
 7765SOL    HW234755   3.657   4.520   7.626 -0.8359  0.1782 -0.2496
 7766SOL     OW34756   4.212   2.883   7.870  0.0362  0.1350 -0.0840
 7766SOL    HW134757   4.152   2.923   7.806 -0.1689  1.1555  0.7497
 7766SOL    HW234758   4.157   2.859   7.944 -1.4723  0.8464 -0.9701
 7767SOL     OW34759   3.404   2.243   6.815  0.3708  0.7906  0.9231
 7767SOL    HW134760   3.472   2.287   6.762  0.0082 -0.8759 -0.9404
 7767SOL    HW234761   3.395   2.296   6.894  0.3550  1.1857  0.6537
 7768SOL     OW34762   3.483   4.038   9.299  0.1264 -0.2907 -0.9596
 7768SOL    HW134763   3.508   3.986   9.375 -5.5312 -2.2550 -0.5076
 7768SOL    HW234764   3.400   4.077   9.327  1.2902  1.1491  0.4887
 7769SOL     OW34765   1.767   1.232  16.403 -0.1339 -0.1060  0.2995
 7769SOL    HW134766   1.843   1.257  16.456  2.2883 -0.5134 -2.9875
 7769SOL    HW234767   1.789   1.142  16.381  0.3929 -0.0420  0.5554
 7770SOL     OW34768   0.119   0.401   2.946  0.3197  0.1742  0.9886
 7770SOL    HW134769   0.181   0.462   2.905  0.0943  0.8674  1.6993
 7770SOL    HW234770   0.070   0.391   2.864  0.9726  0.3295  0.5771
 7771SOL     OW34771   0.220   1.779  10.087  0.4116 -0.5387 -0.0985
 7771SOL    HW134772   0.305   1.736  10.087  0.3980 -0.5701 -1.2008
 7771SOL    HW234773   0.233   1.873  10.073  0.4901 -0.3618  1.1246
 7772SOL     OW34774   0.937   4.363  16.622 -0.3689 -0.3077 -0.5743
 7772SOL    HW134775   0.965   4.351  16.531 -1.2008 -1.5566 -0.6747
 7772SOL    HW234776   0.927   4.458  16.627  1.5158 -0.4020  4.0474
 7773SOL     OW34777   0.023   1.856  15.900  0.3294 -0.6867 -0.6007
 7773SOL    HW134778   4.715   1.774  15.940  1.0749 -1.6604 -2.0033
 7773SOL    HW234779   0.010   1.924  15.966  1.2106 -0.1920 -0.9314
 7774SOL     OW34780   4.700   2.770  15.007 -0.4484  0.7773  0.2585
 7774SOL    HW134781   4.656   2.765  15.092  1.4637  2.4805  1.3565
 7774SOL    HW234782   0.067   2.791  15.033  0.3755 -0.7307 -1.3871
 7775SOL     OW34783   2.361   3.467   5.663  0.5531  0.5862  0.5070
 7775SOL    HW134784   2.319   3.541   5.620  1.4124  2.7293  3.3560
 7775SOL    HW234785   2.324   3.396   5.611  1.3338 -0.1673  0.9665
 7776SOL     OW34786   4.074   4.597   8.761  0.5403 -0.2245  0.0328
 7776SOL    HW134787   4.073   4.502   8.748  2.3656 -0.5082  1.8606
 7776SOL    HW234788   4.031   4.619   8.678  0.1266 -1.1671  0.0004
 7777SOL     OW34789   3.023   2.541   6.551  0.5266 -0.6144 -0.6489
 7777SOL    HW134790   3.096   2.520   6.493  1.6298  2.7928 -0.5076
 7777SOL    HW234791   3.049   2.631   6.570 -2.6253  0.3309 -0.7317
 7778SOL     OW34792   0.186   3.238   6.727 -0.3329 -0.5425  0.0123
 7778SOL    HW134793   0.224   3.285   6.802 -1.9213  0.4189  0.1982
 7778SOL    HW234794   0.254   3.256   6.662  0.7059  2.0261  1.7804
 7779SOL     OW34795   2.751   1.005   4.331  0.6052 -0.3971 -0.3285
 7779SOL    HW134796   2.726   0.933   4.273 -1.0200  0.6289 -0.9137
 7779SOL    HW234797   2.664   1.029   4.363  0.2804 -1.0491 -0.7145
 7780SOL     OW34798   0.796   3.441  13.181  0.6142 -0.1971 -0.8696
 7780SOL    HW134799   0.808   3.524  13.228  1.6305  0.1501 -1.7358
 7780SOL    HW234800   0.865   3.392  13.226  0.0512  1.0790  1.3780
 7781SOL     OW34801   3.174   2.752   7.306 -0.2640  0.5222 -0.4250
 7781SOL    HW134802   3.225   2.749   7.225 -0.3861 -1.0697 -0.4416
 7781SOL    HW234803   3.118   2.830   7.296  1.1516  1.4177 -1.3706
 7782SOL     OW34804   0.099   0.195   3.768 -0.5107 -0.2634 -0.0193
 7782SOL    HW134805   0.053   0.234   3.694 -1.1138 -0.1651  0.4132
 7782SOL    HW234806   0.107   0.103   3.741  3.6593  0.9256 -2.8865
 7783SOL     OW34807   0.157   2.030   6.127  0.3596 -0.6872 -0.6430
 7783SOL    HW134808   0.140   2.086   6.052  2.3268 -1.3874 -1.6099
 7783SOL    HW234809   0.246   1.996   6.121  1.6082  2.5491 -0.3292
 7784SOL     OW34810   2.228   4.191  16.853  0.1910  0.4304 -0.4153
 7784SOL    HW134811   2.138   4.159  16.851 -0.4300  2.1309  0.2931
 7784SOL    HW234812   2.208   4.284  16.843  0.4687  0.4584 -0.7356
 7785SOL     OW34813   0.926   2.110   4.538  0.1361  0.0523 -0.7086
 7785SOL    HW134814   0.911   2.199   4.505  0.0358  0.6894  1.0593
 7785SOL    HW234815   1.019   2.103   4.518  0.3166 -0.3867  0.3157
 7786SOL     OW34816   4.020   0.918  10.745  0.0279 -0.3536 -0.8827
 7786SOL    HW134817   4.011   1.012  10.760 -0.5279 -0.2509 -1.8275
 7786SOL    HW234818   4.002   0.881  10.832  0.9691 -1.6997 -1.2727
 7787SOL     OW34819   2.808   3.009   2.117  0.1477  0.1612  0.4189
 7787SOL    HW134820   2.764   3.038   2.196  0.5914  0.4678  0.5524
 7787SOL    HW234821   2.841   2.925   2.149 -2.3151 -1.2715 -0.8350
 7788SOL     OW34822   0.110   2.718  13.556 -0.4815 -0.8309 -0.6984
 7788SOL    HW134823   0.176   2.693  13.492 -2.0191 -1.7088 -1.9607
 7788SOL    HW234824   0.150   2.671  13.629 -1.2891 -1.8543 -0.9074
 7789SOL     OW34825   3.510   2.391   5.710  0.1599  0.0004  0.5716
 7789SOL    HW134826   3.600   2.363   5.696 -0.3485 -1.0327 -0.5112
 7789SOL    HW234827   3.525   2.485   5.695 -1.3861 -0.2474 -2.3549
 7790SOL     OW34828   3.181   1.814  15.886 -0.0026 -0.7816  0.2353
 7790SOL    HW134829   3.158   1.776  15.971  1.5063 -1.6216  0.2606
 7790SOL    HW234830   3.092   1.813  15.850  0.0364  0.6080  0.0970
 7791SOL     OW34831   3.857   0.472   3.726  0.0591  0.3725  0.7429
 7791SOL    HW134832   3.936   0.526   3.728  0.3733 -0.0403 -0.2770
 7791SOL    HW234833   3.864   0.436   3.637 -2.1212  1.4579  0.1336
 7792SOL     OW34834   3.553   4.309   2.260  0.5338  0.1682  0.2439
 7792SOL    HW134835   3.640   4.339   2.235 -0.0629  1.1254 -0.6622
 7792SOL    HW234836   3.512   4.388   2.294  0.3007  0.2651 -0.2708
 7793SOL     OW34837   0.519   3.564   8.536  0.3069  0.3845  0.1187
 7793SOL    HW134838   0.613   3.580   8.550  0.6200  0.7311 -2.2992
 7793SOL    HW234839   0.500   3.658   8.535 -1.8597 -0.0434  1.7734
 7794SOL     OW34840   1.813   2.705  16.995 -0.4981  0.4448  0.4010
 7794SOL    HW134841   1.757   2.750  16.932  2.2005 -1.3631 -3.3041
 7794SOL    HW234842   1.845   2.778  17.048  1.4202  1.2977 -1.9179
 7795SOL     OW34843   3.939   3.334  16.945 -0.5338 -0.0002  0.5734
 7795SOL    HW134844   3.884   3.405  16.913  1.0500  0.4735 -1.1374
 7795SOL    HW234845   3.978   3.359  17.029  1.6793  1.4843 -0.8856
 7796SOL     OW34846   2.438   2.199   7.135 -0.0287 -0.1132 -0.3691
 7796SOL    HW134847   2.495   2.126   7.157  3.0145  2.2073 -0.6728
 7796SOL    HW234848   2.479   2.265   7.190 -0.0185 -0.1733 -0.3048
 7797SOL     OW34849   0.343   0.293   6.722 -0.5032 -0.0253 -0.2060
 7797SOL    HW134850   0.371   0.254   6.804  1.9144  0.1821 -0.9351
 7797SOL    HW234851   0.405   0.255   6.660 -1.2045 -2.7846  0.7946
 7798SOL     OW34852   3.003   1.280   0.775  0.0228  0.8392  0.1333
 7798SOL    HW134853   2.912   1.260   0.796  0.3539 -3.1937 -2.2261
 7798SOL    HW234854   3.048   1.201   0.807 -1.2773 -0.1427 -0.4743
 7799SOL     OW34855   1.135   2.847   1.049  0.1128  0.6794  0.3333
 7799SOL    HW134856   1.171   2.775   0.997  0.7621  2.0898 -1.1889
 7799SOL    HW234857   1.182   2.838   1.131  0.6092  1.7643  0.1657
 7800SOL     OW34858   2.580   2.459  15.935  0.4121 -0.4236  0.3022
 7800SOL    HW134859   2.662   2.413  15.920 -0.1219 -2.1712  2.7181
 7800SOL    HW234860   2.536   2.441  15.851  0.1539  0.6364  0.2166
 7801SOL     OW34861   0.332   0.417   8.135 -0.2047 -0.1825  0.2952
 7801SOL    HW134862   0.415   0.378   8.110 -0.1245  0.5864 -0.6163
 7801SOL    HW234863   0.279   0.341   8.157 -1.0507 -0.5419 -2.9894
 7802SOL     OW34864   4.072   4.471   6.695  0.5700  0.0841  0.4204
 7802SOL    HW134865   4.124   4.468   6.775  1.4110  0.7672 -0.0927
 7802SOL    HW234866   3.988   4.466   6.740 -0.4521  0.2166 -1.4834
 7803SOL     OW34867   2.379   0.404  11.407  0.0319  0.0352 -0.0492
 7803SOL    HW134868   2.308   0.357  11.364  0.6445 -0.6970 -0.2664
 7803SOL    HW234869   2.439   0.396  11.332  0.7282  0.8603  0.4250
 7804SOL     OW34870   3.290   3.444  11.171 -0.1304  0.4257  0.7107
 7804SOL    HW134871   3.368   3.423  11.222  0.2284 -0.0659 -0.0443
 7804SOL    HW234872   3.226   3.443  11.243 -1.1634  1.2753 -0.2021
 7805SOL     OW34873   0.962   1.283   5.259  0.0046 -0.8200 -0.0458
 7805SOL    HW134874   1.008   1.239   5.187  0.4578 -0.8691  0.2760
 7805SOL    HW234875   0.924   1.213   5.313 -2.0981  1.2804  1.1547
 7806SOL     OW34876   1.175   1.175   8.477  0.1845 -0.1321 -0.5459
 7806SOL    HW134877   1.131   1.257   8.497  0.0743  0.1994 -2.1720
 7806SOL    HW234878   1.245   1.185   8.542 -1.2026  3.6856  0.3682
 7807SOL     OW34879   3.148   4.108   2.328 -0.6167  0.3883  0.4038
 7807SOL    HW134880   3.177   4.196   2.353 -0.6008  0.3998  0.3447
 7807SOL    HW234881   3.097   4.081   2.405 -2.4854 -1.6259 -1.5581
 7808SOL     OW34882   2.448   1.008   4.763  0.2256 -0.0913  0.4540
 7808SOL    HW134883   2.359   0.978   4.781 -0.9522  2.7033 -0.7283
 7808SOL    HW234884   2.455   1.082   4.823 -1.7012  0.8784 -0.5060
 7809SOL     OW34885   1.320   1.709   7.155  0.1803  0.7519 -0.1846
 7809SOL    HW134886   1.291   1.658   7.080 -1.6293  0.1029  0.9674
 7809SOL    HW234887   1.307   1.648   7.227 -0.5848  2.3914  1.0686
 7810SOL     OW34888   1.404   1.049   7.539 -0.2487 -0.0295  0.1123
 7810SOL    HW134889   1.332   1.023   7.481  1.2129 -0.1916 -1.6237
 7810SOL    HW234890   1.358   1.105   7.601  0.3000 -0.0126  0.5053
 7811SOL     OW34891   3.768   0.352   0.754 -1.2643  0.0291 -0.1278
 7811SOL    HW134892   3.790   0.292   0.683  0.2980  0.1031  0.3076
 7811SOL    HW234893   3.811   0.433   0.728 -0.9665  0.1637  0.7591
 7812SOL     OW34894   1.184   1.901   9.661 -0.1299  0.0988  0.9190
 7812SOL    HW134895   1.266   1.882   9.616 -1.8174 -0.1030 -2.1090
 7812SOL    HW234896   1.134   1.855   9.594  1.6653 -1.9525  0.9874
 7813SOL     OW34897   1.407   4.453  10.920 -0.1193  0.0098 -0.3840
 7813SOL    HW134898   1.467   4.476  10.991 -1.1153  1.8422 -0.1498
 7813SOL    HW234899   1.319   4.479  10.945  0.2328  1.1361 -0.3093
 7814SOL     OW34900   3.432   2.171  10.788  0.0881  0.3715  0.2235
 7814SOL    HW134901   3.393   2.257  10.804 -0.1824 -0.2082  2.6097
 7814SOL    HW234902   3.415   2.123  10.869  1.6516  3.0450  2.1543
 7815SOL     OW34903   2.064   4.616  11.361 -0.6155 -0.2716  0.4403
 7815SOL    HW134904   2.096   4.682  11.300  1.5568 -1.2372  0.5433
 7815SOL    HW234905   2.147   4.569  11.361 -0.3995  0.1143  0.2525
 7816SOL     OW34906   2.543   3.460   5.069  0.2877 -0.2784 -0.1395
 7816SOL    HW134907   2.548   3.544   5.115 -0.3200  0.5142 -1.5072
 7816SOL    HW234908   2.500   3.492   4.990  0.3403 -0.2697 -0.1650
 7817SOL     OW34909   2.144   0.687   5.364 -0.2659  0.5148 -0.1147
 7817SOL    HW134910   2.164   0.762   5.419 -0.0630 -0.9155  1.7402
 7817SOL    HW234911   2.178   0.728   5.284 -1.3871 -1.0424 -1.3937
 7818SOL     OW34912   1.404   3.846   7.743  1.1970 -0.4902 -0.3803
 7818SOL    HW134913   1.384   3.854   7.650 -1.6877  0.0552  0.2869
 7818SOL    HW234914   1.400   3.938   7.769  0.7647 -0.7215  0.3692
 7819SOL     OW34915   3.941   1.383   2.184 -0.2190  0.3060  0.4033
 7819SOL    HW134916   3.901   1.456   2.136  1.5685  1.1126  0.1446
 7819SOL    HW234917   3.908   1.308   2.135 -0.2233  0.7911 -0.3542
 7820SOL     OW34918   3.043   1.101   5.192 -0.6363  0.2525  0.9366
 7820SOL    HW134919   2.999   1.018   5.208  0.8771 -0.8595 -0.6446
 7820SOL    HW234920   3.134   1.075   5.184 -0.0811  1.7260  2.3617
 7821SOL     OW34921   3.069   0.244   7.231 -0.1198 -0.4370  0.4274
 7821SOL    HW134922   3.144   0.249   7.291 -0.6833 -0.5742  1.1409
 7821SOL    HW234923   3.010   0.300   7.282 -0.4958 -0.1084 -0.3698
 7822SOL     OW34924   3.064   1.081   4.641  0.1720  0.6234  0.2460
 7822SOL    HW134925   3.097   1.169   4.661  2.1794 -0.5597  2.1627
 7822SOL    HW234926   3.131   1.037   4.590 -0.6096  1.3020 -1.3450
 7823SOL     OW34927   0.156   2.116   4.725 -0.1440 -0.6141  0.4094
 7823SOL    HW134928   0.231   2.057   4.718  1.0077  0.9368 -0.3828
 7823SOL    HW234929   0.178   2.170   4.650 -1.5514  1.4115  1.4520
 7824SOL     OW34930   3.298   0.641   6.278  0.1689 -0.4608 -0.0830
 7824SOL    HW134931   3.390   0.632   6.251  0.4882  0.5819  0.6469
 7824SOL    HW234932   3.267   0.695   6.205 -0.1051 -2.7132 -1.6371
 7825SOL     OW34933   2.578   0.729   0.953  0.5035  0.0144  0.7279
 7825SOL    HW134934   2.590   0.804   1.012  4.3075  0.3699 -0.4696
 7825SOL    HW234935   2.533   0.664   1.007 -0.5894  0.5933  0.5129
 7826SOL     OW34936   1.129   0.038   6.315  0.4147  0.2693 -0.0057
 7826SOL    HW134937   1.110   4.678   6.271  1.5154  0.4237 -0.7623
 7826SOL    HW234938   1.115   0.007   6.404 -1.1024 -0.3031 -0.4407
 7827SOL     OW34939   4.712   2.283  16.038  0.2213  0.1415 -0.0787
 7827SOL    HW134940   0.079   2.309  16.055  0.2836  0.0310 -0.2430
 7827SOL    HW234941   4.700   2.316  15.949 -1.1827  0.3051  0.1576
 7828SOL     OW34942   1.218   1.107   0.817  0.5460  0.1866 -0.1147
 7828SOL    HW134943   1.272   1.168   0.868  1.9556 -0.9555 -0.2555
 7828SOL    HW234944   1.137   1.158   0.818  1.4114  1.5219  0.8647
 7829SOL     OW34945   2.401   3.668   2.870  0.5373  1.0324  0.1311
 7829SOL    HW134946   2.396   3.763   2.860  0.0300  1.0803  0.7938
 7829SOL    HW234947   2.447   3.638   2.792  0.4588  0.0160  0.4759
 7830SOL     OW34948   2.432   0.041   2.393 -0.0426 -0.1514  0.0120
 7830SOL    HW134949   2.348   0.002   2.370  0.7205 -0.6127 -2.0314
 7830SOL    HW234950   2.486   4.685   2.405  2.1800  1.1949 -1.0122
 7831SOL     OW34951   3.615   0.486   3.013  0.7233  0.0129  0.1395
 7831SOL    HW134952   3.683   0.542   2.974  2.0913 -0.6914  1.5262
 7831SOL    HW234953   3.537   0.491   2.957  1.4359  1.1660 -0.7639
 7832SOL     OW34954   4.466   1.598   4.230 -0.2813 -0.6113  0.5865
 7832SOL    HW134955   4.524   1.563   4.298 -0.5220  1.3955  1.8323
 7832SOL    HW234956   4.485   1.692   4.226 -0.3707 -0.6197 -0.0065
 7833SOL     OW34957   4.572   1.911   6.131  0.0028 -0.1011 -0.1656
 7833SOL    HW134958   4.663   1.940   6.132 -0.1290  0.2324  1.8854
 7833SOL    HW234959   4.546   1.983   6.188 -1.2615 -0.7460  0.0711
 7834SOL     OW34960   2.680   1.923   3.190  0.8927  0.1874  0.1935
 7834SOL    HW134961   2.725   1.890   3.112  1.0186 -0.4719  0.5428
 7834SOL    HW234962   2.684   1.841   3.241  3.4816 -0.1166 -0.4695
 7835SOL     OW34963   3.839   3.948   4.508  0.8933  0.0265 -0.3713
 7835SOL    HW134964   3.749   3.924   4.490  0.5992  0.3066  0.7506
 7835SOL    HW234965   3.878   3.902   4.434 -2.5226 -1.3056 -1.3327
 7836SOL     OW34966   2.204   1.427   8.315 -0.6902 -0.2817  0.2403
 7836SOL    HW134967   2.207   1.513   8.355 -1.1288 -0.4172  0.5671
 7836SOL    HW234968   2.286   1.397   8.354 -1.0734 -0.0792  1.1961
 7837SOL     OW34969   3.411   3.171   2.308  0.5317  0.2946 -0.4378
 7837SOL    HW134970   3.353   3.157   2.233 -1.7558 -0.3786  1.4520
 7837SOL    HW234971   3.440   3.259   2.288 -0.8034  0.2871 -2.3626
 7838SOL     OW34972   3.975   3.226  16.178 -0.0562  0.0944  0.3207
 7838SOL    HW134973   3.996   3.136  16.154  1.8265  0.3335  1.1090
 7838SOL    HW234974   4.017   3.270  16.104 -0.5027  1.3959  0.8506
 7839SOL     OW34975   0.372   4.065   1.516  0.0866  0.8459  0.4467
 7839SOL    HW134976   0.337   4.016   1.441 -1.7786  1.1710  1.1094
 7839SOL    HW234977   0.447   4.012   1.542 -0.3911 -0.1042 -0.1157
 7840SOL     OW34978   0.572   0.292   8.795 -0.8986 -0.1814 -0.1358
 7840SOL    HW134979   0.642   0.300   8.860 -2.2002  1.0916  1.0962
 7840SOL    HW234980   0.518   0.227   8.840 -0.9556  1.2304  1.8177
 7841SOL     OW34981   3.496   4.397   5.320 -0.0125  0.0832 -0.3925
 7841SOL    HW134982   3.447   4.344   5.382 -1.6319  0.8424 -1.0047
 7841SOL    HW234983   3.552   4.330   5.281  0.5950  1.0915 -1.2935
 7842SOL     OW34984   3.582   0.087   4.181  0.3072  0.1067 -0.2978
 7842SOL    HW134985   3.533   0.031   4.241  0.7035  0.3297  0.2357
 7842SOL    HW234986   3.542   0.085   4.094  1.0079  0.9627 -0.6450
 7843SOL     OW34987   2.523   4.319   7.536 -0.3180  0.0385 -0.1518
 7843SOL    HW134988   2.528   4.319   7.632 -3.7810  0.3732  0.0112
 7843SOL    HW234989   2.598   4.266   7.507  2.3722  2.0528  3.0753
 7844SOL     OW34990   4.208   2.331  13.065  0.5182 -0.4608  0.1426
 7844SOL    HW134991   4.229   2.239  13.078 -2.4362 -1.2190 -0.4689
 7844SOL    HW234992   4.142   2.322  12.997  1.5532  1.2188 -1.0854
 7845SOL     OW34993   1.391   1.686   1.384  1.0939  0.3992  0.2614
 7845SOL    HW134994   1.441   1.765   1.360  1.5949 -0.0553 -0.1867
 7845SOL    HW234995   1.453   1.649   1.447  0.5456 -0.3895  0.3318
 7846SOL     OW34996   1.273   2.204   2.955  0.3268 -0.3952 -0.0931
 7846SOL    HW134997   1.269   2.117   2.993 -1.2600  0.9899  2.8938
 7846SOL    HW234998   1.180   2.228   2.963  0.6737 -0.3084  3.7073
 7847SOL     OW34999   3.295   2.740   6.311 -0.0198  0.3282 -0.2879
 7847SOL    HW135000   3.238   2.663   6.319  0.9712 -0.4014 -0.3514
 7847SOL    HW235001   3.224   2.803   6.326 -0.8069 -0.2578 -1.5559
 7848SOL     OW35002   2.205   2.657   2.594 -0.2654 -0.0367 -0.0995
 7848SOL    HW135003   2.222   2.592   2.526  0.1351  0.6562 -0.6624
 7848SOL    HW235004   2.109   2.658   2.592 -0.2595 -0.5296 -0.4672
 7849SOL     OW35005   1.718   1.836   8.820 -0.3341  0.0540  0.6048
 7849SOL    HW135006   1.710   1.774   8.892 -0.6454  0.2080  0.7007
 7849SOL    HW235007   1.811   1.857   8.832 -0.0493 -0.4457 -0.7367
 7850SOL     OW35008   2.926   0.624   3.689  0.4347  0.2451 -0.1251
 7850SOL    HW135009   2.848   0.654   3.643  1.3759  3.5407  0.4310
 7850SOL    HW235010   2.991   0.643   3.621 -0.0070  0.6406 -0.4391
 7851SOL     OW35011   2.340   2.681   7.889 -0.0414  0.0578  0.1979
 7851SOL    HW135012   2.314   2.773   7.893  1.0163  0.3565  0.0464
 7851SOL    HW235013   2.258   2.631   7.893 -0.3575  0.4976 -0.7400
 7852SOL     OW35014   2.381   3.367   2.792 -0.6069 -0.1159 -0.1424
 7852SOL    HW135015   2.352   3.328   2.874  0.4123 -1.5895 -0.4728
 7852SOL    HW235016   2.424   3.446   2.824 -0.2864 -0.4800  0.3304
 7853SOL     OW35017   2.877   2.554  12.265 -0.0863  0.2490  0.3372
 7853SOL    HW135018   2.855   2.461  12.258  0.6603  0.0658  0.5057
 7853SOL    HW235019   2.827   2.596  12.195 -0.5309 -1.3379 -0.2920
 7854SOL     OW35020   0.015   3.281   0.501 -0.3408 -0.4977  0.4302
 7854SOL    HW135021   0.019   3.317   0.412  0.6134  0.2753  0.7824
 7854SOL    HW235022   4.662   3.327   0.537  0.5708  2.3863 -1.3088
 7855SOL     OW35023   4.194   0.547  15.844 -0.6995  0.0417 -0.0812
 7855SOL    HW135024   4.152   0.601  15.777 -0.0434 -0.0536 -0.5762
 7855SOL    HW235025   4.230   0.474  15.793 -0.1975  0.3670 -0.1949
 7856SOL     OW35026   1.300   2.565   7.718 -0.6263  0.6490  1.2381
 7856SOL    HW135027   1.226   2.582   7.660  1.1902  1.7703 -0.7167
 7856SOL    HW235028   1.257   2.492   7.762 -0.0460  0.1289  0.9259
 7857SOL     OW35029   4.719   4.520  16.311 -0.1212  0.1634  0.3639
 7857SOL    HW135030   4.707   4.440  16.363  0.4422  0.2543  0.6447
 7857SOL    HW235031   4.645   4.516  16.250  0.7227 -0.7868 -0.6078
 7858SOL     OW35032   4.115   1.667   6.469 -0.1027 -0.1703  0.0316
 7858SOL    HW135033   4.178   1.739   6.480 -0.1468  0.2358 -2.3133
 7858SOL    HW235034   4.137   1.633   6.382  0.0056 -1.7311  0.6773
 7859SOL     OW35035   2.509   2.116  13.826 -0.0711  0.2786 -0.6044
 7859SOL    HW135036   2.414   2.121  13.821 -0.1988 -2.8108 -1.2998
 7859SOL    HW235037   2.501   2.052  13.898  2.0098  1.0351  0.3293
 7860SOL     OW35038   4.618   4.366   9.344  0.0814 -0.1393 -0.6306
 7860SOL    HW135039   4.535   4.343   9.386  1.2926 -1.4460  1.0350
 7860SOL    HW235040   4.602   4.460   9.333  1.4704  0.3625  1.6546
 7861SOL     OW35041   2.375   1.646   8.303 -0.4580  0.5921 -0.3059
 7861SOL    HW135042   2.417   1.646   8.389  0.2804 -0.3755 -0.6671
 7861SOL    HW235043   2.365   1.740   8.291  0.9964  0.9934  1.7225
 7862SOL     OW35044   0.757   2.691   7.839 -0.0285  0.7674 -0.6639
 7862SOL    HW135045   0.812   2.769   7.826  0.4102  0.5533 -0.0690
 7862SOL    HW235046   0.770   2.646   7.756  0.7693 -0.4456  0.1136
 7863SOL     OW35047   3.852   1.163   7.590 -0.5141 -0.1162 -0.3174
 7863SOL    HW135048   3.918   1.102   7.624  0.0123 -2.0592 -4.8419
 7863SOL    HW235049   3.776   1.119   7.627 -0.2796 -1.0065 -0.8874
 7864SOL     OW35050   0.012   3.323   3.469  0.0018  0.2907 -0.3583
 7864SOL    HW135051   0.008   3.230   3.448 -0.9161  0.0321  0.9865
 7864SOL    HW235052   4.642   3.348   3.471 -0.3662 -0.9549 -2.1723
 7865SOL     OW35053   0.486   2.066   9.898 -0.0987 -0.2942  0.3280
 7865SOL    HW135054   0.522   2.119   9.828 -0.2158  1.1145  1.3202
 7865SOL    HW235055   0.433   1.998   9.855  0.9584 -1.7599  1.3358
 7866SOL     OW35056   4.631   3.614  14.239 -0.1905 -0.1536 -0.0070
 7866SOL    HW135057   4.611   3.632  14.331  2.3301 -0.6182  0.6135
 7866SOL    HW235058   4.631   3.519  14.237  0.4329 -0.1900  2.1990
 7867SOL     OW35059   1.390   3.423  11.468  0.2381  0.2811 -0.6853
 7867SOL    HW135060   1.439   3.463  11.396  1.6973  0.6293  0.5121
 7867SOL    HW235061   1.336   3.357  11.424 -0.7410 -0.4861  1.7060
 7868SOL     OW35062   4.389   3.124   4.323  0.0131  0.3866  0.0417
 7868SOL    HW135063   4.328   3.162   4.386 -0.5954  0.9760 -0.9226
 7868SOL    HW235064   4.414   3.045   4.373  1.0014  0.5753 -0.1686
 7869SOL     OW35065   2.556   3.733   6.012  0.2387 -0.2250 -0.0089
 7869SOL    HW135066   2.562   3.828   6.003  1.6648 -0.2742  0.4859
 7869SOL    HW235067   2.632   3.704   5.963 -1.0376 -0.6824 -1.7340
 7870SOL     OW35068   2.117   1.719   2.166  0.4782  0.1200 -0.2096
 7870SOL    HW135069   2.068   1.769   2.232  1.3912  0.6514  0.0633
 7870SOL    HW235070   2.152   1.647   2.218 -1.1762  0.4487  1.3688
 7871SOL     OW35071   3.170   4.204   7.107  0.0960 -0.2131  0.4215
 7871SOL    HW135072   3.105   4.135   7.092 -0.7286  0.5570  0.4261
 7871SOL    HW235073   3.116   4.252   7.170 -1.2981  0.7006 -1.4662
 7872SOL     OW35074   4.482   3.576   2.537  0.1650  0.4007  0.3089
 7872SOL    HW135075   4.575   3.592   2.523  0.0195 -1.3283 -2.6570
 7872SOL    HW235076   4.478   3.489   2.496 -2.5609 -0.1756  1.7939
 7873SOL     OW35077   2.590   2.315   2.034 -0.2028 -0.8433 -0.2615
 7873SOL    HW135078   2.676   2.355   2.021 -0.9317  1.3276  1.6359
 7873SOL    HW235079   2.528   2.388   2.035  2.3504  1.3574 -2.3312
 7874SOL     OW35080   3.387   0.702  13.840 -0.2209  0.1607  0.3297
 7874SOL    HW135081   3.453   0.723  13.905  0.6716  1.1467 -0.8849
 7874SOL    HW235082   3.345   0.625  13.878 -0.0491 -0.4278 -0.6750
 7875SOL     OW35083   1.569   2.833   9.154 -0.1191  0.2800  0.0776
 7875SOL    HW135084   1.637   2.898   9.138  0.0569 -0.1373 -0.8709
 7875SOL    HW235085   1.492   2.889   9.152  1.0860  1.8365 -2.8246
 7876SOL     OW35086   4.048   3.333   6.517  0.3610 -0.1512  1.1481
 7876SOL    HW135087   4.033   3.418   6.476 -1.8526 -1.7428 -1.3559
 7876SOL    HW235088   4.047   3.277   6.439 -1.2323 -0.7185  1.5800
 7877SOL     OW35089   3.493   1.318   0.976 -0.1309  0.1282  0.5071
 7877SOL    HW135090   3.415   1.370   0.993  0.8639  1.3293  1.3987
 7877SOL    HW235091   3.504   1.261   1.052 -0.3348 -2.5651 -1.4730
 7878SOL     OW35092   0.705   1.293   3.683 -0.2770 -0.3082 -0.1242
 7878SOL    HW135093   0.792   1.277   3.648  0.0715 -1.1768  1.1629
 7878SOL    HW235094   0.650   1.296   3.604 -2.4318  1.7461  1.4495
 7879SOL     OW35095   0.545   1.971   7.453 -0.1647  1.1379  0.4340
 7879SOL    HW135096   0.576   2.028   7.382  0.2236 -1.1380 -1.2183
 7879SOL    HW235097   0.599   2.003   7.525  0.5375  1.4025 -0.2059
 7880SOL     OW35098   2.467   4.072  17.293  0.0641 -0.0913 -0.5186
 7880SOL    HW135099   2.407   4.058  17.220  1.4428 -0.7343 -1.5401
 7880SOL    HW235100   2.503   4.155  17.262  0.0832 -0.4462 -1.4559
 7881SOL     OW35101   2.425   1.589   2.221 -0.4091  0.9460  0.0439
 7881SOL    HW135102   2.411   1.494   2.226 -1.1984  0.9682 -1.5093
 7881SOL    HW235103   2.461   1.587   2.132 -0.3474  1.0499  0.0670
 7882SOL     OW35104   2.233   3.083   6.465 -0.3106  0.1264  0.1530
 7882SOL    HW135105   2.282   3.052   6.390 -0.5602  2.4182 -0.9785
 7882SOL    HW235106   2.216   3.175   6.441  1.3203  0.1580 -0.8969
 7883SOL     OW35107   3.551   3.177   3.864 -0.2824  0.1401  0.3419
 7883SOL    HW135108   3.480   3.240   3.859 -0.8271 -0.5197 -0.2014
 7883SOL    HW235109   3.548   3.164   3.958  1.4710  0.8014  0.4980
 7884SOL     OW35110   3.281   2.640   3.642  0.3689  0.0338 -0.1729
 7884SOL    HW135111   3.361   2.644   3.694 -0.3460 -1.2861  1.0456
 7884SOL    HW235112   3.287   2.548   3.617  2.3985  0.2789 -0.5849
 7885SOL     OW35113   0.808   3.927  11.241  0.0670  0.6311 -0.1839
 7885SOL    HW135114   0.727   3.971  11.265 -0.1934  0.5775 -0.9546
 7885SOL    HW235115   0.784   3.877  11.163 -1.7726  0.4262  0.5106
 7886SOL     OW35116   2.054   3.168   5.652 -0.5564  0.4077 -0.0021
 7886SOL    HW135117   2.001   3.111   5.597 -1.1407  1.6343 -0.7045
 7886SOL    HW235118   2.123   3.194   5.591  0.3933  1.7591  1.6370
 7887SOL     OW35119   1.971   3.073   2.144  0.2819  0.6417 -0.6646
 7887SOL    HW135120   1.896   3.036   2.191  0.4106  1.5687  0.2941
 7887SOL    HW235121   2.037   3.088   2.212  1.5083  0.9962 -1.9440
 7888SOL     OW35122   4.027   2.601   5.448 -0.0840 -0.4220 -0.2260
 7888SOL    HW135123   4.049   2.531   5.386  0.8713 -0.9660  0.7345
 7888SOL    HW235124   3.960   2.654   5.406  0.8725  2.1598  1.5219
 7889SOL     OW35125   3.669   1.036   7.817 -0.2030 -0.3557  0.1984
 7889SOL    HW135126   3.711   0.951   7.812  2.1269  0.8311 -0.7036
 7889SOL    HW235127   3.576   1.020   7.826 -0.6307  2.6747  1.3816
 7890SOL     OW35128   3.008   2.330  16.813 -0.2333 -0.0606  0.4142
 7890SOL    HW135129   3.073   2.400  16.807  0.7837 -1.1087 -0.7744
 7890SOL    HW235130   2.932   2.381  16.785 -1.1160  0.7712  4.3025
 7891SOL     OW35131   4.557   4.001   6.927  0.0257 -0.0591  0.0927
 7891SOL    HW135132   4.561   3.907   6.947  0.6275  0.0899  0.6833
 7891SOL    HW235133   4.633   4.010   6.870  0.6921  1.2420  1.1829
 7892SOL     OW35134   4.496   4.083  10.651 -0.3371 -0.1925  0.2089
 7892SOL    HW135135   4.425   4.022  10.632  0.1162  0.0822 -2.4282
 7892SOL    HW235136   4.453   4.155  10.604  1.6269  0.7522 -0.1369
 7893SOL     OW35137   0.765   1.015   6.663 -0.2761  0.6099 -0.0368
 7893SOL    HW135138   0.817   1.085   6.702  0.2783  0.4109 -0.4251
 7893SOL    HW235139   0.754   1.057   6.577  0.7987  0.0940 -0.4253
 7894SOL     OW35140   0.248   1.888   4.222  0.0162 -0.4922  0.5819
 7894SOL    HW135141   0.295   1.812   4.255 -0.4415 -0.2979  1.6862
 7894SOL    HW235142   0.269   1.962   4.280  0.2801  1.1824 -1.6345
 7895SOL     OW35143   3.983   0.728   8.405 -0.3352  1.0734  0.1676
 7895SOL    HW135144   3.969   0.644   8.360 -2.9858  1.8101 -0.3663
 7895SOL    HW235145   3.913   0.778   8.363 -0.2234  0.2150 -1.0726
 7896SOL     OW35146   0.294   2.310   8.314  0.2802  0.2918 -0.5064
 7896SOL    HW135147   0.294   2.241   8.381 -0.7408 -0.9677 -1.8144
 7896SOL    HW235148   0.299   2.385   8.373 -0.8832 -1.4038  1.7760
 7897SOL     OW35149   1.884   3.456   4.234  0.4525 -0.0369  0.0428
 7897SOL    HW135150   1.850   3.505   4.159  0.3458  1.2583  0.9595
 7897SOL    HW235151   1.912   3.383   4.178 -2.0347  1.2716 -2.9702
 7898SOL     OW35152   3.854   2.775   5.802 -0.6778 -0.0432 -0.2475
 7898SOL    HW135153   3.763   2.766   5.776 -0.7802  0.0452  0.0787
 7898SOL    HW235154   3.886   2.685   5.807  0.3442  0.3568  0.5243
 7899SOL     OW35155   2.080   3.106  16.584 -0.7877  0.0105  0.4637
 7899SOL    HW135156   2.007   3.113  16.646 -1.4932 -1.0749 -0.2500
 7899SOL    HW235157   2.102   3.017  16.611 -0.5374 -0.0793 -0.0453
 7900SOL     OW35158   4.602   1.359   2.130  0.3126 -0.7084 -0.2745
 7900SOL    HW135159   4.639   1.292   2.188  1.0529 -0.6588 -0.6857
 7900SOL    HW235160   4.597   1.304   2.051  2.3100  1.1125 -1.6688
 7901SOL     OW35161   0.299   0.335  17.283 -0.2671  0.9676  0.0272
 7901SOL    HW135162   0.352   0.412  17.306  0.4776  0.6677 -0.6878
 7901SOL    HW235163   0.363   0.264  17.281 -0.7152  0.4425  3.4072
 7902SOL     OW35164   0.196   3.954  14.777 -0.3456  0.3784 -0.0980
 7902SOL    HW135165   0.177   3.959  14.871  1.1000 -0.3479  0.2277
 7902SOL    HW235166   0.174   4.039  14.739 -0.1731 -0.5905 -2.3767
 7903SOL     OW35167   1.775   2.375   4.599 -0.1551  0.0981 -0.7853
 7903SOL    HW135168   1.746   2.411   4.515 -1.6267  0.6629 -0.0411
 7903SOL    HW235169   1.695   2.325   4.614 -0.2299  0.5727  0.4261
 7904SOL     OW35170   4.323   3.217   2.001  0.1056  0.3528  0.1991
 7904SOL    HW135171   4.318   3.123   1.985 -0.5144  0.7524 -1.9582
 7904SOL    HW235172   4.328   3.256   1.914 -1.9465  3.6002  1.5620
 7905SOL     OW35173   3.691   1.745  13.368  0.1997  0.0590 -0.4294
 7905SOL    HW135174   3.633   1.813  13.334 -1.4081 -0.6427  0.8729
 7905SOL    HW235175   3.707   1.774  13.458  1.3783  0.5238 -0.8000
 7906SOL     OW35176   0.272   4.182   3.208  0.5621 -0.6898  0.1985
 7906SOL    HW135177   0.251   4.162   3.117  1.0075  1.1847 -0.3059
 7906SOL    HW235178   0.359   4.141   3.208  1.0777  0.4047 -2.4660
 7907SOL     OW35179   1.781   4.497   6.281  0.3646 -0.5265  0.5156
 7907SOL    HW135180   1.831   4.471   6.358 -0.3756 -1.5000  0.6625
 7907SOL    HW235181   1.795   4.591   6.281 -0.9522 -0.3337  2.6772
 7908SOL     OW35182   3.866   1.770   4.030 -0.2320  0.3406 -0.1297
 7908SOL    HW135183   3.831   1.717   4.102  0.6833 -0.3510 -0.1898
 7908SOL    HW235184   3.866   1.856   4.071  2.9612 -0.2049  1.0350
 7909SOL     OW35185   0.020   2.322   2.972  0.9717 -1.3363  0.2361
 7909SOL    HW135186   0.050   2.336   2.883  1.1242  0.7707  0.6217
 7909SOL    HW235187   4.650   2.345   2.960  1.4725  0.2638 -0.5621
 7910SOL     OW35188   0.329   1.874  13.146 -1.0631 -0.5873  0.6968
 7910SOL    HW135189   0.265   1.806  13.125 -0.2784 -1.5049  1.2696
 7910SOL    HW235190   0.377   1.831  13.217 -0.8581  1.3791  1.7483
 7911SOL     OW35191   1.256   0.549   6.025 -0.0390 -0.0214 -0.1322
 7911SOL    HW135192   1.241   0.492   5.950  1.8314 -2.3424  1.2794
 7911SOL    HW235193   1.312   0.490   6.075  0.3964  0.6717  0.1978
 7912SOL     OW35194   4.130   3.611   6.108 -0.1463  0.3458 -0.3549
 7912SOL    HW135195   4.190   3.604   6.034 -0.3900 -1.3349 -0.3871
 7912SOL    HW235196   4.069   3.679   6.080  0.3952  0.5431 -1.0570
 7913SOL     OW35197   3.607   0.238   8.874 -0.5562  0.1356  0.0881
 7913SOL    HW135198   3.654   0.280   8.802 -1.8685  1.9137  0.2717
 7913SOL    HW235199   3.606   0.307   8.940 -0.7041  0.4463 -0.2405
 7914SOL     OW35200   3.353   0.475   1.461  0.2051  0.3565  0.2662
 7914SOL    HW135201   3.414   0.512   1.397  1.5872 -3.0423 -0.3604
 7914SOL    HW235202   3.275   0.531   1.451 -0.1631  0.3164  2.8909
 7915SOL     OW35203   2.721   1.113   9.941 -0.3708  0.3065 -0.4633
 7915SOL    HW135204   2.628   1.135   9.937 -0.5742 -0.1934  1.4674
 7915SOL    HW235205   2.758   1.186   9.991 -0.7727  0.3402 -0.2119
 7916SOL     OW35206   2.579   0.220  11.647  0.4655  0.2317  0.4664
 7916SOL    HW135207   2.485   0.232  11.650  0.0294 -2.7608 -0.8226
 7916SOL    HW235208   2.605   0.219  11.555  1.6674  2.8917  0.7765
 7917SOL     OW35209   3.432   2.638   5.972  0.5176 -0.3398 -0.0805
 7917SOL    HW135210   3.499   2.626   6.038 -0.4527 -0.3794  0.9026
 7917SOL    HW235211   3.375   2.561   5.978 -0.8490  0.7167  0.4224
 7918SOL     OW35212   1.822   2.091   6.604  0.0049 -0.1505 -0.0778
 7918SOL    HW135213   1.816   2.177   6.646 -1.9928 -1.0220  1.4070
 7918SOL    HW235214   1.795   2.099   6.512 -2.3748  0.7902  0.7071
 7919SOL     OW35215   4.598   0.834  12.823  0.4832  0.2455 -0.0476
 7919SOL    HW135216   4.689   0.809  12.843  0.4304 -2.3028 -2.8254
 7919SOL    HW235217   4.586   0.876  12.908  1.8987 -0.2586  0.4045
 7920SOL     OW35218   0.227   0.877   1.794 -0.0840  0.6267 -1.1270
 7920SOL    HW135219   0.255   0.859   1.884  2.3298 -0.3658 -2.0648
 7920SOL    HW235220   0.134   0.856   1.799  0.3157 -0.6870  1.1026
 7921SOL     OW35221   2.315   0.058   6.139 -0.5598  0.2756 -0.2332
 7921SOL    HW135222   2.299   4.687   6.132 -1.5977  0.3192  1.5329
 7921SOL    HW235223   2.410   0.060   6.153 -0.7659 -2.3342  1.4547
 7922SOL     OW35224   1.179   3.077  15.457 -0.4336  0.5290  0.0815
 7922SOL    HW135225   1.086   3.077  15.435 -1.3593  2.0684  4.0137
 7922SOL    HW235226   1.201   3.136  15.384 -0.1081 -0.3483 -0.5265
 7923SOL     OW35227   1.390   3.027   9.162 -0.3006 -0.4595  0.9159
 7923SOL    HW135228   1.452   3.079   9.213 -0.2436  0.0484  0.3311
 7923SOL    HW235229   1.323   3.011   9.229 -1.5183 -1.6767 -0.6077
 7924SOL     OW35230   2.122   0.784   2.092 -0.4131 -0.0773  0.5526
 7924SOL    HW135231   2.143   0.725   2.165 -1.2420 -0.4140  0.5232
 7924SOL    HW235232   2.134   0.724   2.019 -2.8549  1.4417 -1.0878
 7925SOL     OW35233   0.855   1.109  16.829 -0.0521  0.1826  0.0169
 7925SOL    HW135234   0.832   1.142  16.916  0.7412  1.2418 -0.1803
 7925SOL    HW235235   0.868   1.015  16.842  0.4808 -0.1283 -2.7578
 7926SOL     OW35236   0.050   4.321   0.468 -0.1178  0.0615  0.1992
 7926SOL    HW135237   4.693   4.270   0.481 -0.5878  0.4329 -1.1977
 7926SOL    HW235238   0.067   4.357   0.555  0.2066 -0.1447  0.2180
 7927SOL     OW35239   3.981   4.370   4.754 -0.6313 -0.1698 -0.3754
 7927SOL    HW135240   3.959   4.354   4.663  2.2176 -1.0002 -0.9011
 7927SOL    HW235241   3.945   4.459   4.764 -1.9516 -0.6535 -0.7826
 7928SOL     OW35242   0.013   1.570   9.176 -0.1858 -0.3774  0.3011
 7928SOL    HW135243   4.642   1.580   9.157 -0.6740 -1.1780  2.2699
 7928SOL    HW235244   0.037   1.500   9.115 -0.4596  1.0423 -1.4115
 7929SOL     OW35245   4.380   3.339   3.624 -0.3564 -0.0931  0.1554
 7929SOL    HW135246   4.386   3.302   3.712  0.0908 -1.5314 -0.4827
 7929SOL    HW235247   4.350   3.429   3.639 -0.5465  0.2487 -2.3404
 7930SOL     OW35248   3.016   4.549   7.927  0.2440 -0.5973  0.0947
 7930SOL    HW135249   3.076   4.597   7.870 -0.0914 -0.3649 -0.0686
 7930SOL    HW235250   2.957   4.618   7.960  0.6365  0.1553 -0.7796
 7931SOL     OW35251   1.268   2.055   7.518  0.3825  0.4899 -0.3577
 7931SOL    HW135252   1.285   2.112   7.592  0.7394 -0.4638  0.2943
 7931SOL    HW235253   1.233   2.116   7.453  0.9335  1.4155  0.2207
 7932SOL     OW35254   2.097   2.598   5.064 -0.6564  0.2135 -0.2519
 7932SOL    HW135255   2.165   2.609   4.997 -1.3665 -0.4731 -1.0879
 7932SOL    HW235256   2.015   2.620   5.020 -2.3380 -1.6899  1.9493
 7933SOL     OW35257   1.867   1.351   6.835 -0.6750 -0.5083 -0.1232
 7933SOL    HW135258   1.813   1.300   6.774  1.3196 -1.9606 -0.6391
 7933SOL    HW235259   1.931   1.401   6.784 -2.2975  1.1342 -0.5792
 7934SOL     OW35260   2.953   4.237  17.051 -0.1319 -0.4098 -0.3790
 7934SOL    HW135261   2.879   4.221  16.991 -0.2006 -1.5668  0.0094
 7934SOL    HW235262   2.937   4.181  17.127 -0.3657 -2.5818 -2.0259
 7935SOL     OW35263   0.510   3.996  11.530  0.3648 -0.2108  0.3015
 7935SOL    HW135264   0.521   4.021  11.439  1.7141 -0.1572  0.4789
 7935SOL    HW235265   0.497   3.902  11.518  1.5139 -0.1945 -1.0453
 7936SOL     OW35266   0.675   0.602   5.492  0.2636  0.9061  0.2176
 7936SOL    HW135267   0.617   0.538   5.450  3.0685 -1.7541  0.4412
 7936SOL    HW235268   0.756   0.573   5.450 -0.8226 -1.4092 -0.2470
 7937SOL     OW35269   2.928   3.625   4.455 -0.5619  0.1746 -0.1727
 7937SOL    HW135270   2.879   3.549   4.486 -0.4266  0.7361  1.4127
 7937SOL    HW235271   2.919   3.621   4.360 -2.3365  3.0727 -0.1421
 7938SOL     OW35272   1.327   1.369  15.682  0.8802  0.4717 -0.2843
 7938SOL    HW135273   1.293   1.316  15.755  1.5276 -0.3226 -0.5549
 7938SOL    HW235274   1.365   1.300  15.628  0.8708 -0.2459  0.6138
 7939SOL     OW35275   2.952   3.049   3.681  0.3349 -0.4787 -0.0069
 7939SOL    HW135276   3.012   2.975   3.688 -0.6390 -1.2146  0.6856
 7939SOL    HW235277   2.909   3.039   3.596  0.2900  0.7396 -0.1232
 7940SOL     OW35278   0.394   1.182   6.392  0.2841 -0.3118  0.1306
 7940SOL    HW135279   0.432   1.259   6.436  0.0977 -1.6851  2.6905
 7940SOL    HW235280   0.306   1.183   6.430 -0.7005 -1.2107 -2.1266
 7941SOL     OW35281   0.451   2.324  17.589 -0.3440 -0.2098  1.7455
 7941SOL    HW135282   0.465   2.371  17.672  1.1583 -0.2599  1.5168
 7941SOL    HW235283   0.421   2.390  17.527  2.0290 -1.4099 -0.6723
 7942SOL     OW35284   1.353   4.027  11.535 -0.1041 -0.0682  0.3370
 7942SOL    HW135285   1.354   3.958  11.602  0.4418 -0.6225 -0.2468
 7942SOL    HW235286   1.352   3.979  11.453 -2.7096 -0.0673  0.3769
 7943SOL     OW35287   2.458   2.183  15.183 -0.0756  0.6434  0.2664
 7943SOL    HW135288   2.475   2.274  15.158 -1.3871  1.3903  2.0578
 7943SOL    HW235289   2.366   2.188  15.211 -0.0129  0.0014  0.5938
 7944SOL     OW35290   4.511   2.308   3.996 -0.0778  0.4581  0.0977
 7944SOL    HW135291   4.537   2.313   4.089 -0.2060  0.4913  0.1312
 7944SOL    HW235292   4.483   2.395   3.971 -1.1823 -0.2662 -1.1459
 7945SOL     OW35293   1.219   0.645   7.310  0.6178 -0.0287 -0.1086
 7945SOL    HW135294   1.305   0.618   7.341  0.1804 -0.6636  0.5675
 7945SOL    HW235295   1.246   0.717   7.253  0.7556  0.9096  1.1394
 7946SOL     OW35296   2.640   1.024   2.338  0.5685 -0.4544  0.3437
 7946SOL    HW135297   2.627   1.106   2.385  0.7248 -0.8221  1.0315
 7946SOL    HW235298   2.605   0.956   2.396  2.6894  0.7925  3.1027
 7947SOL     OW35299   4.720   2.028  10.763  0.5201  0.2794 -0.0994
 7947SOL    HW135300   0.026   2.033  10.671  2.4233  1.1460  0.5508
 7947SOL    HW235301   4.658   2.101  10.766  0.1547 -0.0809  1.0383
 7948SOL     OW35302   0.470   3.413   5.004 -0.0023 -0.3625  0.2605
 7948SOL    HW135303   0.433   3.487   4.957  1.6986  0.7157  0.6195
 7948SOL    HW235304   0.548   3.385   4.955  1.1672 -2.0250  3.0708
 7949SOL     OW35305   2.304   3.280   5.104 -0.0490 -0.0690 -0.2842
 7949SOL    HW135306   2.302   3.350   5.039  1.0816 -0.7895 -1.1013
 7949SOL    HW235307   2.386   3.302   5.147  0.5540  2.5459 -2.7504
 7950SOL     OW35308   3.839   3.606   9.739  0.0424 -0.2918 -0.3072
 7950SOL    HW135309   3.902   3.538   9.761 -0.1239 -0.5393 -0.5881
 7950SOL    HW235310   3.895   3.676   9.707 -0.2054 -0.5049 -1.1973
 7951SOL     OW35311   4.669   0.747   4.716  0.3620  0.0440 -0.1820
 7951SOL    HW135312   4.596   0.807   4.703 -1.0609 -1.8627 -0.9208
 7951SOL    HW235313   4.626   0.662   4.704 -0.2329  0.0309  2.0650
 7952SOL     OW35314   4.020   1.872   7.708  0.4719  0.0580  0.1060
 7952SOL    HW135315   4.004   1.908   7.796 -3.2791  0.1581 -0.6055
 7952SOL    HW235316   3.933   1.834   7.692  0.3573  0.5602 -0.4741
 7953SOL     OW35317   1.406   1.071   8.952  0.3368 -0.5696 -0.4322
 7953SOL    HW135318   1.344   1.144   8.953 -1.4489 -2.0511 -1.2769
 7953SOL    HW235319   1.409   1.048   9.045  1.0053  1.2106 -0.0165
 7954SOL     OW35320   3.691   4.103   7.453 -0.1070  0.2278  0.5540
 7954SOL    HW135321   3.728   4.067   7.373 -2.4599  1.5745 -1.1302
 7954SOL    HW235322   3.755   4.067   7.515 -0.9604 -0.3972  1.0668
 7955SOL     OW35323   1.623   1.956  16.947  0.1747  0.3450 -0.2294
 7955SOL    HW135324   1.644   1.979  17.038 -0.9513  0.9661 -0.1225
 7955SOL    HW235325   1.617   2.045  16.911 -0.1820  0.7536  0.8097
 7956SOL     OW35326   4.419   3.403   4.463  0.0339 -0.1784  0.1565
 7956SOL    HW135327   4.341   3.456   4.482  0.6130  0.0840  1.7901
 7956SOL    HW235328   4.387   3.325   4.508  1.1899 -1.8537 -1.9547
 7957SOL     OW35329   2.896   2.051   5.203 -0.2934  0.0658  0.0853
 7957SOL    HW135330   2.820   2.035   5.259 -0.8215  0.3194 -0.5619
 7957SOL    HW235331   2.852   2.037   5.120  1.7687  0.4132 -1.0746
 7958SOL     OW35332   3.798   1.150  15.636  0.4942 -0.5158  0.0280
 7958SOL    HW135333   3.797   1.244  15.619 -2.1272 -0.4598  0.4376
 7958SOL    HW235334   3.717   1.140  15.687 -0.3791 -0.1407 -1.2755
 7959SOL     OW35335   1.816   2.726  11.605 -0.6464 -0.4920 -0.0981
 7959SOL    HW135336   1.814   2.817  11.578 -0.4686 -0.3860  0.2411
 7959SOL    HW235337   1.885   2.694  11.547 -0.4314 -0.3499  0.0749
 7960SOL     OW35338   0.661   1.434   7.780 -0.4125  0.0158  0.5542
 7960SOL    HW135339   0.642   1.378   7.855 -3.1565  1.1954  0.7545
 7960SOL    HW235340   0.747   1.471   7.803  1.2177 -2.3340 -1.8380
 7961SOL     OW35341   1.796   1.023   3.799  0.0076  0.2823  0.3681
 7961SOL    HW135342   1.806   1.108   3.756 -1.2298 -1.3607 -3.1894
 7961SOL    HW235343   1.721   0.987   3.750  0.5207  2.0192 -1.7088
 7962SOL     OW35344   0.676   1.238   2.532  0.1251 -0.3672 -0.7388
 7962SOL    HW135345   0.728   1.281   2.600 -0.7512 -1.1877  0.4446
 7962SOL    HW235346   0.704   1.279   2.450  1.7836 -2.0369 -1.0083
 7963SOL     OW35347   2.518   1.967   7.456 -0.6900 -0.2515 -0.0742
 7963SOL    HW135348   2.497   1.971   7.362 -2.0383 -0.9321  0.1979
 7963SOL    HW235349   2.578   1.893   7.458  0.8510  0.9430 -2.2460
 7964SOL     OW35350   3.742   1.278   5.795  0.1359 -0.2737 -0.7280
 7964SOL    HW135351   3.690   1.332   5.736 -0.3816  0.9106  0.8062
 7964SOL    HW235352   3.716   1.191   5.764 -1.0811  0.1915 -0.9826
 7965SOL     OW35353   2.791   0.588  12.819 -0.2398 -0.1845  0.2805
 7965SOL    HW135354   2.877   0.546  12.829 -0.4038  0.0943  2.6903
 7965SOL    HW235355   2.805   0.649  12.891  1.0659 -0.3079  0.1390
 7966SOL     OW35356   2.548   0.416   4.321  0.0304  0.0367  0.4002
 7966SOL    HW135357   2.576   0.491   4.372  0.4920  1.7467 -2.3874
 7966SOL    HW235358   2.461   0.452   4.303 -0.1487 -2.3018 -3.3322
 7967SOL     OW35359   3.779   3.375   9.019  0.3169  0.2278 -0.0036
 7967SOL    HW135360   3.748   3.289   8.991  1.1636  0.6943 -2.3084
 7967SOL    HW235361   3.731   3.436   8.963 -0.0061 -0.1920 -0.1842
 7968SOL     OW35362   3.168   4.516  14.687  0.1191 -0.4355 -0.3772
 7968SOL    HW135363   3.197   4.453  14.753  1.5356  0.9373  0.3232
 7968SOL    HW235364   3.255   4.524  14.647 -0.0571  0.5430 -0.5594
 7969SOL     OW35365   0.132   4.626   3.306 -0.4140  0.4849 -0.7003
 7969SOL    HW135366   0.107   4.545   3.262  1.0632  0.1821 -0.9544
 7969SOL    HW235367   0.212   4.593   3.346 -0.2098 -0.5509 -1.9738
 7970SOL     OW35368   2.754   2.798   7.192 -0.1733 -0.0945  0.0079
 7970SOL    HW135369   2.816   2.870   7.205 -0.3640 -0.3052  2.1559
 7970SOL    HW235370   2.803   2.716   7.202  0.9578  0.5739  0.0365
 7971SOL     OW35371   4.466   2.056   8.116 -0.2952 -0.2242 -0.0158
 7971SOL    HW135372   4.463   1.978   8.171 -0.9947 -1.1716 -1.4054
 7971SOL    HW235373   4.544   2.097   8.154  0.5178 -1.4610 -0.3554
 7972SOL     OW35374   1.930   4.717   2.192 -0.9107 -0.5560 -0.5330
 7972SOL    HW135375   1.877   4.689   2.117 -0.2161  0.2630 -1.3212
 7972SOL    HW235376   1.924   0.089   2.187 -0.5226 -0.6351 -2.3217
 7973SOL     OW35377   0.961   2.576  16.349 -0.1787 -0.1444  0.1962
 7973SOL    HW135378   0.952   2.627  16.269 -1.9406 -0.8868 -0.0658
 7973SOL    HW235379   0.872   2.565  16.381 -0.3863  1.3477  0.1406
 7974SOL     OW35380   1.994   0.827  12.690 -0.0554 -0.0407  0.2985
 7974SOL    HW135381   2.070   0.829  12.632 -0.2893 -0.2634 -0.0177
 7974SOL    HW235382   1.946   0.754  12.651  0.6516 -0.1820 -0.3055
 7975SOL     OW35383   2.194   2.539   3.310  0.0989 -0.0197 -0.6984
 7975SOL    HW135384   2.284   2.565   3.290  0.2987 -0.9295 -0.9955
 7975SOL    HW235385   2.179   2.470   3.245 -1.6695  1.0002 -1.4028
 7976SOL     OW35386   0.758   0.958   1.000 -0.0892  0.0834 -0.4684
 7976SOL    HW135387   0.733   1.003   0.919  1.2098  1.3732 -0.1311
 7976SOL    HW235388   0.682   0.899   1.005  0.7790 -1.1424 -1.5574
 7977SOL     OW35389   3.712   0.766   7.837 -0.4396 -0.4408 -0.6489
 7977SOL    HW135390   3.660   0.686   7.842 -0.7032 -0.1913  0.5811
 7977SOL    HW235391   3.761   0.757   7.919 -1.3506  0.1553 -0.0474
 7978SOL     OW35392   0.490   1.053   9.063  0.5068  0.8240  1.0099
 7978SOL    HW135393   0.414   1.036   9.118  0.7933  0.5982  1.3313
 7978SOL    HW235394   0.466   1.141   9.033 -1.4315  0.4193  1.3920
 7979SOL     OW35395   0.640   4.461   2.782  0.1081 -0.5000 -0.2826
 7979SOL    HW135396   0.682   4.396   2.839 -0.4039  2.1203  3.1089
 7979SOL    HW235397   0.562   4.412   2.757  0.3317 -0.3726 -1.2313
 7980SOL     OW35398   0.546   0.800   1.410 -0.2864  0.0867  0.0272
 7980SOL    HW135399   0.506   0.821   1.495  0.9524 -0.3752  0.7235
 7980SOL    HW235400   0.637   0.788   1.436  0.1947  0.9486 -1.2683
 7981SOL     OW35401   4.522   0.298  12.736  0.3003  0.3148 -0.4227
 7981SOL    HW135402   4.561   0.372  12.782  0.1699 -0.1755  0.4821
 7981SOL    HW235403   4.586   0.285  12.665  2.4650 -2.4963  2.0388
 7982SOL     OW35404   1.983   0.968   4.198  0.1334  0.2242 -0.2142
 7982SOL    HW135405   1.934   1.016   4.131  0.3859 -0.3619 -0.8261
 7982SOL    HW235406   1.909   0.949   4.256  2.0708 -1.6561  1.6528
 7983SOL     OW35407   0.872   0.005   2.044  0.0940 -0.6788  0.1795
 7983SOL    HW135408   0.868   0.100   2.051 -3.9373 -0.8890  0.7863
 7983SOL    HW235409   0.790   4.709   1.999 -0.2365  1.1509  0.0081
 7984SOL     OW35410   0.885   0.407   8.268  0.3361  0.4460  0.3063
 7984SOL    HW135411   0.795   0.441   8.265  0.8860  1.8648 -0.3088
 7984SOL    HW235412   0.918   0.439   8.352 -1.2969  1.9216  0.4080
 7985SOL     OW35413   1.878   4.446   8.071 -0.3242 -0.3559  0.2124
 7985SOL    HW135414   1.805   4.398   8.111 -1.3379  1.1204  0.1180
 7985SOL    HW235415   1.851   4.426   7.982  0.6482 -1.3470  0.1419
 7986SOL     OW35416   3.691   4.546   8.487 -0.4157  0.2988  0.1051
 7986SOL    HW135417   3.650   4.551   8.401 -2.8595 -0.1663  1.2324
 7986SOL    HW235418   3.632   4.491   8.540 -2.1055  1.2079 -0.8533
 7987SOL     OW35419   3.137   4.297   8.534 -0.2298  0.0812  0.0570
 7987SOL    HW135420   3.135   4.334   8.622  0.7772  0.2435  0.0128
 7987SOL    HW235421   3.084   4.362   8.488  0.7168  0.4375 -0.5234
 7988SOL     OW35422   4.364   3.109   5.865  0.5177 -0.5646 -0.0537
 7988SOL    HW135423   4.285   3.156   5.836 -0.4275 -1.6055  0.7954
 7988SOL    HW235424   4.433   3.161   5.825 -1.1138  1.2907 -0.4866
 7989SOL     OW35425   2.056   0.336   1.388  0.1860  0.1249  0.4098
 7989SOL    HW135426   2.000   0.343   1.312 -2.5626 -2.0485  2.2542
 7989SOL    HW235427   1.987   0.302   1.445  0.1186  0.5264  0.5687
 7990SOL     OW35428   1.086   2.451   4.828  0.0744  0.1460 -0.2077
 7990SOL    HW135429   1.092   2.539   4.791  1.1818 -0.6081 -1.8228
 7990SOL    HW235430   1.077   2.454   4.924 -0.7182 -0.9387 -0.2604
 7991SOL     OW35431   2.356   0.918   7.025  0.2825 -0.0478 -0.2318
 7991SOL    HW135432   2.348   1.006   6.988  1.6170 -0.5001 -1.5890
 7991SOL    HW235433   2.360   0.867   6.944  1.3694 -0.9148  0.3646
 7992SOL     OW35434   0.897   1.990  17.578  0.7616 -0.2195  0.0867
 7992SOL    HW135435   0.837   1.917  17.595  0.2062  0.2285  0.0292
 7992SOL    HW235436   0.835   2.062  17.581 -1.0863 -1.8487  1.1937
 7993SOL     OW35437   2.540   3.929   2.141 -0.2175 -0.3422 -0.0095
 7993SOL    HW135438   2.606   3.917   2.209  2.2442 -0.0978 -2.3418
 7993SOL    HW235439   2.536   4.022   2.121 -3.3557 -0.6012 -0.6347
 7994SOL     OW35440   1.444   1.380   6.734  0.1237 -0.0524  0.3901
 7994SOL    HW135441   1.451   1.288   6.758 -2.0735 -0.3864 -0.2011
 7994SOL    HW235442   1.502   1.373   6.658  0.4642  0.7132  0.5854
 7995SOL     OW35443   3.853   0.121   3.052  0.2114  0.1429 -0.4182
 7995SOL    HW135444   3.858   0.109   2.957 -0.6477  2.0847 -0.7053
 7995SOL    HW235445   3.782   0.057   3.057 -0.6775  1.3366  2.4062
 7996SOL     OW35446   3.973   3.591   7.989 -0.3258 -0.9809  0.3141
 7996SOL    HW135447   4.065   3.617   7.989 -0.1618 -1.5652  0.2104
 7996SOL    HW235448   3.967   3.542   7.907 -4.1424  1.0497 -0.6221
 7997SOL     OW35449   1.802   3.162   5.304 -0.0608 -0.3701 -0.0939
 7997SOL    HW135450   1.781   3.124   5.389  0.0522 -0.8346 -0.2722
 7997SOL    HW235451   1.893   3.190   5.311 -0.2239 -0.2054  1.4061
 7998SOL     OW35452   4.533   3.761   5.013 -0.1565 -0.0727 -0.3456
 7998SOL    HW135453   4.528   3.826   4.943  1.1270  0.6647  0.2559
 7998SOL    HW235454   4.537   3.676   4.969 -0.3342 -0.2029 -0.1115
 7999SOL     OW35455   2.910   2.430   6.083  0.3102 -0.1072  0.2048
 7999SOL    HW135456   2.845   2.428   6.012 -0.3380 -1.3584  0.8402
 7999SOL    HW235457   2.885   2.361   6.144  1.5149 -0.1619  0.6354
 8000SOL     OW35458   4.590   0.203  16.249  0.0205  0.1863  0.3049
 8000SOL    HW135459   4.641   0.232  16.173 -0.5051  1.9094  0.6113
 8000SOL    HW235460   4.556   0.120  16.215  0.3141 -0.2755  1.1522
 8001SOL     OW35461   4.541   2.585  14.845 -0.0046 -0.8820  0.5894
 8001SOL    HW135462   4.622   2.573  14.895  0.7919 -1.4118 -0.8579
 8001SOL    HW235463   4.565   2.643  14.773 -0.2887 -2.9744 -1.1801
 8002SOL     OW35464   1.379   1.084   5.359  0.3653  0.2550  0.1864
 8002SOL    HW135465   1.356   1.150   5.293  0.4423 -0.3505 -0.4426
 8002SOL    HW235466   1.293   1.055   5.386  0.4047  0.1823  0.2330
 8003SOL     OW35467   1.699   3.871  12.850  0.2419  1.1049 -0.6187
 8003SOL    HW135468   1.777   3.866  12.905 -1.0268 -1.7336  0.9504
 8003SOL    HW235469   1.636   3.886  12.921 -0.4258 -4.3160 -0.0338
 8004SOL     OW35470   2.230   4.130   5.275  0.0877 -0.1286  0.6349
 8004SOL    HW135471   2.284   4.092   5.205 -1.3863  0.4268 -0.7854
 8004SOL    HW235472   2.175   4.052   5.286  0.3749 -0.3534  0.4899
 8005SOL     OW35473   0.039   1.688   4.696 -0.0586 -0.2131  0.0955
 8005SOL    HW135474   0.028   1.725   4.784  0.7768  1.9510 -0.7238
 8005SOL    HW235475   0.051   1.597   4.724  2.7077  0.7440  2.0062
 8006SOL     OW35476   0.066   2.694   6.375 -0.1077 -0.2090 -0.0609
 8006SOL    HW135477   0.115   2.775   6.363 -0.7652  0.3683  1.2430
 8006SOL    HW235478   4.700   2.728   6.380 -0.8438 -2.1172 -0.0357
 8007SOL     OW35479   3.601   3.622  13.067 -0.1267  0.2185  0.6084
 8007SOL    HW135480   3.514   3.633  13.107 -0.6509  3.5753 -1.4368
 8007SOL    HW235481   3.598   3.672  12.986  0.3262 -0.8279 -0.0452
 8008SOL     OW35482   0.587   0.539   6.057 -0.6334  0.0929 -0.2785
 8008SOL    HW135483   0.636   0.596   5.997  0.0227  1.8438  1.8954
 8008SOL    HW235484   0.538   0.484   5.996 -0.8641  2.1153 -1.9307
 8009SOL     OW35485   0.452   3.791   6.708 -0.4704 -0.5020 -0.0091
 8009SOL    HW135486   0.504   3.719   6.672 -0.5774 -2.5418  3.8776
 8009SOL    HW235487   0.393   3.753   6.774  0.9832 -1.2929  0.8510
 8010SOL     OW35488   1.340   0.805   6.566  0.2842  0.6795 -0.4038
 8010SOL    HW135489   1.273   0.750   6.525  1.5158 -1.6107  0.6559
 8010SOL    HW235490   1.397   0.814   6.490  1.9704 -0.4071  0.7389
 8011SOL     OW35491   1.062   3.452  10.078  0.3747 -0.0197 -0.4989
 8011SOL    HW135492   1.024   3.537  10.094 -1.4193 -0.6965 -1.1814
 8011SOL    HW235493   1.152   3.465  10.109  0.9505  2.4676 -3.2512
 8012SOL     OW35494   1.276   0.675   3.813  0.2994 -0.9358  0.1595
 8012SOL    HW135495   1.204   0.623   3.848  0.9526 -0.6363  1.9328
 8012SOL    HW235496   1.321   0.675   3.898 -0.9183 -0.9661  0.8076
 8013SOL     OW35497   3.143   0.552   6.998 -0.2180 -0.6426 -0.2121
 8013SOL    HW135498   3.088   0.601   6.938  0.7807 -2.0967 -2.3434
 8013SOL    HW235499   3.099   0.571   7.081 -1.9258 -0.3444 -1.2134
 8014SOL     OW35500   0.876   0.715  11.800 -0.4261  0.1863  0.1114
 8014SOL    HW135501   0.832   0.766  11.732  1.6637  1.2113 -0.4751
 8014SOL    HW235502   0.966   0.712  11.765 -0.5730  1.1470 -0.3513
 8015SOL     OW35503   2.975   2.221   7.471  0.0478  0.1709 -0.0093
 8015SOL    HW135504   2.881   2.212   7.487 -0.1846 -0.6658 -1.8376
 8015SOL    HW235505   2.994   2.311   7.499  1.1078 -0.2654  0.6744
 8016SOL     OW35506   3.014   3.665   7.160  0.0634  0.2288 -0.3517
 8016SOL    HW135507   3.105   3.671   7.129 -0.2016  0.5922 -1.0776
 8016SOL    HW235508   2.981   3.609   7.090 -0.5575  1.5185 -1.0981
 8017SOL     OW35509   2.523   2.996  10.803  0.2765 -0.4217 -0.3165
 8017SOL    HW135510   2.538   2.920  10.747 -2.7428 -1.8626  0.8520
 8017SOL    HW235511   2.436   3.015  10.768  0.9844  0.1601 -1.7599
 8018SOL     OW35512   0.333   0.258  13.129  1.0735  0.1005 -0.0661
 8018SOL    HW135513   0.407   0.200  13.109  0.5797 -0.1772 -1.0924
 8018SOL    HW235514   0.373   0.340  13.157 -0.6435  0.8553  0.1373
 8019SOL     OW35515   0.525   2.250   1.773 -0.3617  0.2511 -0.1937
 8019SOL    HW135516   0.480   2.174   1.811  0.4610 -0.9401 -1.6596
 8019SOL    HW235517   0.613   2.240   1.809 -0.8136  0.4672  0.9775
 8020SOL     OW35518   0.447   2.871   8.033  0.0634 -0.4158  0.5524
 8020SOL    HW135519   0.385   2.895   8.101 -2.1408 -1.0437 -1.2220
 8020SOL    HW235520   0.394   2.830   7.965  0.1235 -0.7555  0.7102
 8021SOL     OW35521   0.406   1.901   2.559 -0.2770  0.2214  0.0918
 8021SOL    HW135522   0.471   1.836   2.536  0.4431  0.0948  2.5569
 8021SOL    HW235523   0.334   1.858   2.605 -0.0024  0.2338  0.5291
 8022SOL     OW35524   1.212   4.514   5.351  0.3059 -0.5661  0.3795
 8022SOL    HW135525   1.282   4.530   5.288  0.1479 -0.5881  0.1970
 8022SOL    HW235526   1.242   4.563   5.427  1.9204  2.2808 -2.0767
 8023SOL     OW35527   3.822   0.321  13.196 -0.0016 -0.1543 -0.6949
 8023SOL    HW135528   3.728   0.303  13.206 -0.4585  2.3322 -0.5735
 8023SOL    HW235529   3.833   0.354  13.106  2.1235 -1.2182 -0.8193
 8024SOL     OW35530   3.958   1.958   8.625  0.7747 -0.2603 -0.4553
 8024SOL    HW135531   3.935   1.927   8.537  0.0290 -1.4695  0.1692
 8024SOL    HW235532   3.912   2.042   8.623  0.4389 -0.4492 -0.5609
 8025SOL     OW35533   1.010   3.815   5.584  0.0871 -0.5114 -0.6678
 8025SOL    HW135534   0.960   3.856   5.655  2.2382  0.1193  0.4879
 8025SOL    HW235535   1.087   3.872   5.574 -0.0291 -0.0568  1.0302
 8026SOL     OW35536   4.700   2.501   7.005 -0.2093  0.1933  0.1539
 8026SOL    HW135537   0.003   2.448   6.929  0.2047 -0.9878  1.1165
 8026SOL    HW235538   4.608   2.479   7.014 -0.1781 -0.8282 -1.8910
 8027SOL     OW35539   1.713   3.789  10.010 -0.1292  0.8011 -0.3280
 8027SOL    HW135540   1.728   3.755  10.098 -1.5783 -0.1133 -0.4318
 8027SOL    HW235541   1.744   3.878  10.021 -1.1134  0.8918  1.6520
 8028SOL     OW35542   1.730   1.960  13.107  1.0591  0.2214  0.1844
 8028SOL    HW135543   1.751   1.867  13.100 -1.1295 -0.3770  1.5190
 8028SOL    HW235544   1.732   1.960  13.203  0.3954 -0.0746  0.2000
 8029SOL     OW35545   0.191   3.180   4.454  0.0702  0.0272 -0.0047
 8029SOL    HW135546   0.236   3.233   4.388  1.9858 -2.8943 -1.0337
 8029SOL    HW235547   0.122   3.235   4.492 -0.3160  1.1729 -2.3499
 8030SOL     OW35548   2.930   1.339   7.249  0.2642 -0.3556  0.4298
 8030SOL    HW135549   2.967   1.305   7.167 -3.1564 -1.7090 -0.5291
 8030SOL    HW235550   2.836   1.331   7.238  0.2447 -0.2956  0.5551
 8031SOL     OW35551   3.618   0.145   3.748 -0.2139 -0.2798 -0.1195
 8031SOL    HW135552   3.678   0.140   3.822 -0.1860  1.0782 -0.0554
 8031SOL    HW235553   3.664   0.096   3.680 -1.3817  0.8865 -1.7436
 8032SOL     OW35554   3.179   3.278  15.983 -0.6099 -0.3749  0.1146
 8032SOL    HW135555   3.165   3.183  15.981 -1.9464 -0.1153 -1.9304
 8032SOL    HW235556   3.111   3.313  16.041  2.0661 -1.3212  3.8512
 8033SOL     OW35557   2.256   0.864   8.295  0.5426  0.4918  0.2535
 8033SOL    HW135558   2.269   0.899   8.383  1.3383  1.3244 -0.1971
 8033SOL    HW235559   2.347   0.853   8.268  0.0001 -1.6467 -0.7128
 8034SOL     OW35560   3.204   0.714  11.440 -0.1766 -0.2209  0.1792
 8034SOL    HW135561   3.203   0.736  11.533 -1.8484 -0.4936  0.2313
 8034SOL    HW235562   3.189   0.619  11.441  1.5068 -0.4676  1.9039
 8035SOL     OW35563   1.195   4.030   5.583  0.0762 -0.0453 -0.0052
 8035SOL    HW135564   1.289   4.037   5.570  0.3663 -2.6704  0.6272
 8035SOL    HW235565   1.167   4.105   5.530 -4.6731 -1.3049  0.6711
 8036SOL     OW35566   3.107   0.671  11.187 -0.1177 -0.3308 -0.3675
 8036SOL    HW135567   3.176   0.685  11.123 -0.9914  0.6043 -1.1092
 8036SOL    HW235568   3.140   0.693  11.275  0.6593 -3.0211  0.0100
 8037SOL     OW35569   1.785   4.487   2.306 -0.7626  0.2832 -0.3397
 8037SOL    HW135570   1.841   4.551   2.262 -2.0146  0.0426 -2.3083
 8037SOL    HW235571   1.739   4.439   2.237 -0.8371  0.7901 -0.6417
 8038SOL     OW35572   0.694   2.043   4.097  0.0777  0.1840  0.5641
 8038SOL    HW135573   0.779   2.000   4.097  0.0284  0.0798 -1.0095
 8038SOL    HW235574   0.633   1.974   4.124 -1.0011  0.5274 -0.9563
 8039SOL     OW35575   2.991   3.978   5.580  0.2493  0.3203  0.2323
 8039SOL    HW135576   2.976   3.940   5.493  2.3750 -0.2804  0.1486
 8039SOL    HW235577   2.938   4.058   5.574  0.0470  0.0974 -0.9122
 8040SOL     OW35578   1.693   1.564   2.461 -0.3199 -0.3457  0.5492
 8040SOL    HW135579   1.731   1.650   2.478  0.2986 -0.6492  0.6872
 8040SOL    HW235580   1.647   1.571   2.377 -1.3665 -1.4605  1.0352
 8041SOL     OW35581   0.391   3.417   0.157  0.4741 -0.0386 -0.0773
 8041SOL    HW135582   0.384   3.482   0.087  0.8837  0.7934  0.6567
 8041SOL    HW235583   0.405   3.344   0.097 -1.7248 -1.0452  0.6501
 8042SOL     OW35584   2.147   0.140   4.026 -0.0972 -0.2941  0.3401
 8042SOL    HW135585   2.106   0.209   3.974  0.1266 -1.5869 -1.5471
 8042SOL    HW235586   2.119   0.068   3.969 -0.0887  0.8389 -1.0935
 8043SOL     OW35587   2.190   0.236   6.311  0.2945  0.8546 -0.4169
 8043SOL    HW135588   2.113   0.232   6.254 -0.3226 -0.8103  0.5453
 8043SOL    HW235589   2.254   0.177   6.270  1.7773  2.2882 -0.1641
 8044SOL     OW35590   2.435   4.400  13.081  0.3950  0.4118 -0.6228
 8044SOL    HW135591   2.378   4.407  13.004 -0.2814 -0.3983 -0.1991
 8044SOL    HW235592   2.521   4.436  13.059  0.0303  3.1408  2.4074
 8045SOL     OW35593   3.366   0.746   8.708 -0.1489  0.0901  0.1351
 8045SOL    HW135594   3.448   0.784   8.678  0.3531  1.1426  2.8461
 8045SOL    HW235595   3.383   0.652   8.698 -0.4804  0.0103  0.3097
 8046SOL     OW35596   0.486   1.626   3.188  0.8546  0.6323  0.2766
 8046SOL    HW135597   0.460   1.606   3.278 -3.2214  0.0546 -1.0081
 8046SOL    HW235598   0.437   1.708   3.176  0.7636  0.8670  2.1854
 8047SOL     OW35599   2.488   0.821   2.479  0.5070 -0.1708  0.2934
 8047SOL    HW135600   2.541   0.853   2.551  0.2127 -0.9043  0.8306
 8047SOL    HW235601   2.406   0.869   2.487 -0.4083 -2.0711  2.1392
 8048SOL     OW35602   0.161   3.687   4.153  0.5391  0.7842 -0.2054
 8048SOL    HW135603   0.068   3.675   4.133  0.4286  3.0492 -0.9788
 8048SOL    HW235604   0.178   3.781   4.151  0.1496  0.8868  1.0635
 8049SOL     OW35605   1.121   3.757  14.301 -0.2059 -0.2944 -0.2092
 8049SOL    HW135606   1.145   3.814  14.228  0.8174 -1.4032 -0.7278
 8049SOL    HW235607   1.189   3.690  14.301  0.0210 -0.0609  1.5321
 8050SOL     OW35608   2.379   0.126  10.792  0.0325 -0.8655 -0.4343
 8050SOL    HW135609   2.351   0.053  10.736 -0.3417 -0.1545 -1.1706
 8050SOL    HW235610   2.302   0.122  10.847  0.9275  0.9138  0.9475
 8051SOL     OW35611   4.667   0.016  12.817  0.0822 -0.1758 -0.3450
 8051SOL    HW135612   0.032   0.041  12.845 -0.3173  0.0332  0.7042
 8051SOL    HW235613   4.624   0.080  12.873  1.1518 -0.5692  0.9076
 8052SOL     OW35614   4.279   4.617  15.975  0.2412  0.0679  0.1892
 8052SOL    HW135615   4.290   4.602  15.881  0.2383 -1.7190  0.4705
 8052SOL    HW235616   4.261   4.711  15.971  0.2874  0.0567 -0.2922
 8053SOL     OW35617   0.129   4.376   5.235 -0.2053  0.2893 -0.4344
 8053SOL    HW135618   0.190   4.303   5.239  1.4088  1.6499  0.2384
 8053SOL    HW235619   0.066   4.351   5.168  1.2417  0.2257 -1.7899
 8054SOL     OW35620   4.424   0.768   1.862 -0.4160  0.0021  0.1817
 8054SOL    HW135621   4.402   0.843   1.917  1.3494  0.7896 -0.1938
 8054SOL    HW235622   4.387   0.806   1.783 -0.2847  1.2538  0.7255
 8055SOL     OW35623   2.770   4.359   3.175 -0.1965 -0.3055  0.1285
 8055SOL    HW135624   2.781   4.367   3.080 -0.3051  3.7280  0.4408
 8055SOL    HW235625   2.675   4.360   3.187  0.0327  2.2815  1.6556
 8056SOL     OW35626   0.083   3.957   4.930 -0.3233  0.1340 -0.6310
 8056SOL    HW135627   0.025   3.948   4.854  0.3061  0.1013 -1.1035
 8056SOL    HW235628   0.086   4.052   4.917  0.7866  0.3989  1.5529
 8057SOL     OW35629   1.514   0.623   0.632 -0.5327 -0.3959 -0.5287
 8057SOL    HW135630   1.418   0.621   0.639 -0.5679  1.7784 -0.4471
 8057SOL    HW235631   1.527   0.684   0.560 -2.9559  0.5138 -0.1995
 8058SOL     OW35632   0.701   1.011   3.540  0.1484 -0.1272  0.1272
 8058SOL    HW135633   0.608   0.987   3.542 -0.2144  1.2196 -0.6408
 8058SOL    HW235634   0.726   1.001   3.449  1.0313 -0.9617  0.4593
 8059SOL     OW35635   2.477   0.556   8.500  0.4196 -0.6513 -0.5030
 8059SOL    HW135636   2.464   0.650   8.488  1.4306  0.0489  4.0168
 8059SOL    HW235637   2.451   0.529   8.412 -0.1565  0.4230 -0.6713
 8060SOL     OW35638   1.123   2.419   3.517  0.2020 -0.4529 -0.1473
 8060SOL    HW135639   1.066   2.351   3.483 -0.7198  1.1399 -1.7877
 8060SOL    HW235640   1.077   2.494   3.480 -1.4964 -0.1614  2.5656
 8061SOL     OW35641   0.008   4.452   8.378  0.0501 -0.2098  0.4910
 8061SOL    HW135642   0.002   4.374   8.324  1.3640  1.1350 -1.5718
 8061SOL    HW235643   0.096   4.479   8.355 -0.5534  1.8067  0.5486
 8062SOL     OW35644   0.104   0.581   1.844  0.0812  0.0870 -0.9241
 8062SOL    HW135645   0.092   0.644   1.773  0.3342  0.1489 -0.9117
 8062SOL    HW235646   0.015   0.593   1.878  1.7831  1.1512  3.1656
 8063SOL     OW35647   2.601   0.351   0.984  0.0442 -0.1307  0.1526
 8063SOL    HW135648   2.576   0.268   1.024  2.6549 -0.3441  1.3236
 8063SOL    HW235649   2.534   0.359   0.916 -0.1651  0.2319  0.4028
 8064SOL     OW35650   1.987   0.586   4.556  0.0333  0.3802 -0.1839
 8064SOL    HW135651   2.028   0.513   4.604 -0.1492  0.2871 -0.1704
 8064SOL    HW235652   1.971   0.645   4.630  0.8664  1.4331 -0.8550
 8065SOL     OW35653   1.133   3.312  17.071 -0.3108  0.1456 -0.9847
 8065SOL    HW135654   1.135   3.223  17.037 -1.1028 -0.1109 -0.3441
 8065SOL    HW235655   1.199   3.356  17.017  1.1732 -0.7485  0.1018
 8066SOL     OW35656   1.740   2.818   2.012  0.1121  0.5082 -0.2019
 8066SOL    HW135657   1.752   2.750   1.946  0.6660 -0.0478  0.4733
 8066SOL    HW235658   1.682   2.771   2.073  0.7464  1.5824  1.2257
 8067SOL     OW35659   4.385   3.996  10.928  0.6500 -0.1398  0.3255
 8067SOL    HW135660   4.315   3.985  10.864  2.0024 -0.2219 -1.1269
 8067SOL    HW235661   4.420   4.079  10.896  0.8800 -0.3077  0.1459
 8068SOL     OW35662   1.668   4.137   9.332  0.4373 -0.1269  0.2724
 8068SOL    HW135663   1.672   4.156   9.425 -0.3117 -1.3956  0.5665
 8068SOL    HW235664   1.674   4.043   9.317 -0.3355 -0.4872  2.2401
 8069SOL     OW35665   2.925   3.974   6.503  0.3257  0.2835  0.3976
 8069SOL    HW135666   2.965   4.049   6.547 -0.9799  0.5295  1.1544
 8069SOL    HW235667   2.863   3.946   6.570 -0.4199 -0.9675 -0.8346
 8070SOL     OW35668   2.606   2.458   0.042 -0.1817  0.1073  0.1384
 8070SOL    HW135669   2.597   2.363   0.038  2.5722 -0.1443 -0.0253
 8070SOL    HW235670   2.550   2.480   0.117 -2.0188 -2.7726 -0.4192
 8071SOL     OW35671   0.842   1.303   7.298 -0.4204 -0.0728  0.0583
 8071SOL    HW135672   0.775   1.307   7.230 -1.0130 -0.9064  0.5955
 8071SOL    HW235673   0.785   1.304   7.374  0.3545 -0.7415  0.6433
 8072SOL     OW35674   3.331   1.740   6.838  0.3471 -0.0686  0.2641
 8072SOL    HW135675   3.261   1.726   6.775  1.0112 -1.4105 -0.1895
 8072SOL    HW235676   3.367   1.824   6.808  1.4741 -0.9160 -0.7339
 8073SOL     OW35677   0.220   3.980   4.176  0.2113  0.2112  0.4116
 8073SOL    HW135678   0.240   4.006   4.266  1.5766 -1.2948  0.5594
 8073SOL    HW235679   0.183   4.062   4.145 -0.1946 -0.2429 -0.2855
 8074SOL     OW35680   0.483   1.950  15.813 -0.9775  0.3723 -0.0037
 8074SOL    HW135681   0.541   1.878  15.789 -0.5872  1.3814 -2.0714
 8074SOL    HW235682   0.543   2.012  15.854 -0.1418 -0.5566  0.1760
 8075SOL     OW35683   0.845   1.554  13.523 -0.0657  0.3352  0.2794
 8075SOL    HW135684   0.865   1.621  13.458 -1.5309 -1.0082 -1.5396
 8075SOL    HW235685   0.895   1.484  13.482 -1.3012 -0.2721 -0.1801
 8076SOL     OW35686   0.542   1.784  11.697 -0.4547  0.2890  0.1483
 8076SOL    HW135687   0.600   1.709  11.685  0.1114  0.5359  1.2973
 8076SOL    HW235688   0.516   1.812  11.610  3.0590  0.1852 -0.9091
 8077SOL     OW35689   2.293   3.926  11.463 -0.3466 -0.1677 -0.2388
 8077SOL    HW135690   2.240   3.964  11.393 -0.6157  0.9049  0.5464
 8077SOL    HW235691   2.372   3.981  11.455 -0.8349  0.3851 -1.3287
 8078SOL     OW35692   0.838   0.796  15.165 -0.3713 -0.0721  0.4200
 8078SOL    HW135693   0.873   0.873  15.120  0.2939 -0.4258  0.3302
 8078SOL    HW235694   0.835   0.834  15.252 -1.4342  2.2165 -0.6050
 8079SOL     OW35695   2.872   4.394   5.172 -0.2635  0.0279  0.1057
 8079SOL    HW135696   2.791   4.445   5.185  1.3207  1.9996  2.4250
 8079SOL    HW235697   2.875   4.378   5.078 -1.6399 -0.0710  0.0783
 8080SOL     OW35698   1.180   0.444   4.777 -0.0707  0.5554 -0.2820
 8080SOL    HW135699   1.181   0.499   4.699  0.1362  1.4690  0.3579
 8080SOL    HW235700   1.271   0.417   4.785 -0.6725 -0.9095  1.6816
 8081SOL     OW35701   3.517   3.435   2.217 -0.4558  0.1689  0.4669
 8081SOL    HW135702   3.506   3.528   2.196 -0.3876 -0.3318 -1.7822
 8081SOL    HW235703   3.610   3.414   2.204 -0.9200 -1.3392 -0.4897
 8082SOL     OW35704   2.821   4.109  11.623 -0.8640  0.2978 -0.4579
 8082SOL    HW135705   2.914   4.100  11.604 -0.7255 -0.3437  0.5286
 8082SOL    HW235706   2.801   4.021  11.653 -0.6451  0.5287  0.3766
 8083SOL     OW35707   3.719   2.673  14.339  0.0499 -0.0994  0.2656
 8083SOL    HW135708   3.757   2.757  14.315  0.7042 -0.8015 -1.1983
 8083SOL    HW235709   3.770   2.612  14.285 -0.3413 -0.1075 -0.1016
 8084SOL     OW35710   2.271   0.999   2.037 -0.1489  0.3164  0.1474
 8084SOL    HW135711   2.218   0.921   2.053 -0.6454  0.5648 -0.2906
 8084SOL    HW235712   2.253   1.056   2.113  0.3638  0.9707 -0.2214
 8085SOL     OW35713   1.613   1.042   8.045 -0.0942  0.2675 -0.4456
 8085SOL    HW135714   1.569   0.958   8.035 -1.1736  0.7444  0.2026
 8085SOL    HW235715   1.539   1.103   8.044 -1.7746 -1.8564 -2.6399
 8086SOL     OW35716   1.248   2.469   3.793 -0.0343 -0.0148  0.2385
 8086SOL    HW135717   1.162   2.493   3.829 -0.0769 -1.2182  0.9644
 8086SOL    HW235718   1.218   2.450   3.704  1.1897  3.0183 -0.7830
 8087SOL     OW35719   0.841   4.489   5.340 -0.0251 -0.2301 -0.4122
 8087SOL    HW135720   0.762   4.539   5.319  0.1069  0.5154  0.9132
 8087SOL    HW235721   0.814   4.428   5.408  2.9981  1.2116  2.0812
 8088SOL     OW35722   2.554   3.378  10.218 -0.3563  0.2287  0.0830
 8088SOL    HW135723   2.617   3.372  10.290 -0.1125  1.1530 -0.0563
 8088SOL    HW235724   2.618   3.428  10.167 -0.7841 -0.1671 -0.8326
 8089SOL     OW35725   1.005   2.437   5.102 -0.4053  0.3090  0.4909
 8089SOL    HW135726   0.926   2.387   5.124  0.5542 -1.3633  0.1280
 8089SOL    HW235727   1.077   2.382   5.131 -0.4935  0.9396  1.8827
 8090SOL     OW35728   0.338   1.091   5.328  0.4241 -0.0082  0.6211
 8090SOL    HW135729   0.307   1.026   5.391 -1.5420 -1.5839 -1.9668
 8090SOL    HW235730   0.269   1.074   5.263  1.5935 -1.9366 -0.1246
 8091SOL     OW35731   3.958   4.447  17.313 -0.1665 -0.0382  0.4631
 8091SOL    HW135732   3.993   4.521  17.362  1.3282 -1.2839  1.2683
 8091SOL    HW235733   3.948   4.494  17.230  1.1890  1.3644  1.1004
 8092SOL     OW35734   3.090   2.314   4.214 -0.0473  0.1216 -0.3702
 8092SOL    HW135735   3.134   2.229   4.220 -0.1702  0.2633  2.5682
 8092SOL    HW235736   3.096   2.316   4.118 -3.2105  0.6862 -0.5651
 8093SOL     OW35737   4.591   4.355  11.636 -0.7000 -0.0939 -0.5010
 8093SOL    HW135738   4.562   4.333  11.548 -0.4485 -0.5341 -0.4709
 8093SOL    HW235739   4.684   4.335  11.642 -0.7374  0.6590  3.1042
 8094SOL     OW35740   2.943   3.704  12.550  0.2521  0.1183  0.5052
 8094SOL    HW135741   3.038   3.706  12.558  0.1239  1.3067  1.9159
 8094SOL    HW235742   2.915   3.657  12.629 -0.8402 -0.6420 -0.3356
 8095SOL     OW35743   3.001   1.293   1.460 -0.1154  0.7213 -0.4585
 8095SOL    HW135744   3.034   1.354   1.526 -0.2087  0.1428  0.1222
 8095SOL    HW235745   2.907   1.300   1.478 -0.6832 -2.6818 -1.9908
 8096SOL     OW35746   2.684   3.304  11.358 -0.1533 -0.2973 -0.0732
 8096SOL    HW135747   2.614   3.314  11.293  1.4092  0.8850 -1.5749
 8096SOL    HW235748   2.682   3.389  11.404  3.8979 -0.2048 -0.0359
 8097SOL     OW35749   0.423   4.715   7.131  0.5363  0.3617  0.1350
 8097SOL    HW135750   0.385   4.630   7.152 -1.9880  1.2336 -0.8528
 8097SOL    HW235751   0.515   4.700   7.151  0.5401 -0.7812 -0.7208
 8098SOL     OW35752   2.882   3.221   2.452 -0.3691  0.1490  0.0330
 8098SOL    HW135753   2.819   3.257   2.515  0.1101  3.2275 -1.2439
 8098SOL    HW235754   2.829   3.161   2.399  0.8546 -1.6938  0.9103
 8099SOL     OW35755   3.496   2.748   7.011  0.0231  0.3187  0.1233
 8099SOL    HW135756   3.419   2.801   6.995 -0.2482 -0.3183 -0.6686
 8099SOL    HW235757   3.514   2.768   7.103 -0.6214  0.9784  0.1024
 8100SOL     OW35758   0.411   3.753   4.305 -0.3735 -0.0680  0.1728
 8100SOL    HW135759   0.367   3.787   4.382 -0.5224  1.7119 -0.6887
 8100SOL    HW235760   0.340   3.735   4.243  2.5174 -3.2032 -2.3052
 8101SOL     OW35761   0.271   2.272   6.634 -0.3302  0.2901 -0.2928
 8101SOL    HW135762   0.264   2.233   6.547  1.7532 -1.8706  0.4944
 8101SOL    HW235763   0.362   2.295   6.622 -0.6027  0.6620 -1.5971
 8102SOL     OW35764   0.672   4.541   4.032  0.0727  0.4467  0.2306
 8102SOL    HW135765   0.708   4.581   4.111  2.9868 -0.1805 -0.7815
 8102SOL    HW235766   0.670   4.609   3.966 -2.7553 -0.3572 -0.5043
 8103SOL     OW35767   3.233   1.713   5.657 -0.6408 -0.0883  0.4998
 8103SOL    HW135768   3.283   1.793   5.675  1.2688 -1.4097  1.0933
 8103SOL    HW235769   3.152   1.759   5.635 -0.5976  0.1971  0.9400
 8104SOL     OW35770   0.094   2.804   3.513  0.7808  0.0347 -0.2289
 8104SOL    HW135771   0.176   2.760   3.490  0.2949 -0.9739 -0.0370
 8104SOL    HW235772   0.047   2.728   3.548 -0.7329  0.8195 -0.5622
 8105SOL     OW35773   1.720   0.485  10.184  0.0693 -0.1841  0.0715
 8105SOL    HW135774   1.750   0.402  10.147 -2.7518 -1.5990  0.9860
 8105SOL    HW235775   1.701   0.449  10.271 -2.9005 -0.1579 -0.5868
 8106SOL     OW35776   4.458   4.507   9.145 -0.8022 -0.1819 -0.2932
 8106SOL    HW135777   4.497   4.445   9.206 -2.2243 -0.4777  0.3083
 8106SOL    HW235778   4.521   4.578   9.129 -0.9156 -0.4407 -1.8467
 8107SOL     OW35779   2.286   3.198   1.707 -0.2669 -0.2632  0.5699
 8107SOL    HW135780   2.237   3.278   1.723  0.8430  0.3338  0.9974
 8107SOL    HW235781   2.376   3.223   1.685 -0.2402 -1.1211 -0.2836
 8108SOL     OW35782   4.448   1.650   8.708 -0.4244  0.0567 -0.0212
 8108SOL    HW135783   4.463   1.605   8.791 -0.5604  1.5752  0.8204
 8108SOL    HW235784   4.363   1.618   8.679 -1.8452  1.8952  2.1494
 8109SOL     OW35785   0.187   4.578   5.033  0.0305  0.6386  0.3147
 8109SOL    HW135786   0.207   4.500   5.083 -0.3824  0.3241 -0.0132
 8109SOL    HW235787   0.115   4.613   5.086 -0.5618  0.4112 -0.3271
 8110SOL     OW35788   1.852   2.973  11.818 -0.4373 -0.2299 -0.4601
 8110SOL    HW135789   1.879   2.959  11.727  0.3071 -0.8416 -0.1428
 8110SOL    HW235790   1.797   3.051  11.805 -2.7577 -2.0786 -1.8414
 8111SOL     OW35791   1.724   1.613   3.786 -0.0210  0.0455  0.2572
 8111SOL    HW135792   1.673   1.691   3.810 -1.8995 -1.2482  0.4141
 8111SOL    HW235793   1.802   1.657   3.752  1.1584 -0.4975  2.2573
 8112SOL     OW35794   3.203   0.845  14.186 -0.6564  0.0081 -0.0196
 8112SOL    HW135795   3.203   0.898  14.106  1.0573  1.7139  1.1036
 8112SOL    HW235796   3.209   0.904  14.261  0.1260  0.3087 -0.3112
 8113SOL     OW35797   2.642   2.173  13.600 -0.4411  0.4536 -0.3989
 8113SOL    HW135798   2.578   2.167  13.671 -0.2726  1.2004 -0.1860
 8113SOL    HW235799   2.724   2.186  13.647 -1.2552  1.7662  0.6375
 8114SOL     OW35800   1.028   2.776   2.553  0.2532 -0.8843  0.1381
 8114SOL    HW135801   1.104   2.756   2.498  0.7791  1.7547 -0.0910
 8114SOL    HW235802   0.962   2.767   2.484 -0.6101  0.1747  0.8362
 8115SOL     OW35803   3.161   1.615   4.673 -0.0370 -0.3565  0.4784
 8115SOL    HW135804   3.134   1.529   4.708  0.0430  0.5406  2.7304
 8115SOL    HW235805   3.097   1.667   4.722  1.6379  1.6460  0.5070
 8116SOL     OW35806   4.450   0.612  14.815 -0.2457 -0.2806 -0.0590
 8116SOL    HW135807   4.496   0.618  14.899 -0.0281 -2.3641 -0.0266
 8116SOL    HW235808   4.373   0.570  14.855  0.1349 -1.0990 -0.1806
 8117SOL     OW35809   1.530   3.119   3.339 -0.3769  0.0877  1.0039
 8117SOL    HW135810   1.489   3.205   3.350  1.1850  0.8256  1.0540
 8117SOL    HW235811   1.569   3.111   3.426  0.3731  0.0932  0.6718
 8118SOL     OW35812   3.537   1.825   4.218  0.1697 -0.0834  0.2262
 8118SOL    HW135813   3.614   1.872   4.250  2.1121 -2.8237 -0.3415
 8118SOL    HW235814   3.489   1.897   4.177  2.0006 -0.0742 -1.9215
 8119SOL     OW35815   0.035   3.052   1.878  0.2192 -0.3891 -0.3215
 8119SOL    HW135816   0.124   3.063   1.845  0.5855  1.2421  1.2526
 8119SOL    HW235817   0.015   2.985   1.812  0.5264 -0.8836  0.0894
 8120SOL     OW35818   3.268   4.596  12.384 -0.3476  0.1472  1.2687
 8120SOL    HW135819   3.332   4.566  12.320 -2.5466 -0.0440 -0.8230
 8120SOL    HW235820   3.207   4.528  12.358  1.7474 -0.6174 -1.5560
 8121SOL     OW35821   3.944   1.509   7.921  1.1709 -0.1500  0.2078
 8121SOL    HW135822   3.957   1.473   7.834 -0.2932  0.4035 -0.2462
 8121SOL    HW235823   3.855   1.544   7.911  0.5101 -1.6497  0.9088
 8122SOL     OW35824   1.618   2.535   3.484  0.2518  0.0915 -0.6433
 8122SOL    HW135825   1.546   2.475   3.506  0.7113  0.2041  1.1594
 8122SOL    HW235826   1.586   2.568   3.400 -0.6863 -2.2014 -1.1929
 8123SOL     OW35827   0.205   1.317   3.926  0.6615  0.2113 -0.5305
 8123SOL    HW135828   0.180   1.370   4.001  0.4638 -0.0238 -0.4326
 8123SOL    HW235829   0.115   1.307   3.892 -0.4315 -0.3353  2.5781
 8124SOL     OW35830   1.322   2.282  11.004 -0.8457 -0.2554  0.2327
 8124SOL    HW135831   1.394   2.307  11.062  0.9766 -0.0952 -2.0923
 8124SOL    HW235832   1.366   2.270  10.920 -0.9928  1.6663 -0.1175
 8125SOL     OW35833   3.489   4.084   3.372  0.1573 -0.2049 -0.0538
 8125SOL    HW135834   3.514   4.070   3.281 -0.8834  0.0806 -0.3800
 8125SOL    HW235835   3.476   3.989   3.379  1.3033 -0.2135  1.9445
 8126SOL     OW35836   0.290   0.306   7.819  0.2228  0.1134  0.1468
 8126SOL    HW135837   0.198   0.297   7.842  0.8715  0.5635  2.9302
 8126SOL    HW235838   0.305   0.212   7.819  1.3950  0.2968 -0.8207
 8127SOL     OW35839   1.451   0.479   5.023  0.6774 -0.2846  1.0002
 8127SOL    HW135840   1.418   0.441   5.105 -1.4613  1.0768  0.7918
 8127SOL    HW235841   1.418   0.569   5.023 -0.1193 -0.5783 -1.6936
 8128SOL     OW35842   0.967   2.495   8.230  0.1601 -0.0278  0.1431
 8128SOL    HW135843   1.051   2.454   8.253  0.7946  0.1338 -1.9595
 8128SOL    HW235844   0.918   2.471   8.309  2.0171 -1.4403  0.8675
 8129SOL     OW35845   2.454   2.763   2.695 -1.0559 -0.4830  0.0628
 8129SOL    HW135846   2.470   2.854   2.671  1.0271 -0.7247  0.4628
 8129SOL    HW235847   2.375   2.751   2.643 -0.2492  0.5372 -1.3930
 8130SOL     OW35848   4.153   3.629   4.941 -0.3971 -0.2837 -0.3987
 8130SOL    HW135849   4.169   3.600   5.031  0.8514  1.2660 -0.1258
 8130SOL    HW235850   4.156   3.724   4.952  0.5772 -0.2957 -0.5305
 8131SOL     OW35851   4.561   0.934   9.487 -0.0331  0.8074  0.1647
 8131SOL    HW135852   4.642   0.908   9.445 -0.2276  1.2152 -0.4569
 8131SOL    HW235853   4.505   0.866   9.450 -2.0260  2.6404 -0.1825
 8132SOL     OW35854   0.000   3.934   9.004  0.5978  0.2077 -0.0334
 8132SOL    HW135855   0.022   4.025   9.026  4.3211 -0.2187 -1.8920
 8132SOL    HW235856   4.640   3.921   9.049  0.0120  0.1606 -1.1393
 8133SOL     OW35857   3.384   2.701   8.335  0.1115 -0.6301 -0.2509
 8133SOL    HW135858   3.458   2.761   8.326 -0.0748 -0.7393 -2.4650
 8133SOL    HW235859   3.347   2.701   8.423  1.0093 -0.2111  0.1258
 8134SOL     OW35860   1.253   3.397   7.764  0.9050 -0.5732  0.7391
 8134SOL    HW135861   1.280   3.313   7.726  1.7481  1.3446 -2.8741
 8134SOL    HW235862   1.308   3.409   7.842  1.3076  2.3748  0.0010
 8135SOL     OW35863   1.630   0.283  15.263  0.2122  0.0543 -0.1314
 8135SOL    HW135864   1.603   0.218  15.328 -1.9468  1.0613 -0.0137
 8135SOL    HW235865   1.538   0.290  15.238  0.4679 -2.1518 -1.7160
 8136SOL     OW35866   2.916   1.778  15.829 -0.0295 -0.1152 -0.4344
 8136SOL    HW135867   2.841   1.828  15.862  0.6493  1.0292 -0.6347
 8136SOL    HW235868   2.870   1.711  15.778 -0.1277 -1.0013  0.8202
 8137SOL     OW35869   3.578   0.834  15.912 -0.5077  0.0569  0.1610
 8137SOL    HW135870   3.520   0.762  15.937 -1.2117  0.8482  0.8293
 8137SOL    HW235871   3.641   0.788  15.857  0.0545  1.4739 -0.3717
 8138SOL     OW35872   1.350   0.677  16.471  0.5352 -0.0657  0.2224
 8138SOL    HW135873   1.446   0.681  16.473  0.4123  3.0126 -0.8037
 8138SOL    HW235874   1.331   0.726  16.391  0.0439 -1.4705 -0.5152
 8139SOL     OW35875   0.192   4.529   6.723 -0.7281 -0.2409 -0.0212
 8139SOL    HW135876   0.279   4.556   6.754  0.1075 -2.6697 -0.2479
 8139SOL    HW235877   0.218   4.488   6.640  0.4348 -0.6213  0.5344
 8140SOL     OW35878   2.263   4.326  12.495 -0.2106 -0.0239  0.3002
 8140SOL    HW135879   2.209   4.275  12.434  0.2756 -0.3274  0.1249
 8140SOL    HW235880   2.206   4.335  12.571 -0.7318  2.5218 -0.3667
 8141SOL     OW35881   3.207   4.462  16.361 -0.4864 -0.2838  0.2365
 8141SOL    HW135882   3.160   4.468  16.278  0.6697  1.7524 -0.2830
 8141SOL    HW235883   3.238   4.549  16.386  1.0638 -1.0632  0.9768
 8142SOL     OW35884   3.828   2.446   7.665  0.3779  0.0054 -0.4976
 8142SOL    HW135885   3.869   2.532   7.669  1.7750 -0.6497 -0.6755
 8142SOL    HW235886   3.788   2.434   7.579 -0.3446 -0.7925 -0.0570
 8143SOL     OW35887   0.925   3.401  13.700  0.7052 -0.0285  0.0269
 8143SOL    HW135888   1.017   3.426  13.691  0.6453  0.1969  0.0370
 8143SOL    HW235889   0.878   3.451  13.633 -0.5315  0.7645  1.5006
 8144SOL     OW35890   1.720   2.104   3.069  0.1629  0.3744 -0.0398
 8144SOL    HW135891   1.741   2.029   3.124  0.2662  1.0702  0.8543
 8144SOL    HW235892   1.626   2.101   3.087  0.2034  1.3976  0.3396
 8145SOL     OW35893   3.367   4.019   1.998  0.0818 -0.2160  0.2028
 8145SOL    HW135894   3.449   3.974   1.976 -0.7203 -0.9580 -1.2502
 8145SOL    HW235895   3.375   4.015   2.094 -2.6384  2.0822  0.5446
 8146SOL     OW35896   3.525   0.295   7.119 -0.5110  0.2299  0.3140
 8146SOL    HW135897   3.596   0.318   7.179 -1.7629  0.0898  1.8508
 8146SOL    HW235898   3.581   0.249   7.057 -1.2566  0.4755 -0.5219
 8147SOL     OW35899   3.056   2.609  14.863  0.2639 -0.1162 -0.0704
 8147SOL    HW135900   2.990   2.547  14.831 -0.8190  0.7490  0.4824
 8147SOL    HW235901   3.051   2.680  14.799 -0.5168  2.3234  2.6921
 8148SOL     OW35902   1.513   4.547  10.150  0.3726 -0.7810  0.3013
 8148SOL    HW135903   1.587   4.510  10.101 -0.9691 -1.4023 -1.2279
 8148SOL    HW235904   1.439   4.522  10.095  2.9862 -0.3010 -3.4642
 8149SOL     OW35905   4.543   2.595   1.945 -0.3544 -0.1291 -0.2318
 8149SOL    HW135906   4.560   2.581   2.038  0.0717 -0.4246 -0.3529
 8149SOL    HW235907   4.576   2.509   1.919  0.7276  0.0714  0.4722
 8150SOL     OW35908   4.109   4.433   8.399 -0.6509 -0.0252  0.3413
 8150SOL    HW135909   4.158   4.514   8.383 -1.4196 -0.2004 -2.9736
 8150SOL    HW235910   4.133   4.410   8.489  0.7196 -3.5945 -0.9515
 8151SOL     OW35911   1.705   2.592   5.473 -0.5641 -0.5410 -0.1645
 8151SOL    HW135912   1.649   2.657   5.514 -0.0678 -0.6183  0.6367
 8151SOL    HW235913   1.733   2.534   5.545 -1.3061  0.5291  0.9899
 8152SOL     OW35914   2.864   0.481  14.111 -0.4375 -0.1468 -0.2081
 8152SOL    HW135915   2.819   0.545  14.055  0.6025  0.6724 -0.1026
 8152SOL    HW235916   2.926   0.537  14.157 -0.7713 -1.3042  1.6285
 8153SOL     OW35917   2.130   2.751   7.532 -0.2371  0.5506  1.0753
 8153SOL    HW135918   2.097   2.813   7.598  0.4579  2.1510 -0.0647
 8153SOL    HW235919   2.154   2.674   7.583 -0.2857  0.2953  0.7065
 8154SOL     OW35920   0.807   3.521   7.710  0.5295 -0.2896  1.1170
 8154SOL    HW135921   0.758   3.508   7.791 -1.8184  0.9729 -0.0769
 8154SOL    HW235922   0.867   3.447   7.720  2.4447  1.1563  0.3336
 8155SOL     OW35923   1.477   4.242   7.361  0.1089  0.5344 -0.3516
 8155SOL    HW135924   1.555   4.267   7.411 -0.9143 -1.4338  2.2216
 8155SOL    HW235925   1.516   4.246   7.274  1.8726 -1.1961  0.3387
 8156SOL     OW35926   0.477   1.615   2.513  0.3789 -0.0491 -0.2805
 8156SOL    HW135927   0.477   1.538   2.570  0.5722 -0.7378 -1.2003
 8156SOL    HW235928   0.447   1.579   2.429 -0.8877  2.2628 -0.8111
 8157SOL     OW35929   4.712   2.070   2.644 -0.7152 -0.3254  0.1000
 8157SOL    HW135930   4.640   2.020   2.683  0.2444 -1.4965  0.3626
 8157SOL    HW235931   0.026   2.008   2.581  0.3032  0.3658  0.0070
 8158SOL     OW35932   2.463   4.652   9.481 -0.0446 -0.1917 -0.2247
 8158SOL    HW135933   2.525   4.695   9.422 -0.6447  0.3154 -0.4798
 8158SOL    HW235934   2.413   4.585   9.436 -0.0966 -0.8081  0.7388
 8159SOL     OW35935   3.607   0.139   6.288 -0.6019 -0.3230  0.1451
 8159SOL    HW135936   3.529   0.174   6.244 -0.5608 -1.3497 -0.7386
 8159SOL    HW235937   3.668   0.151   6.216 -2.3252  3.2979 -0.7406
 8160SOL     OW35938   4.129   2.082   4.338 -0.2087 -0.2274  0.0738
 8160SOL    HW135939   4.178   2.069   4.419  1.6954  0.9782 -0.8632
 8160SOL    HW235940   4.181   2.032   4.275 -0.0276  1.8728 -1.4488
 8161SOL     OW35941   3.726   0.519   7.004 -1.0813  0.8001  0.4587
 8161SOL    HW135942   3.665   0.472   7.062 -0.6468  1.5933  1.5448
 8161SOL    HW235943   3.806   0.499   7.052 -1.3610  0.3474  0.7433
 8162SOL     OW35944   3.686   1.764   2.746  0.1329  0.0877 -0.0251
 8162SOL    HW135945   3.655   1.855   2.752 -1.3032 -0.3781 -0.3081
 8162SOL    HW235946   3.641   1.726   2.670 -0.9535  0.1368  0.6037
 8163SOL     OW35947   2.269   2.133   0.637  0.3926  0.5787 -0.0543
 8163SOL    HW135948   2.211   2.079   0.583  0.2921 -0.1170  0.7416
 8163SOL    HW235949   2.326   2.061   0.665 -0.9266 -0.3228  0.3141
 8164SOL     OW35950   3.550   1.258   8.615 -0.4422  0.0501  0.0520
 8164SOL    HW135951   3.513   1.172   8.637 -1.3037  0.2615 -0.5593
 8164SOL    HW235952   3.480   1.299   8.564 -0.8668  1.1054  1.4791
 8165SOL     OW35953   2.003   3.748  15.631 -0.6297 -0.1992 -0.2088
 8165SOL    HW135954   2.042   3.683  15.689 -2.4094 -1.2900 -0.2204
 8165SOL    HW235955   2.084   3.788  15.599  1.2689 -2.2007  2.1028
 8166SOL     OW35956   3.767   2.999   6.898 -0.0957 -0.2313  0.0121
 8166SOL    HW135957   3.832   3.047   6.847 -1.2511  0.5228 -0.7363
 8166SOL    HW235958   3.826   2.953   6.957 -2.5625 -4.6383 -0.9840
 8167SOL     OW35959   2.742   1.595  10.518 -0.0365 -0.5341  0.1902
 8167SOL    HW135960   2.775   1.666  10.573  1.0059 -0.1641 -0.9158
 8167SOL    HW235961   2.821   1.554  10.483 -0.0504 -0.0523 -0.3934
 8168SOL     OW35962   2.060   4.176  14.627  0.1195 -0.1764 -0.0454
 8168SOL    HW135963   2.039   4.246  14.689 -1.8484  0.8022 -1.8275
 8168SOL    HW235964   1.984   4.117  14.630 -0.6250  0.7588 -0.5519
 8169SOL     OW35965   1.060   1.560   5.296  0.0174  0.6912  0.6274
 8169SOL    HW135966   1.002   1.589   5.366  0.0820 -0.1476  1.0344
 8169SOL    HW235967   1.028   1.471   5.281  1.1860  0.5113 -0.8143
 8170SOL     OW35968   0.263   3.101   2.956 -0.1005  0.5939  0.0185
 8170SOL    HW135969   0.271   3.005   2.957  1.2837  0.6911 -1.0621
 8170SOL    HW235970   0.342   3.117   3.008  0.3623 -0.7613 -0.2691
 8171SOL     OW35971   3.843   1.873   7.248  0.4023  0.6336  0.0982
 8171SOL    HW135972   3.864   1.945   7.308  0.0836  0.7794  0.0355
 8171SOL    HW235973   3.842   1.924   7.168  0.9584  1.3472  0.5391
 8172SOL     OW35974   2.417   4.030  16.740 -0.0617 -0.0962 -0.1150
 8172SOL    HW135975   2.435   4.120  16.712 -2.8506  0.9979  1.6227
 8172SOL    HW235976   2.339   4.058  16.788 -1.2110 -1.8123 -1.0346
 8173SOL     OW35977   0.131   2.228   9.948  0.3443  0.2120 -0.5074
 8173SOL    HW135978   0.175   2.295   9.895  0.5862  0.4909  0.0490
 8173SOL    HW235979   0.069   2.193   9.885 -0.9066  1.1446  0.2250
 8174SOL     OW35980   0.737   1.163  11.339  0.0833  0.1628  0.3875
 8174SOL    HW135981   0.691   1.085  11.309 -0.6598  0.8863 -0.3449
 8174SOL    HW235982   0.752   1.201  11.252 -1.0646  0.5828  0.3691
 8175SOL     OW35983   1.692   3.472   2.386 -0.4423 -0.1565  0.2952
 8175SOL    HW135984   1.736   3.394   2.419  2.1858  0.0169 -2.7906
 8175SOL    HW235985   1.752   3.543   2.409 -3.1421  2.1215  0.2507
 8176SOL     OW35986   0.686   3.051   2.407 -0.4820  0.3872 -0.0187
 8176SOL    HW135987   0.678   3.098   2.325  0.1225 -1.4146 -1.1125
 8176SOL    HW235988   0.749   3.106   2.453 -0.3042  1.2573 -1.3094
 8177SOL     OW35989   4.134   1.433   6.052 -0.4305 -0.7672 -0.2577
 8177SOL    HW135990   4.045   1.441   6.087 -0.0738  0.8769  0.2607
 8177SOL    HW235991   4.117   1.412   5.960  0.3389 -0.1067 -0.5483
 8178SOL     OW35992   4.571   0.699  11.408 -0.1405 -0.7307  0.1275
 8178SOL    HW135993   4.479   0.721  11.393  0.4676 -0.9445 -3.9711
 8178SOL    HW235994   4.575   0.610  11.373  1.4716 -0.1688 -1.1389
 8179SOL     OW35995   4.574   4.356  10.794  0.1986 -0.3064 -0.6658
 8179SOL    HW135996   4.537   4.384  10.710 -1.1334  1.9295  0.6585
 8179SOL    HW235997   4.633   4.287  10.766  0.3665 -0.4315 -0.0034
 8180SOL     OW35998   2.234   1.416   1.120 -0.2503 -0.2733  0.3133
 8180SOL    HW135999   2.227   1.508   1.144  2.2522 -0.6125  2.3311
 8180SOL    HW236000   2.293   1.416   1.045 -0.2335  0.6459  0.3264
 8181SOL     OW36001   3.777   2.074   6.325 -0.4632 -0.4425  0.7343
 8181SOL    HW136002   3.701   2.070   6.383 -0.0390  1.8184  1.4327
 8181SOL    HW236003   3.729   2.046   6.247 -1.2733 -2.0799  1.8154
 8182SOL     OW36004   3.624   3.198  12.322  0.0173 -0.9901 -0.5814
 8182SOL    HW136005   3.564   3.269  12.299 -1.7491 -2.3186 -0.0757
 8182SOL    HW236006   3.669   3.237  12.397 -2.7713  0.6531  0.2238
 8183SOL     OW36007   2.438   3.370   8.953 -0.3071 -0.1366  0.0282
 8183SOL    HW136008   2.417   3.376   8.860  2.3410 -1.7285 -0.6803
 8183SOL    HW236009   2.358   3.334   8.992  1.5638 -2.0414  2.1013
 8184SOL     OW36010   0.523   1.392   6.548 -0.3771  0.1573 -0.6023
 8184SOL    HW136011   0.524   1.463   6.484  0.4397  0.0525 -0.7104
 8184SOL    HW236012   0.565   1.443   6.618 -1.4969  0.3975 -0.1006
 8185SOL     OW36013   0.536   0.530  11.618 -0.0653 -0.6271  0.4605
 8185SOL    HW136014   0.482   0.558  11.691 -1.9268 -0.3578 -1.0259
 8185SOL    HW236015   0.504   0.441  11.610  0.8703 -0.7142 -2.7633
 8186SOL     OW36016   0.057   3.531   0.027 -0.4958  0.4131  0.0253
 8186SOL    HW136017   0.116   3.597  17.683  0.7549 -0.6630  0.1320
 8186SOL    HW236018   0.065   3.468  17.649 -2.7206  0.6378 -0.4427
 8187SOL     OW36019   3.165   1.736   0.513  0.0298  0.6657  0.1594
 8187SOL    HW136020   3.106   1.669   0.549 -1.3824  1.0637 -1.4467
 8187SOL    HW236021   3.140   1.722   0.422  0.5209 -0.2069  0.1583
 8188SOL     OW36022   3.623   0.338   4.275 -0.1508  0.0052  0.6953
 8188SOL    HW136023   3.627   0.245   4.254 -1.9747  0.6339 -2.3770
 8188SOL    HW236024   3.684   0.379   4.214  0.2238 -3.0106 -0.9638
 8189SOL     OW36025   1.599   3.568   3.461 -0.0681 -0.2004 -0.1279
 8189SOL    HW136026   1.672   3.588   3.403  0.5090 -2.7115 -0.2963
 8189SOL    HW236027   1.536   3.638   3.445  1.0283  0.7309 -0.2635
 8190SOL     OW36028   3.334   3.123   2.960  0.2928 -0.3227 -0.4456
 8190SOL    HW136029   3.251   3.107   3.003 -1.5436  1.3976 -3.3282
 8190SOL    HW236030   3.332   3.050   2.899 -1.0701  1.8231 -2.9996
 8191SOL     OW36031   4.087   0.327   4.188 -0.0398  0.0840 -0.0784
 8191SOL    HW136032   4.000   0.359   4.209 -0.3407 -0.2987 -0.7540
 8191SOL    HW236033   4.103   0.379   4.110 -3.1093 -0.1517 -0.8645
 8192SOL     OW36034   1.166   3.794   3.328 -0.7362 -0.0707  0.4747
 8192SOL    HW136035   1.169   3.889   3.333 -0.4567  0.0562 -2.1393
 8192SOL    HW236036   1.254   3.771   3.357 -0.8949  0.9020  1.7360
 8193SOL     OW36037   2.517   2.661   2.204  0.2568 -0.5744 -0.0954
 8193SOL    HW136038   2.577   2.637   2.133 -0.8181  1.5539 -1.7334
 8193SOL    HW236039   2.437   2.618   2.174 -1.5992  3.5231 -1.0905
 8194SOL     OW36040   0.579   2.061   6.668  0.0316  0.4510  0.4225
 8194SOL    HW136041   0.492   2.046   6.630 -0.0064 -0.7614  1.0020
 8194SOL    HW236042   0.596   2.144   6.622  0.1623 -0.0887 -0.4985
 8195SOL     OW36043   1.668   3.297   2.131  0.9893  0.3501  0.1476
 8195SOL    HW136044   1.661   3.216   2.081  0.6875 -0.2763  1.2226
 8195SOL    HW236045   1.652   3.276   2.223 -1.7637  0.2571 -0.3490
 8196SOL     OW36046   4.406   2.542   5.524  0.4453 -0.7328 -0.2090
 8196SOL    HW136047   4.410   2.525   5.429 -1.8183  0.0529 -0.4579
 8196SOL    HW236048   4.497   2.557   5.548  0.3785 -0.1481 -0.3122
 8197SOL     OW36049   4.600   3.527   4.617 -0.1689 -0.2547 -0.1027
 8197SOL    HW136050   4.565   3.465   4.553  3.4955 -1.4406 -0.9898
 8197SOL    HW236051   4.530   3.530   4.683  0.2132  0.0380  0.2901
 8198SOL     OW36052   1.323   3.020   8.405  0.5424 -0.3525  0.3755
 8198SOL    HW136053   1.349   3.038   8.314 -0.7710  0.8837  0.2333
 8198SOL    HW236054   1.405   3.016   8.453 -1.2335 -1.6573  3.2563
 8199SOL     OW36055   0.307   2.316  15.826  0.0784 -0.3010  0.0618
 8199SOL    HW136056   0.230   2.310  15.770 -0.6533 -0.6682  1.1176
 8199SOL    HW236057   0.360   2.372  15.769 -0.9488  0.4468 -0.1406
 8200SOL     OW36058   2.716   2.502   2.804 -0.1007  0.1308  0.4876
 8200SOL    HW136059   2.746   2.505   2.714 -1.3035  2.9308  0.1536
 8200SOL    HW236060   2.778   2.564   2.843 -0.8217 -0.2467  2.2646
 8201SOL     OW36061   3.634   1.481   4.534  0.3107  0.3265 -0.1250
 8201SOL    HW136062   3.573   1.533   4.482  0.9062  2.2705  1.1184
 8201SOL    HW236063   3.605   1.502   4.623  0.2382 -2.1308  0.4391
 8202SOL     OW36064   0.539   1.312  12.676  0.0571  0.3405  0.3226
 8202SOL    HW136065   0.606   1.267  12.728  0.4397 -1.2264 -1.5285
 8202SOL    HW236066   0.582   1.330  12.592  1.7357 -0.0916  1.0841
 8203SOL     OW36067   3.849   1.866   6.545 -0.1323 -0.0521  0.0171
 8203SOL    HW136068   3.822   1.906   6.462 -0.5049 -0.5541 -0.1051
 8203SOL    HW236069   3.939   1.839   6.527  0.1920  2.3440 -1.9967
 8204SOL     OW36070   2.542   0.639  14.930 -0.0952  0.0546 -0.0343
 8204SOL    HW136071   2.523   0.670  15.019 -2.7730  0.9277 -0.9252
 8204SOL    HW236072   2.462   0.605  14.892 -0.2713  0.2022  0.2025
 8205SOL     OW36073   0.356   1.296   5.818  0.1464  0.0028  0.4027
 8205SOL    HW136074   0.372   1.302   5.724 -4.0298  2.2231 -0.2015
 8205SOL    HW236075   0.362   1.201   5.827  0.7084 -0.1531 -1.5501
 8206SOL     OW36076   0.850   1.038   5.382 -0.0046  0.0217 -0.2437
 8206SOL    HW136077   0.757   1.049   5.404  0.9912  0.9361  3.3824
 8206SOL    HW236078   0.862   0.944   5.395 -1.8278 -0.4652 -1.8849
 8207SOL     OW36079   0.490   1.885   2.267  0.1775  0.4066 -0.4501
 8207SOL    HW136080   0.511   1.824   2.339  1.2623 -0.0704 -1.1612
 8207SOL    HW236081   0.549   1.855   2.198 -2.1845 -0.9344 -1.8563
 8208SOL     OW36082   3.224   3.626   2.958  0.6727  0.4991  0.0110
 8208SOL    HW136083   3.233   3.539   2.920  1.5657 -0.3910  2.2902
 8208SOL    HW236084   3.284   3.615   3.031  0.4756  0.1254  0.1142
 8209SOL     OW36085   2.590   2.835   7.901 -0.3214  0.4352 -0.3965
 8209SOL    HW136086   2.522   2.768   7.897 -1.0222  1.2782 -2.9059
 8209SOL    HW236087   2.557   2.899   7.837 -2.1955 -0.5054 -0.3667
 8210SOL     OW36088   3.810   2.340   8.032 -0.6409 -0.5113 -0.1084
 8210SOL    HW136089   3.762   2.257   8.022  0.6607 -1.1996 -0.6073
 8210SOL    HW236090   3.741   2.400   8.003  0.5661  0.0862 -1.7229
 8211SOL     OW36091   3.372   0.112   5.810  0.9068  0.0593  0.5425
 8211SOL    HW136092   3.437   0.134   5.876  2.4818 -0.2658 -0.8911
 8211SOL    HW236093   3.350   0.197   5.771 -3.6764 -0.6949  1.5382
 8212SOL     OW36094   4.220   2.102   2.131  0.4008 -0.1999 -0.7139
 8212SOL    HW136095   4.266   2.018   2.125 -0.0300 -0.5876  1.4100
 8212SOL    HW236096   4.288   2.159   2.093 -0.0308  0.6283 -0.2277
 8213SOL     OW36097   3.642   2.256  13.913 -0.2690 -0.5933  0.3178
 8213SOL    HW136098   3.608   2.260  13.823  1.9880  1.3644 -0.4522
 8213SOL    HW236099   3.579   2.319  13.948  0.9165  0.7016  0.1411
 8214SOL     OW36100   4.520   0.228   6.473  0.0432  0.0777  0.1275
 8214SOL    HW136101   4.577   0.269   6.537  0.1166  0.0312  0.0915
 8214SOL    HW236102   4.483   0.158   6.526 -0.2375  0.6493  0.6863
 8215SOL     OW36103   3.450   3.541   2.724 -0.8808 -0.1724  0.2088
 8215SOL    HW136104   3.505   3.480   2.675 -0.5384  1.5624 -1.5816
 8215SOL    HW236105   3.385   3.570   2.660 -0.5755 -0.8773 -0.4106
 8216SOL     OW36106   2.416   3.596   3.463 -0.0355 -0.4595 -0.1954
 8216SOL    HW136107   2.471   3.626   3.536  0.5025  0.5537 -1.0229
 8216SOL    HW236108   2.364   3.522   3.496  0.4612 -0.7444 -0.0321
 8217SOL     OW36109   1.340   2.882   6.292  0.0003 -0.6337  0.4683
 8217SOL    HW136110   1.349   2.888   6.387 -1.4604 -1.5850  0.6619
 8217SOL    HW236111   1.344   2.975   6.269 -1.2681 -0.4882  0.8197
 8218SOL     OW36112   4.500   4.159   7.168 -0.2805  0.0464 -0.4107
 8218SOL    HW136113   4.505   4.096   7.096  0.1130 -0.9327  0.4698
 8218SOL    HW236114   4.458   4.110   7.239  1.3101  0.7260  0.9870
 8219SOL     OW36115   0.557   0.958  13.082 -0.0677 -0.4507  0.4534
 8219SOL    HW136116   0.640   0.934  13.124 -1.3211 -1.1404  2.4818
 8219SOL    HW236117   0.554   1.054  13.079  1.0078 -0.3772  2.0088
 8220SOL     OW36118   0.938   0.476   2.707  0.7808 -0.5148 -0.4468
 8220SOL    HW136119   0.926   0.424   2.627  0.3203  1.5768 -1.7215
 8220SOL    HW236120   1.032   0.494   2.714  0.1119  2.6249  0.0739
 8221SOL     OW36121   0.127   4.702  16.433 -0.2407 -0.0233  0.5931
 8221SOL    HW136122   0.077   4.635  16.386 -0.5188  2.0392 -2.0576
 8221SOL    HW236123   0.137   0.046  16.365 -1.5088 -2.2634 -1.7781
 8222SOL     OW36124   4.382   3.984   8.303 -0.1570 -0.1651 -0.0915
 8222SOL    HW136125   4.368   3.931   8.382  2.9605 -2.5620 -1.1426
 8222SOL    HW236126   4.468   4.014   8.332 -0.6412  2.3316 -1.3041
 8223SOL     OW36127   4.638   3.836  17.673  0.8056 -0.0405  0.0719
 8223SOL    HW136128   4.614   3.923   0.011 -3.3063 -1.1802  0.1490
 8223SOL    HW236129   4.565   3.816  17.613 -1.0658  0.0271  2.3240
 8224SOL     OW36130   3.326   1.124   3.860 -0.4787  0.4308  0.4680
 8224SOL    HW136131   3.376   1.200   3.890 -0.5415  0.6270  0.0746
 8224SOL    HW236132   3.301   1.083   3.943  1.5251 -2.0632 -0.1728
 8225SOL     OW36133   3.179   0.965   6.479 -0.2640  0.6753  0.8021
 8225SOL    HW136134   3.089   0.934   6.474  0.1827 -0.5606  0.3655
 8225SOL    HW236135   3.214   0.886   6.519 -0.8098  0.6448  1.2233
 8226SOL     OW36136   4.617   1.092  15.312  0.5819  0.3215  0.2099
 8226SOL    HW136137   4.657   1.050  15.388  0.9271 -1.7789 -1.1167
 8226SOL    HW236138   4.630   1.179  15.349 -2.4635  0.3045  1.3132
 8227SOL     OW36139   2.951   3.397  14.945 -0.0071  0.5558  0.4866
 8227SOL    HW136140   2.936   3.316  14.994  2.1819  0.3825  0.8699
 8227SOL    HW236141   2.930   3.369  14.856  1.6158  2.7413 -0.6200
 8228SOL     OW36142   0.565   1.579  17.533  0.3471 -0.0233 -0.2134
 8228SOL    HW136143   0.590   1.542  17.617 -0.0990 -1.3166 -0.6504
 8228SOL    HW236144   0.615   1.524  17.472  1.3730  0.0113  0.5967
 8229SOL     OW36145   3.570   2.440   7.990 -0.4873  0.7205  0.2272
 8229SOL    HW136146   3.507   2.369   8.000  0.6936 -0.4236 -0.3408
 8229SOL    HW236147   3.535   2.503   8.053  3.3776  2.3120  0.7989
 8230SOL     OW36148   4.049   4.356   4.107 -0.1643 -0.2779  0.2020
 8230SOL    HW136149   4.026   4.287   4.169  2.9958 -1.6273 -0.1457
 8230SOL    HW236150   4.037   4.311   4.024  0.1547  0.0380 -0.0130
 8231SOL     OW36151   0.929   0.832   9.128  0.3596  0.1232  0.4362
 8231SOL    HW136152   0.869   0.905   9.113  2.3330  1.2590 -1.9283
 8231SOL    HW236153   0.959   0.802   9.042 -1.2670 -1.3751  0.3891
 8232SOL     OW36154   1.633   0.893  15.135 -0.3773  0.1660 -0.3864
 8232SOL    HW136155   1.614   0.849  15.052  0.2949 -2.2859  0.7768
 8232SOL    HW236156   1.596   0.834  15.201 -0.6720  1.5232  0.6491
 8233SOL     OW36157   2.617   2.445   7.192 -0.1052 -0.1299 -0.0866
 8233SOL    HW136158   2.707   2.478   7.198 -0.3193  0.0931  1.9246
 8233SOL    HW236159   2.610   2.405   7.279 -0.8544  0.6737  0.2199
 8234SOL     OW36160   3.013   1.685   5.392 -0.4763  0.0871 -0.5685
 8234SOL    HW136161   2.919   1.700   5.384 -0.7309 -0.7282  0.9403
 8234SOL    HW236162   3.049   1.774   5.397  1.3624 -0.6525 -0.7292
 8235SOL     OW36163   1.149   1.000   4.026  0.0519 -0.2307 -0.8345
 8235SOL    HW136164   1.113   1.038   3.946  0.2917  3.1938  0.6700
 8235SOL    HW236165   1.104   0.918   4.044 -0.4089  0.3806  0.7095
 8236SOL     OW36166   2.466   2.559   2.876  0.2802  0.1885 -0.2189
 8236SOL    HW136167   2.558   2.547   2.856  0.5681  1.4613  0.3632
 8236SOL    HW236168   2.424   2.607   2.805  2.0126  1.4959 -0.3405
 8237SOL     OW36169   4.582   0.760   4.143  0.3961  0.6098 -0.0060
 8237SOL    HW136170   4.636   0.799   4.074  0.6944  0.1990 -0.0043
 8237SOL    HW236171   4.646   0.697   4.177 -0.9779 -0.8359 -0.0698
 8238SOL     OW36172   2.688   2.249   8.399 -0.7699 -0.0339  0.4856
 8238SOL    HW136173   2.634   2.265   8.476  0.4421 -0.2297  1.3880
 8238SOL    HW236174   2.710   2.340   8.380  1.9007 -0.9054 -0.5880
 8239SOL     OW36175   3.268   4.473   3.204 -0.2097 -0.2002  0.0399
 8239SOL    HW136176   3.241   4.419   3.130 -1.5071  0.2883  0.1671
 8239SOL    HW236177   3.359   4.491   3.180 -0.8609  0.9903 -1.4857
 8240SOL     OW36178   2.087   3.950   3.411  0.3484 -0.0103 -0.5438
 8240SOL    HW136179   2.030   3.896   3.466  0.0117  1.6151  0.7160
 8240SOL    HW236180   2.113   4.015   3.477 -0.3759 -0.3874  0.1132
 8241SOL     OW36181   4.333   1.384   3.108 -1.1851 -0.1239 -0.2142
 8241SOL    HW136182   4.372   1.373   3.021  1.3132  0.4387  0.8153
 8241SOL    HW236183   4.374   1.460   3.149  0.7928 -3.0948  3.2803
 8242SOL     OW36184   0.420   3.337   8.679  0.2292 -0.1290  0.3481
 8242SOL    HW136185   0.413   3.419   8.631 -0.4484 -1.6963 -2.2421
 8242SOL    HW236186   0.483   3.288   8.626 -1.3272  0.1374 -1.7339
 8243SOL     OW36187   1.372   0.240   4.736  0.1138 -0.6112 -0.4681
 8243SOL    HW136188   1.294   0.212   4.688 -0.2665  2.3096 -1.5447
 8243SOL    HW236189   1.444   0.227   4.674 -0.2570  2.6589 -1.5668
 8244SOL     OW36190   2.742   2.714  15.063 -0.5338  0.1021  0.1719
 8244SOL    HW136191   2.821   2.740  15.111 -1.3539  2.7056  0.0653
 8244SOL    HW236192   2.738   2.771  14.987  0.1648  0.9315  0.7587
 8245SOL     OW36193   2.955   2.791  14.616 -0.4874 -0.1856 -0.3951
 8245SOL    HW136194   3.040   2.783  14.573  0.2485  2.4832  0.5488
 8245SOL    HW236195   2.902   2.770  14.540 -2.3517  0.1960  0.7890
 8246SOL     OW36196   0.610   0.229   2.596 -0.0811 -0.2483  0.4366
 8246SOL    HW136197   0.677   0.212   2.663 -1.8031 -3.0955  1.4641
 8246SOL    HW236198   0.583   0.137   2.587 -1.6399  0.4001 -1.3261
 8247SOL     OW36199   0.498   0.234   7.380 -0.0780  0.2454 -0.0384
 8247SOL    HW136200   0.417   0.184   7.365  0.7668 -0.5592 -1.9859
 8247SOL    HW236201   0.470   0.295   7.448 -1.5637 -1.4864  0.9034
 8248SOL     OW36202   1.603   4.605   3.052 -0.2979 -0.3389 -0.5744
 8248SOL    HW136203   1.637   4.623   2.964  2.0828 -1.6656  0.0743
 8248SOL    HW236204   1.662   4.533   3.073 -0.3564 -0.4026 -0.6285
 8249SOL     OW36205   1.306   3.749   8.635 -0.4475 -0.5220  0.0024
 8249SOL    HW136206   1.341   3.722   8.719 -1.4833  0.4285  0.7338
 8249SOL    HW236207   1.216   3.760   8.665  0.0490 -0.5596  1.4987
 8250SOL     OW36208   0.477   4.649   3.716  0.4377  0.8133  0.0790
 8250SOL    HW136209   0.460   4.584   3.784  1.1326  1.2179  0.6469
 8250SOL    HW236210   0.542   4.608   3.659 -2.6379 -2.5661 -0.9068
 8251SOL     OW36211   0.204   4.001  15.984 -0.6917 -0.1896 -0.3682
 8251SOL    HW136212   0.165   4.042  16.061  0.7802 -2.1217  1.4141
 8251SOL    HW236213   0.125   3.959  15.950  0.2111 -2.6935  0.6442
 8252SOL     OW36214   4.324   3.704   3.585  0.2535  0.0882  0.9398
 8252SOL    HW136215   4.292   3.794   3.592  0.2607  0.1310  0.4753
 8252SOL    HW236216   4.245   3.658   3.558  1.3657  0.0530 -2.2978
 8253SOL     OW36217   4.631   0.454   8.037 -0.2096  0.0820  0.0971
 8253SOL    HW136218   4.666   0.415   7.957 -3.7240  0.9249 -1.8531
 8253SOL    HW236219   4.563   0.395   8.070 -0.7847  0.8679  0.2897
 8254SOL     OW36220   0.724   3.341   4.947 -0.1424  0.2759  0.0713
 8254SOL    HW136221   0.785   3.412   4.967 -0.1092 -0.1284  1.4289
 8254SOL    HW236222   0.740   3.344   4.853 -0.3593 -1.9546 -0.0294
 8255SOL     OW36223   0.354   1.946  12.879  0.4327  0.7106  0.5026
 8255SOL    HW136224   0.279   1.991  12.838 -0.7669 -3.0485 -1.3939
 8255SOL    HW236225   0.313   1.890  12.944  0.3981 -0.2636 -0.3539
 8256SOL     OW36226   0.102   2.389  10.779  0.7705 -0.0437 -0.6142
 8256SOL    HW136227   0.172   2.331  10.749  2.0550  0.8762  0.6310
 8256SOL    HW236228   0.059   2.335  10.846 -1.4083  0.9076 -1.2254
 8257SOL     OW36229   1.684   3.828   9.299  0.1245  0.6716 -0.2311
 8257SOL    HW136230   1.694   3.827   9.395 -1.5493 -1.6183 -0.0744
 8257SOL    HW236231   1.701   3.739   9.268  2.0638  0.0962  2.4325
 8258SOL     OW36232   1.587   0.116   0.408  0.3747  0.2399 -0.9594
 8258SOL    HW136233   1.582   0.212   0.401 -0.5153  0.2108 -0.7489
 8258SOL    HW236234   1.497   0.088   0.397  0.3102  0.7552 -1.7933
 8259SOL     OW36235   0.942   0.518   8.940  0.0863 -0.7331 -0.2298
 8259SOL    HW136236   0.978   0.602   8.911 -0.4405  0.2750  2.0109
 8259SOL    HW236237   0.877   0.510   8.870  1.3250  2.1465 -1.7403
 8260SOL     OW36238   3.305   2.290  11.185  0.3445  0.1982  0.8278
 8260SOL    HW136239   3.263   2.361  11.234 -2.8261 -0.4341 -0.9274
 8260SOL    HW236240   3.354   2.327  11.112 -0.8879  0.2097 -0.0119
 8261SOL     OW36241   3.698   0.513   8.012 -0.0401 -0.1027 -0.3338
 8261SOL    HW136242   3.661   0.539   8.096 -1.7385  1.0483 -1.4575
 8261SOL    HW236243   3.779   0.479   8.051 -0.0351  1.6041  1.1080
 8262SOL     OW36244   2.910   2.282  11.484 -0.1168  0.3654 -0.2244
 8262SOL    HW136245   2.905   2.287  11.388 -1.6580  0.6088 -0.1296
 8262SOL    HW236246   3.003   2.259  11.492  0.7327  2.6566 -3.3494
 8263SOL     OW36247   0.445   1.234   8.660  0.4963  0.0287 -1.0760
 8263SOL    HW136248   0.411   1.178   8.590 -1.4037  0.4553 -0.5074
 8263SOL    HW236249   0.410   1.320   8.638  1.8349  0.3493 -1.9430
 8264SOL     OW36250   3.947   3.438   6.244  0.0683  0.7130  0.2108
 8264SOL    HW136251   4.008   3.482   6.184 -1.9058  1.1320 -1.4614
 8264SOL    HW236252   3.878   3.422   6.181 -0.7267  1.3250  0.9305
 8265SOL     OW36253   3.773   4.705  11.833  0.1089 -0.9621 -0.1386
 8265SOL    HW136254   3.846   0.035  11.866 -0.3109 -0.3448 -0.1874
 8265SOL    HW236255   3.762   4.646  11.907  2.8318 -0.2287  0.8299
 8266SOL     OW36256   0.911   0.768   5.383  0.9527  0.2512  0.3406
 8266SOL    HW136257   0.982   0.703   5.387  0.6373 -0.1367 -0.4131
 8266SOL    HW236258   0.929   0.800   5.294 -1.1581  1.7471  0.4438
 8267SOL     OW36259   2.622   1.416   0.720  0.0954 -0.5407 -0.1369
 8267SOL    HW136260   2.652   1.332   0.755  0.3965  0.4122  1.9001
 8267SOL    HW236261   2.659   1.423   0.632  1.5327 -0.8348  0.4388
 8268SOL     OW36262   3.449   1.796   0.460 -0.3847  0.5725 -0.2889
 8268SOL    HW136263   3.373   1.773   0.513  1.4912  0.2810  2.2520
 8268SOL    HW236264   3.467   1.709   0.424 -2.7915 -0.5372  1.2013
 8269SOL     OW36265   4.248   1.858  12.901 -0.7792 -0.4529 -0.4240
 8269SOL    HW136266   4.273   1.825  12.987 -1.7380 -1.8411 -0.6961
 8269SOL    HW236267   4.314   1.810  12.852  0.4038  2.0304 -1.2836
 8270SOL     OW36268   0.210   4.574   7.723  0.2798 -0.0556 -0.5639
 8270SOL    HW136269   0.224   4.519   7.646 -2.7217 -1.1915 -0.2732
 8270SOL    HW236270   0.183   4.653   7.675 -0.5665 -1.8156 -2.9795
 8271SOL     OW36271   0.164   3.619   0.473  0.1226  0.1459 -0.0883
 8271SOL    HW136272   0.254   3.639   0.448 -0.5549  1.1833 -1.7005
 8271SOL    HW236273   0.119   3.663   0.401 -0.1928 -0.6824 -0.4009
 8272SOL     OW36274   4.619   3.919  10.418  0.1418  0.0373 -0.3360
 8272SOL    HW136275   4.696   3.879  10.378 -0.4371 -0.7855 -0.6373
 8272SOL    HW236276   4.652   4.008  10.431  1.0076 -0.1865 -1.0377
 8273SOL     OW36277   2.193   2.420   6.007  0.3713 -0.0310 -0.3570
 8273SOL    HW136278   2.144   2.362   6.065  1.9706  0.3816  1.4113
 8273SOL    HW236279   2.149   2.505   6.010  0.1023 -0.2166  0.8602
 8274SOL     OW36280   1.359   4.541   5.630 -0.5061  0.0680 -0.1467
 8274SOL    HW136281   1.341   4.584   5.714 -0.9748  0.9685 -0.7059
 8274SOL    HW236282   1.354   4.452   5.665 -1.4617 -0.2103 -0.9869
 8275SOL     OW36283   4.711   1.183  14.732 -0.8291 -0.1376  0.4766
 8275SOL    HW136284   4.677   1.107  14.778  1.0086 -0.4829  1.2858
 8275SOL    HW236285   0.073   1.195  14.776  0.0508 -0.2925 -1.1624
 8276SOL     OW36286   1.888   1.864   5.154 -0.1935 -0.1631 -0.3032
 8276SOL    HW136287   1.969   1.915   5.155 -0.3424 -0.0265  2.8444
 8276SOL    HW236288   1.891   1.800   5.225 -1.3312 -0.1918 -0.2709
 8277SOL     OW36289   4.156   0.645   4.885  0.5393  0.2441 -0.3557
 8277SOL    HW136290   4.145   0.553   4.907  1.9222 -0.5534 -3.0289
 8277SOL    HW236291   4.196   0.690   4.959 -1.8972 -0.3982  1.3357
 8278SOL     OW36292   4.050   0.415   5.341  0.3982 -0.0855  0.2678
 8278SOL    HW136293   4.090   0.441   5.424  1.5076 -0.4595 -0.1411
 8278SOL    HW236294   3.998   0.493   5.324 -0.7960 -0.4749  2.1312
 8279SOL     OW36295   2.000   2.335   5.778 -0.4229  0.5228  0.3960
 8279SOL    HW136296   1.988   2.343   5.873  1.4950  1.2109  0.5724
 8279SOL    HW236297   2.086   2.374   5.764  0.3399 -1.1545  0.4213
 8280SOL     OW36298   3.815   1.923   3.050 -0.2687  0.3758  0.5676
 8280SOL    HW136299   3.738   1.911   3.105  0.5999  1.5096  2.0269
 8280SOL    HW236300   3.779   1.981   2.983  0.8947  0.3524 -0.0866
 8281SOL     OW36301   1.414   4.026   8.933 -0.1206  0.2691 -0.2630
 8281SOL    HW136302   1.424   4.050   9.025  0.0146  2.7109 -0.9109
 8281SOL    HW236303   1.504   4.035   8.902  1.3034 -0.0345  3.8376
 8282SOL     OW36304   1.707   0.315   0.955  0.2103 -0.4363 -0.0839
 8282SOL    HW136305   1.640   0.372   0.993  0.0077 -0.9379  0.3124
 8282SOL    HW236306   1.692   0.336   0.863  2.8211  2.5293  0.1563
 8283SOL     OW36307   0.870   3.694   9.123  0.0447 -0.1366  0.2982
 8283SOL    HW136308   0.840   3.734   9.205  1.1716 -2.2874  1.7581
 8283SOL    HW236309   0.888   3.769   9.067  3.3393  0.3935  2.0651
 8284SOL     OW36310   1.858   0.979   6.137  0.5057  0.3216  0.2777
 8284SOL    HW136311   1.936   1.031   6.117  1.5552 -2.1116 -1.9946
 8284SOL    HW236312   1.804   0.989   6.059  1.4314  3.6592  0.0517
 8285SOL     OW36313   2.996   3.617   7.456  0.5791 -0.0670 -0.0518
 8285SOL    HW136314   3.090   3.623   7.471  0.1182  1.4962  2.1055
 8285SOL    HW236315   2.978   3.646   7.366  0.5446 -0.6101 -0.2185
 8286SOL     OW36316   0.701   0.466  15.374  0.5211 -0.8174  0.5301
 8286SOL    HW136317   0.796   0.479  15.376  0.2213  1.3321  0.3901
 8286SOL    HW236318   0.652   0.546  15.391 -0.9881 -1.9518  1.5746
 8287SOL     OW36319   2.300   1.301  16.889  0.5018  0.3086 -0.1376
 8287SOL    HW136320   2.254   1.328  16.810  0.7405  1.7070  0.1863
 8287SOL    HW236321   2.258   1.368  16.943  2.2336  1.4993 -0.2706
 8288SOL     OW36322   2.600   1.405   6.747 -0.5456  0.0698 -0.0732
 8288SOL    HW136323   2.599   1.454   6.829 -1.3018 -0.8562  0.4788
 8288SOL    HW236324   2.690   1.380   6.726 -0.8126  0.3163 -1.4756
 8289SOL     OW36325   4.023   2.625   1.760 -0.1562  0.0615 -0.2097
 8289SOL    HW136326   3.971   2.697   1.796 -0.5936 -0.3406 -0.0364
 8289SOL    HW236327   4.018   2.564   1.834  0.8908  0.6893  0.3814
 8290SOL     OW36328   3.110   3.530   7.894 -0.0688 -0.2978 -0.0646
 8290SOL    HW136329   3.103   3.610   7.945  0.4878  0.0127 -0.4803
 8290SOL    HW236330   3.037   3.478   7.929 -1.9560  2.5127  0.1719
 8291SOL     OW36331   1.092   4.006   0.362 -0.1463 -0.0989 -0.0372
 8291SOL    HW136332   1.116   3.969   0.278  1.8171  0.4550  0.2701
 8291SOL    HW236333   1.164   3.975   0.418 -0.8187  0.5238  1.1771
 8292SOL     OW36334   3.065   4.552   4.962 -0.7971 -0.3497  0.3044
 8292SOL    HW136335   3.005   4.493   4.917 -1.2724  0.7207 -0.4669
 8292SOL    HW236336   3.021   4.637   4.959 -0.0006  0.0518 -0.0342
 8293SOL     OW36337   1.698   1.300   2.120  0.2692  0.4373  0.6148
 8293SOL    HW136338   1.754   1.352   2.061 -1.4210  0.9309 -0.5515
 8293SOL    HW236339   1.613   1.334   2.093 -0.6855 -0.2943  2.7497
 8294SOL     OW36340   3.877   2.315   4.917  0.1251  0.2848  0.2319
 8294SOL    HW136341   3.958   2.362   4.937  1.5334 -2.1246  0.2240
 8294SOL    HW236342   3.853   2.344   4.829 -1.6865 -0.4107  0.4879
 8295SOL     OW36343   3.998   0.562   0.623 -0.3557 -0.2264 -0.0190
 8295SOL    HW136344   3.982   0.484   0.570 -0.4343 -0.8213  0.8825
 8295SOL    HW236345   4.082   0.538   0.663 -0.3097  0.4127  0.2743
 8296SOL     OW36346   4.346   1.104  10.064 -0.4812 -0.1464 -0.0495
 8296SOL    HW136347   4.429   1.069  10.097 -1.7659 -1.3805  1.8680
 8296SOL    HW236348   4.367   1.157   9.987  1.0825  0.0791  0.5233
 8297SOL     OW36349   0.023   2.975  17.441 -0.1469 -0.2995 -0.4192
 8297SOL    HW136350   4.677   3.016  17.494 -1.0592  0.0898 -1.8874
 8297SOL    HW236351   4.709   2.891  17.414 -0.7222 -0.2535  0.2183
 8298SOL     OW36352   1.953   1.420   8.409  0.2462 -0.0841 -0.0243
 8298SOL    HW136353   2.042   1.428   8.374 -0.4762  0.6359 -1.6630
 8298SOL    HW236354   1.909   1.460   8.334  0.6018 -1.7293 -1.1044
 8299SOL     OW36355   3.149   3.300   7.284 -0.2321 -0.0006  0.1326
 8299SOL    HW136356   3.172   3.208   7.300 -0.0359  0.0020 -0.1380
 8299SOL    HW236357   3.231   3.331   7.246 -0.2748 -1.1420 -0.9178
 8300SOL     OW36358   1.595   2.597  11.701 -0.1703  0.1604  0.1152
 8300SOL    HW136359   1.661   2.665  11.687  1.3520 -1.1313  1.0710
 8300SOL    HW236360   1.615   2.533  11.632  0.1014 -0.1637  0.4926
 8301SOL     OW36361   2.582   1.243   2.493  0.2808  0.3065 -0.1517
 8301SOL    HW136362   2.521   1.256   2.565 -0.6041 -2.7705 -0.3258
 8301SOL    HW236363   2.637   1.321   2.488  2.3142 -1.1063  0.0329
 8302SOL     OW36364   4.325   4.566   7.583 -0.0037  0.2567  0.3066
 8302SOL    HW136365   4.234   4.589   7.562  0.1737  0.0462 -0.6675
 8302SOL    HW236366   4.329   4.482   7.539  3.7016  0.8420 -0.4068
 8303SOL     OW36367   0.297   0.544   2.197 -0.1652 -0.0194 -0.4651
 8303SOL    HW136368   0.219   0.497   2.227  0.7807 -1.8554 -0.8696
 8303SOL    HW236369   0.314   0.509   2.109 -0.3001  0.6626 -0.7591
 8304SOL     OW36370   1.198   2.049   4.471 -0.2746 -0.0599 -0.6339
 8304SOL    HW136371   1.287   2.072   4.446 -0.3557 -0.4123 -1.2429
 8304SOL    HW236372   1.206   1.963   4.513 -0.7255  0.3612  0.3191
 8305SOL     OW36373   2.625   1.526   7.905  0.1176  0.2459  0.6274
 8305SOL    HW136374   2.540   1.537   7.947 -1.3195 -0.9166 -2.0141
 8305SOL    HW236375   2.649   1.614   7.874 -0.3800 -0.4357 -1.7073
 8306SOL     OW36376   1.315   1.453   3.113  0.0195  0.2872 -0.2954
 8306SOL    HW136377   1.386   1.509   3.081 -0.9994  0.8180 -1.6270
 8306SOL    HW236378   1.269   1.455   3.029  2.0391  3.6742 -1.3127
 8307SOL     OW36379   4.007   4.564  14.895  0.1141  0.5347 -0.9962
 8307SOL    HW136380   3.981   4.486  14.847  5.7927 -1.9068 -0.0975
 8307SOL    HW236381   4.051   4.523  14.969  0.8318  1.0308 -1.1527
 8308SOL     OW36382   2.667   1.041   8.190 -0.0724 -0.2085  0.1223
 8308SOL    HW136383   2.616   1.095   8.129  2.1105 -0.0611 -1.5507
 8308SOL    HW236384   2.657   1.091   8.271  1.5199  1.4533 -0.7072
 8309SOL     OW36385   4.546   0.797   6.155  0.0752  0.3766  0.2672
 8309SOL    HW136386   4.518   0.761   6.240 -2.1199  0.6291 -0.3494
 8309SOL    HW236387   4.546   0.892   6.161  0.0256  0.2870  1.6944
 8310SOL     OW36388   3.993   3.152   8.923  0.4797 -0.4134  0.0006
 8310SOL    HW136389   4.034   3.221   8.872  0.0291 -0.2787 -0.1802
 8310SOL    HW236390   3.908   3.158   8.879  1.0029  0.1135 -0.9243
 8311SOL     OW36391   1.158   2.658   6.252  0.1623 -0.2359  0.2356
 8311SOL    HW136392   1.223   2.623   6.313 -1.1961 -0.9425  1.2864
 8311SOL    HW236393   1.210   2.733   6.225 -0.3720 -0.3140 -0.9930
 8312SOL     OW36394   0.053   4.543   4.497 -0.9119 -0.3144  0.5359
 8312SOL    HW136395   0.123   4.604   4.520 -1.3127 -0.0866  1.1582
 8312SOL    HW236396   0.081   4.491   4.422 -1.1821 -1.2290  1.0594
 8313SOL     OW36397   0.227   0.191   1.432 -0.0099  0.3340 -0.5373
 8313SOL    HW136398   0.141   0.231   1.420  0.1570  0.5962 -0.8433
 8313SOL    HW236399   0.198   0.101   1.414 -0.4780  0.0274  1.6521
 8314SOL     OW36400   1.500   1.688   4.627 -0.0290 -0.1996 -0.5327
 8314SOL    HW136401   1.563   1.700   4.697 -1.3571 -0.5560  0.7251
 8314SOL    HW236402   1.484   1.594   4.639  0.9435 -0.4156 -0.9598
 8315SOL     OW36403   1.884   0.847   8.387 -0.3807  0.1248 -0.1976
 8315SOL    HW136404   1.805   0.800   8.360  0.5241 -2.2437  1.3388
 8315SOL    HW236405   1.843   0.904   8.452  0.1220  1.0035 -0.6369
 8316SOL     OW36406   3.456   1.376   2.450 -0.3797  0.6252  0.2695
 8316SOL    HW136407   3.446   1.469   2.470  2.0277  0.7845  0.6691
 8316SOL    HW236408   3.552   1.372   2.454 -0.3820 -1.4012 -1.6547
 8317SOL     OW36409   1.577   2.303   7.248 -0.0167  0.1154 -0.3363
 8317SOL    HW136410   1.483   2.322   7.238 -0.5495 -2.1179  0.4938
 8317SOL    HW236411   1.579   2.319   7.342  3.8225  0.1150 -0.4345
 8318SOL     OW36412   2.974   2.843  15.794  0.3307  0.0588  0.8823
 8318SOL    HW136413   2.924   2.803  15.865 -1.8648 -1.5390 -1.5692
 8318SOL    HW236414   2.984   2.767  15.737  2.0947  0.9654  0.0138
 8319SOL     OW36415   3.708   0.067   5.055 -0.2075 -0.7325  0.0327
 8319SOL    HW136416   3.796   0.062   5.017 -0.6103 -2.6174 -0.6819
 8319SOL    HW236417   3.722   0.144   5.109  0.8124 -0.2517 -0.9178
 8320SOL     OW36418   2.401   0.766   7.857  0.5892 -0.3573 -0.3827
 8320SOL    HW136419   2.324   0.714   7.882  0.2525  1.1634  1.7380
 8320SOL    HW236420   2.391   0.768   7.762  0.0444  1.0559 -0.2952
 8321SOL     OW36421   0.575   4.508  14.388  0.1797 -0.1768 -0.3094
 8321SOL    HW136422   0.634   4.483  14.317  1.7918  1.2138  0.5669
 8321SOL    HW236423   0.490   4.474  14.357  1.2996 -2.1236 -1.2258
 8322SOL     OW36424   0.940   0.381   3.823 -0.3282 -0.3340  0.2509
 8322SOL    HW136425   0.985   0.312   3.871 -1.2155  0.2873  1.9761
 8322SOL    HW236426   0.883   0.326   3.769  1.9066 -2.3148 -0.1209
 8323SOL     OW36427   2.851   4.483  14.786 -0.4791 -0.1912  0.4665
 8323SOL    HW136428   2.864   4.572  14.752 -2.1929 -0.4469 -0.8112
 8323SOL    HW236429   2.865   4.501  14.879  4.2220 -0.3510 -0.1646
 8324SOL     OW36430   4.679   3.308   1.800 -0.2473  0.2726  0.0026
 8324SOL    HW136431   4.673   3.222   1.840 -2.8387  0.1852 -0.5522
 8324SOL    HW236432   0.048   3.326   1.779 -0.1960  1.1099  0.9017
 8325SOL     OW36433   4.615   1.907   4.182 -1.0261 -0.2487 -0.0592
 8325SOL    HW136434   4.671   1.837   4.149 -0.5540  0.5611 -0.9688
 8325SOL    HW236435   4.647   1.909   4.272 -0.8916  1.5486 -0.1414
 8326SOL     OW36436   3.894   3.256   3.866  0.1793  0.3267  0.0436
 8326SOL    HW136437   3.923   3.175   3.907 -0.5360 -0.4641 -1.0423
 8326SOL    HW236438   3.963   3.318   3.889 -0.0168 -0.0824  1.8034
 8327SOL     OW36439   1.289   2.066   8.607 -0.0377  0.7197  0.4902
 8327SOL    HW136440   1.361   2.037   8.664 -0.3975 -0.6986  0.2279
 8327SOL    HW236441   1.262   1.985   8.565  0.1299  1.1782 -0.4874
 8328SOL     OW36442   4.651   3.556   8.369  0.6427 -0.1330 -0.3096
 8328SOL    HW136443   0.015   3.571   8.408  0.8748  1.2413 -1.3834
 8328SOL    HW236444   4.633   3.462   8.370  1.2146 -0.2434 -1.1990
 8329SOL     OW36445   4.460   0.248   2.045 -0.0473  0.2163  0.6607
 8329SOL    HW136446   4.498   0.301   1.975 -0.6440 -0.1396  0.0727
 8329SOL    HW236447   4.384   0.206   2.005  0.8025  0.5589 -1.2809
 8330SOL     OW36448   2.338   4.445  11.668 -0.1895  0.5370 -0.1322
 8330SOL    HW136449   2.406   4.456  11.602  1.3322 -3.1719  0.7921
 8330SOL    HW236450   2.314   4.537  11.669  0.8197  0.7946  0.2801
 8331SOL     OW36451   3.791   2.914   8.873  0.0011 -0.2453 -0.1860
 8331SOL    HW136452   3.859   2.894   8.808  0.6033 -0.0456  0.3878
 8331SOL    HW236453   3.816   2.860   8.948  1.8086  0.4274 -0.3022
 8332SOL     OW36454   0.548   0.647  16.240 -0.3545  0.9358  0.3162
 8332SOL    HW136455   0.548   0.653  16.335 -1.0070 -2.4394  0.5151
 8332SOL    HW236456   0.569   0.740  16.228 -2.2458  1.5220  1.5612
 8333SOL     OW36457   3.575   4.040   4.231  0.1977  0.0681  0.0043
 8333SOL    HW136458   3.490   4.040   4.276  1.1911 -2.0081  1.9071
 8333SOL    HW236459   3.544   4.030   4.141 -1.8189 -1.1165  0.8280
 8334SOL     OW36460   0.616   4.476   4.637 -0.4535 -0.2853  0.6910
 8334SOL    HW136461   0.588   4.535   4.567  1.2603 -1.4629 -0.9937
 8334SOL    HW236462   0.561   4.402   4.611 -0.7302  0.2905 -0.3689
 8335SOL     OW36463   0.410   2.660   8.773 -0.2828  0.4130 -0.2065
 8335SOL    HW136464   0.445   2.719   8.840 -1.3375  0.5554  0.2209
 8335SOL    HW236465   0.357   2.613   8.837 -2.2231  0.2169 -1.9644
 8336SOL     OW36466   1.330   3.577  13.302  0.0138 -0.2504  0.2820
 8336SOL    HW136467   1.300   3.598  13.390 -1.8227  0.6661 -0.5705
 8336SOL    HW236468   1.248   3.590  13.255 -0.0227  1.0070  0.6924
 8337SOL     OW36469   1.751   4.314   6.087  0.4744 -0.7876  0.2673
 8337SOL    HW136470   1.764   4.378   6.158 -0.2473  1.9875 -2.0832
 8337SOL    HW236471   1.839   4.306   6.052  0.3628  1.5291 -0.5759
 8338SOL     OW36472   4.106   1.711   7.400  0.1094 -0.0330  0.1188
 8338SOL    HW136473   4.141   1.770   7.333 -0.8004 -0.5655 -0.8292
 8338SOL    HW236474   4.124   1.765   7.477  0.3007  0.3970 -0.2241
 8339SOL     OW36475   0.066   0.327   5.867  0.0799  0.2631  0.1703
 8339SOL    HW136476   0.000   0.317   5.799 -2.0625  1.5748  2.0167
 8339SOL    HW236477   0.014   0.366   5.938 -0.9890 -1.7582  0.5046
 8340SOL     OW36478   1.041   3.361   7.507  0.1008 -0.2250  0.0300
 8340SOL    HW136479   1.059   3.446   7.547  2.0975  0.0125 -1.4019
 8340SOL    HW236480   1.121   3.361   7.454 -0.4147  0.8662 -0.7609
 8341SOL     OW36481   0.121   0.730   9.260  0.3622  0.2947 -0.2053
 8341SOL    HW136482   0.171   0.809   9.278 -0.0602  0.4360  0.3424
 8341SOL    HW236483   0.039   0.765   9.224 -0.5221 -0.1306  1.4196
 8342SOL     OW36484   1.990   4.108  17.008 -0.5427  0.0039 -0.4855
 8342SOL    HW136485   2.025   4.139  17.092  1.9080 -2.0588 -0.7233
 8342SOL    HW236486   1.952   4.024  17.033 -0.5066  1.0933  3.1735
 8343SOL     OW36487   3.150   2.204   2.633  0.4118  0.4004  0.0312
 8343SOL    HW136488   3.061   2.208   2.598  0.0306 -0.1002  0.9754
 8343SOL    HW236489   3.144   2.271   2.700 -0.8845  1.8342 -1.5067
 8344SOL     OW36490   2.161   3.227   3.934 -0.6808 -0.7676 -0.3677
 8344SOL    HW136491   2.173   3.167   3.860 -2.2613 -0.4061 -0.9133
 8344SOL    HW236492   2.246   3.234   3.977 -1.4505  2.7795  0.6236
 8345SOL     OW36493   1.529   3.712   4.809 -0.4564  0.3485  0.2685
 8345SOL    HW136494   1.569   3.798   4.801 -1.5317  0.7257 -1.0144
 8345SOL    HW236495   1.595   3.644   4.790 -0.2441  1.0694 -1.5972
 8346SOL     OW36496   3.682   1.152  15.194 -0.1168  0.0513  0.6739
 8346SOL    HW136497   3.767   1.123  15.228 -0.9836 -0.8324  2.1287
 8346SOL    HW236498   3.671   1.230  15.248  1.7502  1.7451 -1.4099
 8347SOL     OW36499   2.507   0.475   2.195  0.4391 -0.0778  0.9004
 8347SOL    HW136500   2.530   0.441   2.281  0.1833 -1.0460  0.5879
 8347SOL    HW236501   2.594   0.491   2.158  0.2681 -0.7878  0.1833
 8348SOL     OW36502   0.448   3.719  15.999  0.4631 -0.2346 -0.2228
 8348SOL    HW136503   0.360   3.754  15.988  0.2918 -0.3105  0.9385
 8348SOL    HW236504   0.504   3.789  16.029  2.3161 -1.2077 -1.4010
 8349SOL     OW36505   2.725   4.399  12.727  0.5644  0.0467 -0.0989
 8349SOL    HW136506   2.676   4.319  12.745 -1.2186  1.5820  2.0267
 8349SOL    HW236507   2.809   4.370  12.693 -0.5382 -1.5080 -1.4812
 8350SOL     OW36508   3.924   3.770   6.300 -0.3271 -0.2473  0.1827
 8350SOL    HW136509   3.857   3.839   6.302 -1.9020 -1.8263  1.5068
 8350SOL    HW236510   3.900   3.712   6.372  0.0495  1.0775  1.3783
 8351SOL     OW36511   4.673   2.907   9.234 -0.2905 -0.0746 -0.6743
 8351SOL    HW136512   4.591   2.875   9.273  0.4288 -1.4358 -0.2997
 8351SOL    HW236513   4.667   2.859   9.152 -3.7052 -1.3030  0.3010
 8352SOL     OW36514   0.773   3.062   3.072 -0.7423  0.4321 -0.2492
 8352SOL    HW136515   0.791   3.002   3.000 -1.0496  0.2062 -0.1426
 8352SOL    HW236516   0.728   3.133   3.028 -2.1544 -0.2800  0.0325
 8353SOL     OW36517   1.576   0.482   1.572 -0.1892 -0.4273  0.6803
 8353SOL    HW136518   1.642   0.520   1.514  1.0449 -0.2577  2.1981
 8353SOL    HW236519   1.555   0.556   1.629 -0.5462 -1.2217  1.5886
 8354SOL     OW36520   1.495   3.309   2.916 -0.1198 -0.4419  0.1818
 8354SOL    HW136521   1.461   3.225   2.884 -0.5421 -0.6473  1.1591
 8354SOL    HW236522   1.417   3.364   2.918 -0.4292 -0.9154  1.1035
 8355SOL     OW36523   3.313   0.427  16.863  0.0987 -0.0239 -0.3445
 8355SOL    HW136524   3.264   0.404  16.942 -0.7695  1.6918 -0.3854
 8355SOL    HW236525   3.403   0.405  16.886 -0.0424 -0.3480 -0.1001
 8356SOL     OW36526   3.647   2.071  17.641 -0.6995 -0.3054  0.5597
 8356SOL    HW136527   3.559   2.108  17.634 -0.9032 -1.0748 -0.8993
 8356SOL    HW236528   3.691   2.142  17.595 -2.3084 -0.5665 -1.3624
 8357SOL     OW36529   0.122   4.700   6.937  0.3809 -0.1328  0.0116
 8357SOL    HW136530   0.107   4.691   6.843  1.7623  1.6920 -0.3996
 8357SOL    HW236531   0.217   4.706   6.948  0.0489 -1.7018  3.5258
 8358SOL     OW36532   4.568   2.240   5.597  0.0488  0.0240 -0.1094
 8358SOL    HW136533   4.578   2.144   5.597  1.3183  0.1584  0.8439
 8358SOL    HW236534   4.655   2.275   5.618 -0.6531  1.2843  0.6896
 8359SOL     OW36535   3.957   0.586   7.204  0.7227  0.4148 -0.0720
 8359SOL    HW136536   3.896   0.651   7.239  0.0295 -0.5558  0.5087
 8359SOL    HW236537   3.993   0.553   7.286 -1.4089  1.5847  1.3052
 8360SOL     OW36538   0.210   4.645   1.619  0.3094 -0.3117 -0.1046
 8360SOL    HW136539   0.115   4.658   1.614  0.3219  1.0570  2.9704
 8360SOL    HW236540   0.239   4.641   1.528  0.4023 -1.5366 -0.0272
 8361SOL     OW36541   1.564   1.293   9.917 -0.7024 -0.0857  0.4913
 8361SOL    HW136542   1.619   1.234   9.968 -1.6320 -0.1790  1.3829
 8361SOL    HW236543   1.558   1.242   9.836 -0.7456  0.7371 -0.0360
 8362SOL     OW36544   2.597   1.476   1.107  0.3993  0.3296  0.0070
 8362SOL    HW136545   2.635   1.522   1.032 -0.4170  1.0193  0.0199
 8362SOL    HW236546   2.657   1.514   1.171  0.0366  1.2667 -0.2212
 8363SOL     OW36547   0.378   1.321   7.444  0.3136  0.0964 -0.1044
 8363SOL    HW136548   0.371   1.287   7.533 -0.2843  1.2939  0.2993
 8363SOL    HW236549   0.284   1.331   7.433  0.6794  3.3663 -0.5673
 8364SOL     OW36550   3.623   4.233   3.844 -0.2929  0.1751 -0.1459
 8364SOL    HW136551   3.552   4.180   3.808 -1.8604  2.2438 -0.1113
 8364SOL    HW236552   3.572   4.308   3.875  1.6460  1.3999  0.0306
 8365SOL     OW36553   1.608   2.880   7.158 -0.3667 -0.3198 -0.1398
 8365SOL    HW136554   1.586   2.805   7.102 -1.8142 -2.4483  3.2604
 8365SOL    HW236555   1.696   2.856   7.186  0.7774  0.8502 -2.8011
 8366SOL     OW36556   3.513   2.575   5.070 -0.2458 -0.0581  0.7940
 8366SOL    HW136557   3.472   2.643   5.123 -1.8096  0.0839 -0.6313
 8366SOL    HW236558   3.434   2.527   5.047 -1.2894  0.7055  2.7611
 8367SOL     OW36559   0.943   0.328   4.822 -0.3442  0.4048 -0.2741
 8367SOL    HW136560   1.028   0.371   4.812  0.3389 -0.7000  0.7739
 8367SOL    HW236561   0.953   0.265   4.750  0.1940  0.6040 -0.3748
 8368SOL     OW36562   2.521   0.823   8.484 -0.6023 -0.6497 -0.1659
 8368SOL    HW136563   2.504   0.907   8.440 -0.5037 -0.4064  0.2673
 8368SOL    HW236564   2.501   0.848   8.574 -2.1848 -0.5337 -0.5432
 8369SOL     OW36565   1.916   0.987   2.114 -0.8191  0.1768  0.1920
 8369SOL    HW136566   2.000   0.942   2.123  1.0326  3.7542  0.5194
 8369SOL    HW236567   1.929   1.048   2.041  0.1438  0.7597  0.8527
 8370SOL     OW36568   3.427   3.056   7.826 -0.0011  0.3879 -0.2423
 8370SOL    HW136569   3.435   3.144   7.789 -0.1980 -0.1209 -1.4979
 8370SOL    HW236570   3.385   3.081   7.909 -0.7514 -1.3372 -0.1023
 8371SOL     OW36571   2.175   1.823   5.430 -0.5317  1.0918 -0.7272
 8371SOL    HW136572   2.235   1.779   5.490 -1.2920  1.2347  0.1365
 8371SOL    HW236573   2.245   1.869   5.383 -1.3953  1.4908 -1.6041
 8372SOL     OW36574   3.493   0.172  11.806  0.0618  0.0586 -0.3163
 8372SOL    HW136575   3.450   0.098  11.848  0.4662 -0.2820 -0.5020
 8372SOL    HW236576   3.457   0.239  11.865 -0.6473  1.5002 -2.4109
 8373SOL     OW36577   1.092   2.014   9.181 -0.1844 -0.1083  0.0017
 8373SOL    HW136578   1.031   1.964   9.127 -0.3224  0.4072 -0.3271
 8373SOL    HW236579   1.127   2.073   9.114  1.1225  0.4437  1.1618
 8374SOL     OW36580   0.531   1.383   4.523  0.8598 -0.1101  0.2894
 8374SOL    HW136581   0.590   1.419   4.457  1.1228 -0.4731  0.3260
 8374SOL    HW236582   0.474   1.332   4.466  0.0996 -0.1245  1.0434
 8375SOL     OW36583   2.704   1.386   4.501  0.1125  0.6925  0.0615
 8375SOL    HW136584   2.633   1.341   4.549  1.5554  1.9961  3.4586
 8375SOL    HW236585   2.679   1.404   4.411  0.4066 -0.7652 -0.3203
 8376SOL     OW36586   4.248   3.808   2.247 -0.4293 -0.0552 -0.0599
 8376SOL    HW136587   4.245   3.877   2.313 -1.7497 -1.5078  1.4200
 8376SOL    HW236588   4.336   3.819   2.211 -0.7725 -1.0980 -1.2184
 8377SOL     OW36589   2.445   0.446   8.731 -0.0522 -0.0314 -0.0783
 8377SOL    HW136590   2.442   0.474   8.640 -1.8811 -2.2715 -0.6873
 8377SOL    HW236591   2.472   0.354   8.729 -0.9156 -0.2901  0.0589
 8378SOL     OW36592   4.240   0.168   8.728  0.0689  0.3308 -0.4393
 8378SOL    HW136593   4.305   0.234   8.753  1.0945 -0.4319 -1.0411
 8378SOL    HW236594   4.259   0.175   8.634  0.1935  2.5229 -0.2411
 8379SOL     OW36595   4.188   3.396   8.821  0.4753 -0.2582  0.8780
 8379SOL    HW136596   4.099   3.386   8.787  0.4250 -1.2208  1.2994
 8379SOL    HW236597   4.180   3.486   8.851 -1.2315  0.3877 -1.4876
 8380SOL     OW36598   4.031   3.024   3.121 -0.0478 -0.7919  0.3293
 8380SOL    HW136599   4.117   2.983   3.125 -0.6677 -2.0564  0.6485
 8380SOL    HW236600   4.028   3.068   3.206  0.8096 -0.8725  0.4052
 8381SOL     OW36601   4.283   2.374   1.993  0.8514  0.2355 -0.0562
 8381SOL    HW136602   4.294   2.469   1.991 -0.4768  0.3259 -2.4160
 8381SOL    HW236603   4.188   2.368   1.990  0.8551 -0.1920  0.5544
 8382SOL     OW36604   3.363   1.946  15.745 -0.6153 -0.0412  0.1066
 8382SOL    HW136605   3.302   1.876  15.770 -0.7632  0.1786  0.3601
 8382SOL    HW236606   3.302   2.011  15.710 -1.2361 -1.5499 -1.6114
 8383SOL     OW36607   3.297   0.278  15.305  0.6490 -0.3201  0.2135
 8383SOL    HW136608   3.338   0.259  15.389  0.5281 -0.5845  0.2113
 8383SOL    HW236609   3.365   0.266  15.239  1.3770 -1.2849  1.1312
 8384SOL     OW36610   4.704   3.213  15.936 -0.0219 -0.2982 -0.1295
 8384SOL    HW136611   0.043   3.285  15.918 -1.5360  1.3875  1.4147
 8384SOL    HW236612   4.662   3.204  15.851  1.6867 -0.6628 -0.9366
 8385SOL     OW36613   3.802   3.935   0.504 -0.1887  0.6093 -0.4697
 8385SOL    HW136614   3.873   3.881   0.539 -2.2795 -0.5222  2.0191
 8385SOL    HW236615   3.750   3.961   0.580  0.2209  2.4735 -0.8221
 8386SOL     OW36616   3.532   3.842   7.951 -0.1682  0.1839 -0.2711
 8386SOL    HW136617   3.611   3.831   7.898  0.4668  4.6137 -0.2931
 8386SOL    HW236618   3.543   3.770   8.013  0.1939  0.6771  0.2341
 8387SOL     OW36619   4.233   4.693   4.483 -0.1956  0.5217 -0.7740
 8387SOL    HW136620   4.318   4.696   4.438  0.2011 -1.4004 -0.1550
 8387SOL    HW236621   4.230   0.060   4.515 -0.2897  0.2609 -0.0493
 8388SOL     OW36622   3.037   0.392   8.236 -1.3081 -0.1286 -0.4750
 8388SOL    HW136623   3.121   0.352   8.256 -0.2188  1.7723 -1.2032
 8388SOL    HW236624   3.064   0.484   8.236 -0.6066 -0.3494  0.7267
 8389SOL     OW36625   3.949   1.781   2.621  0.0398 -0.1084  0.1465
 8389SOL    HW136626   3.856   1.759   2.629  0.4740 -1.3330  1.8495
 8389SOL    HW236627   3.982   1.700   2.659 -0.2687 -0.1471  0.3345
 8390SOL     OW36628   3.576   4.340   8.655 -0.6028  0.0695 -0.0077
 8390SOL    HW136629   3.487   4.335   8.692 -1.8274  2.0497 -2.7206
 8390SOL    HW236630   3.622   4.393   8.720 -0.1640 -0.1173 -0.1724
 8391SOL     OW36631   0.693   2.755   2.944  0.2350  0.2978  0.0452
 8391SOL    HW136632   0.628   2.718   3.002  1.2235 -2.1156 -0.4059
 8391SOL    HW236633   0.639   2.755   2.865  1.0727  1.0162 -0.5279
 8392SOL     OW36634   0.311   3.607   4.925 -0.3625  0.3197 -0.5532
 8392SOL    HW136635   0.356   3.651   4.852  1.0663  0.0937  0.2005
 8392SOL    HW236636   0.220   3.594   4.898 -0.4438 -0.3188  0.0482
 8393SOL     OW36637   2.491   3.640   4.838 -0.5399 -0.4156  0.0732
 8393SOL    HW136638   2.496   3.560   4.786  0.9997 -0.6480  0.5815
 8393SOL    HW236639   2.521   3.703   4.773  1.2453 -2.0998 -0.7441
 8394SOL     OW36640   0.040   3.034   2.153 -0.4873 -0.4453  0.1072
 8394SOL    HW136641   0.081   2.948   2.162 -2.6851 -1.3729  1.2057
 8394SOL    HW236642   0.025   3.053   2.061  1.6119 -1.6478 -0.4841
 8395SOL     OW36643   3.925   1.092  14.570  0.2303  0.1991  0.7354
 8395SOL    HW136644   3.978   1.128  14.641  0.9300  0.7785 -0.0905
 8395SOL    HW236645   3.864   1.032  14.614 -1.4420  0.5346 -1.0829
 8396SOL     OW36646   0.747   0.328   7.380 -0.3024  0.4833 -0.0666
 8396SOL    HW136647   0.671   0.277   7.352  1.5360 -1.5500 -1.3992
 8396SOL    HW236648   0.799   0.336   7.299 -2.3156  1.7877 -1.2371
 8397SOL     OW36649   2.077   1.723   7.156 -0.6185 -0.4223  0.0567
 8397SOL    HW136650   2.107   1.771   7.078 -2.5282  0.0647 -0.3967
 8397SOL    HW236651   2.070   1.635   7.119  1.9182 -0.1430 -1.0908
 8398SOL     OW36652   2.658   2.761  13.498  0.3919  0.2923  0.7283
 8398SOL    HW136653   2.584   2.821  13.511  1.2731  1.9037 -1.6682
 8398SOL    HW236654   2.618   2.679  13.471 -1.6812  1.0701  1.3801
 8399SOL     OW36655   1.579   0.561   3.155 -0.3319 -0.3677  0.9089
 8399SOL    HW136656   1.494   0.517   3.149 -1.1917  1.0463  2.6739
 8399SOL    HW236657   1.562   0.619   3.229 -1.1242  1.2886 -0.5619
 8400SOL     OW36658   2.129   3.539   1.744  0.2577  0.8562 -0.2552
 8400SOL    HW136659   2.218   3.572   1.754  0.6387 -1.2998  3.5840
 8400SOL    HW236660   2.138   3.487   1.664  1.8647  1.0558 -0.1923
 8401SOL     OW36661   4.028   3.230   9.172  0.3473  0.2608 -0.6615
 8401SOL    HW136662   4.008   3.143   9.207 -4.3216  1.3091 -0.7210
 8401SOL    HW236663   3.998   3.223   9.081 -0.9093 -1.2605 -0.1410
 8402SOL     OW36664   1.708   3.644  17.016  0.0669  0.1288 -0.3633
 8402SOL    HW136665   1.703   3.655  16.921  0.3413 -2.3228 -0.6599
 8402SOL    HW236666   1.656   3.564  17.025 -0.7227  0.6621 -0.1093
 8403SOL     OW36667   2.362   2.486   2.062 -0.1887 -0.1821  0.1359
 8403SOL    HW136668   2.334   2.409   2.111 -2.4778 -1.2422 -2.8618
 8403SOL    HW236669   2.306   2.485   1.985  0.5042  1.8704 -0.4030
 8404SOL     OW36670   3.446   3.413   1.183  0.5458  0.0177 -0.0102
 8404SOL    HW136671   3.522   3.396   1.238 -0.7220  1.9700  2.3258
 8404SOL    HW236672   3.398   3.330   1.191 -0.0896  0.1832 -1.9584
 8405SOL     OW36673   1.849   4.341   5.604 -0.3165 -0.0417 -0.2991
 8405SOL    HW136674   1.909   4.268   5.617  2.0313  2.0402  0.5336
 8405SOL    HW236675   1.908   4.416   5.614  0.5932 -0.6802 -1.0140
 8406SOL     OW36676   1.262   0.149   8.965 -0.3293  0.2183  0.4346
 8406SOL    HW136677   1.313   0.153   9.046  0.0015 -1.0314  0.2813
 8406SOL    HW236678   1.232   0.239   8.955 -0.7235  0.1210  0.7280
 8407SOL     OW36679   2.745   4.694   2.139  0.2047  0.2345  0.3744
 8407SOL    HW136680   2.809   0.025   2.185  0.3309 -0.0810  0.5616
 8407SOL    HW236681   2.720   4.639   2.213  0.6842  0.5364  0.7555
 8408SOL     OW36682   1.760   1.522   6.390 -0.2324  0.9906  0.6994
 8408SOL    HW136683   1.824   1.583   6.426  0.8404  2.0846 -3.0735
 8408SOL    HW236684   1.722   1.580   6.324 -2.0005  0.2426  1.0412
 8409SOL     OW36685   3.299   0.784   7.050  0.2874 -0.2002  0.4972
 8409SOL    HW136686   3.221   0.734   7.030 -0.5337 -0.0431  3.3169
 8409SOL    HW236687   3.258   0.827   7.126 -0.1777  0.6688 -0.2418
 8410SOL     OW36688   3.596   0.394  13.962  0.1908  0.5428 -0.0242
 8410SOL    HW136689   3.631   0.321  13.910  0.0724  0.5699 -0.1446
 8410SOL    HW236690   3.553   0.342  14.029  0.6842  1.4825  1.0126
 8411SOL     OW36691   3.288   0.545  12.432  0.5066 -0.0007 -0.0335
 8411SOL    HW136692   3.250   0.462  12.404 -2.0366  0.5616  1.7951
 8411SOL    HW236693   3.283   0.539  12.527 -0.8143  2.6382  0.0711
 8412SOL     OW36694   3.087   0.021   8.283  0.0105 -0.4587  0.4753
 8412SOL    HW136695   3.116   0.002   8.373 -1.9988  2.9601  1.8532
 8412SOL    HW236696   3.157   0.075   8.246  0.5544 -2.1162 -0.9486
 8413SOL     OW36697   2.816   1.603   6.583  0.0835 -0.0891  0.5016
 8413SOL    HW136698   2.837   1.666   6.515  1.0460  1.5687  2.3228
 8413SOL    HW236699   2.737   1.644   6.616 -1.2711 -2.0623 -0.3051
 8414SOL     OW36700   3.599   3.353   3.500 -0.0629 -0.1603  0.3569
 8414SOL    HW136701   3.668   3.412   3.529 -0.0457 -0.6991  1.4160
 8414SOL    HW236702   3.629   3.270   3.538  2.2785  1.3541  1.7541
 8415SOL     OW36703   0.396   1.145  10.465  0.2844 -0.3793 -0.5367
 8415SOL    HW136704   0.400   1.123  10.559  1.4727  2.8267  0.1647
 8415SOL    HW236705   0.397   1.241  10.465 -1.1091 -0.3569  1.7998
 8416SOL     OW36706   0.711   3.734   3.599  0.3613 -0.4922 -0.2831
 8416SOL    HW136707   0.765   3.737   3.677 -0.9473  0.2201  0.6027
 8416SOL    HW236708   0.746   3.809   3.550 -0.1043 -0.9588 -1.3330
 8417SOL     OW36709   0.672   2.062   5.617  0.4024  0.0228 -0.5375
 8417SOL    HW136710   0.654   2.123   5.546 -2.8732 -1.1499 -0.7352
 8417SOL    HW236711   0.604   1.995   5.605 -1.6117  1.9818 -0.1287
 8418SOL     OW36712   1.727   3.577   6.758  0.8607 -0.4023 -0.4202
 8418SOL    HW136713   1.798   3.633   6.790 -0.0365  2.2396 -3.1078
 8418SOL    HW236714   1.688   3.553   6.843 -0.6165  0.2676 -0.9108
 8419SOL     OW36715   1.414   3.006   2.046 -0.1952  0.1742 -0.1090
 8419SOL    HW136716   1.485   3.041   1.992 -2.1558  0.7725 -2.3279
 8419SOL    HW236717   1.432   2.912   2.048  0.4462  0.1972 -3.3408
 8420SOL     OW36718   1.814   1.136   3.332  0.1827  0.4391 -0.0081
 8420SOL    HW136719   1.890   1.179   3.293 -0.2563  2.8933  1.8433
 8420SOL    HW236720   1.832   1.106   3.421  3.1116  0.5961 -0.5501
 8421SOL     OW36721   1.179   4.438   4.671 -0.0421  0.0915 -0.5422
 8421SOL    HW136722   1.153   4.444   4.763 -1.1146 -2.1214 -0.7150
 8421SOL    HW236723   1.257   4.383   4.684 -1.3018 -2.1954 -2.6762
 8422SOL     OW36724   1.588   0.919   1.491 -0.3316  0.2307  0.0754
 8422SOL    HW136725   1.673   0.880   1.513 -0.2207 -0.8357 -2.2076
 8422SOL    HW236726   1.597   1.013   1.511  1.2830  0.0714  0.1128
 8423SOL     OW36727   4.000   2.016  12.087 -0.7907 -0.7768 -0.8962
 8423SOL    HW136728   4.072   2.078  12.095 -1.6797  0.2985 -1.2375
 8423SOL    HW236729   4.047   1.948  12.135  0.2498 -0.8659 -2.0509
 8424SOL     OW36730   0.726   2.776   9.053 -0.2921 -0.8151  0.0921
 8424SOL    HW136731   0.783   2.840   9.096 -1.8917 -0.7932  2.1793
 8424SOL    HW236732   0.758   2.787   8.964  1.4205 -0.1109  0.7986
 8425SOL     OW36733   4.442   3.901   4.437 -0.5460  1.3352 -0.0744
 8425SOL    HW136734   4.513   3.867   4.492 -0.6964  0.4228 -0.4483
 8425SOL    HW236735   4.431   3.820   4.387 -0.4467  0.9560  0.5091
 8426SOL     OW36736   4.232   2.917  13.640 -0.5579 -0.2736  0.0052
 8426SOL    HW136737   4.310   2.960  13.606 -0.4610 -0.1497  0.3864
 8426SOL    HW236738   4.218   2.848  13.575 -0.2871 -0.7478  0.4455
 8427SOL     OW36739   4.278   2.989   7.496  0.6230 -0.3365  0.4484
 8427SOL    HW136740   4.222   2.926   7.450 -0.5150  1.5006 -0.6545
 8427SOL    HW236741   4.239   3.071   7.468 -0.8021 -0.9806  0.5177
 8428SOL     OW36742   2.894   2.625   4.286 -0.7878 -0.2568 -0.3121
 8428SOL    HW136743   2.932   2.702   4.244  1.2692 -0.7316  0.7228
 8428SOL    HW236744   2.799   2.642   4.282 -0.6455  0.9713  1.2114
 8429SOL     OW36745   3.317   1.344   7.930  0.1243  0.3289 -0.0866
 8429SOL    HW136746   3.310   1.281   7.858  1.9327  1.8378 -1.5935
 8429SOL    HW236747   3.337   1.285   8.002 -0.3511  0.9352  0.5382
 8430SOL     OW36748   3.342   2.349   3.624 -0.7132 -0.3321  0.1570
 8430SOL    HW136749   3.429   2.325   3.593 -0.8676 -2.9227  1.7274
 8430SOL    HW236750   3.296   2.265   3.621  1.4976 -1.5678  0.2157
 8431SOL     OW36751   1.711   1.913   4.068  1.0072 -0.4828 -0.4038
 8431SOL    HW136752   1.796   1.949   4.045  0.7572  0.0390 -0.5178
 8431SOL    HW236753   1.683   1.898   3.978 -0.5510  0.6279 -0.1148
 8432SOL     OW36754   2.352   1.874   3.939 -0.6688  0.3576  0.0724
 8432SOL    HW136755   2.366   1.967   3.921  1.4755  0.1938  0.8466
 8432SOL    HW236756   2.444   1.849   3.952 -1.2883  0.6661  4.8333
 8433SOL     OW36757   0.104   4.391  17.668  0.3446 -0.3803  0.5280
 8433SOL    HW136758   0.069   4.480  17.669 -0.4528 -0.6942  0.7242
 8433SOL    HW236759   0.063   4.357   0.055 -1.1990  1.1361  0.3786
 8434SOL     OW36760   4.087   3.818   3.379 -0.2119 -0.0254  0.0494
 8434SOL    HW136761   4.168   3.855   3.344  2.5208 -4.2584  2.0163
 8434SOL    HW236762   4.104   3.735   3.335  0.8837  1.1366 -1.7215
 8435SOL     OW36763   1.524   4.517  12.366  0.2110  0.0776 -0.0343
 8435SOL    HW136764   1.452   4.477  12.414  0.4161  0.5105  0.6371
 8435SOL    HW236765   1.485   4.517  12.279  0.4848 -0.0543 -0.1578
 8436SOL     OW36766   4.588   1.324   3.334 -0.4982 -0.2246  0.1129
 8436SOL    HW136767   4.611   1.380   3.260 -0.6629  0.1713  0.3621
 8436SOL    HW236768   4.593   1.391   3.402  0.1496  0.2719 -0.4159
 8437SOL     OW36769   2.641   4.027  16.434 -0.0579  0.1041  0.1218
 8437SOL    HW136770   2.577   3.975  16.385 -0.0135  0.3848 -0.2362
 8437SOL    HW236771   2.687   4.058  16.355 -1.4466 -0.9254 -1.0869
 8438SOL     OW36772   0.033   1.122   8.503  0.4822  0.0706 -0.1174
 8438SOL    HW136773   0.018   1.062   8.576 -1.3636  0.6136 -0.0584
 8438SOL    HW236774   4.700   1.195   8.531  0.7927 -0.3829  1.6611
 8439SOL     OW36775   2.466   4.148   6.123  0.4537  0.1218 -0.0356
 8439SOL    HW136776   2.504   4.093   6.056  0.3674 -0.8699  0.7291
 8439SOL    HW236777   2.544   4.201   6.136  2.0568 -2.1578 -0.4722
 8440SOL     OW36778   1.272   2.119   2.142  0.1376  0.0470  0.4845
 8440SOL    HW136779   1.362   2.122   2.111 -1.3293  2.0690 -3.5725
 8440SOL    HW236780   1.290   2.117   2.236 -1.0367  0.6486  0.7205
 8441SOL     OW36781   4.306   2.016   4.544  0.3209 -0.0548  0.6258
 8441SOL    HW136782   4.307   2.103   4.584  2.2996 -0.6090  1.7272
 8441SOL    HW236783   4.371   2.026   4.475 -1.5767  1.9428 -0.8739
 8442SOL     OW36784   0.269   4.319  12.087 -0.4119  0.6857 -0.1707
 8442SOL    HW136785   0.232   4.322  11.999  1.2364 -0.2743 -0.8999
 8442SOL    HW236786   0.212   4.379  12.135  0.2311  1.9106 -0.9470
 8443SOL     OW36787   1.998   4.290   5.996  0.6360 -0.2538 -0.3810
 8443SOL    HW136788   2.083   4.303   6.038  0.1750 -0.4687  0.6201
 8443SOL    HW236789   2.010   4.211   5.943 -0.7541 -0.6437 -0.1198
 8444SOL     OW36790   1.870   3.530  10.258  0.3675 -0.2445 -0.1466
 8444SOL    HW136791   1.777   3.555  10.263 -0.1387 -1.4542 -3.1179
 8444SOL    HW236792   1.910   3.584  10.326  1.0668 -1.1263  0.1334
 8445SOL     OW36793   4.342   2.050  17.215  0.2080  0.2587 -0.3670
 8445SOL    HW136794   4.400   2.051  17.292  0.8370  0.6712 -0.8477
 8445SOL    HW236795   4.400   2.090  17.151  0.5243  2.0644  1.0454
 8446SOL     OW36796   4.517   1.214   2.480  0.3725  0.0529 -0.4551
 8446SOL    HW136797   4.428   1.247   2.493  0.1477 -0.4665 -0.6985
 8446SOL    HW236798   4.511   1.207   2.384 -0.4216 -0.1774 -0.3849
 8447SOL     OW36799   4.719   0.395   6.923  0.3658  0.3789  0.1829
 8447SOL    HW136800   4.720   0.437   7.009  0.7802  0.6473  0.0436
 8447SOL    HW236801   4.655   0.324   6.925  0.1345  0.5635 -0.9251
 8448SOL     OW36802   0.461   2.301   5.221 -0.5628 -0.0283 -0.4459
 8448SOL    HW136803   0.552   2.312   5.195 -0.0355 -0.3650  1.2475
 8448SOL    HW236804   0.414   2.335   5.145 -1.2145 -0.8498 -0.4104
 8449SOL     OW36805   4.257   4.177   1.503  0.5789  0.4178 -0.1589
 8449SOL    HW136806   4.198   4.104   1.521  0.4970  0.7205  0.7748
 8449SOL    HW236807   4.342   4.134   1.518 -0.7386 -1.7900  0.9416
 8450SOL     OW36808   3.312   2.027   2.427  0.1945 -0.3940  0.1115
 8450SOL    HW136809   3.292   2.118   2.405  3.5453  0.2560 -0.2006
 8450SOL    HW236810   3.247   1.999   2.492 -1.6913  1.8741 -0.7832
 8451SOL     OW36811   4.706   1.942   2.390 -0.5472  0.4032  0.1110
 8451SOL    HW136812   4.694   1.860   2.343 -2.2311  1.5404 -1.4228
 8451SOL    HW236813   4.622   1.984   2.372 -0.4701  0.6641  0.3569
 8452SOL     OW36814   2.181   2.578   5.448  0.6993  0.3240  0.7968
 8452SOL    HW136815   2.201   2.645   5.382 -3.7385  0.5820 -0.2621
 8452SOL    HW236816   2.138   2.629   5.517  0.9625  0.1439  1.0939
 8453SOL     OW36817   1.088   1.259   3.036 -0.7105 -0.0215 -0.3350
 8453SOL    HW136818   1.105   1.320   2.964  0.4689 -0.2397 -0.2515
 8453SOL    HW236819   1.039   1.189   2.992 -0.0640 -0.2906 -0.6349
 8454SOL     OW36820   0.531   4.099   5.829  0.8284  0.0387  0.3845
 8454SOL    HW136821   0.511   4.185   5.865 -2.5027 -0.4975 -0.2236
 8454SOL    HW236822   0.502   4.036   5.895  0.1423 -0.9980 -0.9030
 8455SOL     OW36823   0.919   2.621  11.463 -0.1183 -0.8879  0.0724
 8455SOL    HW136824   0.944   2.649  11.551  0.8473 -2.7165  0.3867
 8455SOL    HW236825   0.824   2.633  11.466 -0.1926 -1.6934  0.8864
 8456SOL     OW36826   1.113   1.097   5.108  0.4070  0.6189 -0.0463
 8456SOL    HW136827   1.036   1.081   5.054  0.1232 -1.9325  1.1262
 8456SOL    HW236828   1.137   1.007   5.129  1.8560  1.4877  2.0210
 8457SOL     OW36829   1.544   0.153   3.440  0.7355 -0.1361  0.9358
 8457SOL    HW136830   1.453   0.146   3.410  0.9793 -0.5967  0.2997
 8457SOL    HW236831   1.586   0.185   3.360 -1.4602 -1.5233 -0.7681
 8458SOL     OW36832   1.292   1.136   9.720  0.3155 -0.3124  0.4594
 8458SOL    HW136833   1.286   1.074   9.647  2.0220 -0.5952  0.5564
 8458SOL    HW236834   1.387   1.133   9.731  0.0784  0.3315  2.6511
 8459SOL     OW36835   0.697   3.469  12.442 -0.2167  0.0149 -0.1799
 8459SOL    HW136836   0.757   3.536  12.474  1.6131 -0.4319 -2.7424
 8459SOL    HW236837   0.628   3.520  12.400  1.2823  0.1737 -2.4128
 8460SOL     OW36838   1.092   2.562   5.884 -0.0732  0.4637 -0.5588
 8460SOL    HW136839   1.141   2.606   5.815 -0.1410  0.1784 -0.7895
 8460SOL    HW236840   0.999   2.577   5.864 -0.1501  2.3904  1.3304
 8461SOL     OW36841   2.363   1.448   4.293  0.1928 -0.0602  0.2014
 8461SOL    HW136842   2.325   1.367   4.258  1.8633 -0.7469 -0.0399
 8461SOL    HW236843   2.284   1.501   4.297  1.3576  1.5489  1.5930
 8462SOL     OW36844   2.216   2.464  17.018  0.1816  0.0396  0.0883
 8462SOL    HW136845   2.207   2.391  17.080  1.5734  0.3080  0.5914
 8462SOL    HW236846   2.123   2.486  17.014  0.3567  1.2189  2.2662
 8463SOL     OW36847   3.614   2.873   8.312 -0.1085 -0.3299  0.5145
 8463SOL    HW136848   3.703   2.842   8.329  0.2170  0.5828  0.4911
 8463SOL    HW236849   3.627   2.885   8.218 -0.2386  1.3344  0.7120
 8464SOL     OW36850   3.439   2.910   5.658  0.0006  0.2461 -0.1516
 8464SOL    HW136851   3.455   2.993   5.611  0.8041 -0.6266 -1.4218
 8464SOL    HW236852   3.373   2.873   5.599  0.5807  0.4873 -0.9622
 8465SOL     OW36853   4.377   3.577   5.978  0.0099  0.3058 -0.0514
 8465SOL    HW136854   4.423   3.654   5.946  0.3748  0.5063  0.9451
 8465SOL    HW236855   4.419   3.564   6.064  0.8129  0.4494 -0.4214
 8466SOL     OW36856   3.174   0.047   1.706 -0.0097 -0.4808  0.1929
 8466SOL    HW136857   3.154   0.023   1.615 -1.5158  0.9771  0.1294
 8466SOL    HW236858   3.113   0.119   1.724 -0.1930 -1.1799  2.3679
 8467SOL     OW36859   4.348   1.649  11.790  0.1796 -0.7888  0.2978
 8467SOL    HW136860   4.322   1.567  11.748 -1.1848 -0.3009  0.1763
 8467SOL    HW236861   4.441   1.645  11.769 -0.0715  0.5044 -0.9950
 8468SOL     OW36862   3.709   3.809  13.300  0.6476 -0.0230 -0.8051
 8468SOL    HW136863   3.782   3.772  13.351  1.5856  0.8461 -1.5142
 8468SOL    HW236864   3.654   3.731  13.296  1.9830 -1.0635  0.6572
 8469SOL     OW36865   3.292   0.400  17.143  0.2606 -0.3174 -1.0860
 8469SOL    HW136866   3.364   0.461  17.129 -0.4117  0.9453  0.9164
 8469SOL    HW236867   3.339   0.317  17.146  0.6218 -0.0786 -0.0847
 8470SOL     OW36868   3.853   1.633   5.627  0.6234  0.2598  0.0460
 8470SOL    HW136869   3.839   1.669   5.539 -0.2854  1.0758  0.5270
 8470SOL    HW236870   3.782   1.571   5.644  2.3970 -1.7885 -0.1241
 8471SOL     OW36871   4.328   1.311   3.421 -0.2956  0.6883  0.5359
 8471SOL    HW136872   4.418   1.306   3.390 -0.5903  0.0863 -0.2244
 8471SOL    HW236873   4.326   1.263   3.503 -1.3775  0.4088  0.3489
 8472SOL     OW36874   4.465   4.700   8.257 -0.1630 -0.0237  0.4600
 8472SOL    HW136875   4.391   4.671   8.205 -0.8531  1.8108  0.4286
 8472SOL    HW236876   4.458   4.641   8.332  0.7519 -0.8026 -0.0636
 8473SOL     OW36877   0.886   3.911   8.949  0.9841  0.2432 -0.1539
 8473SOL    HW136878   0.853   4.001   8.951 -0.7570 -0.3969 -0.5120
 8473SOL    HW236879   0.923   3.903   8.861 -0.5839 -0.5473 -0.7269
 8474SOL     OW36880   3.764   2.572   7.113 -0.7753 -0.0710  0.2185
 8474SOL    HW136881   3.792   2.504   7.052 -1.1152  1.4824 -1.6442
 8474SOL    HW236882   3.805   2.656   7.089 -1.7438  0.6064  0.9250
 8475SOL     OW36883   0.350   4.649  14.537 -0.3920  0.6248  0.1449
 8475SOL    HW136884   0.313   4.603  14.612 -0.8090  0.9570  0.1409
 8475SOL    HW236885   0.411   4.585  14.500 -1.4853 -0.8722  0.9429
 8476SOL     OW36886   3.869   0.882  14.934  0.0019 -0.8886  0.1285
 8476SOL    HW136887   3.791   0.836  14.962  0.5232 -1.4435  0.6696
 8476SOL    HW236888   3.836   0.914  14.850  0.5555 -0.5321  0.0399
 8477SOL     OW36889   2.734   0.459   5.364 -0.2692  0.5242  0.3406
 8477SOL    HW136890   2.788   0.533   5.338 -0.7179  0.1848 -1.5435
 8477SOL    HW236891   2.738   0.469   5.459  0.3765 -1.4909  0.5340
 8478SOL     OW36892   0.422   2.106   1.506  0.3708  0.0841  0.1046
 8478SOL    HW136893   0.355   2.172   1.494 -1.4644 -1.7091  0.5550
 8478SOL    HW236894   0.473   2.156   1.570  0.6169  0.8605 -0.7008
 8479SOL     OW36895   3.436   0.620  12.232 -0.4203 -0.3039  0.4919
 8479SOL    HW136896   3.379   0.586  12.301 -0.3365  0.5615  0.9781
 8479SOL    HW236897   3.479   0.689  12.282 -2.4438  0.5733  1.0330
 8480SOL     OW36898   3.276   3.624   5.510 -0.3320 -0.0471  0.1027
 8480SOL    HW136899   3.326   3.572   5.573  0.8149 -0.8164 -1.4400
 8480SOL    HW236900   3.304   3.585   5.427 -2.2525  1.4321 -1.2417
 8481SOL     OW36901   3.041   1.571  11.249  0.4103 -0.4444 -0.4266
 8481SOL    HW136902   3.046   1.476  11.253 -0.4120 -0.5096 -0.9468
 8481SOL    HW236903   3.130   1.599  11.226 -0.2334  1.4072 -0.6712
 8482SOL     OW36904   0.019   2.866   8.449  0.3720 -0.3560  0.1185
 8482SOL    HW136905   0.000   2.911   8.531  2.4711  0.5678  0.0805
 8482SOL    HW236906   0.114   2.872   8.452  0.2810  0.4421  1.1962
 8483SOL     OW36907   1.074   1.107  16.659  0.2800 -0.0545 -0.1271
 8483SOL    HW136908   0.994   1.142  16.700  0.2655 -0.2937  0.0569
 8483SOL    HW236909   1.131   1.174  16.695 -0.2032 -0.5994  1.6762
 8484SOL     OW36910   0.775   0.864   7.967  0.4752 -0.3743  0.0934
 8484SOL    HW136911   0.752   0.934   8.027  0.7262  0.2807 -0.5803
 8484SOL    HW236912   0.693   0.837   7.926  1.0270 -0.1636 -1.1504
 8485SOL     OW36913   3.737   1.930  16.710 -0.0587  0.0273 -0.7264
 8485SOL    HW136914   3.672   2.000  16.702  0.9727  0.9571 -0.9647
 8485SOL    HW236915   3.766   1.933  16.801 -0.5517  4.9640 -0.7426
 8486SOL     OW36916   4.649   3.408   3.971 -0.0791 -0.3306  0.6467
 8486SOL    HW136917   4.650   3.473   3.901 -1.5033 -0.5846  0.4029
 8486SOL    HW236918   0.009   3.433   4.012  0.6245  0.5508 -1.3085
 8487SOL     OW36919   2.911   1.861  10.979  0.0113 -0.7014  0.0595
 8487SOL    HW136920   2.966   1.926  10.935 -0.7319  1.1570  1.8576
 8487SOL    HW236921   2.871   1.918  11.045 -2.4336 -0.3282 -1.7104
 8488SOL     OW36922   0.722   2.327   4.274 -0.6158 -0.0468  0.6663
 8488SOL    HW136923   0.695   2.417   4.295  0.2801  0.1212  1.1029
 8488SOL    HW236924   0.810   2.331   4.313 -0.3244  0.9307 -0.0965
 8489SOL     OW36925   3.535   1.718   1.536 -0.2526  0.0730  0.4643
 8489SOL    HW136926   3.628   1.699   1.546  0.0331 -0.1605 -2.5814
 8489SOL    HW236927   3.531   1.730   1.441  0.2370  2.8253  0.8003
 8490SOL     OW36928   1.885   4.356   1.182 -0.0497  0.3007 -0.3745
 8490SOL    HW136929   1.958   4.416   1.196  0.8961 -0.6229 -1.2495
 8490SOL    HW236930   1.853   4.398   1.102 -0.8680  0.8432  0.2427
 8491SOL     OW36931   4.306   2.237   8.333  0.3977  0.4582 -0.0326
 8491SOL    HW136932   4.306   2.333   8.324 -1.2500  0.2508 -2.2732
 8491SOL    HW236933   4.235   2.224   8.395  0.3372 -1.5386 -0.5291
 8492SOL     OW36934   2.430   1.375   8.444  0.2702 -0.0176 -0.1391
 8492SOL    HW136935   2.364   1.356   8.511 -0.3231  0.3376 -0.6374
 8492SOL    HW236936   2.459   1.461   8.472  1.1956  0.5377 -2.8207
 8493SOL     OW36937   3.751   0.615   2.181 -0.4452  0.6533  1.0191
 8493SOL    HW136938   3.843   0.590   2.181 -0.9908 -1.2639 -1.2239
 8493SOL    HW236939   3.712   0.580   2.101  0.7312 -1.1611  1.2613
 8494SOL     OW36940   0.736   1.188   6.443  0.0903  0.3695 -0.1512
 8494SOL    HW136941   0.830   1.177   6.434 -0.0444 -2.3001  1.5524
 8494SOL    HW236942   0.711   1.270   6.400  0.6340 -0.7422 -2.6142
 8495SOL     OW36943   1.029   3.331   5.354 -0.6027 -0.2182  0.4117
 8495SOL    HW136944   0.946   3.367   5.384 -0.8529  0.6975 -1.3715
 8495SOL    HW236945   1.023   3.319   5.259  0.3357  1.7619  0.1083
 8496SOL     OW36946   4.690   3.327   6.045 -0.3439  0.0485 -0.1751
 8496SOL    HW136947   4.639   3.387   6.099  1.3403  0.8214  0.5424
 8496SOL    HW236948   4.630   3.318   5.971 -1.0017  2.2169  0.0865
 8497SOL     OW36949   3.253   1.716   2.811  0.1020 -0.0007 -0.4339
 8497SOL    HW136950   3.306   1.779   2.861  1.8836  0.3749 -2.7580
 8497SOL    HW236951   3.222   1.779   2.746  3.2899  3.0637  1.0146
 8498SOL     OW36952   0.386   2.158  16.505  0.6669  0.0365 -0.0267
 8498SOL    HW136953   0.362   2.071  16.537  0.8868 -0.4444 -1.1655
 8498SOL    HW236954   0.468   2.154  16.455 -0.2116 -0.7535 -1.3983
 8499SOL     OW36955   3.422   3.680   2.195  0.5456  0.2738 -0.4266
 8499SOL    HW136956   3.406   3.631   2.276 -0.8110  0.2728 -0.7051
 8499SOL    HW236957   3.384   3.766   2.209 -0.4339  0.1063 -2.1606
 8500SOL     OW36958   0.389   1.985   8.911  0.4022  0.1479  0.4520
 8500SOL    HW136959   0.408   1.961   8.821  2.6373 -0.9652  1.2081
 8500SOL    HW236960   0.475   1.977   8.952  0.4509  1.5863  0.6252
 8501SOL     OW36961   2.180   2.445   9.721 -0.2489 -0.1350  0.4412
 8501SOL    HW136962   2.202   2.391   9.797 -0.9843  1.2978  1.6936
 8501SOL    HW236963   2.135   2.377   9.672  0.7786 -1.0161  0.7362
 8502SOL     OW36964   1.428   0.350   6.643 -0.2932  0.5448  0.2573
 8502SOL    HW136965   1.467   0.428   6.603  0.5046  0.1755  0.3152
 8502SOL    HW236966   1.492   0.281   6.626  0.3964  1.2047  0.1628
 8503SOL     OW36967   1.348   0.915  14.997 -0.0019 -0.1885  0.0266
 8503SOL    HW136968   1.410   0.855  14.957  1.7096  1.1205  0.7292
 8503SOL    HW236969   1.407   0.987  15.020 -1.1634  0.5315  0.7777
 8504SOL     OW36970   1.326   2.419  13.149 -0.8171  0.4289  0.4479
 8504SOL    HW136971   1.312   2.344  13.091  0.5631  0.4282  0.1299
 8504SOL    HW236972   1.314   2.494  13.090  0.2185  0.3071  0.0832
 8505SOL     OW36973   4.501   1.412   0.576 -0.0759  0.3342 -0.6390
 8505SOL    HW136974   4.459   1.471   0.639 -2.1668 -3.2821  1.3757
 8505SOL    HW236975   4.558   1.363   0.635  1.2107  1.2403 -1.1442
 8506SOL     OW36976   3.360   0.317   5.386 -0.2191  1.3720 -0.2909
 8506SOL    HW136977   3.374   0.240   5.330  0.4712  2.0297 -1.0077
 8506SOL    HW236978   3.421   0.375   5.342 -1.0270  1.0749 -1.8194
 8507SOL     OW36979   2.652   3.568  11.453  0.1607  0.7464  0.6151
 8507SOL    HW136980   2.659   3.597  11.544 -3.8889  0.8826  0.8728
 8507SOL    HW236981   2.661   3.647  11.401  0.9326  0.6582  0.6064
 8508SOL     OW36982   1.079   4.175  16.786  0.1447 -0.3965 -0.4117
 8508SOL    HW136983   1.095   4.239  16.856 -0.0918  0.4767 -1.1495
 8508SOL    HW236984   1.012   4.222  16.737  0.2374  0.1499 -0.0272
 8509SOL     OW36985   2.174   3.658   3.089  0.1651  0.2950 -0.2068
 8509SOL    HW136986   2.240   3.621   3.031 -0.0880  1.2650 -1.1158
 8509SOL    HW236987   2.143   3.585   3.142 -2.0070  0.9958 -0.4774
 8510SOL     OW36988   2.955   0.810   3.877  0.2352 -0.2864  0.1170
 8510SOL    HW136989   3.005   0.869   3.821 -2.5466 -1.9900 -4.2562
 8510SOL    HW236990   2.936   0.737   3.817  0.3168 -1.0753  1.0461
 8511SOL     OW36991   0.308   1.354   1.277  0.0585  0.3732 -0.3210
 8511SOL    HW136992   0.394   1.392   1.293 -0.0355  0.2814  0.3890
 8511SOL    HW236993   0.251   1.420   1.317 -0.1637 -1.0833  1.7721
 8512SOL     OW36994   2.615   1.831   5.917 -0.2986 -0.1213  0.2812
 8512SOL    HW136995   2.602   1.815   5.823  3.3376 -1.7455  0.0174
 8512SOL    HW236996   2.661   1.750   5.942 -0.0586  0.9075  3.0780
 8513SOL     OW36997   3.753   2.806   3.888  0.4938 -0.0040  0.2406
 8513SOL    HW136998   3.783   2.857   3.813  0.1877  0.5740  0.5051
 8513SOL    HW236999   3.810   2.840   3.958  0.8183  2.5526 -1.2521
 8514SOL     OW37000   0.425   3.036   6.247 -0.1046  0.4981  0.0246
 8514SOL    HW137001   0.512   3.017   6.213 -0.6533 -0.9916 -0.5082
 8514SOL    HW237002   0.372   3.030   6.167  2.6380  0.6155 -1.8192
 8515SOL     OW37003   0.132   4.115   5.880 -0.1235 -0.4782  0.0439
 8515SOL    HW137004   0.180   4.128   5.961  1.6524 -0.5666 -0.9943
 8515SOL    HW237005   0.189   4.163   5.820  0.7901 -0.5474  0.8532
 8516SOL     OW37006   1.544   4.346  13.046 -0.4634 -0.2795  0.7326
 8516SOL    HW137007   1.563   4.341  13.140  1.1402 -0.2485  0.4200
 8516SOL    HW237008   1.451   4.324  13.052 -0.2402 -0.8539  2.1809
 8517SOL     OW37009   0.631   0.781  13.563 -0.5071 -0.4590  0.3185
 8517SOL    HW137010   0.541   0.754  13.544 -1.1582  1.9532 -0.0586
 8517SOL    HW237011   0.680   0.740  13.492  0.1661 -0.5624  0.8449
 8518SOL     OW37012   1.272   0.664  10.657 -0.0418  0.0854 -0.4326
 8518SOL    HW137013   1.323   0.627  10.730  1.1852 -0.2766 -1.4674
 8518SOL    HW237014   1.220   0.588  10.630 -0.9616  0.2482  0.8843
 8519SOL     OW37015   2.526   0.165   6.458  0.4121 -0.2764  0.4320
 8519SOL    HW137016   2.555   0.158   6.549  0.9753  1.2240  0.3782
 8519SOL    HW237017   2.467   0.092   6.440  0.1755  0.2698 -1.0588
 8520SOL     OW37018   1.490   2.367   3.076 -0.4460 -0.2144  0.3237
 8520SOL    HW137019   1.428   2.381   3.147 -1.5310  0.7564 -0.7944
 8520SOL    HW237020   1.446   2.291   3.038 -0.8362  0.4812 -0.6355
 8521SOL     OW37021   2.229   1.807   3.565  0.6741  0.3427 -0.1995
 8521SOL    HW137022   2.303   1.866   3.577  0.1041  1.2078 -0.9924
 8521SOL    HW237023   2.156   1.867   3.575  1.9416  1.8681 -0.1707
 8522SOL     OW37024   2.106   1.095   6.091  0.6294  0.7254 -0.0551
 8522SOL    HW137025   2.186   1.125   6.048  0.6285  0.8221  0.0099
 8522SOL    HW237026   2.077   1.174   6.138  0.7475  0.1470  0.9846
 8523SOL     OW37027   0.313   2.289   5.678  0.1283  0.3903 -0.1786
 8523SOL    HW137028   0.389   2.287   5.736  1.0869  0.6939 -1.4225
 8523SOL    HW237029   0.342   2.251   5.595 -0.8958  1.9857 -1.2861
 8524SOL     OW37030   3.515   2.019   5.476  0.0030  0.4334 -0.8476
 8524SOL    HW137031   3.445   2.032   5.540  2.1104  2.1884  1.1258
 8524SOL    HW237032   3.587   2.059   5.526 -3.0368  0.1494  3.7802
 8525SOL     OW37033   2.432   4.597   6.367 -0.2485 -0.4946  0.7115
 8525SOL    HW137034   2.340   4.575   6.378 -1.3270  1.7158 -4.0353
 8525SOL    HW237035   2.433   4.594   6.272  3.0668  2.1951  0.6532
 8526SOL     OW37036   2.047   0.545   7.761 -0.7416 -0.3681 -0.0898
 8526SOL    HW137037   2.006   0.479   7.705 -0.0897  0.6514 -1.7819
 8526SOL    HW237038   2.113   0.579   7.701 -1.7575  0.2943 -0.8442
 8527SOL     OW37039   4.650   0.050   8.560  0.3580  0.6341  0.2708
 8527SOL    HW137040   4.646   0.098   8.642 -1.7851  1.5315 -0.3708
 8527SOL    HW237041   0.007   4.721   8.576 -0.4824 -0.3783  1.1881
 8528SOL     OW37042   2.422   1.909   7.984  0.2849  0.2512  0.0486
 8528SOL    HW137043   2.415   1.816   7.963 -0.7664  0.5599 -0.9861
 8528SOL    HW237044   2.384   1.951   7.906  2.1161  2.0505  0.1012
 8529SOL     OW37045   2.309   2.923   4.761 -0.4581  0.2131  0.0060
 8529SOL    HW137046   2.265   2.908   4.677  0.9298 -0.0189 -0.6748
 8529SOL    HW237047   2.395   2.951   4.731 -1.6670  1.9133 -1.9174
 8530SOL     OW37048   4.448   0.456  12.396  0.1524 -0.1584  0.1393
 8530SOL    HW137049   4.489   0.524  12.451 -0.9225  0.3998  0.2642
 8530SOL    HW237050   4.507   0.382  12.410  1.6453  1.1151  0.5901
 8531SOL     OW37051   2.278   3.331  15.329 -0.4110 -0.3870  0.4422
 8531SOL    HW137052   2.299   3.399  15.264 -1.3527  1.7023  2.3367
 8531SOL    HW237053   2.348   3.268  15.312  0.6098  0.9027 -0.1483
 8532SOL     OW37054   0.684   3.874  15.233 -0.4739 -0.1056  0.2375
 8532SOL    HW137055   0.700   3.939  15.165  1.3915 -2.2196 -1.3732
 8532SOL    HW237056   0.640   3.929  15.298  2.2336  3.2499 -0.7770
 8533SOL     OW37057   0.996   4.655   7.081  0.6684  0.1143 -0.5613
 8533SOL    HW137058   1.001   4.687   7.171  0.4340 -0.5454 -0.3179
 8533SOL    HW237059   1.014   0.018   7.042  0.3428  1.4696  2.3009
 8534SOL     OW37060   0.227   2.337  13.914  0.1147 -0.0494 -0.2506
 8534SOL    HW137061   0.179   2.395  13.974 -0.5739  0.9247 -1.7623
 8534SOL    HW237062   0.172   2.260  13.904 -0.0917 -0.2116  2.0435
 8535SOL     OW37063   0.935   4.598  16.730  0.2646  0.0371 -0.0629
 8535SOL    HW137064   1.030   4.612  16.735  0.3093 -0.0739 -0.6271
 8535SOL    HW237065   0.919   4.665  16.797  2.4944  0.3959  0.1144
 8536SOL     OW37066   0.259   0.386   8.527 -0.9582  0.3010  0.1238
 8536SOL    HW137067   0.352   0.409   8.522 -1.0136 -0.3166 -3.9097
 8536SOL    HW237068   0.256   0.302   8.480 -0.2346 -0.7296  1.8985
 8537SOL     OW37069   0.399   2.474   0.375  0.4427 -0.1931  0.5691
 8537SOL    HW137070   0.480   2.424   0.387 -0.4420 -1.7482  0.1106
 8537SOL    HW237071   0.434   2.551   0.420 -3.5060  1.1341  1.3283
 8538SOL     OW37072   2.600   4.668  10.817  0.4441 -0.4009  0.2246
 8538SOL    HW137073   2.566   0.034  10.835 -0.2350 -0.9332  1.5850
 8538SOL    HW237074   2.693   4.684  10.804  0.1224  2.0097  0.7351
 8539SOL     OW37075   4.579   3.297   7.530  0.2669 -0.1589 -0.2165
 8539SOL    HW137076   4.651   3.323   7.586  0.8461 -1.8045 -0.2018
 8539SOL    HW237077   4.515   3.274   7.597  0.7737  2.1183  1.0307
 8540SOL     OW37078   2.856   2.259  12.765  0.1181 -0.2715 -0.4023
 8540SOL    HW137079   2.951   2.261  12.753  0.1867 -1.2519  0.0156
 8540SOL    HW237080   2.827   2.348  12.744  0.2323 -0.1363  0.0176
 8541SOL     OW37081   1.422   0.233   9.154  1.0795 -0.0296  0.0881
 8541SOL    HW137082   1.426   0.175   9.230 -3.8907 -1.0837 -0.4436
 8541SOL    HW237083   1.387   0.316   9.187 -1.3350 -0.0769 -2.3124
 8542SOL     OW37084   1.210   1.899   3.381 -0.7525  0.2173 -0.3620
 8542SOL    HW137085   1.259   1.935   3.455 -0.6382  1.3576 -0.9969
 8542SOL    HW237086   1.226   1.804   3.379 -2.1986 -0.0555  0.6827
 8543SOL     OW37087   1.354   1.723   7.812  0.3091  0.2204  0.3877
 8543SOL    HW137088   1.428   1.706   7.754 -0.4635  3.5082 -1.5710
 8543SOL    HW237089   1.300   1.752   7.738 -1.1296  2.0016  2.1204
 8544SOL     OW37090   3.086   3.302   4.488 -0.6855  0.2246  0.2672
 8544SOL    HW137091   3.144   3.378   4.496 -0.3765  0.0854 -0.7386
 8544SOL    HW237092   3.049   3.321   4.575  0.3413  1.9945  0.3129
 8545SOL     OW37093   2.595   0.436   4.050  0.5142  0.1702 -0.2909
 8545SOL    HW137094   2.506   0.401   4.058  0.9150 -0.4076  1.7572
 8545SOL    HW237095   2.606   0.427   4.145  0.2073  3.5726  0.0539
 8546SOL     OW37096   3.881   3.969   4.799 -0.1153 -0.3309  0.2709
 8546SOL    HW137097   3.790   3.942   4.787  0.0711  0.3132 -2.4995
 8546SOL    HW237098   3.913   3.985   4.710  0.4621  0.7266  0.6754
 8547SOL     OW37099   3.963   0.389   3.088  0.4264 -0.3401  0.2127
 8547SOL    HW137100   3.960   0.299   3.058  1.0035 -0.2287 -0.1790
 8547SOL    HW237101   3.934   0.437   3.010 -0.8801 -2.0039 -0.3158
 8548SOL     OW37102   3.833   0.669   1.244  0.1192 -0.1001  0.2561
 8548SOL    HW137103   3.928   0.654   1.240  0.0296 -0.7222  0.4422
 8548SOL    HW237104   3.823   0.723   1.166  3.4297  0.4879  0.2317
 8549SOL     OW37105   3.175   0.278   4.150  0.0443  0.3314 -0.1505
 8549SOL    HW137106   3.251   0.333   4.165  0.4210 -0.6518  1.5628
 8549SOL    HW237107   3.175   0.305   4.058  1.7015  0.1599 -0.2057
 8550SOL     OW37108   0.718   1.954   3.559 -0.2991 -0.0820  0.2152
 8550SOL    HW137109   0.636   1.938   3.511 -0.5449  0.0526  0.5900
 8550SOL    HW237110   0.748   1.864   3.544  0.4128  0.5223 -1.9587
 8551SOL     OW37111   4.168   0.807   0.135 -0.3697 -0.1098 -0.1556
 8551SOL    HW137112   4.246   0.772   0.179  0.0648 -0.0449 -0.8731
 8551SOL    HW237113   4.123   0.846   0.210  0.2111 -0.6920  0.4921
 8552SOL     OW37114   4.708   2.795   6.119 -0.1010  0.4599  0.0603
 8552SOL    HW137115   4.690   2.742   6.197  0.7830 -0.4945 -0.3903
 8552SOL    HW237116   4.691   2.881   6.160  1.6710  0.4145  0.8612
 8553SOL     OW37117   1.618   0.847   2.347 -0.8169 -0.2131  0.3441
 8553SOL    HW137118   1.578   0.931   2.370 -1.3119  0.0342 -1.4565
 8553SOL    HW237119   1.557   0.784   2.387  1.0986 -2.5950 -0.5113
 8554SOL     OW37120   1.246   4.415   3.189 -0.5428 -0.8339 -0.1782
 8554SOL    HW137121   1.283   4.445   3.272 -0.5317  0.9420 -0.8163
 8554SOL    HW237122   1.152   4.426   3.207 -0.8581 -2.2652 -0.9918
 8555SOL     OW37123   1.019   2.756   8.191  0.4801 -0.1253 -0.3371
 8555SOL    HW137124   1.100   2.750   8.140  0.0455  1.0375 -1.1520
 8555SOL    HW237125   1.005   2.666   8.219  0.3848 -0.3286 -1.0511
 8556SOL     OW37126   0.452   0.884  16.602  0.3529 -0.6855  0.1123
 8556SOL    HW137127   0.512   0.937  16.654  1.3594 -0.4645 -1.2812
 8556SOL    HW237128   0.376   0.941  16.618  1.4632  0.8929 -0.2735
 8557SOL     OW37129   0.574   0.550  15.887 -0.4963  0.4925 -0.0604
 8557SOL    HW137130   0.485   0.584  15.882 -0.4392  0.6669  0.1260
 8557SOL    HW237131   0.591   0.541  15.980 -2.2750  0.1972  0.2170
 8558SOL     OW37132   3.571   0.175   2.230  0.4569 -0.3386 -0.0359
 8558SOL    HW137133   3.530   0.147   2.148  0.1891 -0.5824  0.1807
 8558SOL    HW237134   3.496   0.188   2.288  1.6417 -2.5739  2.0100
 8559SOL     OW37135   3.622   0.619   8.252  0.4148  0.1566 -0.7747
 8559SOL    HW137136   3.597   0.537   8.295  0.9147  0.1655 -0.4787
 8559SOL    HW237137   3.671   0.662   8.322  0.5871 -1.3667  0.0400
 8560SOL     OW37138   3.702   3.181   8.845  0.2332 -0.0253  0.2698
 8560SOL    HW137139   3.608   3.197   8.838  0.4860  2.0115  1.4763
 8560SOL    HW237140   3.706   3.085   8.852  0.5960 -0.0724 -0.6363
 8561SOL     OW37141   3.747   2.582  11.531 -0.0770 -0.2462  0.3286
 8561SOL    HW137142   3.841   2.575  11.519 -0.1394  0.7868 -0.6825
 8561SOL    HW237143   3.718   2.523  11.462 -0.2331  0.7586 -0.4582
 8562SOL     OW37144   3.119   0.075   9.416  0.0375  0.3120 -0.4506
 8562SOL    HW137145   3.077   0.080   9.501  0.2308 -0.8723 -0.2804
 8562SOL    HW237146   3.101   0.160   9.376  0.9485  1.7388  2.1811
 8563SOL     OW37147   2.702   2.864   8.157 -0.1354  0.4712  0.2891
 8563SOL    HW137148   2.620   2.833   8.196 -0.9654 -1.4390 -2.9452
 8563SOL    HW237149   2.682   2.860   8.064 -1.1223 -0.2911  0.5266
 8564SOL     OW37150   3.245   2.128   4.745  0.5512 -1.1064 -0.7467
 8564SOL    HW137151   3.224   2.055   4.687 -1.7629 -2.1238  1.3801
 8564SOL    HW237152   3.157   2.155   4.769  0.5691 -3.0501  1.5790
 8565SOL     OW37153   3.278   1.557  16.246  0.2051  0.4901 -0.1798
 8565SOL    HW137154   3.190   1.582  16.219 -0.4542  0.1992  1.6639
 8565SOL    HW237155   3.293   1.467  16.215 -2.7715 -0.1681  0.2430
 8566SOL     OW37156   1.961   3.770   6.522  0.5180  0.4769 -0.0569
 8566SOL    HW137157   2.048   3.768   6.483  0.6119 -1.1879  0.2083
 8566SOL    HW237158   1.976   3.779   6.616 -0.6239 -2.0855  0.4031
 8567SOL     OW37159   4.078   0.176   9.192 -0.3875  0.6439 -0.0476
 8567SOL    HW137160   4.153   0.192   9.134 -1.0418 -1.3800 -1.4642
 8567SOL    HW237161   4.023   0.144   9.120 -0.1888  0.4780 -0.1270
 8568SOL     OW37162   1.246   0.505   7.832  0.1013  0.4178 -0.0110
 8568SOL    HW137163   1.311   0.471   7.771 -0.3603  0.3842 -0.4844
 8568SOL    HW237164   1.184   0.433   7.838 -1.4580  1.8420  1.1657
 8569SOL     OW37165   4.008   4.655   4.626  0.0746  0.4375 -0.1175
 8569SOL    HW137166   4.038   4.645   4.536  0.5480  0.6155  0.0191
 8569SOL    HW237167   4.020   0.027   4.634 -3.0462  0.7854  0.5463
 8570SOL     OW37168   2.281   0.791   0.158 -0.0761  0.1259 -0.1085
 8570SOL    HW137169   2.208   0.846   0.186 -0.0475  0.4713 -0.7010
 8570SOL    HW237170   2.271   0.777   0.063  0.7063 -1.3774  0.0205
 8571SOL     OW37171   3.814   4.394  11.237  0.1184 -0.2137 -0.1089
 8571SOL    HW137172   3.788   4.454  11.307  2.2959  0.1999  0.3398
 8571SOL    HW237173   3.737   4.338  11.248 -1.2411  1.4621 -1.2477
 8572SOL     OW37174   3.591   0.930  12.803  0.0518 -0.0379 -0.1507
 8572SOL    HW137175   3.605   1.006  12.746 -1.3120 -1.1460 -1.9697
 8572SOL    HW237176   3.499   0.911  12.785  0.0941  0.2137 -0.6430
 8573SOL     OW37177   0.362   1.664  15.553 -0.0630 -0.0647  0.7824
 8573SOL    HW137178   0.276   1.637  15.523 -0.6001  2.4466  0.0288
 8573SOL    HW237179   0.328   1.711  15.628 -1.2619 -0.3191  0.3927
 8574SOL     OW37180   3.147   4.036  10.524  0.1034  0.2666  0.5903
 8574SOL    HW137181   3.155   4.077  10.438  1.1158  0.6235  0.8592
 8574SOL    HW237182   3.067   3.983  10.524  0.8854 -0.9356  0.5207
 8575SOL     OW37183   4.675   4.639   2.764  0.3524 -0.0414 -0.3872
 8575SOL    HW137184   4.666   4.692   2.685 -0.8945 -1.3437 -1.1111
 8575SOL    HW237185   0.046   4.647   2.784  0.8314  2.1025 -3.3972
 8576SOL     OW37186   0.815   0.627  14.869 -0.4588 -0.1001  0.0733
 8576SOL    HW137187   0.903   0.656  14.844  0.9117 -2.3524  2.1996
 8576SOL    HW237188   0.805   0.547  14.818  2.8657 -0.2891 -0.3357
 8577SOL     OW37189   1.021   3.456   1.929  0.3020  0.3808 -0.1117
 8577SOL    HW137190   1.045   3.406   1.852 -0.8810 -1.3007  0.5984
 8577SOL    HW237191   0.933   3.421   1.941 -0.4116  2.4984  0.8596
 8578SOL     OW37192   3.876   3.046   4.366 -0.3950  0.4804 -1.1254
 8578SOL    HW137193   3.900   3.128   4.409 -2.1125  0.3897  0.0297
 8578SOL    HW237194   3.951   2.995   4.397 -1.4266 -0.0003  0.5926
 8579SOL     OW37195   3.981   1.056   1.091 -0.3229  0.2240  0.4214
 8579SOL    HW137196   4.060   1.003   1.094  1.3098  2.6065 -0.3119
 8579SOL    HW237197   4.004   1.139   1.050  1.6682 -1.2039 -1.3253
 8580SOL     OW37198   0.568   3.147   8.563 -0.7315 -0.3207 -0.7371
 8580SOL    HW137199   0.552   3.053   8.577  0.8891 -0.3635  0.7930
 8580SOL    HW237200   0.539   3.164   8.474 -0.5436 -2.5509 -1.2241
 8581SOL     OW37201   2.227   4.333   6.677  0.4356 -0.2483 -0.2329
 8581SOL    HW137202   2.203   4.373   6.593  0.1975  1.0730  0.4566
 8581SOL    HW237203   2.231   4.239   6.665  0.3872 -0.2045 -0.5987
 8582SOL     OW37204   1.978   1.122   3.541  0.0914  0.3878 -0.3500
 8582SOL    HW137205   2.066   1.138   3.505  0.4458 -0.0091  0.3337
 8582SOL    HW237206   2.002   1.068   3.616 -2.6696  2.2851  1.8811
 8583SOL     OW37207   0.847   4.313   8.560  0.6625 -0.0911 -0.5528
 8583SOL    HW137208   0.807   4.375   8.622 -1.9243 -1.4810 -0.8165
 8583SOL    HW237209   0.934   4.305   8.599 -0.4211  0.3827  1.9812
 8584SOL     OW37210   0.017   0.883   4.938 -0.1099  0.2022 -0.2712
 8584SOL    HW137211   0.034   0.833   4.858  3.9726  1.6579 -0.3014
 8584SOL    HW237212   4.714   0.812   4.997  0.4784 -1.5094 -2.0557
 8585SOL     OW37213   0.657   3.540   8.935 -0.0501  0.0797  0.1622
 8585SOL    HW137214   0.672   3.548   8.841  1.1482 -0.7726  0.2863
 8585SOL    HW237215   0.728   3.481   8.961  2.0733  2.1209 -1.0002
 8586SOL     OW37216   1.164   1.136   6.814  0.0602 -0.6085  0.0453
 8586SOL    HW137217   1.143   1.055   6.860 -2.9723  0.7879  1.1051
 8586SOL    HW237218   1.255   1.146   6.840 -0.2511 -0.5824  1.1183
 8587SOL     OW37219   4.674   3.676   8.120 -0.1080  0.4480  0.8093
 8587SOL    HW137220   4.677   3.642   8.209  1.3648 -1.6249 -0.0402
 8587SOL    HW237221   0.041   3.654   8.095 -0.9973 -0.7857 -1.2860
 8588SOL     OW37222   0.878   1.816   5.930  0.1646 -0.1453 -0.5528
 8588SOL    HW137223   0.784   1.823   5.942  0.2191  0.6168 -0.5450
 8588SOL    HW237224   0.911   1.755   5.996 -1.5365  0.6337  1.0048
 8589SOL     OW37225   2.413   3.604  11.168 -0.3051 -0.4432 -0.6033
 8589SOL    HW137226   2.324   3.604  11.204  0.9275 -1.3163  2.4146
 8589SOL    HW237227   2.405   3.657  11.088  0.6849  0.8558  0.1657
 8590SOL     OW37228   0.337   3.852   4.771 -0.1526  0.3617  0.4368
 8590SOL    HW137229   0.410   3.806   4.812 -0.2975 -0.6653 -0.4539
 8590SOL    HW237230   0.277   3.851   4.845  0.8991  0.0265  1.3005
 8591SOL     OW37231   1.392   3.809   6.233  0.2993 -0.0324  0.0745
 8591SOL    HW137232   1.322   3.749   6.208  1.0747 -0.4268 -1.1981
 8591SOL    HW237233   1.409   3.843   6.145  1.5541 -0.8782 -0.0162
 8592SOL     OW37234   2.278   1.935   4.545  0.0457 -0.4342  0.3259
 8592SOL    HW137235   2.259   1.866   4.608 -0.5140  0.5592  1.2368
 8592SOL    HW237236   2.359   1.904   4.503 -0.4073  1.1082 -1.6729
 8593SOL     OW37237   0.259   3.559  12.869 -0.6283  0.0689  0.7397
 8593SOL    HW137238   0.300   3.491  12.922  0.4361  2.1520  2.5599
 8593SOL    HW237239   0.238   3.632  12.928 -0.0630  1.3979 -0.7188
 8594SOL     OW37240   0.066   1.195   4.372  0.0988 -0.1676  0.4274
 8594SOL    HW137241   0.112   1.183   4.455 -1.6603  3.5031  1.9442
 8594SOL    HW237242   0.034   1.106   4.365  2.1281 -0.6508 -3.0267
 8595SOL     OW37243   3.113   4.025  15.296 -0.2345 -0.8592 -0.1930
 8595SOL    HW137244   3.153   3.953  15.346  1.2480 -1.2490 -1.9386
 8595SOL    HW237245   3.040   4.054  15.351 -0.4512 -0.7506 -0.5364
 8596SOL     OW37246   3.577   4.438   3.179 -0.2299  0.0722  0.0406
 8596SOL    HW137247   3.651   4.408   3.232 -1.2750 -1.0167  0.8714
 8596SOL    HW237248   3.596   4.388   3.100 -2.4193  0.6972 -0.8964
 8597SOL     OW37249   0.495   0.767  11.979 -0.0794  0.6706 -0.4257
 8597SOL    HW137250   0.459   0.696  11.925  2.8662 -1.5611  0.5243
 8597SOL    HW237251   0.503   0.841  11.920 -1.3969  1.4294  0.3515
 8598SOL     OW37252   1.189   2.767  15.418 -0.3314 -0.4036 -0.1025
 8598SOL    HW137253   1.253   2.832  15.389 -0.8560  0.1011 -0.1227
 8598SOL    HW237254   1.226   2.752  15.505  0.5804 -1.7789 -0.7265
 8599SOL     OW37255   1.715   0.009   7.729 -0.4216 -0.1455 -0.4875
 8599SOL    HW137256   1.762   4.713   7.810 -1.0285 -1.9882 -0.5476
 8599SOL    HW237257   1.779   0.057   7.677 -1.0729 -1.3160 -2.3799
 8600SOL     OW37258   4.305   3.861   8.824 -0.0991  0.1595 -0.6213
 8600SOL    HW137259   4.257   3.932   8.867  2.0042  1.2350 -0.0654
 8600SOL    HW237260   4.267   3.785   8.868  1.3280 -0.8074 -1.0685
 8601SOL     OW37261   0.798   0.657   7.200  0.3646 -0.0991 -0.2153
 8601SOL    HW137262   0.838   0.697   7.278 -0.2032  0.0333  0.0094
 8601SOL    HW237263   0.804   0.730   7.139  1.9855 -1.4730 -1.6848
 8602SOL     OW37264   3.836   2.158   5.330  0.2791 -0.5935 -0.3426
 8602SOL    HW137265   3.866   2.067   5.325 -2.6027 -1.5360 -0.3601
 8602SOL    HW237266   3.818   2.188   5.419  2.4396 -2.2261  0.6399
 8603SOL     OW37267   0.229   3.772   5.788  0.2422  0.0225  0.3488
 8603SOL    HW137268   0.250   3.847   5.843 -1.6068  1.2770 -0.6578
 8603SOL    HW237269   0.295   3.711   5.822 -0.3818  0.5405  2.5195
 8604SOL     OW37270   0.627   0.407   3.290  0.3903 -0.0149 -0.4493
 8604SOL    HW137271   0.532   0.422   3.281  0.4812  0.4680 -0.5815
 8604SOL    HW237272   0.651   0.474   3.354  2.0135 -1.5945  0.5642
 8605SOL     OW37273   3.044   0.998  17.096 -0.2989 -0.4918  0.7194
 8605SOL    HW137274   3.128   0.983  17.053  0.4379 -0.5383  2.1606
 8605SOL    HW237275   2.983   0.944  17.048  0.1915 -0.8665  0.5191
 8606SOL     OW37276   3.577   3.634  17.155  0.2857 -0.6255 -0.2006
 8606SOL    HW137277   3.501   3.686  17.131  0.2094 -1.5612 -1.9469
 8606SOL    HW237278   3.545   3.578  17.226 -2.8499 -0.1803 -1.2813
 8607SOL     OW37279   0.240   3.377   3.351  0.0239  0.1266 -0.3096
 8607SOL    HW137280   0.214   3.325   3.274  1.9304  1.1961 -1.6865
 8607SOL    HW237281   0.160   3.363   3.401  0.6650 -1.3736  0.2678
 8608SOL     OW37282   2.993   2.181  17.561  0.0068 -0.1973  0.0583
 8608SOL    HW137283   3.039   2.104  17.595  1.7638 -0.3452 -2.6880
 8608SOL    HW237284   3.036   2.248  17.615 -1.7032  0.8089  0.1816
 8609SOL     OW37285   2.670   0.994   2.646  0.3678 -0.1115  0.7150
 8609SOL    HW137286   2.751   1.028   2.685  0.8986  0.8184 -1.1912
 8609SOL    HW237287   2.645   1.078   2.608  2.9490 -0.3608 -1.5528
 8610SOL     OW37288   0.923   1.107   2.812  0.1245 -0.0659  0.4441
 8610SOL    HW137289   0.952   1.071   2.728  0.9330 -1.7543  1.4406
 8610SOL    HW237290   0.861   1.040   2.842  0.1099 -0.3530 -0.2261
 8611SOL     OW37291   1.826   0.166   4.393  0.5321 -0.4747 -0.2332
 8611SOL    HW137292   1.917   0.144   4.372  0.2362 -0.6143 -1.3613
 8611SOL    HW237293   1.806   0.195   4.304  1.1522 -1.5495 -0.7151
 8612SOL     OW37294   2.134   4.110   4.881  0.0254 -0.5352  0.1503
 8612SOL    HW137295   2.050   4.067   4.872 -0.6950  1.3540 -2.0577
 8612SOL    HW237296   2.107   4.202   4.881  0.5281 -0.3887 -0.4217
 8613SOL     OW37297   3.212   2.893   4.450 -0.1916  0.7354 -0.0104
 8613SOL    HW137298   3.251   2.946   4.520 -0.0992  2.0771 -1.0708
 8613SOL    HW237299   3.244   2.808   4.480 -0.7625 -0.1428 -1.8524
 8614SOL     OW37300   3.263   3.613  14.692  0.5431 -0.3091  0.3518
 8614SOL    HW137301   3.201   3.595  14.762  1.2300 -1.7442  0.5890
 8614SOL    HW237302   3.290   3.705  14.701 -0.5971  0.0966 -0.4213
 8615SOL     OW37303   3.061   2.671   0.164  0.0091  0.3321 -0.5480
 8615SOL    HW137304   2.993   2.614   0.198  0.4511  0.8435  1.1603
 8615SOL    HW237305   3.143   2.624   0.180  0.9592  0.9813 -3.4053
 8616SOL     OW37306   0.306   0.164   3.483 -0.1645 -0.6566 -0.2225
 8616SOL    HW137307   0.285   0.216   3.406 -0.8293 -1.6369 -0.7172
 8616SOL    HW237308   0.357   0.095   3.441  0.9260 -0.6892  1.1804
 8617SOL     OW37309   2.765   1.859   2.324  0.2616 -0.5412  0.5740
 8617SOL    HW137310   2.740   1.944   2.361  0.1068  0.7638 -2.4714
 8617SOL    HW237311   2.788   1.889   2.236  1.0658 -1.0010  0.6340
 8618SOL     OW37312   2.175   2.038   9.749  0.3216 -0.1849 -0.4245
 8618SOL    HW137313   2.136   2.122   9.724  0.7049 -0.2408 -1.2269
 8618SOL    HW237314   2.113   1.994   9.807  0.7535  0.6022  0.6390
 8619SOL     OW37315   3.464   0.008   4.402  0.1331  0.3557  0.2620
 8619SOL    HW137316   3.374   4.706   4.383  0.9045 -2.3802  0.2263
 8619SOL    HW237317   3.451   0.095   4.440  0.6168  1.0556 -1.1849
 8620SOL     OW37318   1.276   1.070   3.173 -0.2036  0.4167 -0.7349
 8620SOL    HW137319   1.222   1.133   3.124 -0.3181  1.9968  1.4382
 8620SOL    HW237320   1.214   1.037   3.238  0.9133 -0.0021  0.1046
 8621SOL     OW37321   4.466   2.162   9.280 -0.5434  0.3133 -0.0392
 8621SOL    HW137322   4.456   2.254   9.256  1.9462 -0.0702 -2.5769
 8621SOL    HW237323   4.552   2.147   9.242 -1.0243 -0.8885 -0.6418
 8622SOL     OW37324   0.751   1.893   7.832 -0.6875 -0.2210  0.0698
 8622SOL    HW137325   0.780   1.802   7.825  0.4038  0.1263  0.1519
 8622SOL    HW237326   0.828   1.946   7.855 -0.9127  0.3572 -0.5014
 8623SOL     OW37327   0.872   4.205  12.608  0.4286  0.2586  0.2417
 8623SOL    HW137328   0.906   4.133  12.661 -0.6356 -2.0751 -2.2335
 8623SOL    HW237329   0.950   4.256  12.587 -0.4616  1.8804  0.9286
 8624SOL     OW37330   4.092   3.989   8.137  0.2369  0.0009 -0.0407
 8624SOL    HW137331   4.160   3.975   8.203  2.1182  4.5151 -1.0269
 8624SOL    HW237332   4.127   4.070   8.100 -2.2250  1.3804  0.6871
 8625SOL     OW37333   2.987   0.033   6.815  0.1125 -0.2816 -0.1455
 8625SOL    HW137334   2.993   0.037   6.910 -1.8282  0.0601 -0.0435
 8625SOL    HW237335   3.066   0.081   6.789  0.5172 -0.1863  1.2505
 8626SOL     OW37336   3.063   0.183   3.906  0.0351  0.0209  0.0174
 8626SOL    HW137337   3.026   0.270   3.891  0.1204 -0.1751 -1.3528
 8626SOL    HW237338   3.064   0.139   3.821  0.8695 -0.3605  0.2262
 8627SOL     OW37339   2.885   3.707   3.338  0.5179  0.4563 -0.2620
 8627SOL    HW137340   2.869   3.683   3.247 -2.7340  0.7177  0.2558
 8627SOL    HW237341   2.862   3.799   3.333 -1.5228 -0.0657 -0.2554
 8628SOL     OW37342   0.292   3.379   4.297  0.1404 -0.0451  0.3379
 8628SOL    HW137343   0.364   3.413   4.244  0.1724 -0.4038  0.1487
 8628SOL    HW237344   0.242   3.348   4.221 -0.7177 -0.2829  1.0079
 8629SOL     OW37345   3.195   4.532   1.300  0.1282  0.4169  0.4041
 8629SOL    HW137346   3.149   4.530   1.216 -0.0465  0.3277  0.5018
 8629SOL    HW237347   3.270   4.476   1.278  0.8486  1.7434 -0.4698
 8630SOL     OW37348   4.595   4.331   3.823 -0.6187  0.0305  0.2719
 8630SOL    HW137349   4.583   4.250   3.774 -0.6087 -0.1029  0.4919
 8630SOL    HW237350   4.637   4.392   3.762  1.4407 -2.5503 -0.8824
 8631SOL     OW37351   0.624   1.666   8.675 -0.4431 -0.1332 -0.4036
 8631SOL    HW137352   0.676   1.617   8.739 -0.7431 -1.6983 -1.3768
 8631SOL    HW237353   0.596   1.601   8.611  1.4228 -1.7387  0.4018
 8632SOL     OW37354   2.840   0.468   6.901  0.3278 -0.7135  0.0567
 8632SOL    HW137355   2.806   0.556   6.915 -1.8173 -0.9288 -3.8058
 8632SOL    HW237356   2.807   0.412   6.972 -2.9490  2.2070  0.8621
 8633SOL     OW37357   0.865   0.054  15.999 -0.1604 -0.5960 -0.4558
 8633SOL    HW137358   0.861   4.687  15.966 -2.2504 -0.6081 -0.1792
 8633SOL    HW237359   0.946   0.089  15.964  0.1644 -2.1454 -1.2931
 8634SOL     OW37360   0.337   1.227   0.244 -0.0676  0.7005  0.0442
 8634SOL    HW137361   0.296   1.141   0.238 -0.0298  0.6271  0.9076
 8634SOL    HW237362   0.282   1.270   0.310  0.4308 -1.1332  1.6272
 8635SOL     OW37363   3.432   2.216   7.350 -0.1631 -0.1923  0.3109
 8635SOL    HW137364   3.489   2.175   7.285 -0.7169 -0.6156  0.0890
 8635SOL    HW237365   3.343   2.183   7.336  0.4442 -1.2030 -1.1846
 8636SOL     OW37366   4.598   4.140   4.059  0.1423  0.2564 -1.0714
 8636SOL    HW137367   4.614   4.213   3.999  0.0625  1.4206  0.3292
 8636SOL    HW237368   4.552   4.088   3.993 -1.3411 -0.0872  0.2634
 8637SOL     OW37369   4.520   4.145   1.825  0.1295  0.3535 -0.2605
 8637SOL    HW137370   4.488   4.129   1.914  1.9184  1.7844  0.6432
 8637SOL    HW237371   4.546   4.238   1.824  0.7685  0.1745 -0.1259
 8638SOL     OW37372   3.106   2.294   1.503  0.2283  0.0195  0.0850
 8638SOL    HW137373   3.104   2.200   1.519 -1.5622 -0.0978 -0.7886
 8638SOL    HW237374   3.178   2.308   1.442 -1.1305  1.5979 -1.1640
 8639SOL     OW37375   2.612   1.705   3.696  0.0413  0.0860  0.4170
 8639SOL    HW137376   2.555   1.776   3.667  0.5526  0.3013 -0.0513
 8639SOL    HW237377   2.678   1.753   3.746  0.2736  0.3723 -0.1631
 8640SOL     OW37378   4.618   0.537   8.302  0.5623 -0.5994 -0.0553
 8640SOL    HW137379   4.575   0.518   8.219 -1.3281 -2.4351  1.3136
 8640SOL    HW237380   4.638   0.447   8.327  0.2769  0.2898  3.3772
 8641SOL     OW37381   2.411   1.868   2.296 -0.1366 -0.7172 -0.3080
 8641SOL    HW137382   2.420   1.923   2.218 -1.4814 -1.6286 -1.1058
 8641SOL    HW237383   2.425   1.779   2.262 -0.9529 -0.4106 -1.4729
 8642SOL     OW37384   2.891   2.092   7.245  0.2120 -0.2391  0.0786
 8642SOL    HW137385   2.939   2.115   7.324  1.7573 -0.9882 -0.6482
 8642SOL    HW237386   2.887   2.179   7.205 -1.0522 -1.4920 -2.5467
 8643SOL     OW37387   1.729   1.914  12.634  0.7353 -0.3409 -0.3110
 8643SOL    HW137388   1.716   1.975  12.707  1.1863 -0.0313 -0.4877
 8643SOL    HW237389   1.638   1.915  12.604  1.1382 -0.3499 -1.5613
 8644SOL     OW37390   2.061   4.172   8.577  0.2889 -0.5128  0.3365
 8644SOL    HW137391   1.971   4.191   8.551  0.5392 -0.0574 -0.1976
 8644SOL    HW237392   2.054   4.120   8.657 -1.5985 -0.5578  0.1284
 8645SOL     OW37393   1.727   0.458   0.681 -0.3032  0.5727 -0.2167
 8645SOL    HW137394   1.650   0.514   0.672  0.1572  1.9241  4.5247
 8645SOL    HW237395   1.801   0.496   0.632 -0.7337 -1.5067 -2.4573
 8646SOL     OW37396   4.087   2.073   4.736 -0.4374 -0.5205 -0.2698
 8646SOL    HW137397   3.995   2.047   4.733 -1.0839  1.7961 -0.5841
 8646SOL    HW237398   4.071   2.165   4.713  3.4113  0.2387  0.1275
 8647SOL     OW37399   2.442   2.486   6.213  0.0471 -0.3050  0.0290
 8647SOL    HW137400   2.361   2.504   6.166 -1.7719 -2.0566  2.5143
 8647SOL    HW237401   2.398   2.479   6.298 -1.0221 -0.1007 -0.5120
 8648SOL     OW37402   2.490   1.930  14.670 -0.0969  0.2511  0.2981
 8648SOL    HW137403   2.500   2.025  14.662 -1.1816  0.0648 -3.0964
 8648SOL    HW237404   2.411   1.920  14.616 -0.6876 -0.4162  1.2788
 8649SOL     OW37405   2.626   2.708   5.424 -0.2764 -0.0221  0.4761
 8649SOL    HW137406   2.640   2.730   5.516 -2.6759 -0.8936  1.0696
 8649SOL    HW237407   2.563   2.637   5.437  2.0637 -2.0687  0.5498
 8650SOL     OW37408   0.825   0.861   6.952 -0.9326  0.1399  0.5775
 8650SOL    HW137409   0.886   0.909   7.008  0.8394  0.5085 -1.6451
 8650SOL    HW237410   0.827   0.915   6.873 -0.2720  0.6997  0.9809
 8651SOL     OW37411   0.137   3.699  14.754  1.0141  0.1061 -0.1517
 8651SOL    HW137412   0.167   3.682  14.665 -2.1793 -1.1766 -0.9900
 8651SOL    HW237413   0.147   3.794  14.765  2.6211  0.0364 -1.0353
 8652SOL     OW37414   3.789   1.302   1.597  0.0963  0.5225 -0.1060
 8652SOL    HW137415   3.700   1.332   1.581  1.0139  3.4141  0.1921
 8652SOL    HW237416   3.840   1.382   1.584  2.3067 -0.4581  2.2287
 8653SOL     OW37417   2.936   0.426   4.124 -0.2785 -0.4886  0.2775
 8653SOL    HW137418   2.957   0.439   4.032  1.9674 -1.7883  0.5823
 8653SOL    HW237419   3.007   0.369   4.156  0.4887 -0.0964 -0.7525
 8654SOL     OW37420   1.955   0.915   4.627  0.6997 -0.4710  0.1160
 8654SOL    HW137421   1.943   0.846   4.693 -0.3086  1.2769  1.7770
 8654SOL    HW237422   1.951   0.994   4.681 -2.0169 -0.1760 -0.5141
 8655SOL     OW37423   4.454   3.153   1.365 -0.0224 -0.2634 -0.0202
 8655SOL    HW137424   4.521   3.211   1.330  2.4242 -3.2544 -0.3048
 8655SOL    HW237425   4.482   3.135   1.454 -0.8491  0.9286  0.4800
 8656SOL     OW37426   4.135   2.942   4.335  0.3832 -0.1701  0.0452
 8656SOL    HW137427   4.201   3.006   4.310 -0.1442  0.0857 -0.6883
 8656SOL    HW237428   4.144   2.871   4.271  1.2726  0.8047 -0.9278
 8657SOL     OW37429   1.833   3.039   9.981 -0.0961 -0.2134  0.6081
 8657SOL    HW137430   1.920   3.004  10.000 -0.1812 -1.7260 -1.7730
 8657SOL    HW237431   1.832   3.111  10.044  2.3147 -0.3968  0.8658
 8658SOL     OW37432   4.720   3.028  11.216  0.0495 -0.4875  0.2997
 8658SOL    HW137433   0.069   2.969  11.192 -0.0575 -0.2457 -0.6178
 8658SOL    HW237434   4.678   3.036  11.130 -1.2743 -2.2977  0.7868
 8659SOL     OW37435   0.834   0.294   4.108 -0.2821 -0.3887 -0.1759
 8659SOL    HW137436   0.892   0.363   4.140 -0.1672 -1.1229  1.1739
 8659SOL    HW237437   0.751   0.339   4.126  0.2963  0.2169  0.9801
 8660SOL     OW37438   2.872   0.079   4.629 -0.0967 -0.1474 -0.0201
 8660SOL    HW137439   2.840   0.011   4.571  0.0134 -1.5113  1.5070
 8660SOL    HW237440   2.798   0.140   4.624 -1.3417 -1.6978 -0.5552
 8661SOL     OW37441   2.118   4.366   9.530 -0.9489 -0.3708  0.3389
 8661SOL    HW137442   2.079   4.454   9.528 -0.4632 -0.1801 -0.6401
 8661SOL    HW237443   2.049   4.300   9.530 -1.1586 -0.1552  0.7004
 8662SOL     OW37444   3.521   3.903  13.617  0.3418 -0.0320  0.7793
 8662SOL    HW137445   3.556   3.987  13.646  0.6602  0.9057 -2.3420
 8662SOL    HW237446   3.468   3.881  13.694 -0.7585 -1.2455 -0.3316
 8663SOL     OW37447   1.978   0.363   9.828 -0.1443 -0.3194 -0.1488
 8663SOL    HW137448   1.910   0.297   9.819 -1.0491  0.2432  2.5386
 8663SOL    HW237449   1.991   0.396   9.739  0.8120  2.1981  0.9232
 8664SOL     OW37450   1.224   1.273  12.868  0.1429  0.4140 -0.3742
 8664SOL    HW137451   1.224   1.352  12.923 -0.5594  0.9221 -1.1035
 8664SOL    HW237452   1.206   1.306  12.780  1.1134 -0.3551 -0.8453
 8665SOL     OW37453   3.175   0.266   8.605  0.1415  0.1266 -0.2769
 8665SOL    HW137454   3.242   0.331   8.586  1.0229 -0.7891 -0.3188
 8665SOL    HW237455   3.093   0.315   8.597  0.0038  0.3818  2.5110
 8666SOL     OW37456   2.296   1.410   1.908  0.1642 -0.2727  0.0297
 8666SOL    HW137457   2.352   1.485   1.925 -0.4632  0.1490  0.2187
 8666SOL    HW237458   2.325   1.358   1.983  0.1330  0.8429  0.8076
 8667SOL     OW37459   3.155   1.293   3.357 -0.0411  0.1594 -0.0444
 8667SOL    HW137460   3.151   1.263   3.448  0.3874 -0.3700 -0.2062
 8667SOL    HW237461   3.250   1.293   3.350 -0.0408 -1.0501  0.0193
 8668SOL     OW37462   4.596   4.246   7.888  0.1119  0.0792  0.8097
 8668SOL    HW137463   4.603   4.158   7.851  0.6406  0.6790 -0.5057
 8668SOL    HW237464   4.620   4.288   7.806  0.4502 -1.5283  0.0820
 8669SOL     OW37465   1.016   0.763  14.073  0.0601  0.0387 -0.5959
 8669SOL    HW137466   0.931   0.803  14.053 -0.0420  0.0288 -0.1695
 8669SOL    HW237467   1.037   0.808  14.155 -2.6723  1.7084 -0.8031
 8670SOL     OW37468   1.388   0.796   5.987 -0.3645 -0.1143 -0.0997
 8670SOL    HW137469   1.357   0.706   5.979  1.5554 -0.9035  1.5012
 8670SOL    HW237470   1.427   0.797   6.074 -1.5009 -0.2258  0.4142
 8671SOL     OW37471   3.948   1.602  14.200  0.2932 -0.2183  0.0718
 8671SOL    HW137472   3.883   1.541  14.166 -0.1820  0.2270  0.1819
 8671SOL    HW237473   3.928   1.684  14.156 -1.4219 -1.1227 -0.8303
 8672SOL     OW37474   0.858   0.041  10.831 -0.0435  0.0838  0.7909
 8672SOL    HW137475   0.809   0.120  10.855  0.0567  0.5300 -0.4480
 8672SOL    HW237476   0.902   0.028  10.915  0.4780 -0.3943  0.4451
 8673SOL     OW37477   3.306   3.584   2.462  0.5865 -0.2329 -0.2154
 8673SOL    HW137478   3.240   3.652   2.476  0.7325 -0.2576  0.6132
 8673SOL    HW237479   3.253   3.515   2.425  1.3401  0.3187 -2.3188
 8674SOL     OW37480   3.925   1.825   3.507 -0.1127 -0.1774  0.3390
 8674SOL    HW137481   3.885   1.847   3.423 -0.1866  1.0565  0.6885
 8674SOL    HW237482   3.993   1.771   3.468 -2.0124 -2.2573 -0.0929
 8675SOL     OW37483   0.618   2.876   4.263  0.6026 -0.6634 -0.5333
 8675SOL    HW137484   0.547   2.852   4.204  1.5437  0.4612 -2.1282
 8675SOL    HW237485   0.671   2.920   4.197  0.8858  1.0733  0.8597
 8676SOL     OW37486   4.660   0.008  10.588  0.1776  0.0663  0.0226
 8676SOL    HW137487   4.606   0.051  10.654 -0.6943  0.7619 -1.1452
 8676SOL    HW237488   4.612   4.648  10.575  0.6768 -0.5127  1.8223
 8677SOL     OW37489   2.662   3.019   1.885 -0.4246  0.3284 -0.6370
 8677SOL    HW137490   2.711   3.026   1.967  1.8202 -1.2602 -1.8571
 8677SOL    HW237491   2.728   2.981   1.828  1.3109  0.7773  1.0599
 8678SOL     OW37492   1.964   0.402   7.104 -0.5431 -0.4874 -0.7091
 8678SOL    HW137493   1.903   0.436   7.038 -0.9429  0.0633 -0.0577
 8678SOL    HW237494   1.964   0.479   7.162  2.2350  1.0755 -2.8099
 8679SOL     OW37495   4.246   0.148   5.974  0.5562  0.5021 -0.0853
 8679SOL    HW137496   4.233   0.240   5.996  2.7282  0.3880  1.6281
 8679SOL    HW237497   4.224   0.106   6.057 -0.4367  0.2376 -0.4784
 8680SOL     OW37498   2.173   2.280   1.700 -0.2569 -0.2238  0.5873
 8680SOL    HW137499   2.134   2.243   1.779 -0.4304 -1.5547 -0.1354
 8680SOL    HW237500   2.232   2.208   1.678 -1.3032  0.2492 -3.8085
 8681SOL     OW37501   4.474   0.175   3.453 -0.0604  0.0220 -0.8351
 8681SOL    HW137502   4.555   0.213   3.486 -1.1199  0.6612  1.0720
 8681SOL    HW237503   4.418   0.214   3.520 -2.9263 -1.4198 -2.3854
 8682SOL     OW37504   1.901   2.634   4.419  0.0156  0.5858 -0.4643
 8682SOL    HW137505   1.811   2.614   4.396  0.2153  0.6084 -1.2602
 8682SOL    HW237506   1.891   2.729   4.422 -0.3387  0.5511 -0.6431
 8683SOL     OW37507   4.617   1.851   3.642  0.1999  0.4775 -0.1878
 8683SOL    HW137508   4.619   1.915   3.570 -1.5958  0.8263  0.0769
 8683SOL    HW237509   4.526   1.823   3.647  0.3917 -0.8442 -4.2108
 8684SOL     OW37510   0.080   3.465   9.742  0.9082 -0.6448 -0.2632
 8684SOL    HW137511   0.164   3.423   9.726  1.4180  0.3144 -0.0845
 8684SOL    HW237512   0.028   3.386   9.725  1.6173 -1.2539  0.4463
 8685SOL     OW37513   4.555   4.422   4.865  0.0155 -0.0724 -0.1686
 8685SOL    HW137514   4.644   4.419   4.830  0.1876  0.4492  0.2152
 8685SOL    HW237515   4.508   4.428   4.782 -0.9255  1.4189  0.4610
 8686SOL     OW37516   0.241   2.128   8.632 -0.0857  0.6502 -0.5289
 8686SOL    HW137517   0.325   2.104   8.670  1.3083  2.6834 -2.3318
 8686SOL    HW237518   0.178   2.115   8.703 -0.1920  0.4306 -0.6628
 8687SOL     OW37519   2.632   0.036   1.663 -0.3350 -0.7540  0.1603
 8687SOL    HW137520   2.622   0.028   1.758 -0.4776  0.4925  0.2531
 8687SOL    HW237521   2.607   0.127   1.646 -0.8104 -0.7483  0.8709
 8688SOL     OW37522   1.607   3.391   7.010 -0.0881  0.6521 -0.0319
 8688SOL    HW137523   1.577   3.306   7.042  3.9682 -0.4162  0.8958
 8688SOL    HW237524   1.668   3.416   7.080  1.6207  0.3592 -1.4147
 8689SOL     OW37525   3.593   4.666   2.365 -0.4192 -0.2909  0.1748
 8689SOL    HW137526   3.583   0.028   2.321 -0.5948 -0.5913 -0.3701
 8689SOL    HW237527   3.663   4.628   2.311  0.9141  0.3794  1.4560
 8690SOL     OW37528   3.565   4.096  14.751 -0.7671 -0.6912  0.1496
 8690SOL    HW137529   3.617   4.156  14.806 -1.9770 -0.2088  0.7546
 8690SOL    HW237530   3.481   4.108  14.794 -1.2345  0.4319 -1.0813
 8691SOL     OW37531   4.193   3.773   4.238  0.2427  0.1704  0.0494
 8691SOL    HW137532   4.105   3.775   4.201 -0.2039  0.0991  1.1057
 8691SOL    HW237533   4.246   3.715   4.184  2.3326  0.8312  1.3721
 8692SOL     OW37534   0.728   3.458   4.224 -0.0589 -0.0539  0.3816
 8692SOL    HW137535   0.808   3.412   4.251 -0.4361 -0.5390  0.6790
 8692SOL    HW237536   0.757   3.549   4.211 -0.1785 -0.2175 -1.0042
 8693SOL     OW37537   0.388   0.070  17.150  0.2900  0.6366  0.9397
 8693SOL    HW137538   0.445   4.718  17.133  2.1462  2.0905  0.7377
 8693SOL    HW237539   0.449   0.132  17.190  0.2834  0.9971  0.3931
 8694SOL     OW37540   1.699   3.379   6.033 -0.5332  0.9554  0.1926
 8694SOL    HW137541   1.604   3.387   6.038 -0.4224  1.2433  1.5793
 8694SOL    HW237542   1.708   3.304   5.973  1.8153  0.4739  1.1468
 8695SOL     OW37543   2.880   4.021   7.261 -0.4098  0.1964 -0.1140
 8695SOL    HW137544   2.912   3.989   7.345  0.9906  1.1589 -0.2599
 8695SOL    HW237545   2.903   3.960   7.191 -0.1967  0.5839 -0.3841
 8696SOL     OW37546   3.495   0.046   1.692 -0.2086  0.2607 -0.5369
 8696SOL    HW137547   3.432   4.708   1.654  1.4988 -1.0107 -1.3674
 8696SOL    HW237548   3.457   0.128   1.660 -2.7088 -0.1495  1.4194
 8697SOL     OW37549   4.427   0.549   4.202  0.0183 -0.0189  0.0050
 8697SOL    HW137550   4.471   0.621   4.156 -0.2840 -0.4190 -0.9102
 8697SOL    HW237551   4.380   0.601   4.266  1.8466 -0.2589  1.5408
 8698SOL     OW37552   0.674   4.269   0.906  0.2091  0.5526  0.1645
 8698SOL    HW137553   0.728   4.263   0.828  0.3494 -0.9792  0.3839
 8698SOL    HW237554   0.729   4.309   0.973  1.6013 -0.8704 -0.1349
 8699SOL     OW37555   2.307   3.178   9.756  0.2537  0.2915  0.0891
 8699SOL    HW137556   2.334   3.197   9.666  1.4232 -1.0961  0.1547
 8699SOL    HW237557   2.337   3.090   9.779 -2.7054 -0.4120  1.1620
 8700SOL     OW37558   1.491   2.598   1.219  0.8480  0.5869  0.2095
 8700SOL    HW137559   1.467   2.626   1.131  0.5215  1.5930  0.6136
 8700SOL    HW237560   1.577   2.635   1.233  1.5166 -0.8233 -0.1387
 8701SOL     OW37561   2.237   1.213   3.417 -0.0439  0.0301 -0.0969
 8701SOL    HW137562   2.243   1.137   3.359  1.8170 -0.1665  0.3500
 8701SOL    HW237563   2.319   1.218   3.466  0.7678 -1.6906 -1.2838
 8702SOL     OW37564   2.818   1.391  11.009 -0.0027 -0.1050  0.1101
 8702SOL    HW137565   2.820   1.298  11.033  0.5313 -0.3661 -0.9324
 8702SOL    HW237566   2.812   1.378  10.914 -1.8181  1.7238 -0.0298
 8703SOL     OW37567   3.006   3.822   5.341 -0.3925  0.4093  0.0067
 8703SOL    HW137568   2.941   3.801   5.274 -0.1067  0.7080 -0.3647
 8703SOL    HW237569   3.082   3.809   5.285 -0.0065  1.3319  0.3184
 8704SOL     OW37570   0.468   1.920   8.678  0.9021 -0.0613  0.7935
 8704SOL    HW137571   0.525   1.844   8.685  0.3354 -0.6479 -0.9268
 8704SOL    HW237572   0.467   1.931   8.583  0.3710  3.7211  1.2047
 8705SOL     OW37573   3.134   1.079   0.909  0.3868  0.2899  0.1337
 8705SOL    HW137574   3.179   1.023   0.973  0.9253 -1.0564 -1.4097
 8705SOL    HW237575   3.136   1.019   0.834 -3.3670 -0.5943  0.7215
 8706SOL     OW37576   0.294   3.778   8.559 -0.5540 -0.2437 -0.5082
 8706SOL    HW137577   0.277   3.793   8.652 -1.7623 -1.5600 -0.5189
 8706SOL    HW237578   0.283   3.866   8.522 -0.5664  0.1861  0.5029
 8707SOL     OW37579   2.920   1.459  17.353  0.1961  0.2231 -0.3297
 8707SOL    HW137580   2.914   1.490  17.263 -1.3081  1.2723  0.1238
 8707SOL    HW237581   2.941   1.541  17.399  0.0180 -1.8265  3.4345
 8708SOL     OW37582   0.181   0.208   8.156  0.2042 -0.4440 -0.0148
 8708SOL    HW137583   0.089   0.229   8.142  0.4410  0.0776 -0.7492
 8708SOL    HW237584   0.186   0.119   8.120  1.5978 -0.6169  0.5764
 8709SOL     OW37585   4.016   3.973   6.100 -0.6270 -0.0976 -0.3389
 8709SOL    HW137586   4.013   3.922   6.020 -2.3046  0.4260 -0.6119
 8709SOL    HW237587   3.981   3.908   6.161 -0.2125 -0.2584 -0.2701
 8710SOL     OW37588   1.067   3.405   2.424  0.0696 -0.1137  0.1777
 8710SOL    HW137589   1.086   3.427   2.333  1.1426 -0.1434  0.3958
 8710SOL    HW237590   1.027   3.483   2.463 -0.7194 -0.8720  0.9101
 8711SOL     OW37591   0.443   0.061   4.281  0.6749  0.9255  0.2063
 8711SOL    HW137592   0.511   0.037   4.345  0.1132  0.6747  0.7057
 8711SOL    HW237593   0.479   0.146   4.255  0.4708  1.3534  1.3320
 8712SOL     OW37594   4.375   3.724   0.168 -0.0719 -0.0826 -0.0045
 8712SOL    HW137595   4.470   3.728   0.183  0.2379  1.4766 -2.3697
 8712SOL    HW237596   4.362   3.633   0.197 -0.8878  0.5678  1.6312
 8713SOL     OW37597   1.596   4.637   5.559  0.7169  0.1678  0.1171
 8713SOL    HW137598   1.613   4.557   5.509 -2.0476  1.1257 -2.3590
 8713SOL    HW237599   1.501   4.635   5.570  0.5696  2.3773 -0.9381
 8714SOL     OW37600   1.291   0.707   9.562 -1.0683 -0.4240 -0.5981
 8714SOL    HW137601   1.328   0.625   9.595 -1.8686 -0.6162 -0.1742
 8714SOL    HW237602   1.276   0.679   9.472  0.4160 -0.3469 -0.8771
 8715SOL     OW37603   0.609   3.091   5.926  0.5935  0.4874 -0.1503
 8715SOL    HW137604   0.573   3.075   5.839  0.0210 -3.3800  0.7913
 8715SOL    HW237605   0.638   3.182   5.922  0.8932  0.4179  0.3829
 8716SOL     OW37606   3.845   0.633   4.447  0.9345 -0.5266 -0.2155
 8716SOL    HW137607   3.900   0.629   4.369  0.5659 -1.9997 -0.3961
 8716SOL    HW237608   3.860   0.720   4.484  1.2094 -0.2357 -1.0058
 8717SOL     OW37609   4.574   1.999   0.868 -0.3850 -0.8959 -0.0204
 8717SOL    HW137610   4.664   2.001   0.835 -1.0468  2.2952 -1.6221
 8717SOL    HW237611   4.577   1.939   0.943  0.3715  1.1855  1.6182
 8718SOL     OW37612   0.634   4.439   9.010 -0.5653  0.0690 -0.1526
 8718SOL    HW137613   0.602   4.529   9.011 -1.3998 -0.2635  2.9056
 8718SOL    HW237614   0.725   4.456   9.035 -0.8241 -0.5593  1.2128
 8719SOL     OW37615   1.479   2.428   6.246  0.1783 -0.2024  0.7192
 8719SOL    HW137616   1.450   2.504   6.296 -0.3889 -1.2189  1.9454
 8719SOL    HW237617   1.447   2.442   6.157  0.2658  1.8629  1.0047
 8720SOL     OW37618   0.319   2.880  14.558 -0.1651 -0.0638 -0.2366
 8720SOL    HW137619   0.229   2.852  14.577  0.0218 -0.4462  0.0986
 8720SOL    HW237620   0.310   2.967  14.596  2.3544 -0.0031  0.2400
 8721SOL     OW37621   2.207   1.115   0.299 -0.4613 -0.0434  0.3277
 8721SOL    HW137622   2.248   1.194   0.332 -1.5310  0.8789 -0.5499
 8721SOL    HW237623   2.279   1.061   0.265 -3.3892 -1.7786 -3.1252
 8722SOL     OW37624   2.658   1.118   9.658  0.0363  0.6634 -0.3526
 8722SOL    HW137625   2.744   1.104   9.620  0.0701 -2.5666  0.9187
 8722SOL    HW237626   2.676   1.111   9.752  0.5187  0.7037 -0.4433
 8723SOL     OW37627   2.449   3.197   4.318 -0.7816  0.3049  0.3707
 8723SOL    HW137628   2.506   3.184   4.394  0.1371 -0.8819 -0.5223
 8723SOL    HW237629   2.363   3.190   4.360 -0.0166 -0.7421  1.7493
 8724SOL     OW37630   2.852   0.738   2.614 -0.4921  0.5067 -0.8289
 8724SOL    HW137631   2.862   0.819   2.664  0.2020 -1.4915  2.2781
 8724SOL    HW237632   2.832   0.767   2.525 -0.4161 -0.1454 -1.0596
 8725SOL     OW37633   0.530   3.842  12.027 -0.0549 -0.7378 -0.0357
 8725SOL    HW137634   0.495   3.783  11.960 -1.4799  1.0880 -0.9177
 8725SOL    HW237635   0.467   3.837  12.099  2.2410  1.9289  2.1389
 8726SOL     OW37636   2.675   1.769  11.601  0.1528 -0.2551  0.3445
 8726SOL    HW137637   2.718   1.685  11.616 -1.7978 -1.3990 -0.3973
 8726SOL    HW237638   2.622   1.747  11.523  0.7542 -0.6555  0.0479
 8727SOL     OW37639   1.012   2.785   5.486  0.5547 -0.0171  0.2422
 8727SOL    HW137640   1.011   2.698   5.447  0.2471 -0.1002  0.4318
 8727SOL    HW237641   0.930   2.829   5.463 -0.0057 -0.6207  1.1192
 8728SOL     OW37642   3.687   3.260   8.542 -0.0688 -0.1534  0.3072
 8728SOL    HW137643   3.660   3.168   8.543  0.4450 -0.3089  0.1071
 8728SOL    HW237644   3.729   3.268   8.628 -0.0873  0.6130  0.2487
 8729SOL     OW37645   3.195   2.450   6.343 -0.1715  0.1175  0.0926
 8729SOL    HW137646   3.247   2.395   6.400  0.0200 -0.5026 -0.6881
 8729SOL    HW237647   3.242   2.433   6.261 -1.9866  1.5420 -1.2745
 8730SOL     OW37648   0.250   3.477  15.137  0.2136 -0.3029 -0.3183
 8730SOL    HW137649   0.291   3.452  15.219 -0.0965  1.0242  0.2392
 8730SOL    HW237650   0.262   3.397  15.086  0.4811  0.1250 -0.9302
 8731SOL     OW37651   0.753   1.002   9.054 -0.4922  0.0968 -0.0923
 8731SOL    HW137652   0.661   1.004   9.077 -0.7001  2.3594 -1.1635
 8731SOL    HW237653   0.750   1.001   8.958 -0.0773  2.5854 -0.1138
 8732SOL     OW37654   2.939   4.620   8.971  0.1183 -0.2709 -0.5378
 8732SOL    HW137655   2.851   4.582   8.971 -0.0877  0.1949  0.3164
 8732SOL    HW237656   2.920   4.712   8.988  2.9630  0.5883 -2.0322
 8733SOL     OW37657   1.665   2.038   5.166 -0.2289 -0.0654  0.0603
 8733SOL    HW137658   1.687   2.076   5.251 -0.6411 -1.4187  0.7785
 8733SOL    HW237659   1.729   1.967   5.171 -0.4172 -0.2718 -0.4824
 8734SOL     OW37660   1.615   2.818   7.822 -0.6585  0.6806 -0.0999
 8734SOL    HW137661   1.549   2.866   7.772 -0.0365  1.3386 -0.2906
 8734SOL    HW237662   1.653   2.874   7.890  1.1035 -0.8189  0.1429
 8735SOL     OW37663   2.906   1.090  14.469 -0.3118  0.1156  0.7552
 8735SOL    HW137664   3.001   1.082  14.471 -0.3744 -0.2392  1.9427
 8735SOL    HW237665   2.888   1.164  14.410  0.7209  0.0671  0.3771
 8736SOL     OW37666   3.318   4.177   4.045 -0.7352  0.0390 -0.1477
 8736SOL    HW137667   3.364   4.157   3.964 -0.9406 -0.6114 -0.1047
 8736SOL    HW237668   3.337   4.271   4.049 -1.2224  0.1558 -0.5898
 8737SOL     OW37669   4.236   1.788   3.688  0.1581 -0.5844 -0.1164
 8737SOL    HW137670   4.184   1.721   3.644 -0.0936 -1.2037  1.1103
 8737SOL    HW237671   4.323   1.747   3.681  0.4983  0.5390 -2.5836
 8738SOL     OW37672   3.541   3.670   6.774  0.1332 -0.1824  0.3615
 8738SOL    HW137673   3.448   3.677   6.796  1.1410  0.1499  4.5307
 8738SOL    HW237674   3.583   3.745   6.816 -1.6811  1.0285  0.0129
 8739SOL     OW37675   4.081   4.668   0.524 -0.2155  0.4310 -0.7409
 8739SOL    HW137676   4.159   4.613   0.515 -0.6826 -0.1892 -1.0300
 8739SOL    HW237677   4.043   4.658   0.436 -2.4381 -1.4669  0.4261
 8740SOL     OW37678   2.395   3.222   4.049  0.2706  0.2049 -0.0092
 8740SOL    HW137679   2.479   3.239   4.005  1.2980  0.4883  2.0641
 8740SOL    HW237680   2.423   3.217   4.140  1.5591 -0.1619 -0.4287
 8741SOL     OW37681   2.106   3.996  12.591  0.6689 -0.2244 -0.7216
 8741SOL    HW137682   2.011   4.005  12.589  0.8430  2.0126  1.0954
 8741SOL    HW237683   2.122   3.909  12.626 -1.7113  0.5606  2.2989
 8742SOL     OW37684   0.751   4.294   6.118  0.1264 -0.4992 -0.4491
 8742SOL    HW137685   0.678   4.319   6.061  0.5001  0.0757 -0.6692
 8742SOL    HW237686   0.710   4.308   6.203 -0.0736  0.7420 -0.7553
 8743SOL     OW37687   3.971   1.733  16.140 -0.2469 -0.2489  0.0522
 8743SOL    HW137688   3.911   1.718  16.066 -1.5219  2.8674  0.4446
 8743SOL    HW237689   3.928   1.795  16.199  0.2346  0.1156  0.0165
 8744SOL     OW37690   0.042   2.893  10.625  0.2707  0.1509 -0.3689
 8744SOL    HW137691   0.025   2.831  10.554 -0.4511  0.1718 -0.2098
 8744SOL    HW237692   0.089   2.964  10.579  0.5231 -0.5133 -1.1341
 8745SOL     OW37693   2.159   3.415   1.515  0.1268 -0.2836 -0.1706
 8745SOL    HW137694   2.126   3.331   1.485 -0.0518 -0.3488  0.2077
 8745SOL    HW237695   2.191   3.454   1.433 -0.4061  0.0613 -0.2138
 8746SOL     OW37696   4.506   2.595  12.702  0.3528  0.0512  0.4674
 8746SOL    HW137697   4.498   2.690  12.709  1.3554  0.2354 -0.8800
 8746SOL    HW237698   4.419   2.557  12.709 -0.4947  2.2504  1.7236
 8747SOL     OW37699   1.437   1.916   9.312 -0.3384 -0.0490  0.4751
 8747SOL    HW137700   1.409   1.940   9.223 -0.1778 -0.9244  0.1935
 8747SOL    HW237701   1.463   2.005   9.337 -0.3865  0.4502 -1.2317
 8748SOL     OW37702   1.446   0.057  15.331 -0.1571  0.1923  0.5326
 8748SOL    HW137703   1.451   4.709  15.267 -0.0573 -0.0762  0.8331
 8748SOL    HW237704   1.406   0.015  15.408  0.1177 -0.1405  0.4960
 8749SOL     OW37705   3.037   3.184  15.166  0.1923 -0.9401 -0.1405
 8749SOL    HW137706   3.091   3.222  15.235 -0.7572  0.8291 -0.3818
 8749SOL    HW237707   3.106   3.162  15.104 -1.0374  2.2509 -2.6172
 8750SOL     OW37708   4.700   4.068   9.359 -0.2866 -0.2134  0.1375
 8750SOL    HW137709   4.671   4.151   9.320 -3.6961 -2.2056 -1.5240
 8750SOL    HW237710   4.653   4.005   9.305 -0.3149  0.5381 -0.7232
 8751SOL     OW37711   4.499   2.743   6.435  0.0845 -0.1577  0.1810
 8751SOL    HW137712   4.468   2.820   6.481  1.2486  0.8455 -0.7113
 8751SOL    HW237713   4.480   2.672   6.496  0.7699 -1.3960 -1.0360
 8752SOL     OW37714   2.924   3.262   2.831 -0.4573 -0.1059  0.5222
 8752SOL    HW137715   2.931   3.303   2.745 -0.5557  1.0931  1.0925
 8752SOL    HW237716   3.001   3.305   2.867 -0.0273  0.6843 -1.3346
 8753SOL     OW37717   2.287   0.120   4.737 -0.3055 -0.1232 -0.5296
 8753SOL    HW137718   2.246   0.091   4.819  0.9396 -0.2319  0.0589
 8753SOL    HW237719   2.311   0.209   4.764  1.0014 -1.5207  3.0012
 8754SOL     OW37720   4.397   0.217   8.497  0.3975 -0.3037 -0.1463
 8754SOL    HW137721   4.467   0.212   8.432  2.1027  3.2318  1.4434
 8754SOL    HW237722   4.451   0.264   8.561  0.6551  2.1353 -2.1741
 8755SOL     OW37723   0.544   2.161   2.086 -0.0362 -0.0717 -0.0680
 8755SOL    HW137724   0.503   2.103   2.150  2.2885  0.2539  1.7143
 8755SOL    HW237725   0.546   2.105   2.009  1.8644  0.2553 -0.2522
 8756SOL     OW37726   3.514   4.416  15.664 -0.1733  0.7851  0.6157
 8756SOL    HW137727   3.436   4.408  15.609  0.7386  1.0604 -0.7282
 8756SOL    HW237728   3.528   4.326  15.692 -0.1067  0.4207 -0.6181
 8757SOL     OW37729   3.284   1.775  10.654  0.5379 -0.4311 -0.4596
 8757SOL    HW137730   3.334   1.703  10.615  4.1799  1.5275  0.5761
 8757SOL    HW237731   3.333   1.846  10.613  3.0788 -1.8802  0.0332
 8758SOL     OW37732   0.822   0.620   3.746  0.3612  0.2944  0.0960
 8758SOL    HW137733   0.873   0.701   3.751  0.2956  0.3911 -0.7315
 8758SOL    HW237734   0.875   0.549   3.782  0.3386  1.0256  1.5811
 8759SOL     OW37735   3.678   0.230  13.768 -0.0065 -0.2505 -0.0795
 8759SOL    HW137736   3.656   0.209  13.678  1.5519 -1.7612 -0.1044
 8759SOL    HW237737   3.770   0.207  13.777  0.4333  1.6954  0.3839
 8760SOL     OW37738   0.935   0.634   1.193  0.0576  0.8164  0.2474
 8760SOL    HW137739   0.973   0.693   1.259  0.5831  0.1179  0.5676
 8760SOL    HW237740   0.964   0.675   1.111 -0.0183 -2.3587 -1.3638
 8761SOL     OW37741   3.232   4.386   4.524  0.2996 -0.0646  0.3814
 8761SOL    HW137742   3.254   4.408   4.434  0.8480  1.4940  0.8913
 8761SOL    HW237743   3.294   4.443   4.570  1.8001 -1.6719  0.3178
 8762SOL     OW37744   0.430   3.040  17.121 -0.7733 -0.7260  0.3777
 8762SOL    HW137745   0.345   3.065  17.157 -1.0368  1.0669 -1.4960
 8762SOL    HW237746   0.415   3.036  17.026 -1.3057  2.6373  0.3198
 8763SOL     OW37747   1.839   2.809   4.905  0.2178 -0.4383 -0.1787
 8763SOL    HW137748   1.805   2.747   4.841  0.2620  1.2207 -1.7914
 8763SOL    HW237749   1.766   2.871   4.911 -0.6819 -1.6152  1.3216
 8764SOL     OW37750   2.622   0.809   4.632  0.1791 -0.1697  0.1769
 8764SOL    HW137751   2.572   0.872   4.684 -0.9685 -0.4839 -0.5307
 8764SOL    HW237752   2.700   0.863   4.620  0.5864 -0.9976 -0.8948
 8765SOL     OW37753   1.232   1.150   4.817 -0.3759 -0.3963 -0.5077
 8765SOL    HW137754   1.142   1.177   4.798 -0.6862  0.7694  2.5613
 8765SOL    HW237755   1.210   1.069   4.862  0.2437 -0.5542 -0.4864
 8766SOL     OW37756   1.052   2.916  11.784  0.1465 -0.5399  0.2455
 8766SOL    HW137757   1.027   2.942  11.696  2.9825 -2.2385 -1.0373
 8766SOL    HW237758   0.977   2.932  11.842  0.6856 -1.2519  1.1457
 8767SOL     OW37759   0.700   1.854  15.619  0.6349  0.4517  0.0074
 8767SOL    HW137760   0.753   1.916  15.569  0.6547  1.2562  1.0038
 8767SOL    HW237761   0.765   1.792  15.654 -0.7131 -1.0681 -0.1960
 8768SOL     OW37762   1.740   1.674   0.729 -0.2033  0.1442  0.4309
 8768SOL    HW137763   1.786   1.758   0.724 -1.4698  0.7864 -0.4875
 8768SOL    HW237764   1.748   1.667   0.824 -4.3114 -2.1517  0.6240
 8769SOL     OW37765   2.295   1.879   6.473 -0.0702 -0.2706 -0.7608
 8769SOL    HW137766   2.225   1.871   6.409 -1.8633 -2.9439  1.4936
 8769SOL    HW237767   2.368   1.828   6.437 -0.5565 -1.4581 -0.0752
 8770SOL     OW37768   0.748   2.025  15.239  0.4750  0.5776  0.3669
 8770SOL    HW137769   0.810   2.070  15.182  0.7673  1.1788  1.1526
 8770SOL    HW237770   0.801   1.987  15.309 -1.5377  1.1371  2.2323
 8771SOL     OW37771   4.662   0.229   5.383  0.8411 -0.7590  0.3220
 8771SOL    HW137772   4.593   0.167   5.408  1.0553 -0.5910  1.3343
 8771SOL    HW237773   4.680   0.197   5.295 -1.1512 -2.6797  0.6073
 8772SOL     OW37774   2.535   1.381  16.199  0.1767 -0.1616  0.1973
 8772SOL    HW137775   2.560   1.387  16.107 -0.8195  0.2444 -0.0457
 8772SOL    HW237776   2.617   1.386  16.248 -0.3223  0.6052  0.9567
 8773SOL     OW37777   0.166   2.412   6.001 -0.1013  0.3413  0.0933
 8773SOL    HW137778   0.248   2.370   5.975 -1.0426 -1.1744 -0.4141
 8773SOL    HW237779   0.198   2.486   6.054 -0.4559  0.4097  0.2145
 8774SOL     OW37780   2.364   0.140  14.200 -0.2130  0.0874 -0.0552
 8774SOL    HW137781   2.351   0.201  14.127 -0.2733 -0.0290 -0.1402
 8774SOL    HW237782   2.285   0.088  14.185 -1.0213  0.7331  2.0029
 8775SOL     OW37783   0.916   4.471   8.926  0.6903  0.4150  0.4475
 8775SOL    HW137784   0.879   4.505   8.844 -3.0350  1.6646  2.6419
 8775SOL    HW237785   0.983   4.539   8.929  1.9085 -0.7823  0.2949
 8776SOL     OW37786   3.474   3.031   4.567  0.2644  0.2680 -0.4831
 8776SOL    HW137787   3.525   3.098   4.522 -0.4931  2.1907  1.4838
 8776SOL    HW237788   3.537   2.959   4.568 -2.8584 -2.4964 -1.5767
 8777SOL     OW37789   2.418   4.092  13.480  0.5734 -0.3536  0.1396
 8777SOL    HW137790   2.368   4.097  13.399  0.7755  1.2739  0.1140
 8777SOL    HW237791   2.390   4.001  13.490  1.8119 -0.8268 -0.6144
 8778SOL     OW37792   0.195   4.400   4.313  0.1740  0.1331 -0.1156
 8778SOL    HW137793   0.179   4.462   4.242  1.1924  0.8250  0.2533
 8778SOL    HW237794   0.201   4.321   4.259 -3.1407  0.4862 -0.9916
 8779SOL     OW37795   0.673   1.274   3.216 -0.4294 -0.6949 -0.0044
 8779SOL    HW137796   0.712   1.361   3.226 -1.0183 -0.1487 -2.5260
 8779SOL    HW237797   0.606   1.275   3.284  0.2188 -1.3631  0.6417
 8780SOL     OW37798   4.102   2.704   8.531 -0.0611  0.1847 -0.5920
 8780SOL    HW137799   4.173   2.763   8.556  1.2609 -1.3993 -0.5536
 8780SOL    HW237800   4.152   2.626   8.506 -0.8171 -0.0677 -1.3124
 8781SOL     OW37801   0.719   1.332  12.469  0.5048 -0.2104  0.0825
 8781SOL    HW137802   0.805   1.304  12.500  1.5315  0.9232 -1.7848
 8781SOL    HW237803   0.727   1.425  12.490 -1.1445 -0.1046  0.2673
 8782SOL     OW37804   4.663   1.835   1.613 -0.3240 -0.4328  0.0737
 8782SOL    HW137805   4.704   1.784   1.683  2.3374  0.2969 -0.9318
 8782SOL    HW237806   4.722   1.910   1.603 -1.0437  0.1178 -0.0233
 8783SOL     OW37807   4.638   1.729   5.946 -0.2507  0.2249 -0.2978
 8783SOL    HW137808   4.574   1.797   5.924 -0.3849 -0.0365 -0.7143
 8783SOL    HW237809   4.613   1.707   6.035 -0.1805 -2.1800 -0.8809
 8784SOL     OW37810   2.195   4.375   5.424  0.3927  0.0110  0.1945
 8784SOL    HW137811   2.190   4.296   5.370  1.9889 -0.6914  1.0863
 8784SOL    HW237812   2.236   4.429   5.357 -0.2946 -0.6716 -0.7671
 8785SOL     OW37813   0.085   1.852   5.351 -0.3400 -0.3483 -0.2445
 8785SOL    HW137814   0.166   1.856   5.300  0.2802 -0.0838  0.7662
 8785SOL    HW237815   0.051   1.938   5.325  0.5997  0.5605  1.5660
 8786SOL     OW37816   1.521   3.350   4.304  0.0078 -0.6623  0.4799
 8786SOL    HW137817   1.576   3.366   4.381  2.5547 -0.2411 -1.4394
 8786SOL    HW237818   1.471   3.432   4.298 -1.2397 -1.4669 -0.1852
 8787SOL     OW37819   4.277   1.039   2.343  0.5832  0.1564 -1.2276
 8787SOL    HW137820   4.291   1.014   2.252  2.4682  0.8799 -1.1314
 8787SOL    HW237821   4.189   1.003   2.355  0.8230 -0.3958 -1.1074
 8788SOL     OW37822   4.493   4.005   1.589  0.0106 -0.0887  0.2207
 8788SOL    HW137823   4.420   3.961   1.632  1.0621 -1.5364  0.5065
 8788SOL    HW237824   4.521   4.068   1.655  0.4465  0.7659 -0.7680
 8789SOL     OW37825   3.039   0.588   3.242  0.0685 -0.5419 -0.0721
 8789SOL    HW137826   3.042   0.537   3.160 -0.0567  1.6016 -1.3960
 8789SOL    HW237827   3.127   0.626   3.241 -0.3435  0.3820 -0.5088
 8790SOL     OW37828   4.219   1.111   1.880 -0.4002 -0.1531  0.6937
 8790SOL    HW137829   4.163   1.186   1.859 -1.2170 -0.8633  0.3586
 8790SOL    HW237830   4.229   1.077   1.791  3.0363  0.4557  0.8282
 8791SOL     OW37831   0.407   1.932   6.066 -0.5886  0.9024 -0.4698
 8791SOL    HW137832   0.469   1.992   6.026 -0.0998  0.0483 -1.0033
 8791SOL    HW237833   0.464   1.856   6.057 -1.7099 -0.2163  1.7437
 8792SOL     OW37834   4.426   1.548   0.798  0.3846  0.3109 -0.1649
 8792SOL    HW137835   4.427   1.643   0.786 -2.0410  0.5753  1.8676
 8792SOL    HW237836   4.338   1.528   0.827  0.5432  0.7883  0.6350
 8793SOL     OW37837   0.329   2.962   0.673  0.1327 -0.3298  0.1517
 8793SOL    HW137838   0.278   2.904   0.616 -0.7773 -0.8474  1.4867
 8793SOL    HW237839   0.265   3.033   0.678 -1.7929 -2.1052  0.8138
 8794SOL     OW37840   0.446   1.226  14.720  0.4302  0.1321 -0.2342
 8794SOL    HW137841   0.452   1.249  14.628  1.3809 -1.9033 -0.6806
 8794SOL    HW237842   0.537   1.253  14.734  0.1259  1.1401 -0.2006
 8795SOL     OW37843   0.726   0.084   8.684  0.0853 -0.6524 -0.2201
 8795SOL    HW137844   0.804   0.140   8.688 -0.4368 -0.0218  1.1281
 8795SOL    HW237845   0.666   0.147   8.723 -0.3725 -1.0770 -0.2377
 8796SOL     OW37846   3.732   0.378   1.407  0.2265 -0.1828 -0.6017
 8796SOL    HW137847   3.688   0.367   1.323  0.0901 -0.8129 -0.4434
 8796SOL    HW237848   3.807   0.320   1.393  0.4961  0.0546 -0.1295
 8797SOL     OW37849   0.983   1.591   5.732  0.6699 -0.4322  0.0420
 8797SOL    HW137850   0.972   1.652   5.658  2.6549  0.6978  0.6748
 8797SOL    HW237851   1.058   1.632   5.776 -0.4765  0.8248  0.8135
 8798SOL     OW37852   2.774   3.295  12.270  0.1192 -0.1699 -0.1895
 8798SOL    HW137853   2.698   3.307  12.212  0.7978 -1.8628 -1.4175
 8798SOL    HW237854   2.837   3.359  12.238 -0.6242  1.1595  1.0033
 8799SOL     OW37855   3.866   4.487   7.096 -0.4870 -0.0416  0.2482
 8799SOL    HW137856   3.917   4.549   7.148  1.5524 -0.3441 -1.3966
 8799SOL    HW237857   3.780   4.496   7.136 -1.4850  1.0507 -2.2136
 8800SOL     OW37858   3.367   0.324   9.470 -0.1108 -0.5491 -0.1657
 8800SOL    HW137859   3.447   0.377   9.466  0.0972 -0.8119  0.4508
 8800SOL    HW237860   3.401   0.251   9.522 -0.1608  0.4819  1.2820
 8801SOL     OW37861   1.734   3.000   2.310 -0.0900 -0.4834  0.1097
 8801SOL    HW137862   1.765   2.989   2.400 -0.9769  1.5904  0.6809
 8801SOL    HW237863   1.641   3.019   2.322 -0.1175 -0.3919 -0.2498
 8802SOL     OW37864   4.474   1.330  11.586  0.1863 -0.1453  0.4396
 8802SOL    HW137865   4.541   1.344  11.653  0.5233 -0.6827  0.2112
 8802SOL    HW237866   4.503   1.252  11.538  0.6869  1.6239 -2.1569
 8803SOL     OW37867   4.642   0.322   3.582 -0.0815 -0.0378  0.0727
 8803SOL    HW137868   4.637   0.403   3.532 -2.0275  0.1520  0.5940
 8803SOL    HW237869   4.563   0.341   3.632  0.4941 -0.8018  1.2956
 8804SOL     OW37870   1.307   2.529   5.433  0.4769 -0.4463  0.0434
 8804SOL    HW137871   1.361   2.598   5.395 -1.6030 -0.1630 -2.3426
 8804SOL    HW237872   1.344   2.525   5.522  1.4258 -1.1633 -0.3837
 8805SOL     OW37873   2.501   1.640   8.545  0.2826 -0.5003  0.3764
 8805SOL    HW137874   2.468   1.627   8.634  1.5257 -1.3988  0.6949
 8805SOL    HW237875   2.539   1.728   8.551  1.9400 -1.2789  1.1739
 8806SOL     OW37876   3.201   3.245  15.382  0.0066 -0.0343  0.3820
 8806SOL    HW137877   3.292   3.268  15.398  0.2402 -1.4431  1.0965
 8806SOL    HW237878   3.156   3.276  15.461  0.3465  1.0179  0.1687
 8807SOL     OW37879   1.399   2.301   8.228 -0.1267 -0.6040  0.6989
 8807SOL    HW137880   1.466   2.323   8.164 -1.1902  0.7963  0.0553
 8807SOL    HW237881   1.434   2.342   8.307 -1.4108  2.9610 -0.5556
 8808SOL     OW37882   2.318   4.286   1.513 -0.1525 -0.0615  0.2296
 8808SOL    HW137883   2.394   4.344   1.503 -1.4564  1.3072 -1.7080
 8808SOL    HW237884   2.259   4.353   1.546 -0.7863 -0.9646  0.9167
 8809SOL     OW37885   4.604   3.323   2.448  0.2213  0.5289  0.3080
 8809SOL    HW137886   4.663   3.321   2.373  1.2968 -1.7700  1.1938
 8809SOL    HW237887   4.539   3.258   2.419  1.8220 -0.0971 -1.8530
 8810SOL     OW37888   4.161   0.074  15.108  0.0395  0.1144  0.2873
 8810SOL    HW137889   4.230   0.023  15.067 -1.3067 -0.6819 -0.9942
 8810SOL    HW237890   4.165   0.156  15.059  1.8678  0.5224  1.1520
 8811SOL     OW37891   3.032   3.255  14.424 -0.1976 -0.0630  0.0051
 8811SOL    HW137892   3.026   3.165  14.391  4.0772 -0.2318 -0.3378
 8811SOL    HW237893   3.096   3.285  14.358 -0.8946  0.5502 -0.3956
 8812SOL     OW37894   0.906   3.267   2.622 -0.0943 -0.5283  0.5117
 8812SOL    HW137895   0.926   3.180   2.588 -2.4287 -0.7619 -0.2964
 8812SOL    HW237896   0.927   3.324   2.548  0.3300  1.9745  2.5721
 8813SOL     OW37897   0.188   4.219  11.185 -0.5484 -0.0585  0.0489
 8813SOL    HW137898   0.175   4.180  11.098 -0.7133 -1.2721  0.6219
 8813SOL    HW237899   0.250   4.287  11.158 -1.1407 -0.2360 -1.7854
 8814SOL     OW37900   0.022   2.695  11.137 -0.5871 -0.1776  0.7694
 8814SOL    HW137901   0.100   2.750  11.137 -1.7925  1.5237  1.3901
 8814SOL    HW237902   4.720   2.708  11.046 -0.0138 -0.5281  0.5609
 8815SOL     OW37903   1.937   4.286   7.836  0.5194 -0.3735 -0.1957
 8815SOL    HW137904   2.023   4.288   7.878 -0.6475 -1.0013  2.1843
 8815SOL    HW237905   1.931   4.197   7.801  0.9718 -2.1809  4.3547
 8816SOL     OW37906   0.984   4.613   5.699  0.0483 -0.1783  0.6701
 8816SOL    HW137907   1.075   4.583   5.700  0.2850  0.5537  1.0484
 8816SOL    HW237908   0.989   4.646   5.788  0.8771  2.9896 -0.5511
 8817SOL     OW37909   0.421   2.206   7.847  0.4278 -0.0165  0.2136
 8817SOL    HW137910   0.343   2.152   7.849 -0.5977  1.4134 -1.3431
 8817SOL    HW237911   0.442   2.223   7.939 -2.9592  2.0905  0.5893
 8818SOL     OW37912   4.523   4.083   0.054 -0.2817 -0.1137 -0.5649
 8818SOL    HW137913   4.429   4.093   0.037 -0.8478 -2.6376  1.1351
 8818SOL    HW237914   4.536   4.167   0.098 -0.0898  0.1642 -1.1480
 8819SOL     OW37915   1.989   4.344   3.645 -0.4417  0.3534  0.8089
 8819SOL    HW137916   2.082   4.362   3.664  0.3124 -0.6131 -1.8930
 8819SOL    HW237917   1.960   4.432   3.623  0.5627  0.4991  0.0136
 8820SOL     OW37918   0.585   2.607   3.947  0.1836  0.1680  0.3167
 8820SOL    HW137919   0.563   2.692   3.909  1.7103  1.4343  2.2532
 8820SOL    HW237920   0.670   2.588   3.908 -0.6423 -2.8303  0.0240
 8821SOL     OW37921   2.141   4.590   6.412 -0.1412 -0.0375 -0.0420
 8821SOL    HW137922   2.119   4.499   6.434  1.4514 -0.3274  0.3669
 8821SOL    HW237923   2.127   4.591   6.318 -0.7031 -1.5061  0.0158
 8822SOL     OW37924   1.682   2.683   6.813 -1.0245  0.0930 -0.1287
 8822SOL    HW137925   1.751   2.748   6.820  0.3712 -1.1048 -2.7796
 8822SOL    HW237926   1.720   2.629   6.744  3.2843 -0.1063  2.3828
 8823SOL     OW37927   0.430   2.328   6.003 -0.2100  0.2724 -0.2678
 8823SOL    HW137928   0.456   2.298   6.090  0.1602  1.8222  0.1681
 8823SOL    HW237929   0.506   2.308   5.950  0.5003  1.3272  0.3405
 8824SOL     OW37930   2.800   0.771   9.294  0.1393 -0.1285 -1.2015
 8824SOL    HW137931   2.889   0.795   9.323 -0.0761 -0.0899 -0.5574
 8824SOL    HW237932   2.747   0.776   9.373  0.3116 -0.0863 -1.0870
 8825SOL     OW37933   4.071   0.199   7.811  0.3513  0.6424 -0.4488
 8825SOL    HW137934   4.045   0.238   7.727 -0.4312 -0.7860 -0.8771
 8825SOL    HW237935   4.158   0.163   7.797 -0.1495 -0.4004 -0.9273
 8826SOL     OW37936   1.765   2.584   6.112  0.2569  0.1166 -0.1715
 8826SOL    HW137937   1.682   2.554   6.149 -0.3011  0.3976 -1.1938
 8826SOL    HW237938   1.751   2.665   6.063  0.0104  1.1405  1.5881
 8827SOL     OW37939   2.870   4.307   7.893  0.2609 -0.1745  0.2022
 8827SOL    HW137940   2.819   4.322   7.814  4.3537 -2.5344 -2.9451
 8827SOL    HW237941   2.917   4.390   7.899  0.1054 -0.2747  2.9962
 8828SOL     OW37942   2.699   3.038  17.382  0.0530  0.6866  0.3955
 8828SOL    HW137943   2.634   3.016  17.315 -0.3542 -1.9033  1.6547
 8828SOL    HW237944   2.691   2.951  17.421  1.3556  0.4440  0.1311
 8829SOL     OW37945   1.284   2.947   3.611  0.0368 -0.3150  0.0264
 8829SOL    HW137946   1.317   2.908   3.530  2.0343 -0.3392  0.8566
 8829SOL    HW237947   1.193   2.917   3.612  0.5634 -1.9038 -0.9590
 8830SOL     OW37948   2.611   3.619  11.719  0.0157 -0.3702  0.1934
 8830SOL    HW137949   2.530   3.576  11.692 -0.5171  1.3537 -0.9601
 8830SOL    HW237950   2.616   3.587  11.809 -1.4673  0.4814  0.5860
 8831SOL     OW37951   4.346   0.577  16.371 -0.1787  0.1790  0.2799
 8831SOL    HW137952   4.326   0.628  16.449  2.4994 -0.6057  1.4769
 8831SOL    HW237953   4.260   0.539  16.351 -1.1034  3.0359 -1.1536
 8832SOL     OW37954   0.804   4.226   4.817 -0.2762  0.0181 -0.3885
 8832SOL    HW137955   0.867   4.253   4.883  0.5157  0.9306 -1.5185
 8832SOL    HW237956   0.849   4.262   4.740 -1.0652 -1.3912 -1.5111
 8833SOL     OW37957   3.968   0.307   7.607  0.1921 -0.0649 -0.8883
 8833SOL    HW137958   3.900   0.353   7.656  2.0153  0.0675  1.5391
 8833SOL    HW237959   3.940   0.307   7.516 -0.7864 -1.0302 -0.5972
 8834SOL     OW37960   3.380   3.583   7.823 -0.3050 -0.0164  0.0388
 8834SOL    HW137961   3.430   3.581   7.904  1.6686 -1.9527 -1.2164
 8834SOL    HW237962   3.299   3.547   7.859  0.2730  0.3968  1.7673
 8835SOL     OW37963   0.949   2.694   3.085  0.0063 -0.2650  0.0025
 8835SOL    HW137964   0.860   2.724   3.065  0.4915  0.1170 -1.5819
 8835SOL    HW237965   0.973   2.649   3.004 -2.6920  0.8164 -1.4255
 8836SOL     OW37966   3.995   3.759   6.662  0.7575 -0.0172  0.0097
 8836SOL    HW137967   4.055   3.789   6.593  1.1746  0.6243  0.6534
 8836SOL    HW237968   3.957   3.681   6.621  0.0147  0.7586 -0.7931
 8837SOL     OW37969   1.564   1.653   3.270  0.3047 -0.0702 -0.5438
 8837SOL    HW137970   1.567   1.628   3.177  0.0229 -1.0177 -0.3018
 8837SOL    HW237971   1.593   1.574   3.315  1.3640 -0.1267 -1.3327
 8838SOL     OW37972   0.130   1.625   4.997 -0.0834  0.2460  0.0442
 8838SOL    HW137973   0.046   1.620   5.041 -0.3751  0.1139 -0.5300
 8838SOL    HW237974   0.185   1.563   5.046  1.2438 -0.1100 -1.8813
 8839SOL     OW37975   3.204   1.485   0.280  0.3809  0.2012 -0.2903
 8839SOL    HW137976   3.189   1.456   0.370 -0.6318 -0.2108 -0.5951
 8839SOL    HW237977   3.156   1.567   0.277  2.3857  1.3584 -0.3713
 8840SOL     OW37978   3.650   2.445   0.621  0.0595  0.2495  0.3590
 8840SOL    HW137979   3.637   2.533   0.587 -0.0909 -0.0617 -0.3917
 8840SOL    HW237980   3.590   2.394   0.565  2.1749 -0.8265 -0.9231
 8841SOL     OW37981   3.047   0.262   2.606  0.0889 -0.0205 -0.0201
 8841SOL    HW137982   3.065   0.214   2.525  3.4511  0.1607  0.6035
 8841SOL    HW237983   3.104   0.208   2.662 -0.9406 -1.3451 -0.2525
 8842SOL     OW37984   1.320   1.572   8.026  0.2454  0.1113  0.7464
 8842SOL    HW137985   1.410   1.585   8.058 -0.3459 -0.8092  2.7935
 8842SOL    HW237986   1.317   1.614   7.940 -0.1266  0.7058  1.0511
 8843SOL     OW37987   0.146   1.449   6.757 -0.1101 -0.2076  0.0827
 8843SOL    HW137988   0.225   1.397   6.769  0.7142  0.9982 -0.1581
 8843SOL    HW237989   0.079   1.383   6.738  0.6966 -2.2358  4.1361
 8844SOL     OW37990   2.956   1.180   7.599 -0.5766  0.2034  0.0677
 8844SOL    HW137991   2.871   1.179   7.643 -0.6151  0.8794  0.0028
 8844SOL    HW237992   2.949   1.269   7.564 -0.8151 -0.5626 -1.8504
 8845SOL     OW37993   0.373   0.752   0.227 -0.4063 -0.1309 -0.1292
 8845SOL    HW137994   0.339   0.679   0.280 -0.0644  0.9719  1.6309
 8845SOL    HW237995   0.464   0.749   0.257  0.1054 -1.1770 -1.8529
 8846SOL     OW37996   3.633   4.009  10.680  0.1427  0.3900 -0.2912
 8846SOL    HW137997   3.578   4.042  10.609  1.1512 -3.0664 -2.6926
 8846SOL    HW237998   3.569   4.027  10.750 -0.0076 -0.6742 -0.1512
 8847SOL     OW37999   2.210   2.198   1.127 -0.0211  0.3060 -0.2995
 8847SOL    HW138000   2.266   2.276   1.127 -1.2083  1.1554 -1.1188
 8847SOL    HW238001   2.257   2.137   1.070 -1.0311 -0.3532 -0.4275
 8848SOL     OW38002   3.867   2.637  14.825  0.3561  0.1502  0.3107
 8848SOL    HW138003   3.821   2.631  14.741 -1.2340 -0.3764  1.2365
 8848SOL    HW238004   3.884   2.728  14.849 -1.4731  0.5664  0.0028
 8849SOL     OW38005   0.858   3.366  14.738 -0.4618 -0.9736  0.0211
 8849SOL    HW138006   0.946   3.402  14.743 -0.5615 -0.7502  0.1458
 8849SOL    HW238007   0.805   3.432  14.783  0.5126 -2.4943  3.4370
 8850SOL     OW38008   2.368   1.080   1.164  0.3717 -0.4666  0.9393
 8850SOL    HW138009   2.365   1.097   1.070 -2.1199  0.0933  1.1124
 8850SOL    HW238010   2.291   1.126   1.197  0.4710 -0.3524  1.0100
 8851SOL     OW38011   2.889   2.923   8.719 -0.0818  0.2834  0.0045
 8851SOL    HW138012   2.807   2.943   8.765  0.9692 -0.3705  2.1971
 8851SOL    HW238013   2.890   2.833   8.688 -0.2921  0.2543  0.0821
 8852SOL     OW38014   1.451   4.070   5.545  0.1345 -0.2542 -0.7106
 8852SOL    HW138015   1.463   4.000   5.482  1.7461 -0.9246  0.3158
 8852SOL    HW238016   1.528   4.055   5.601 -1.0332  0.6611  1.1453
 8853SOL     OW38017   1.262   3.854   4.054  0.1218  0.5174  0.1684
 8853SOL    HW138018   1.234   3.889   4.138  0.3161 -1.1321  0.9409
 8853SOL    HW238019   1.220   3.925   4.006 -3.1624  0.3143  2.7938
 8854SOL     OW38020   1.036   0.181   2.210  0.2385 -0.4926  0.6154
 8854SOL    HW138021   0.965   0.185   2.274  1.3493 -0.1028  1.8384
 8854SOL    HW238022   1.044   0.087   2.192 -1.8194 -0.9088  1.8329
 8855SOL     OW38023   4.026   0.072   0.785  0.2210 -0.4110 -0.3836
 8855SOL    HW138024   4.045   0.020   0.707 -0.9918  0.3177 -1.1598
 8855SOL    HW238025   3.973   0.004   0.828  0.4570  0.1886  0.8431
 8856SOL     OW38026   2.711   3.139  14.694  0.2755  0.4668  0.3266
 8856SOL    HW138027   2.720   3.100  14.607  2.2229  1.5155  0.0631
 8856SOL    HW238028   2.772   3.212  14.694 -1.6209  2.0564  0.6762
 8857SOL     OW38029   0.374   2.438   9.217  0.4515 -0.1912 -0.4160
 8857SOL    HW138030   0.463   2.468   9.196  0.9386 -0.5211  1.1323
 8857SOL    HW238031   0.384   2.425   9.312 -4.8636 -0.3090  0.1205
 8858SOL     OW38032   1.383   4.128   2.574  0.1786  0.7923  0.3734
 8858SOL    HW138033   1.332   4.148   2.496  1.5201  3.0376  0.0777
 8858SOL    HW238034   1.318   4.135   2.644 -1.1657  0.2869 -0.8398
 8859SOL     OW38035   1.429   3.388   3.404  0.5841  0.2374 -0.0347
 8859SOL    HW138036   1.371   3.434   3.343 -1.4092 -1.3852  0.6510
 8859SOL    HW238037   1.502   3.450   3.414  0.7944 -0.2277  1.3298
 8860SOL     OW38038   0.694   2.218   6.325 -0.5472  0.5400 -0.1709
 8860SOL    HW138039   0.707   2.225   6.230  1.5075 -0.3629  0.0471
 8860SOL    HW238040   0.685   2.123   6.333 -3.0063  0.6649 -1.1676
 8861SOL     OW38041   2.564   1.131  12.322  0.2064 -0.3627 -0.1776
 8861SOL    HW138042   2.606   1.071  12.260 -2.0149 -0.4311 -1.6007
 8861SOL    HW238043   2.484   1.080  12.332 -0.0393 -0.2660 -1.6643
 8862SOL     OW38044   2.416   4.591   8.914  0.0791  0.0374 -0.4715
 8862SOL    HW138045   2.383   4.625   8.997  0.8135  1.0977 -0.6176
 8862SOL    HW238046   2.379   4.650   8.849 -0.7229  2.0884  1.8459
 8863SOL     OW38047   0.460   0.023   1.053 -0.4001 -0.5315  0.4740
 8863SOL    HW138048   0.540   4.704   1.086  0.4275  1.1514  0.6231
 8863SOL    HW238049   0.448   4.707   0.966  0.5687 -3.6109  1.7133
 8864SOL     OW38050   3.448   2.566  13.874  0.3170 -0.4270 -0.5219
 8864SOL    HW138051   3.427   2.575  13.781  0.6648  0.3947 -0.5246
 8864SOL    HW238052   3.540   2.592  13.873  1.2874 -3.7914  2.3621
 8865SOL     OW38053   2.992   0.159   3.608  0.1136 -0.1849  0.0200
 8865SOL    HW138054   2.918   0.121   3.560 -1.1651  1.5430  0.5986
 8865SOL    HW238055   3.011   0.231   3.547 -0.2816 -0.1228 -0.0335
 8866SOL     OW38056   4.212   2.940   4.646  0.3915  0.5105  0.1739
 8866SOL    HW138057   4.239   2.963   4.557 -0.2944  0.9839  0.0884
 8866SOL    HW238058   4.279   2.875   4.664  0.1740 -0.3618 -2.1147
 8867SOL     OW38059   3.003   4.368   1.985  0.0555 -0.2737 -0.6608
 8867SOL    HW138060   3.030   4.277   2.000  2.1243  0.4890  0.3184
 8867SOL    HW238061   2.968   4.378   2.074 -1.7815  0.3606 -1.4602
 8868SOL     OW38062   1.839   2.076   5.867  0.3843  0.1080 -0.3810
 8868SOL    HW138063   1.842   2.106   5.776  0.9491 -1.2792 -0.8166
 8868SOL    HW238064   1.845   2.162   5.908 -1.3955 -0.3438  0.8130
 8869SOL     OW38065   3.919   4.312   2.167 -0.5876 -0.1915 -0.0139
 8869SOL    HW138066   4.008   4.320   2.132  0.0127  1.7156  1.9203
 8869SOL    HW238067   3.869   4.249   2.115  1.5057 -1.5555 -0.3909
 8870SOL     OW38068   0.605   3.558   2.863  0.7082  0.4522  0.2593
 8870SOL    HW138069   0.672   3.503   2.821 -0.9868 -1.2827 -0.1508
 8870SOL    HW238070   0.655   3.574   2.943  0.2316  1.4739  0.3447
 8871SOL     OW38071   1.174   0.666   9.860  0.8497  0.0965 -0.2617
 8871SOL    HW138072   1.097   0.721   9.846 -0.8842 -2.2949 -0.1661
 8871SOL    HW238073   1.200   0.655   9.768 -0.3879 -0.6279 -0.5171
 8872SOL     OW38074   0.317   1.152  16.286 -0.9796  0.6241 -0.1840
 8872SOL    HW138075   0.256   1.224  16.299 -1.4904  0.0817  0.4886
 8872SOL    HW238076   0.385   1.174  16.350 -0.5990  0.8659 -0.6713
 8873SOL     OW38077   1.217   1.809   5.596 -0.0902  1.0665  0.2523
 8873SOL    HW138078   1.297   1.852   5.624 -0.1748  0.8249  0.8790
 8873SOL    HW238079   1.182   1.775   5.679  1.2757  0.7115  0.6791
 8874SOL     OW38080   2.733   0.123   9.573  0.7078 -0.5724 -0.0326
 8874SOL    HW138081   2.763   0.050   9.519 -0.1287 -0.9500  0.0199
 8874SOL    HW238082   2.814   0.169   9.598 -0.0055  1.8342 -2.1246
 8875SOL     OW38083   3.942   1.639   7.143  0.2982  0.2903 -0.4641
 8875SOL    HW138084   3.975   1.597   7.222 -0.0290 -0.3997 -0.6951
 8875SOL    HW238085   3.915   1.726   7.172 -1.6101 -0.3388 -0.3605
 8876SOL     OW38086   0.152   4.641  11.686  0.1509  0.3333 -0.2086
 8876SOL    HW138087   0.057   4.647  11.674  0.0895 -0.5640 -0.1140
 8876SOL    HW238088   0.180   0.008  11.665 -1.1452  0.5324 -1.1210
 8877SOL     OW38089   0.403   0.806   3.081  0.0159 -0.2205  0.3635
 8877SOL    HW138090   0.366   0.883   3.124 -0.8313 -1.2548  1.4972
 8877SOL    HW238091   0.408   0.747   3.156 -2.6679  2.3893  2.6260
 8878SOL     OW38092   3.990   3.632  15.577 -0.3944  0.1192 -0.5275
 8878SOL    HW138093   4.038   3.551  15.593 -1.4557 -0.6395 -1.1243
 8878SOL    HW238094   4.017   3.639  15.485 -0.0110 -0.8168 -0.4905
 8879SOL     OW38095   1.150   3.354  12.293  0.8716 -0.4649 -0.0147
 8879SOL    HW138096   1.219   3.290  12.313  1.5464  0.1579 -0.3132
 8879SOL    HW238097   1.104   3.364  12.376  1.3486  1.2080  0.0613
 8880SOL     OW38098   0.259   1.386   7.146  0.1245 -0.1295 -0.3379
 8880SOL    HW138099   0.304   1.470   7.151  2.8023 -1.7332  2.0788
 8880SOL    HW238100   0.327   1.322   7.166 -0.9093 -0.5874  1.7479
 8881SOL     OW38101   2.921   1.994  11.672  0.3816  0.5624  0.2949
 8881SOL    HW138102   2.967   1.973  11.753  0.5840  1.4597  0.4148
 8881SOL    HW238103   2.981   2.058  11.633 -0.8613  0.1800 -2.2036
 8882SOL     OW38104   0.022   1.118  11.709 -0.5118 -0.2628 -0.2228
 8882SOL    HW138105   0.001   1.208  11.734 -2.1847 -1.3826  2.4998
 8882SOL    HW238106   0.085   1.090  11.775  1.3471 -1.4296 -2.5199
 8883SOL     OW38107   4.070   0.347   0.844 -0.5991 -0.2224 -0.0465
 8883SOL    HW138108   4.012   0.368   0.918 -1.0567  0.3929 -0.5822
 8883SOL    HW238109   4.053   0.256   0.819 -0.2953 -0.5501  0.9098
 8884SOL     OW38110   2.938   1.454   2.607 -0.2469 -0.5028 -0.2456
 8884SOL    HW138111   2.999   1.477   2.677  0.8695 -0.8302 -1.1109
 8884SOL    HW238112   2.866   1.413   2.655 -0.9653  2.1915  1.0030
 8885SOL     OW38113   2.510   0.440   1.395  0.4161 -0.0228  0.6670
 8885SOL    HW138114   2.516   0.526   1.353  1.6455 -0.6475 -0.4444
 8885SOL    HW238115   2.423   0.413   1.368  0.7840  0.7563 -1.3401
 8886SOL     OW38116   1.804   3.713   9.762 -0.4888 -0.0041 -0.2613
 8886SOL    HW138117   1.777   3.744   9.848  0.4216 -2.4990  0.9314
 8886SOL    HW238118   1.884   3.664   9.781 -1.0678 -0.4547  1.0216
 8887SOL     OW38119   0.004   1.567   5.354  0.0638 -0.1815  0.0864
 8887SOL    HW138120   0.061   1.643   5.366  2.1301 -1.9289  1.3508
 8887SOL    HW238121   0.030   1.508   5.425  0.7920 -1.0844 -0.9324
 8888SOL     OW38122   2.059   1.200   1.164 -0.5058 -0.3103  0.3047
 8888SOL    HW138123   1.984   1.245   1.204 -0.3822 -0.2161  0.4295
 8888SOL    HW238124   2.113   1.278   1.150  1.9263 -2.0401  0.0857
 8889SOL     OW38125   1.969   4.676   2.756  0.0682  0.5080 -0.1655
 8889SOL    HW138126   1.949   0.020   2.691  0.0708 -0.4698 -1.1624
 8889SOL    HW238127   1.882   4.641   2.774  0.5995  0.0750  1.5693
 8890SOL     OW38128   0.064   1.815   1.344  0.7423 -0.0363  0.7809
 8890SOL    HW138129   0.037   1.900   1.307  0.4733 -0.3530  0.2479
 8890SOL    HW238130   0.070   1.839   1.436  1.6056 -0.4878  0.8365
 8891SOL     OW38131   2.599   0.808   9.478  0.5755  0.3033 -0.3388
 8891SOL    HW138132   2.514   0.763   9.483  0.1935  0.9135 -1.3623
 8891SOL    HW238133   2.621   0.812   9.571 -2.4835  2.1673  0.3115
 8892SOL     OW38134   0.892   0.172   6.210  0.1141 -0.3927 -0.6597
 8892SOL    HW138135   0.923   0.262   6.198  1.9000 -0.9854 -0.5089
 8892SOL    HW238136   0.976   0.126   6.209  0.0144 -0.7031  2.8010
 8893SOL     OW38137   1.847   3.726   5.285  0.3958 -0.0576  0.8502
 8893SOL    HW138138   1.809   3.760   5.203 -2.5272 -3.3527  0.8090
 8893SOL    HW238139   1.830   3.633   5.269  1.0657  0.2303 -1.5955
 8894SOL     OW38140   3.884   0.867   6.274 -0.1123  0.6827 -0.1572
 8894SOL    HW138141   3.866   0.780   6.239  0.6083  0.0367  1.0911
 8894SOL    HW238142   3.965   0.854   6.323  1.3296  2.8570 -1.9556
 8895SOL     OW38143   4.130   3.465   7.389  0.4433  0.1620  0.1407
 8895SOL    HW138144   4.170   3.551   7.383  2.0904 -0.4824  2.2539
 8895SOL    HW238145   4.049   3.473   7.338  0.5714  3.2851  0.3994
 8896SOL     OW38146   0.080   2.343   6.815  0.2743  0.1156 -0.4726
 8896SOL    HW138147   0.143   2.301   6.756 -1.9110 -1.3955 -1.7074
 8896SOL    HW238148   0.025   2.266   6.825  0.1050  0.5827  2.2559
 8897SOL     OW38149   1.138   2.662   0.242 -0.6068 -0.2655 -0.0461
 8897SOL    HW138150   1.061   2.648   0.187 -0.1052  3.8370 -1.8041
 8897SOL    HW238151   1.096   2.679   0.326 -0.3416 -0.8530  0.2090
 8898SOL     OW38152   2.328   0.971   3.906 -0.1197 -0.0300  0.1634
 8898SOL    HW138153   2.369   1.036   3.964  2.1075 -0.4252 -0.9573
 8898SOL    HW238154   2.373   0.998   3.826  1.7789  0.6079  1.4381
 8899SOL     OW38155   3.520   2.677   9.272  0.4158 -0.5183 -0.1447
 8899SOL    HW138156   3.531   2.724   9.189  1.3521  0.9205  0.8072
 8899SOL    HW238157   3.459   2.738   9.312  0.8991 -0.2678  0.2139
 8900SOL     OW38158   4.320   2.488   6.476 -0.1555  0.0525 -0.2373
 8900SOL    HW138159   4.398   2.475   6.421  0.0731  0.0303  0.0937
 8900SOL    HW238160   4.261   2.515   6.405  1.2847 -0.3180 -1.5837
 8901SOL     OW38161   2.630   3.629  16.882  0.3702 -0.6420 -0.6317
 8901SOL    HW138162   2.571   3.680  16.938  1.1568  1.3853 -1.6111
 8901SOL    HW238163   2.604   3.655  16.793  0.9568  0.6626 -0.4295
 8902SOL     OW38164   0.617   0.463   8.242  0.0528 -0.0608 -0.5514
 8902SOL    HW138165   0.589   0.406   8.170  0.4017 -0.1255 -0.6345
 8902SOL    HW238166   0.566   0.430   8.316  1.2510  0.2298  0.3950
 8903SOL     OW38167   3.989   0.311   1.632  0.7491 -0.2870 -0.2011
 8903SOL    HW138168   3.979   0.269   1.546  3.1125  1.1528 -1.1917
 8903SOL    HW238169   4.058   0.375   1.614 -0.2121  0.9957  0.6346
 8904SOL     OW38170   0.887   3.984   1.885  0.0616 -0.0601  0.6997
 8904SOL    HW138171   0.876   4.078   1.899 -0.8575 -0.1736  0.7526
 8904SOL    HW238172   0.908   3.988   1.791 -0.1072  1.2940  0.7133
 8905SOL     OW38173   1.957   0.617   0.568  0.2719 -0.2294 -0.4172
 8905SOL    HW138174   1.928   0.686   0.509 -1.4590  1.4307  2.3985
 8905SOL    HW238175   2.041   0.596   0.527  0.0916 -2.5365  0.3886
 8906SOL     OW38176   2.141   1.695   4.958  0.1718 -0.1919 -0.2982
 8906SOL    HW138177   2.084   1.762   4.920  0.1118  0.8450  1.6438
 8906SOL    HW238178   2.095   1.627   4.909 -0.1340  1.4766 -2.3023
 8907SOL     OW38179   3.752   2.183  10.773 -0.5944  0.2099  0.4105
 8907SOL    HW138180   3.766   2.165  10.680 -3.2403 -0.6857  0.1904
 8907SOL    HW238181   3.657   2.180  10.784 -0.7645 -1.1434 -1.3896
 8908SOL     OW38182   4.444   2.879   5.093 -0.0820  0.0150  0.0051
 8908SOL    HW138183   4.495   2.804   5.063 -1.0446 -1.4521  2.0491
 8908SOL    HW238184   4.485   2.909   5.174  1.9555 -0.6426 -0.7719
 8909SOL     OW38185   2.337   3.248   9.406 -0.5647  0.0396 -0.4340
 8909SOL    HW138186   2.366   3.327   9.361 -1.3388 -0.6577 -2.1557
 8909SOL    HW238187   2.257   3.229   9.358 -1.6416  1.0116  0.9591
 8910SOL     OW38188   4.089   4.513   5.564 -0.4642 -0.4617 -0.0324
 8910SOL    HW138189   4.067   4.589   5.510 -2.5596 -0.3238  1.0335
 8910SOL    HW238190   4.001   4.496   5.596  0.7027 -0.2442  3.3420
 8911SOL     OW38191   0.577   2.558   1.131 -0.3735  0.6269  0.5630
 8911SOL    HW138192   0.530   2.637   1.158 -2.3235 -0.3727  0.0470
 8911SOL    HW238193   0.648   2.594   1.077  0.6893 -0.4580  1.2356
 8912SOL     OW38194   3.496   2.395   6.215 -0.0072 -0.0369  0.3984
 8912SOL    HW138195   3.462   2.328   6.155  2.2722  1.4989 -2.6328
 8912SOL    HW238196   3.496   2.354   6.301  0.0652  2.2195  1.4833
 8913SOL     OW38197   2.851   4.163   6.152 -0.2593 -0.4847 -0.0897
 8913SOL    HW138198   2.920   4.101   6.175 -1.1545 -2.0105 -1.4965
 8913SOL    HW238199   2.895   4.216   6.085 -3.1205  1.7469 -0.2157
 8914SOL     OW38200   1.955   0.571   8.480 -0.1825  0.1278 -0.1923
 8914SOL    HW138201   1.908   0.571   8.564  1.5667 -1.8149  0.8046
 8914SOL    HW238202   1.984   0.662   8.483  1.5431 -0.3490 -1.8781
 8915SOL     OW38203   0.650   3.358   5.913 -0.4173 -0.2041  0.0129
 8915SOL    HW138204   0.594   3.431   5.940  0.3529  0.7398 -0.8860
 8915SOL    HW238205   0.704   3.395   5.843 -2.3291 -0.2583 -1.4962
 8916SOL     OW38206   4.224   2.346  13.746 -0.2333 -0.3791  0.0215
 8916SOL    HW138207   4.143   2.374  13.704 -0.6291  0.0247  1.0666
 8916SOL    HW238208   4.273   2.424  13.721  1.7195 -1.0343  1.7994
 8917SOL     OW38209   4.119   3.475  14.820 -0.4668  0.1802 -0.3331
 8917SOL    HW138210   4.045   3.494  14.879  0.5002 -0.0385  0.9418
 8917SOL    HW238211   4.177   3.446  14.890  1.1706  1.4348 -1.1751
 8918SOL     OW38212   4.299   2.843   8.654  0.5074 -0.3687 -0.3028
 8918SOL    HW138213   4.371   2.822   8.713  2.0274  3.3132 -0.7965
 8918SOL    HW238214   4.320   2.935   8.638  1.4651 -0.4201  0.7013
 8919SOL     OW38215   2.287   3.837   8.026 -0.6200  0.8186  0.2743
 8919SOL    HW138216   2.200   3.877   8.024 -0.1062  2.0951  2.8432
 8919SOL    HW238217   2.321   3.845   8.116 -0.3286 -0.8919  0.3198
 8920SOL     OW38218   4.098   1.068   3.937 -0.3750 -0.1872 -0.5090
 8920SOL    HW138219   4.166   1.135   3.930 -0.3863 -0.1300 -0.0854
 8920SOL    HW238220   4.020   1.116   3.964  0.1124 -0.1544  0.8513
 8921SOL     OW38221   2.078   0.513   9.608  0.0985  0.4483  0.0704
 8921SOL    HW138222   2.041   0.490   9.523 -1.3112  0.5417  0.6630
 8921SOL    HW238223   2.171   0.495   9.594 -0.1274 -0.4834 -0.2522
 8922SOL     OW38224   3.407   1.307   3.111  0.3888  0.1616  0.4453
 8922SOL    HW138225   3.448   1.236   3.061  0.7387 -0.4133  1.5337
 8922SOL    HW238226   3.426   1.287   3.203  2.6494  1.2668  0.2040
 8923SOL     OW38227   0.713   3.072   0.342 -0.0763 -0.9107 -0.2078
 8923SOL    HW138228   0.775   3.069   0.269 -0.6189 -0.8974 -0.6663
 8923SOL    HW238229   0.636   3.062   0.287 -2.1534  0.5696  2.4513
 8924SOL     OW38230   2.020   3.912   2.455 -0.1939 -0.3613  0.1231
 8924SOL    HW138231   1.983   3.999   2.469  3.1884  0.8739  1.4723
 8924SOL    HW238232   2.097   3.933   2.403 -0.3917  1.5555  0.6198
 8925SOL     OW38233   1.322   0.016   7.510 -0.0288 -0.0762 -0.3647
 8925SOL    HW138234   1.281   4.663   7.468  0.4201 -0.9800  0.7996
 8925SOL    HW238235   1.263   0.024   7.585  0.6203 -2.3632  0.4049
 8926SOL     OW38236   0.721   1.684   5.447 -0.3967 -0.1173  0.3285
 8926SOL    HW138237   0.808   1.698   5.484 -0.2237 -0.1096 -0.0795
 8926SOL    HW238238   0.710   1.773   5.415  3.0293  0.4311  0.7209
 8927SOL     OW38239   1.703   2.954   8.877  0.3110 -0.3131 -0.1637
 8927SOL    HW138240   1.766   2.979   8.810 -0.6654 -0.3119 -1.0753
 8927SOL    HW238241   1.621   3.001   8.865  1.2012  1.7341  1.7650
 8928SOL     OW38242   3.183   4.720   8.673  0.4081  0.1036 -0.5360
 8928SOL    HW138243   3.182   0.090   8.649 -0.1118  0.4211  0.6849
 8928SOL    HW238244   3.276   4.714   8.695  0.5655  0.7747 -1.0322
 8929SOL     OW38245   4.136   0.842   6.397  0.2946 -0.7561 -0.1356
 8929SOL    HW138246   4.128   0.824   6.491 -0.1797 -2.9120 -0.5893
 8929SOL    HW238247   4.202   0.912   6.397  0.1333 -0.6105 -1.5344
 8930SOL     OW38248   2.350   4.483   2.116  1.1908  0.3056 -0.0759
 8930SOL    HW138249   2.290   4.546   2.157 -0.9241 -0.6952 -1.6116
 8930SOL    HW238250   2.294   4.408   2.136  0.2773  0.9058 -0.3510
 8931SOL     OW38251   2.890   1.686  11.841 -0.1452 -0.5022  0.0992
 8931SOL    HW138252   2.822   1.705  11.776  0.7338 -1.3621 -1.0822
 8931SOL    HW238253   2.849   1.719  11.921 -1.9161  1.5026 -1.6279
 8932SOL     OW38254   4.224   0.829   9.115 -0.1480 -0.4190 -0.1804
 8932SOL    HW138255   4.194   0.798   9.201 -1.7400  0.2467 -0.5032
 8932SOL    HW238256   4.268   0.748   9.088  0.3323 -0.4443  0.6604
 8933SOL     OW38257   1.982   3.340   2.102  0.0982  0.5406  0.1543
 8933SOL    HW138258   1.977   3.246   2.115  0.0328  0.2618 -1.8921
 8933SOL    HW238259   1.899   3.365   2.143 -0.8539 -0.6510 -1.0787
 8934SOL     OW38260   1.284   0.303   6.885 -0.1709  0.1944  0.0109
 8934SOL    HW138261   1.348   0.332   6.950 -0.1516  0.9469 -0.3432
 8934SOL    HW238262   1.323   0.322   6.800 -0.4220 -0.0666 -0.1608
 8935SOL     OW38263   2.430   0.017   7.906  0.0638  0.1797  0.0029
 8935SOL    HW138264   2.370   0.092   7.896 -0.0465 -0.1178 -1.5105
 8935SOL    HW238265   2.427   4.718   7.999  0.5563 -0.4061 -0.1215
 8936SOL     OW38266   0.339   1.189  12.801  0.0081 -0.0969 -0.1328
 8936SOL    HW138267   0.291   1.131  12.742  1.3529 -0.5506 -0.7791
 8936SOL    HW238268   0.407   1.229  12.747 -0.4496  0.9436  0.0699
 8937SOL     OW38269   3.045   0.474   3.889  0.6795 -0.2768 -0.0895
 8937SOL    HW138270   3.131   0.512   3.873 -0.1877  1.5701 -0.4358
 8937SOL    HW238271   2.995   0.517   3.820 -0.7436  0.9990  1.7356
 8938SOL     OW38272   2.206   3.078   3.129 -0.3887 -0.2185  0.4846
 8938SOL    HW138273   2.280   3.131   3.099 -1.5002  1.4499  0.6936
 8938SOL    HW238274   2.190   3.030   3.048  0.9614  1.2423 -0.6712
 8939SOL     OW38275   3.555   4.126   8.046  0.3393 -0.5698 -0.2297
 8939SOL    HW138276   3.557   4.033   8.069 -1.2950 -1.1273 -2.3860
 8939SOL    HW238277   3.645   4.150   8.024  0.5209 -0.9215  0.1187
 8940SOL     OW38278   3.971   2.596   5.078 -0.4929  0.7497 -0.1242
 8940SOL    HW138279   3.951   2.532   5.146  0.4589  0.7906  0.1980
 8940SOL    HW238280   4.059   2.624   5.102  0.1980 -1.3450 -0.1619
 8941SOL     OW38281   2.750   1.198   0.828  0.1276  0.2838 -0.0710
 8941SOL    HW138282   2.788   1.146   0.899  1.6944 -0.1012 -1.2138
 8941SOL    HW238283   2.679   1.138   0.804  0.8275 -0.7989  0.5212
 8942SOL     OW38284   0.359   2.109   9.622  0.0713 -0.1024  0.3894
 8942SOL    HW138285   0.401   2.027   9.595 -1.9810 -0.6675 -1.0224
 8942SOL    HW238286   0.436   2.155   9.657  0.6458  0.8472 -2.0929
 8943SOL     OW38287   2.935   0.211  15.112 -0.1317 -0.7028  0.6401
 8943SOL    HW138288   2.847   0.226  15.146 -0.6790 -0.2818 -0.9523
 8943SOL    HW238289   2.983   0.256  15.181 -0.7154  1.3039 -0.2708
 8944SOL     OW38290   3.916   2.613   2.244 -0.3698  0.1399  0.0632
 8944SOL    HW138291   4.006   2.581   2.249 -0.4133  0.0899  0.4735
 8944SOL    HW238292   3.940   2.705   2.251  0.4335 -0.1131  0.5810
 8945SOL     OW38293   0.101   1.842   0.847 -0.4673 -0.3644  0.0002
 8945SOL    HW138294   0.143   1.756   0.843  1.7502  0.6430  1.3492
 8945SOL    HW238295   0.164   1.901   0.889  0.1393  0.6980 -2.3969
 8946SOL     OW38296   1.848   3.711   2.727 -0.3058  0.5823  0.2045
 8946SOL    HW138297   1.763   3.721   2.684 -1.3315  1.7409  2.5164
 8946SOL    HW238298   1.828   3.637   2.784 -0.8127  0.8592  0.3878
 8947SOL     OW38299   2.394   3.978   7.169  0.1940 -0.2842 -0.0348
 8947SOL    HW138300   2.302   3.951   7.166 -0.5144  2.0281  0.8206
 8947SOL    HW238301   2.435   3.908   7.118  1.2120 -0.0394  0.4531
 8948SOL     OW38302   0.647   1.094   3.869  0.5164 -0.3920  0.0869
 8948SOL    HW138303   0.553   1.112   3.866  0.0846 -2.6772  0.2412
 8948SOL    HW238304   0.671   1.157   3.801  3.9895 -0.7307  0.9862
 8949SOL     OW38305   2.876   1.791  10.698  0.4327  0.2818 -0.7149
 8949SOL    HW138306   2.936   1.718  10.686 -0.1034 -0.4226  0.8052
 8949SOL    HW238307   2.857   1.795  10.792  1.2946  0.3840 -0.5457
 8950SOL     OW38308   4.366   3.901   2.597  0.2493  0.0030  0.1510
 8950SOL    HW138309   4.302   3.946   2.541 -0.0060 -1.2697 -0.5786
 8950SOL    HW238310   4.447   3.948   2.574  0.0779 -2.0480 -4.7709
 8951SOL     OW38311   0.461   4.395   6.005 -0.1365  0.6373  0.6781
 8951SOL    HW138312   0.514   4.458   5.957 -2.5657  1.6133 -0.7168
 8951SOL    HW238313   0.438   4.448   6.082 -1.2433  0.7778  0.2496
 8952SOL     OW38314   4.037   1.896   8.045 -0.0183  0.5155  0.1974
 8952SOL    HW138315   3.994   1.977   8.071 -0.4105  0.0899  0.8588
 8952SOL    HW238316   4.088   1.883   8.125 -0.0965 -0.0039  0.1630
 8953SOL     OW38317   0.493   3.937   7.721 -0.2746 -0.7449  0.1197
 8953SOL    HW138318   0.471   3.902   7.635  2.4822 -0.2861 -0.7709
 8953SOL    HW238319   0.588   3.940   7.717 -0.3342 -0.4352 -1.0395
 8954SOL     OW38320   3.760   1.421  15.580  0.2463 -0.3602  0.0642
 8954SOL    HW138321   3.704   1.413  15.503  0.6614  0.9567 -0.3738
 8954SOL    HW238322   3.707   1.485  15.628  0.1909 -0.5943  0.3118
 8955SOL     OW38323   2.935   0.787   6.162 -0.0972 -0.0728  0.1176
 8955SOL    HW138324   2.924   0.777   6.256 -2.0973 -2.1687 -0.3400
 8955SOL    HW238325   2.871   0.722   6.132  0.9897 -1.0342 -0.1679
 8956SOL     OW38326   2.126   1.865  13.630  0.1831 -0.3929  0.9819
 8956SOL    HW138327   2.149   1.846  13.721  2.7556 -1.0547  0.1752
 8956SOL    HW238328   2.036   1.898  13.637  0.2822 -0.1256  0.9914
 8957SOL     OW38329   2.276   4.342   3.646  0.5040 -0.0576 -0.0454
 8957SOL    HW138330   2.278   4.401   3.571 -0.2408 -0.8009 -0.6391
 8957SOL    HW238331   2.365   4.345   3.681  1.0428 -0.5326 -1.3966
 8958SOL     OW38332   0.722   1.571   0.910 -0.5167  0.4013  0.2323
 8958SOL    HW138333   0.780   1.634   0.953 -0.5840 -0.7497  1.9930
 8958SOL    HW238334   0.648   1.632   0.910  0.0681  1.1114  0.3505
 8959SOL     OW38335   2.059   0.924   0.051 -0.5717 -0.1861 -0.0917
 8959SOL    HW138336   2.090   1.005   0.011 -1.2431  0.5348  0.8670
 8959SOL    HW238337   2.089   0.865  17.674 -0.5043  0.8718 -0.9546
 8960SOL     OW38338   4.260   0.571   2.772  0.0381  1.2507 -0.0350
 8960SOL    HW138339   4.221   0.600   2.690  0.4920 -1.2729 -1.1507
 8960SOL    HW238340   4.336   0.627   2.784  1.7085 -1.0446  0.0783
 8961SOL     OW38341   3.636   4.493  14.407 -0.1256 -0.3037 -0.0976
 8961SOL    HW138342   3.628   4.403  14.440 -0.8787  0.4643  1.8010
 8961SOL    HW238343   3.729   4.514  14.408 -1.0269  3.7131 -0.7527
 8962SOL     OW38344   4.666   2.671   9.058 -0.0249 -0.3694  0.2711
 8962SOL    HW138345   4.661   2.586   9.015 -1.0557  0.3414 -1.0195
 8962SOL    HW238346   4.693   2.656   9.149 -2.2638 -0.5750  0.8872
 8963SOL     OW38347   2.255   3.298   2.444 -0.3003  0.1082  0.0333
 8963SOL    HW138348   2.189   3.365   2.428 -0.1936  0.4715  1.1454
 8963SOL    HW238349   2.263   3.267   2.354  0.2177  0.3186  0.0067
 8964SOL     OW38350   1.978   4.330  10.398  0.5650  0.1468  0.3891
 8964SOL    HW138351   2.070   4.351  10.381  1.3192 -4.7334 -1.4062
 8964SOL    HW238352   1.945   4.269  10.333 -0.4143  0.0308  0.9886
 8965SOL     OW38353   3.996   2.392   5.272  0.0654  0.2480  0.0953
 8965SOL    HW138354   3.932   2.321   5.266  0.6213 -0.1783 -0.7224
 8965SOL    HW238355   4.080   2.350   5.288 -0.5735 -2.0874 -2.7425
 8966SOL     OW38356   4.311   1.112   3.611  0.2796  0.3266  0.2594
 8966SOL    HW138357   4.323   1.026   3.571  0.5151 -0.1847  1.4246
 8966SOL    HW238358   4.216   1.110   3.625  0.3908 -1.7166  0.7737
 8967SOL     OW38359   1.097   2.359   2.416  0.2208 -0.1635 -0.5597
 8967SOL    HW138360   1.061   2.378   2.330  3.0972  0.9275 -1.5394
 8967SOL    HW238361   1.151   2.437   2.433  1.8133 -0.5580 -3.7876
 8968SOL     OW38362   3.696   3.689  10.256  0.4256  0.2758 -0.1686
 8968SOL    HW138363   3.723   3.758  10.316 -1.9235 -0.1605  1.3780
 8968SOL    HW238364   3.738   3.733  10.182 -0.4159 -0.7362 -1.2543
 8969SOL     OW38365   4.397   2.230   6.802  0.4193 -0.0737  0.2260
 8969SOL    HW138366   4.460   2.172   6.846  1.4206  0.3249 -0.6857
 8969SOL    HW238367   4.447   2.246   6.722 -0.8487 -0.4243 -0.6440
 8970SOL     OW38368   2.311   1.051   4.219 -0.3488 -0.2737  0.2096
 8970SOL    HW138369   2.354   1.105   4.285 -1.9945  1.3072 -0.0215
 8970SOL    HW238370   2.312   0.963   4.256  2.1703  0.6681  2.3677
 8971SOL     OW38371   2.286   0.674   1.515  0.1495  0.6920  0.4972
 8971SOL    HW138372   2.263   0.586   1.544 -0.0221  0.7479  0.5319
 8971SOL    HW238373   2.325   0.701   1.598  0.9989 -2.1840  1.0244
 8972SOL     OW38374   1.260   0.311   8.149  0.3264  0.5025 -1.2613
 8972SOL    HW138375   1.267   0.291   8.056  0.9836  1.5203 -1.4308
 8972SOL    HW238376   1.213   0.394   8.139  1.0027  1.0087 -0.2308
 8973SOL     OW38377   1.033   0.275   7.799  0.2043 -0.4105 -0.3181
 8973SOL    HW138378   0.993   0.222   7.867  3.1755 -0.8039  1.1276
 8973SOL    HW238379   0.960   0.325   7.764  0.9320  0.2436 -0.9077
 8974SOL     OW38380   2.028   4.199   3.085  0.0372  0.0190  0.2790
 8974SOL    HW138381   2.055   4.108   3.097 -1.6124 -0.7709 -1.8697
 8974SOL    HW238382   1.988   4.215   3.170  0.8470 -1.1044  0.8741
 8975SOL     OW38383   3.294   0.509  15.789 -0.0603  0.4900 -0.0496
 8975SOL    HW138384   3.240   0.469  15.722 -1.6792  0.1597  1.4448
 8975SOL    HW238385   3.327   0.578  15.731  0.2809 -1.0912 -1.7184
 8976SOL     OW38386   1.828   1.586  14.854  0.5773  0.9098  0.1575
 8976SOL    HW138387   1.750   1.576  14.799  0.0800  0.2609  0.9818
 8976SOL    HW238388   1.857   1.669  14.815  0.2304  1.3300  0.7898
 8977SOL     OW38389   4.282   2.387   3.854  0.2539  0.3010 -0.0099
 8977SOL    HW138390   4.208   2.401   3.794  0.1286 -1.2875 -0.2239
 8977SOL    HW238391   4.248   2.328   3.921  0.3149 -0.0638 -0.2995
 8978SOL     OW38392   1.865   4.497   8.736  0.2369  0.2171 -0.5795
 8978SOL    HW138393   1.944   4.498   8.682  0.1608 -0.4228 -0.6966
 8978SOL    HW238394   1.900   4.501   8.826 -1.4744  2.1509 -0.0148
 8979SOL     OW38395   0.194   3.644   9.915  0.0401 -0.1339 -0.2793
 8979SOL    HW138396   0.168   3.586   9.844  0.4910  0.4530 -0.9219
 8979SOL    HW238397   0.110   3.650   9.962  1.4625 -1.4492  2.4371
 8980SOL     OW38398   0.618   3.247   6.797 -0.3094  0.8009 -0.1007
 8980SOL    HW138399   0.614   3.190   6.873  0.2301  0.9527  0.0385
 8980SOL    HW238400   0.710   3.272   6.792  0.0240 -0.7193 -1.8899
 8981SOL     OW38401   2.453   1.924   3.588  0.0169 -0.1226 -0.3624
 8981SOL    HW138402   2.476   2.002   3.537  0.6149  0.3843  0.6903
 8981SOL    HW238403   2.467   1.957   3.677 -1.0422  0.4121 -0.3848
 8982SOL     OW38404   1.809   3.164   3.513 -0.1073 -0.4789 -0.2740
 8982SOL    HW138405   1.876   3.097   3.529 -0.3059 -0.4907  0.5039
 8982SOL    HW238406   1.725   3.119   3.517  0.9140 -1.9289  4.3960
 8983SOL     OW38407   1.843   3.940   1.921  0.3302  0.3007  0.3091
 8983SOL    HW138408   1.763   3.956   1.972 -0.2798  1.4917 -1.0421
 8983SOL    HW238409   1.899   4.014   1.941  0.3062  0.2770  0.4630
 8984SOL     OW38410   1.267   1.959   7.996  0.0618  0.2505  0.4794
 8984SOL    HW138411   1.321   1.963   8.075  0.2035  2.0466  0.2921
 8984SOL    HW238412   1.323   1.907   7.938  1.0960  2.6391 -0.6630
 8985SOL     OW38413   1.346   2.443   0.367 -0.0546 -0.4194 -0.1942
 8985SOL    HW138414   1.308   2.482   0.289 -0.7893  0.4538  0.5979
 8985SOL    HW238415   1.424   2.497   0.377  1.5742 -2.9349  0.9110
 8986SOL     OW38416   2.530   0.892   7.244  0.2539  0.2480  0.0113
 8986SOL    HW138417   2.493   0.937   7.320  1.0926  3.7836 -1.6372
 8986SOL    HW238418   2.464   0.923   7.182  0.7844  1.9082  0.2533
 8987SOL     OW38419   0.352   4.195   1.906 -0.3699  0.4209 -0.3798
 8987SOL    HW138420   0.329   4.113   1.862  1.0022  0.3352 -0.9396
 8987SOL    HW238421   0.310   4.263   1.853  0.2763  0.5132 -0.7780
 8988SOL     OW38422   1.391   3.048  12.062  0.1931 -0.3734 -0.1457
 8988SOL    HW138423   1.333   3.114  12.024 -0.4555  0.6675  2.6568
 8988SOL    HW238424   1.363   2.972  12.011 -0.8886 -0.1924  0.1750
 8989SOL     OW38425   1.456   2.724   2.969 -0.1235  0.0454 -0.5627
 8989SOL    HW138426   1.520   2.765   3.027  0.3066  0.3453 -1.2518
 8989SOL    HW238427   1.398   2.800   2.963 -1.3836 -1.0478 -2.2536
 8990SOL     OW38428   3.202   0.629   5.041 -0.1539  0.2530  0.0388
 8990SOL    HW138429   3.136   0.576   5.087  1.4607 -0.9387  0.9667
 8990SOL    HW238430   3.233   0.561   4.982 -0.2948 -0.4197  0.7352
 8991SOL     OW38431   0.630   2.393  11.183 -0.0926 -0.2163  0.8377
 8991SOL    HW138432   0.699   2.329  11.167 -0.7872 -1.5545  3.2841
 8991SOL    HW238433   0.658   2.471  11.135  1.9240 -0.5408  1.4812
 8992SOL     OW38434   4.646   0.838   7.987  0.0719 -0.4320  0.4003
 8992SOL    HW138435   4.715   0.867   8.048  1.0956 -2.4331  0.2083
 8992SOL    HW238436   4.672   0.745   7.982 -0.4313 -0.4434 -2.1334
 8993SOL     OW38437   0.406   0.618   3.910 -0.1248  0.6494  0.5098
 8993SOL    HW138438   0.333   0.681   3.913  0.1502  1.0642 -1.9002
 8993SOL    HW238439   0.475   0.665   3.863 -2.2394  3.9283  0.6181
 8994SOL     OW38440   2.027   2.698   5.655 -0.8308 -0.1150 -0.0090
 8994SOL    HW138441   1.970   2.749   5.712 -0.5533  0.6615 -0.4250
 8994SOL    HW238442   1.989   2.723   5.571 -1.1367 -0.0512  0.1496
 8995SOL     OW38443   1.403   2.885   7.657  0.7749 -0.5534 -0.1069
 8995SOL    HW138444   1.408   2.789   7.651 -2.2929 -0.8148  1.7224
 8995SOL    HW238445   1.472   2.903   7.593  2.4569 -0.9848  1.5545
 8996SOL     OW38446   0.820   0.412  16.343  0.7771 -0.1514 -0.0873
 8996SOL    HW138447   0.757   0.345  16.369  1.8155  0.1245  3.0935
 8996SOL    HW238448   0.842   0.386  16.253 -1.5124 -1.0255 -0.3888
 8997SOL     OW38449   3.945   3.716  14.447 -0.1079  0.0264 -0.1058
 8997SOL    HW138450   3.916   3.768  14.372  2.1657 -1.8202 -2.2537
 8997SOL    HW238451   4.024   3.670  14.418  0.7576  1.0202  0.6551
 8998SOL     OW38452   0.238   3.627   8.064 -0.1092 -0.1734 -0.6692
 8998SOL    HW138453   0.271   3.587   8.145  0.6091 -1.0085 -1.3698
 8998SOL    HW238454   0.302   3.690   8.030  0.6316 -0.2871  0.5048
 8999SOL     OW38455   2.587   3.306  12.078 -0.2268  0.3228  0.3021
 8999SOL    HW138456   2.554   3.233  12.026  1.4975 -1.1026  1.2457
 8999SOL    HW238457   2.503   3.350  12.097 -1.4760 -1.1019 -1.9114
 9000SOL     OW38458   3.522   1.323   2.820  0.2735  0.3359  0.3298
 9000SOL    HW138459   3.494   1.382   2.891  1.0437 -0.4133  1.2537
 9000SOL    HW238460   3.608   1.363   2.802  0.6698 -1.6142 -1.9922
 9001SOL     OW38461   2.275   3.452   4.478 -0.1378  0.3649 -0.2443
 9001SOL    HW138462   2.239   3.429   4.393  0.8947  1.5955 -1.0050
 9001SOL    HW238463   2.350   3.394   4.486  0.3716  1.3274  2.0588
 9002SOL     OW38464   3.915   0.397  10.071  0.0743  0.3393  0.5431
 9002SOL    HW138465   3.933   0.303  10.083 -3.0056 -0.2426  0.7153
 9002SOL    HW238466   3.997   0.423  10.030 -0.5409 -0.8143 -1.4583
 9003SOL     OW38467   4.409   0.163   7.943 -0.1661  0.1776  0.6589
 9003SOL    HW138468   4.408   0.139   7.851  0.5297  0.9247  0.4548
 9003SOL    HW238469   4.374   0.252   7.936  2.2035  1.2240  2.0766
 9004SOL     OW38470   4.639   3.146  10.650  0.6100 -0.1503  0.2765
 9004SOL    HW138471   0.010   3.156  10.637  0.2591  2.0110 -0.5075
 9004SOL    HW238472   4.640   3.061  10.696  1.7669  0.0395  0.5854
 9005SOL     OW38473   2.464   0.002  11.412  0.3444  0.5399  1.1808
 9005SOL    HW138474   2.558   0.019  11.404  0.0082  2.9183  2.1100
 9005SOL    HW238475   2.465   4.647  11.356 -1.2812 -0.1183  2.0504
 9006SOL     OW38476   3.337   0.591   7.280  0.1196 -0.4725  0.3546
 9006SOL    HW138477   3.402   0.634   7.334 -0.2718  0.4297  0.1101
 9006SOL    HW238478   3.355   0.639   7.200 -2.4075  0.2701  0.2128
 9007SOL     OW38479   0.315   1.607  11.275 -0.1415  0.2823 -0.0560
 9007SOL    HW138480   0.230   1.634  11.242 -0.4059  1.8453  1.8749
 9007SOL    HW238481   0.310   1.512  11.285 -0.2253  0.2854 -0.0744
 9008SOL     OW38482   3.997   1.544   2.438  0.5473  0.3139  0.7376
 9008SOL    HW138483   3.991   1.505   2.351  1.2598  1.8483  0.0117
 9008SOL    HW238484   3.919   1.600   2.434 -1.4704 -2.5236  0.1774
 9009SOL     OW38485   0.491   0.598  15.516  0.0951 -0.3971  0.1363
 9009SOL    HW138486   0.414   0.567  15.468  0.1888  0.2528 -0.4332
 9009SOL    HW238487   0.461   0.664  15.577  0.4603  0.0223 -0.1420
 9010SOL     OW38488   0.469   1.056   4.623  0.4217 -0.1914 -0.3096
 9010SOL    HW138489   0.427   1.077   4.539 -0.0175  0.8569  0.1715
 9010SOL    HW238490   0.501   1.144   4.641  1.2578 -0.8999  1.5482
 9011SOL     OW38491   0.490   3.858   3.748  0.3518 -0.1052  0.2283
 9011SOL    HW138492   0.556   3.788   3.754 -0.0060 -0.5347 -0.8242
 9011SOL    HW238493   0.541   3.935   3.774 -0.3129  0.1820  0.6811
 9012SOL     OW38494   3.550   2.068   8.585 -0.4161 -0.1432  0.6607
 9012SOL    HW138495   3.527   1.975   8.580 -1.6034  0.0894  1.9714
 9012SOL    HW238496   3.621   2.057   8.648  0.0085 -0.8505  0.0739
 9013SOL     OW38497   0.972   4.166   7.563  0.0999  0.4507  0.0779
 9013SOL    HW138498   1.047   4.200   7.514  0.1254 -0.4918 -0.5257
 9013SOL    HW238499   1.005   4.152   7.652  1.3229  1.3331 -0.2358
 9014SOL     OW38500   1.320   4.415   9.360  0.0253  0.8451 -0.4140
 9014SOL    HW138501   1.315   4.454   9.273 -0.0230  2.1551  0.1753
 9014SOL    HW238502   1.402   4.367   9.355 -0.4175 -0.0867  1.5551
 9015SOL     OW38503   0.140   1.413   4.165  0.4164  0.7941 -0.2921
 9015SOL    HW138504   0.149   1.346   4.233 -5.3442 -1.0401 -1.3452
 9015SOL    HW238505   0.090   1.471   4.222 -1.2615 -1.6736  0.7294
 9016SOL     OW38506   0.621   3.901  17.579 -0.2175 -0.4239 -0.6052
 9016SOL    HW138507   0.551   3.962  17.553 -1.3631 -1.2054  0.6554
 9016SOL    HW238508   0.592   3.876  17.667  3.7546 -2.0437  0.2354
 9017SOL     OW38509   1.830   4.512  11.259 -0.0094 -0.0736  0.0479
 9017SOL    HW138510   1.762   4.512  11.327 -0.4067 -1.9022 -0.3703
 9017SOL    HW238511   1.903   4.560  11.299  0.4147 -0.5239 -0.1912
 9018SOL     OW38512   3.916   0.835  12.765  0.1828  0.0270 -0.2500
 9018SOL    HW138513   3.886   0.915  12.806 -3.1139 -1.7150  0.7074
 9018SOL    HW238514   3.995   0.860  12.716 -0.7475 -1.1071 -2.3450
 9019SOL     OW38515   4.222   0.595   7.082  0.5631 -0.3699  0.1679
 9019SOL    HW138516   4.143   0.578   7.133  1.1461 -0.1022  1.1591
 9019SOL    HW238517   4.205   0.687   7.061  0.8478 -0.1528  0.8886
 9020SOL     OW38518   4.319   3.175   8.910  0.1060 -0.3415 -0.8232
 9020SOL    HW138519   4.326   3.210   8.999  1.5941 -2.1171 -0.2331
 9020SOL    HW238520   4.261   3.248   8.887 -0.3304  0.4198  2.7066
 9021SOL     OW38521   0.041   2.311   6.246  0.2582 -0.2318 -0.6323
 9021SOL    HW138522   0.031   2.265   6.163  0.8084  1.2642 -1.5347
 9021SOL    HW238523   0.127   2.353   6.242  1.1036 -1.8674  0.6329
 9022SOL     OW38524   2.707   1.353   8.494  0.1497 -0.0648  0.3091
 9022SOL    HW138525   2.709   1.413   8.419 -0.2066  0.5423  0.7926
 9022SOL    HW238526   2.613   1.352   8.512 -0.0474 -0.0172 -0.6879
 9023SOL     OW38527   0.650   3.567  12.106  0.2748 -0.0766  0.1868
 9023SOL    HW138528   0.616   3.598  12.022  0.0376 -1.1734 -0.1241
 9023SOL    HW238529   0.734   3.529  12.081  0.9387  0.3401  1.7553
 9024SOL     OW38530   3.638   0.794   8.611  0.2919 -0.2959  0.2402
 9024SOL    HW138531   3.634   0.856   8.684  1.1516 -0.2055  0.2138
 9024SOL    HW238532   3.727   0.764   8.628 -0.4442 -2.1191  0.8412
 9025SOL     OW38533   2.879   4.470   1.412  0.0560  0.3496 -0.7447
 9025SOL    HW138534   2.858   4.564   1.409  0.5846  0.4489 -1.4408
 9025SOL    HW238535   2.903   4.464   1.504 -0.3074 -0.9953 -0.7413
 9026SOL     OW38536   4.032   2.474  14.603 -0.5388 -0.3632  0.1230
 9026SOL    HW138537   3.976   2.535  14.651 -0.5957 -0.2846 -0.0433
 9026SOL    HW238538   3.981   2.460  14.523 -0.0129 -4.5345  0.5132
 9027SOL     OW38539   2.041   0.439   5.581 -0.4371 -0.1105  0.1103
 9027SOL    HW138540   1.978   0.368   5.577 -0.8894  0.2186  1.4170
 9027SOL    HW238541   1.980   0.500   5.623 -1.8566 -0.8078 -0.9336
 9028SOL     OW38542   3.743   1.121  16.536 -0.5315 -0.5308 -0.3750
 9028SOL    HW138543   3.716   1.203  16.577 -1.0890  0.2563 -2.3358
 9028SOL    HW238544   3.689   1.062  16.588 -0.4823 -0.2863 -0.0471
 9029SOL     OW38545   0.427   3.360   9.226 -0.5224 -0.5328  0.1633
 9029SOL    HW138546   0.415   3.437   9.171 -0.4182  0.0179  0.9064
 9029SOL    HW238547   0.519   3.368   9.251 -0.1311 -1.1303 -1.1017
 9030SOL     OW38548   2.293   2.973   5.489 -0.2973 -0.1997  0.3498
 9030SOL    HW138549   2.247   2.919   5.425  0.2838  2.2161 -2.0822
 9030SOL    HW238550   2.332   2.907   5.547 -0.0829 -0.1376  0.2772
 9031SOL     OW38551   1.937   2.414  12.561 -0.1001  0.0975  0.3068
 9031SOL    HW138552   1.886   2.431  12.481  2.5971  1.1597 -1.1590
 9031SOL    HW238553   2.009   2.476  12.557 -0.3361  0.2734 -1.6604
 9032SOL     OW38554   4.417   4.575   7.000  0.3779 -0.1113 -0.2480
 9032SOL    HW138555   4.344   4.515   6.986  0.6304 -0.2347 -1.0591
 9032SOL    HW238556   4.490   4.515   7.019  1.5132  0.5595 -2.4940
 9033SOL     OW38557   1.645   4.687   4.441 -0.0785 -0.3146 -0.4712
 9033SOL    HW138558   1.699   0.033   4.402  0.9181 -0.8172  0.0059
 9033SOL    HW238559   1.625   4.626   4.370  1.1770 -0.0370 -1.0620
 9034SOL     OW38560   2.449   4.292   5.047 -0.3443  0.1079  0.3279
 9034SOL    HW138561   2.456   4.197   5.047  0.4728  0.1633  0.4303
 9034SOL    HW238562   2.486   4.308   4.960 -0.8666 -0.3404  0.0248
 9035SOL     OW38563   2.419   1.361   9.170  0.0578  0.2302  0.2849
 9035SOL    HW138564   2.372   1.383   9.090  0.0972 -0.0121  0.1947
 9035SOL    HW238565   2.382   1.278   9.204 -0.4726  0.0830 -0.6559
 9036SOL     OW38566   0.903   3.710  16.620 -0.4417 -0.6050  0.1271
 9036SOL    HW138567   0.965   3.763  16.671 -0.7713 -1.0301  0.9747
 9036SOL    HW238568   0.936   3.621  16.626 -0.4018 -0.5567  0.5985
 9037SOL     OW38569   1.230   3.729   5.297 -0.0052 -0.3010 -0.9471
 9037SOL    HW138570   1.190   3.670   5.362  2.1849 -0.5347  0.2007
 9037SOL    HW238571   1.292   3.765   5.361 -1.0957  0.2537 -0.2061
 9038SOL     OW38572   4.582   0.863   1.186 -0.3042  0.3649 -0.5772
 9038SOL    HW138573   4.631   0.806   1.127  2.4630  0.4708  1.6278
 9038SOL    HW238574   4.497   0.825   1.168 -0.4004  0.7787 -1.0065
 9039SOL     OW38575   4.718   2.764   7.094  0.0028 -0.1374  0.3000
 9039SOL    HW138576   4.694   2.677   7.062 -1.3344  0.7666 -1.1411
 9039SOL    HW238577   0.088   2.763   7.074 -0.2176  1.1598 -0.7951
 9040SOL     OW38578   1.972   0.563   2.283  0.6037 -0.6605  0.3656
 9040SOL    HW138579   1.907   0.629   2.260  0.8834 -0.7691 -0.7536
 9040SOL    HW238580   1.915   0.489   2.265 -0.7401  0.2772  0.7834
 9041SOL     OW38581   1.571   1.552  17.280  0.2286 -0.0502  0.7951
 9041SOL    HW138582   1.538   1.593  17.200  0.0467 -0.8000  0.4836
 9041SOL    HW238583   1.501   1.564  17.344  0.2612 -1.2016  1.0485
 9042SOL     OW38584   4.028   1.361  15.555  0.4524 -0.9106 -0.8743
 9042SOL    HW138585   3.936   1.388  15.560  0.5658 -0.1247 -2.8613
 9042SOL    HW238586   4.036   1.268  15.574 -1.6742 -0.7530  0.7508
 9043SOL     OW38587   1.154   3.501  16.638 -0.4817  0.1116  0.4428
 9043SOL    HW138588   1.151   3.557  16.716 -0.7350  1.3873 -0.4881
 9043SOL    HW238589   1.204   3.551  16.573  0.1560 -0.0889  0.7747
 9044SOL     OW38590   4.036   3.555   4.705  0.6415 -0.3354  0.1900
 9044SOL    HW138591   4.107   3.537   4.643  0.7614  0.8863 -0.0346
 9044SOL    HW238592   4.082   3.576   4.786  1.3269 -1.0178 -0.0129
 9045SOL     OW38593   3.808   3.471   2.239 -0.1354 -0.2150 -0.1235
 9045SOL    HW138594   3.870   3.502   2.305 -1.2583 -0.7553  1.1783
 9045SOL    HW238595   3.831   3.521   2.160 -0.0417  1.7001  1.1037
 9046SOL     OW38596   1.536   0.741   1.218 -0.0354 -0.0078 -0.1422
 9046SOL    HW138597   1.632   0.746   1.218 -0.0349  0.2357 -1.7608
 9046SOL    HW238598   1.512   0.746   1.310 -0.2745  2.3769 -0.3286
 9047SOL     OW38599   3.255   1.212  11.485 -0.1441 -0.3329  0.5808
 9047SOL    HW138600   3.303   1.281  11.438  0.2910 -1.8344 -1.1802
 9047SOL    HW238601   3.288   1.131  11.445  1.9774  2.3433 -3.1386
 9048SOL     OW38602   0.236   2.468   0.583 -0.7009 -0.5246 -0.4568
 9048SOL    HW138603   0.198   2.385   0.613  0.7134 -1.6510 -1.7618
 9048SOL    HW238604   0.272   2.458   0.494  0.9671  2.2934 -0.1003
 9049SOL     OW38605   1.288   3.626   8.136 -0.1357  0.3733 -0.3970
 9049SOL    HW138606   1.269   3.664   8.222 -1.2160 -1.5661  0.2219
 9049SOL    HW238607   1.332   3.700   8.096 -0.1764  1.4539  1.5663
 9050SOL     OW38608   4.338   2.853  14.282  0.4505  0.2920  0.7149
 9050SOL    HW138609   4.417   2.902  14.259  0.0536  0.8456  0.5383
 9050SOL    HW238610   4.375   2.765  14.290  0.4536  0.2431  0.1253
 9051SOL     OW38611   4.070   1.752   9.313 -0.3027 -0.0197  0.2637
 9051SOL    HW138612   4.094   1.714   9.397  0.7103 -1.1313 -0.5378
 9051SOL    HW238613   3.983   1.716   9.295 -0.3341  0.3943 -0.4648
 9052SOL     OW38614   2.515   0.151   0.726  0.0878 -0.2354  0.0011
 9052SOL    HW138615   2.453   0.212   0.686  0.3985  1.0956  1.5364
 9052SOL    HW238616   2.458   0.083   0.761 -1.0434  1.0511  0.6781
 9053SOL     OW38617   0.653   4.101   2.360  0.6753 -0.4890  0.0971
 9053SOL    HW138618   0.631   4.064   2.275  0.2916 -1.2979  0.5493
 9053SOL    HW238619   0.666   4.194   2.341  1.0965  0.0566  2.9455
 9054SOL     OW38620   2.367   1.785  10.603  0.5928 -0.1813 -0.4320
 9054SOL    HW138621   2.408   1.784  10.690  0.3484  0.2252 -0.3155
 9054SOL    HW238622   2.296   1.845  10.625  1.9569  0.7367  1.4621
 9055SOL     OW38623   2.857   0.818  17.543  0.4657 -0.2634  0.1015
 9055SOL    HW138624   2.817   0.774  17.468 -1.9953  2.6340 -0.3182
 9055SOL    HW238625   2.785   0.830  17.606 -0.1184 -3.1354 -0.0172
 9056SOL     OW38626   3.581   0.312   4.543 -0.4501 -0.0527  0.0804
 9056SOL    HW138627   3.536   0.393   4.566 -0.0006  0.0555  0.5620
 9056SOL    HW238628   3.585   0.315   4.447 -0.6755 -0.3110  0.0637
 9057SOL     OW38629   3.382   4.132   3.741  0.7032 -0.8788  0.2061
 9057SOL    HW138630   3.371   4.053   3.689  1.3594  0.8218 -2.5030
 9057SOL    HW238631   3.294   4.170   3.733  1.5440  0.9759 -0.1213
 9058SOL     OW38632   1.304   1.776   8.634  0.0236  0.1681  0.0645
 9058SOL    HW138633   1.360   1.799   8.560  1.5308 -2.7766  0.2735
 9058SOL    HW238634   1.351   1.706   8.681 -0.7107  0.1482  0.7660
 9059SOL     OW38635   2.738   4.317   9.900 -0.1403 -0.8109 -0.6555
 9059SOL    HW138636   2.765   4.359   9.981  0.7164  1.2583 -2.0197
 9059SOL    HW238637   2.682   4.384   9.860 -1.6237 -3.0453 -2.3275
 9060SOL     OW38638   0.284   2.365   7.467  0.7473 -0.1157 -0.6167
 9060SOL    HW138639   0.227   2.389   7.394 -1.2600  0.6952  1.1830
 9060SOL    HW238640   0.293   2.270   7.471 -2.5336 -0.3450  2.6341
 9061SOL     OW38641   2.010   3.880   8.526  0.0094  0.0927 -0.0823
 9061SOL    HW138642   1.997   3.793   8.565 -0.2508 -0.3178 -1.0892
 9061SOL    HW238643   2.016   3.937   8.603 -1.6265  0.8451 -0.4968
 9062SOL     OW38644   1.192   2.964   7.382  0.2855 -0.6939  0.2716
 9062SOL    HW138645   1.286   2.974   7.372  0.5387 -0.4002  3.0975
 9062SOL    HW238646   1.176   2.957   7.476  0.7616 -0.1874  0.3865
 9063SOL     OW38647   0.719   0.911   1.727  0.1097 -0.2548  0.0127
 9063SOL    HW138648   0.754   0.962   1.653 -0.5525  0.5807  0.2707
 9063SOL    HW238649   0.627   0.899   1.703  0.2693 -1.5400  0.0594
 9064SOL     OW38650   3.156   4.423   5.577  0.7706 -0.6489  0.0133
 9064SOL    HW138651   3.196   4.499   5.535 -0.3667  0.1470  0.3731
 9064SOL    HW238652   3.067   4.458   5.585  0.8216 -0.1811 -1.5254
 9065SOL     OW38653   1.899   0.208   5.554  0.1278 -0.8133  0.0782
 9065SOL    HW138654   1.880   0.145   5.624 -2.8078 -0.7829 -0.6707
 9065SOL    HW238655   1.820   0.203   5.501 -0.0333  0.9388  0.1527
 9066SOL     OW38656   2.207   1.698   7.590  0.1373  0.3285 -0.2910
 9066SOL    HW138657   2.153   1.619   7.586 -0.3624  0.6542  0.0360
 9066SOL    HW238658   2.186   1.750   7.512  1.6551  0.8364 -0.3611
 9067SOL     OW38659   2.194   1.546   4.663  0.3132  0.3943 -0.0079
 9067SOL    HW138660   2.104   1.577   4.671  0.1539 -0.1550  0.3121
 9067SOL    HW238661   2.188   1.461   4.707  1.7691  0.1313 -0.3165
 9068SOL     OW38662   3.116   2.582  12.378  0.7261  0.2914  0.3519
 9068SOL    HW138663   3.029   2.585  12.339  1.3418  3.4299 -0.7336
 9068SOL    HW238664   3.169   2.641  12.325 -0.7075  1.4139  0.1497
 9069SOL     OW38665   1.919   0.810   0.373  0.1098  0.5130  0.3027
 9069SOL    HW138666   1.876   0.895   0.377  2.1025  1.4666  1.0618
 9069SOL    HW238667   1.907   0.802   0.278 -0.1405  1.8011  0.2219
 9070SOL     OW38668   3.165   1.988  10.862  0.1792  0.5909 -0.0602
 9070SOL    HW138669   3.241   1.975  10.919 -1.1913 -0.1479  1.5913
 9070SOL    HW238670   3.176   1.920  10.796 -0.6119 -0.4554  0.8784
 9071SOL     OW38671   2.971   1.199  10.555  0.0284 -0.2244  0.0016
 9071SOL    HW138672   3.062   1.185  10.583 -1.0984 -1.2999  3.0364
 9071SOL    HW238673   2.977   1.224  10.463 -0.9402  2.2770  0.6206
 9072SOL     OW38674   1.752   4.483   6.820  0.0232 -0.5884 -0.0665
 9072SOL    HW138675   1.730   4.425   6.892  2.6616  0.0303  1.2451
 9072SOL    HW238676   1.833   4.444   6.786 -0.4112 -1.2565 -0.3284
 9073SOL     OW38677   1.718   0.633   4.417  0.1971  0.1775 -0.7518
 9073SOL    HW138678   1.735   0.727   4.423  0.3581  0.1087 -0.0784
 9073SOL    HW238679   1.807   0.601   4.432 -0.3803  0.5844  3.8155
 9074SOL     OW38680   0.676   4.299   7.608  0.7940 -0.4035  0.2057
 9074SOL    HW138681   0.597   4.297   7.555  1.3186 -0.2140 -0.5805
 9074SOL    HW238682   0.705   4.211   7.581  2.2605  0.4788 -1.1042
 9075SOL     OW38683   4.640   2.599   3.615 -0.0512  0.0445  0.1861
 9075SOL    HW138684   4.632   2.533   3.546  1.6361  3.1363 -2.9643
 9075SOL    HW238685   4.633   2.542   3.691 -4.1950 -2.1652 -1.8436
 9076SOL     OW38686   0.748   2.409   8.413 -0.3247 -0.2586 -0.6239
 9076SOL    HW138687   0.654   2.408   8.428 -0.2529  1.0455 -0.0507
 9076SOL    HW238688   0.749   2.397   8.318 -2.0315  4.2427 -1.2277
 9077SOL     OW38689   2.921   3.241  11.584 -0.3456  0.1364  0.4309
 9077SOL    HW138690   2.910   3.212  11.675 -1.8573  0.0428  0.2230
 9077SOL    HW238691   2.858   3.184  11.539 -1.6356  1.3648  0.6980
 9078SOL     OW38692   4.167   1.047  13.995 -0.0944  0.1759  0.1650
 9078SOL    HW138693   4.182   0.954  13.976  0.5071  0.5341 -1.1045
 9078SOL    HW238694   4.259   1.073  13.989  0.7488 -2.2506  2.1126
 9079SOL     OW38695   3.851   3.946   3.331  0.2639  0.3428  0.3304
 9079SOL    HW138696   3.857   3.904   3.416 -2.3503  0.4940  0.6085
 9079SOL    HW238697   3.939   3.929   3.299  0.3674 -0.0201  0.8195
 9080SOL     OW38698   2.513   1.395   7.102  0.0950 -0.0618  0.4373
 9080SOL    HW138699   2.573   1.376   7.174 -0.1212 -1.8762  0.1474
 9080SOL    HW238700   2.562   1.466   7.061 -1.3408 -0.0694 -1.3155
 9081SOL     OW38701   2.767   2.441   8.072  0.5485  0.2189 -0.0245
 9081SOL    HW138702   2.796   2.517   8.021  0.5951 -0.7686 -1.4754
 9081SOL    HW238703   2.740   2.477   8.156  0.3472 -0.7641  0.3335
 9082SOL     OW38704   4.351   2.372   6.022  0.7784 -0.5059 -0.3479
 9082SOL    HW138705   4.354   2.354   5.928 -1.1560  1.8153 -0.8550
 9082SOL    HW238706   4.444   2.391   6.036  0.7372 -0.8453  0.3769
 9083SOL     OW38707   3.465   3.667   1.270  0.1777 -0.1398  0.1735
 9083SOL    HW138708   3.389   3.698   1.220  0.6637 -1.7271 -1.5332
 9083SOL    HW238709   3.462   3.577   1.238  0.3962 -0.3241  0.6762
 9084SOL     OW38710   2.356   3.443   0.090 -0.1033  0.3193 -0.0676
 9084SOL    HW138711   2.319   3.373   0.036  3.0813  0.0326 -1.8850
 9084SOL    HW238712   2.290   3.511   0.083 -0.3143 -0.1177 -2.2910
 9085SOL     OW38713   2.806   3.935   4.015  0.1372  1.0579 -0.6080
 9085SOL    HW138714   2.777   4.003   3.954 -0.9761  0.0176 -1.2285
 9085SOL    HW238715   2.863   3.875   3.968 -1.5224  0.9065 -2.4579
 9086SOL     OW38716   0.810   3.594   4.556  0.6686  0.6094 -0.4465
 9086SOL    HW138717   0.815   3.659   4.627  0.3919  2.0865 -1.7706
 9086SOL    HW238718   0.753   3.637   4.493  0.8143  0.9751 -0.3308
 9087SOL     OW38719   2.515   1.665   0.553 -0.0271 -0.1111 -0.2957
 9087SOL    HW138720   2.438   1.624   0.594  1.8170 -1.7647  1.5306
 9087SOL    HW238721   2.493   1.648   0.462 -0.3318 -3.2415  0.3540
 9088SOL     OW38722   2.910   2.959   6.866 -0.1558  0.3358 -0.1379
 9088SOL    HW138723   2.995   3.002   6.861 -0.6759  1.4121  0.3263
 9088SOL    HW238724   2.893   2.954   6.960 -0.0229  1.0452 -0.0770
 9089SOL     OW38725   4.389   2.496   4.766  0.4592 -0.0960  0.2726
 9089SOL    HW138726   4.316   2.518   4.709  2.0155 -3.7145 -3.1720
 9089SOL    HW238727   4.433   2.576   4.797 -0.5936  0.7625 -0.4709
 9090SOL     OW38728   0.503   1.729  10.139  0.7290  0.3093  0.0245
 9090SOL    HW138729   0.527   1.818  10.114 -0.5706  0.0933 -2.0010
 9090SOL    HW238730   0.573   1.719  10.204 -1.5175 -2.0677  2.0870
 9091SOL     OW38731   1.718   0.823   7.771 -0.6564 -0.3929 -0.2238
 9091SOL    HW138732   1.628   0.791   7.781 -0.7896  0.3786  0.9237
 9091SOL    HW238733   1.771   0.767   7.828  0.4981  3.6363  2.6121
 9092SOL     OW38734   3.944   2.532   4.320 -0.1778 -0.8615 -0.1560
 9092SOL    HW138735   3.973   2.442   4.336  0.4975 -0.4873  0.7104
 9092SOL    HW238736   4.027   2.579   4.318 -0.7220  0.1693  1.3671
 9093SOL     OW38737   3.100   2.937   4.970 -0.2961 -0.1480  0.0331
 9093SOL    HW138738   3.145   2.900   4.894  0.0936  1.8361 -0.7239
 9093SOL    HW238739   3.138   3.025   4.968 -2.0938  0.6789  1.2872
 9094SOL     OW38740   3.986   2.659   1.484  0.0865  0.3843 -0.1959
 9094SOL    HW138741   3.906   2.710   1.468  0.1333  0.3706 -0.4740
 9094SOL    HW238742   3.969   2.630   1.574 -3.3550 -0.9347 -1.2472
 9095SOL     OW38743   3.368   1.958  11.016 -0.3485 -0.7495 -0.0422
 9095SOL    HW138744   3.411   1.879  11.049 -1.4658 -1.5614 -0.5504
 9095SOL    HW238745   3.355   2.007  11.097  0.2438  0.1699 -0.4928
 9096SOL     OW38746   0.305   4.067   9.071  0.5543  0.5232  0.2960
 9096SOL    HW138747   0.324   4.150   9.028  1.3965  1.3040  2.1603
 9096SOL    HW238748   0.286   4.098   9.160 -0.6356  1.1316 -0.1742
 9097SOL     OW38749   2.596   3.561  12.323  0.2801  0.3527 -0.6947
 9097SOL    HW138750   2.634   3.505  12.390  1.1427  1.0425 -0.6111
 9097SOL    HW238751   2.667   3.625  12.312 -0.5801  1.1370 -1.7145
 9098SOL     OW38752   0.119   3.160   8.880 -0.3894  0.2343  0.6268
 9098SOL    HW138753   0.159   3.135   8.964 -0.2134 -1.9093 -0.0908
 9098SOL    HW238754   0.075   3.240   8.909  0.3276  0.3834  1.3196
 9099SOL     OW38755   2.963   0.478   0.684  0.0997  0.2174 -0.2083
 9099SOL    HW138756   2.885   0.507   0.731  1.2449  1.5433  0.8862
 9099SOL    HW238757   3.023   0.475   0.759 -2.2108 -2.4443  1.5314
 9100SOL     OW38758   0.913   4.146   6.598  0.3634  0.3986 -0.3439
 9100SOL    HW138759   0.853   4.153   6.673  0.2729  1.0606 -0.4755
 9100SOL    HW238760   0.861   4.090   6.541 -1.0088  0.3945  0.8954
 9101SOL     OW38761   2.999   2.198  10.721  0.0646  0.0950  0.2226
 9101SOL    HW138762   3.065   2.141  10.760 -0.3305 -1.5699 -1.5403
 9101SOL    HW238763   2.956   2.136  10.662  1.1694 -0.4406 -0.0260
 9102SOL     OW38764   1.049   2.209   3.134 -0.0731 -0.1902  0.4616
 9102SOL    HW138765   0.962   2.246   3.146  0.5401  1.8266 -1.2607
 9102SOL    HW238766   1.028   2.119   3.158 -2.1100 -0.3541 -1.8608
 9103SOL     OW38767   2.963   4.199   5.327 -0.9621 -0.0745  0.1898
 9103SOL    HW138768   2.921   4.221   5.409 -1.6258  0.3079 -0.2535
 9103SOL    HW238769   2.933   4.260   5.259 -0.2744  0.9368  0.7906
 9104SOL     OW38770   3.117   0.198   5.136  0.6588  0.1948  0.3177
 9104SOL    HW138771   3.093   0.124   5.192 -1.9296 -0.2624 -1.3662
 9104SOL    HW238772   3.212   0.202   5.138  0.5981  0.7295  1.8091
 9105SOL     OW38773   2.089   1.214  11.024  0.0096 -0.0143 -0.2491
 9105SOL    HW138774   2.177   1.187  10.998  0.5551 -1.4064  3.0161
 9105SOL    HW238775   2.096   1.305  11.054 -0.0197  0.0823 -0.5375
 9106SOL     OW38776   1.166   2.768   3.879 -0.1778 -0.4739 -0.4142
 9106SOL    HW138777   1.091   2.791   3.933 -1.1395 -1.7399 -1.1969
 9106SOL    HW238778   1.133   2.808   3.798 -2.6457 -1.1869  0.2400
 9107SOL     OW38779   0.945   3.794   5.995  0.4975  0.3177 -0.2869
 9107SOL    HW138780   0.924   3.871   6.048 -3.5156 -1.0418  0.0402
 9107SOL    HW238781   0.920   3.729   6.060 -3.8120  2.6920  0.4078
 9108SOL     OW38782   4.303   3.992  11.342  0.1754  0.1684  0.2535
 9108SOL    HW138783   4.282   3.941  11.264  2.2498  0.9309 -0.8001
 9108SOL    HW238784   4.223   4.042  11.359 -1.5334 -2.3670 -0.2976
 9109SOL     OW38785   3.179   1.682   6.156  0.1493 -0.0055  0.3811
 9109SOL    HW138786   3.210   1.625   6.086 -1.5060 -1.7383  1.0140
 9109SOL    HW238787   3.228   1.761   6.137 -1.2728  0.7901  0.0357
 9110SOL     OW38788   3.187   4.525  12.021  0.0508  0.4741 -0.5307
 9110SOL    HW138789   3.148   4.612  12.029 -0.4940  0.0161  1.8601
 9110SOL    HW238790   3.281   4.542  12.021  0.3793 -1.2739  1.0777
 9111SOL     OW38791   3.905   3.133   4.637  0.3544  0.4737  0.4032
 9111SOL    HW138792   3.946   3.159   4.719  1.3107 -0.0172  0.0743
 9111SOL    HW238793   3.817   3.171   4.632 -1.2852 -3.3308  0.0808
 9112SOL     OW38794   1.850   0.201   1.516  0.0186 -0.1800  0.2949
 9112SOL    HW138795   1.869   0.110   1.536  0.5314 -0.3257 -0.8674
 9112SOL    HW238796   1.755   0.205   1.500  0.0714 -3.2714 -0.7526
 9113SOL     OW38797   1.403   2.597   2.452 -0.1694 -0.5377 -0.3523
 9113SOL    HW138798   1.434   2.632   2.536  0.7922 -1.1786 -0.4352
 9113SOL    HW238799   1.355   2.669   2.412  0.9500  0.8521  0.7590
 9114SOL     OW38800   2.577   0.098  14.361 -0.0641  0.1062  0.7332
 9114SOL    HW138801   2.510   0.108  14.293  0.7537  0.6812  0.0086
 9114SOL    HW238802   2.630   0.172  14.330 -0.6661  0.2420  0.0185
 9115SOL     OW38803   0.860   2.952  16.592  0.3833  0.2320 -0.2447
 9115SOL    HW138804   0.848   2.857  16.599 -1.8234  0.3938 -1.8651
 9115SOL    HW238805   0.769   2.980  16.577 -0.2105 -1.9465 -0.7465
 9116SOL     OW38806   4.181   0.959   5.391  0.9479 -0.2176  0.2059
 9116SOL    HW138807   4.117   0.890   5.408  0.6724  0.3361  1.3975
 9116SOL    HW238808   4.170   0.965   5.296  1.0928 -0.9750  0.1426
 9117SOL     OW38809   3.296   3.997   7.880 -0.5060  0.3706  0.0785
 9117SOL    HW138810   3.328   4.061   7.816 -1.1247 -0.3130 -0.9093
 9117SOL    HW238811   3.368   3.945   7.915 -0.1477  2.6270  2.6852
 9118SOL     OW38812   3.661   4.465   8.853  0.1624  0.8108 -0.2849
 9118SOL    HW138813   3.687   4.550   8.890 -1.6976  0.5387  1.5979
 9118SOL    HW238814   3.567   4.466   8.869 -0.1650 -0.7239 -2.1797
 9119SOL     OW38815   3.147   1.050   4.915 -0.0731 -0.5635 -0.2032
 9119SOL    HW138816   3.081   1.004   4.967  1.3463 -1.9460  0.3741
 9119SOL    HW238817   3.107   1.086   4.835  2.6072 -0.1584 -1.3557
 9120SOL     OW38818   4.293   4.602   2.679 -0.1765  0.2285  0.2488
 9120SOL    HW138819   4.314   4.677   2.735 -1.2554  2.8420 -2.8532
 9120SOL    HW238820   4.278   4.540   2.750 -0.7331 -1.1788 -1.0885
 9121SOL     OW38821   2.729   4.154   7.448  0.4486 -0.2381  0.1876
 9121SOL    HW138822   2.806   4.130   7.397  0.3286 -2.2286  0.8994
 9121SOL    HW238823   2.689   4.070   7.475 -0.1702  0.1284  0.4143
 9122SOL     OW38824   4.144   1.466   5.443  0.4538  0.2763  0.2303
 9122SOL    HW138825   4.145   1.379   5.484 -1.7230 -0.2059 -0.7575
 9122SOL    HW238826   4.214   1.508   5.492 -0.6228  1.5596  0.6514
 9123SOL     OW38827   2.694   2.453  13.748  0.6069  0.5592 -0.0405
 9123SOL    HW138828   2.620   2.407  13.707  0.9957 -2.7300  2.9499
 9123SOL    HW238829   2.675   2.440  13.841  2.1683 -0.9632  0.0674
 9124SOL     OW38830   3.556   0.405   3.714 -0.5372 -0.4684 -0.0085
 9124SOL    HW138831   3.647   0.430   3.705 -0.7434 -0.2345 -1.4536
 9124SOL    HW238832   3.555   0.311   3.732  1.4928 -0.2375  1.2008
 9125SOL     OW38833   3.909   2.518   5.894  0.1177  0.0401 -0.0332
 9125SOL    HW138834   3.977   2.566   5.942  0.6490  0.0146 -0.7458
 9125SOL    HW238835   3.843   2.489   5.957  1.7502  0.8328  2.0410
 9126SOL     OW38836   0.405   2.933   6.713 -0.1203 -0.2164 -0.3451
 9126SOL    HW138837   0.426   2.991   6.640 -1.8689 -1.4011 -1.7922
 9126SOL    HW238838   0.365   2.863   6.662  2.3275 -1.0291 -1.0939
 9127SOL     OW38839   2.969   1.879   7.760  0.2459 -0.4950  0.2532
 9127SOL    HW138840   3.036   1.898   7.693  1.2437 -0.7495  1.1790
 9127SOL    HW238841   2.946   1.786   7.751  1.6988 -0.6162 -2.3225
 9128SOL     OW38842   2.850   3.060  12.130 -0.1496 -0.1229 -0.4204
 9128SOL    HW138843   2.806   3.124  12.186  1.1172 -1.2522  1.9074
 9128SOL    HW238844   2.868   2.988  12.191 -0.9148  0.0952  0.0720
 9129SOL     OW38845   1.685   1.365  15.511 -0.5005 -0.0792  0.1039
 9129SOL    HW138846   1.661   1.411  15.431  4.0852  2.0052 -0.0706
 9129SOL    HW238847   1.665   1.439  15.568 -0.4269  1.0137 -1.3040
 9130SOL     OW38848   0.724   0.380   5.016  0.1883 -0.0414  0.4880
 9130SOL    HW138849   0.790   0.348   4.955  0.1724  1.7674 -0.4915
 9130SOL    HW238850   0.702   0.466   4.978  0.1637  0.3309  1.3361
 9131SOL     OW38851   2.459   2.809   9.644 -0.0448  0.7700  0.3339
 9131SOL    HW138852   2.436   2.870   9.574 -2.0571 -0.6908 -0.2837
 9131SOL    HW238853   2.431   2.860   9.720 -1.5285 -0.2933  0.5185
 9132SOL     OW38854   3.527   3.838   9.111 -0.4745 -0.1536 -0.4023
 9132SOL    HW138855   3.538   3.857   9.018  4.0839 -0.8952  0.0202
 9132SOL    HW238856   3.536   3.923   9.154  1.7256  0.1491 -1.4605
 9133SOL     OW38857   3.713   1.965   6.101  0.4633 -0.3684  0.3800
 9133SOL    HW138858   3.729   2.043   6.048 -0.1823  0.1492  0.9509
 9133SOL    HW238859   3.785   1.909   6.071  0.7126 -0.2679  0.8085
 9134SOL     OW38860   2.673   2.078   9.434  0.4665  0.1691  0.2653
 9134SOL    HW138861   2.619   2.102   9.510 -1.0306 -0.3068 -0.6615
 9134SOL    HW238862   2.645   1.987   9.437  2.2111 -0.3761 -0.4261
 9135SOL     OW38863   0.198   1.064   6.678  0.0440  0.5808 -0.1089
 9135SOL    HW138864   0.276   1.119   6.673 -0.1562  0.6836 -2.1958
 9135SOL    HW238865   0.128   1.119   6.712 -0.9773 -0.2054 -0.9489
 9136SOL     OW38866   4.384   4.047  13.461  0.3611 -0.0509 -0.2460
 9136SOL    HW138867   4.379   4.131  13.508 -2.1930 -0.2669 -0.1096
 9136SOL    HW238868   4.302   4.039  13.413  0.1452  1.6452 -0.1419
 9137SOL     OW38869   3.512   4.136  15.685  0.3511 -0.6707 -0.0182
 9137SOL    HW138870   3.533   4.077  15.758  1.5022  0.0428  0.2246
 9137SOL    HW238871   3.587   4.123  15.627  0.5481  0.1918  0.0431
 9138SOL     OW38872   2.673   1.091   1.548  0.5459  0.4360  0.4062
 9138SOL    HW138873   2.636   1.169   1.507 -0.5052 -0.8655 -1.1300
 9138SOL    HW238874   2.752   1.128   1.587  0.0431  0.3656  1.4931
 9139SOL     OW38875   2.594   3.263   8.627 -0.4118 -0.1759 -0.5054
 9139SOL    HW138876   2.527   3.199   8.650 -0.8217 -0.2580 -1.9274
 9139SOL    HW238877   2.544   3.343   8.642 -1.1375 -0.5941 -0.6997
 9140SOL     OW38878   4.355   1.074   7.170  0.2354 -0.0766 -0.1602
 9140SOL    HW138879   4.331   1.137   7.102 -0.7187 -0.6326 -0.3452
 9140SOL    HW238880   4.286   1.095   7.234 -1.1610  0.0209 -1.6901
 9141SOL     OW38881   0.515   1.213  11.521 -0.2868  0.4831  0.0213
 9141SOL    HW138882   0.512   1.118  11.531 -1.6415  0.6891  1.6011
 9141SOL    HW238883   0.599   1.217  11.475  0.2245  0.4395  0.9555
 9142SOL     OW38884   2.973   0.387   0.036  0.0814  0.0644  0.4664
 9142SOL    HW138885   3.052   0.356   0.080 -1.2239  0.5902  3.1385
 9142SOL    HW238886   2.999   0.479   0.024  1.5298 -0.4684 -0.5884
 9143SOL     OW38887   0.969   3.301   7.830 -0.4693  0.4378 -0.0863
 9143SOL    HW138888   1.014   3.348   7.901 -0.1689 -1.7835  1.1951
 9143SOL    HW238889   1.032   3.314   7.760  2.5720  1.6214  2.8950
 9144SOL     OW38890   2.484   1.100   4.465  0.0764  0.0005  0.2056
 9144SOL    HW138891   2.484   1.157   4.542  0.2050 -0.4820  0.5665
 9144SOL    HW238892   2.419   1.038   4.497  1.6667 -0.0710  3.2978
 9145SOL     OW38893   1.510   1.420   7.539  0.6159 -0.2464 -0.1161
 9145SOL    HW138894   1.527   1.354   7.471  2.6834 -1.4479  1.5528
 9145SOL    HW238895   1.498   1.501   7.489  1.6273 -0.9449 -1.5303
 9146SOL     OW38896   4.622   1.222   1.897  0.1451 -0.3216  0.3654
 9146SOL    HW138897   4.571   1.295   1.862 -1.1963 -1.4389 -0.0186
 9146SOL    HW238898   4.608   1.161   1.824 -1.5041  0.1991  0.2541
 9147SOL     OW38899   0.532   3.051   6.945  0.0696  0.0706 -0.0200
 9147SOL    HW138900   0.590   2.988   6.986 -0.6176 -0.3423  0.3191
 9147SOL    HW238901   0.495   3.003   6.871  0.3025  0.3163 -0.2919
 9148SOL     OW38902   3.452   3.322  15.147 -0.1859  0.2421  0.2605
 9148SOL    HW138903   3.511   3.272  15.203 -1.2849 -2.4194 -0.9265
 9148SOL    HW238904   3.511   3.317  15.071 -1.4721  0.0018 -0.7259
 9149SOL     OW38905   3.821   1.019   1.630  0.4207 -0.0526 -0.3373
 9149SOL    HW138906   3.727   1.006   1.617  0.3544  0.0628  0.0322
 9149SOL    HW238907   3.824   1.113   1.611 -0.7545  0.8896  4.1936
 9150SOL     OW38908   3.197   0.609  15.289 -0.6118  0.7117  0.0476
 9150SOL    HW138909   3.233   0.645  15.370 -2.7259  0.2362  1.2111
 9150SOL    HW238910   3.183   0.686  15.234  0.0366 -0.2526 -1.4823
 9151SOL     OW38911   1.499   0.734   5.538  0.1050 -0.2168 -0.1541
 9151SOL    HW138912   1.548   0.759   5.616  0.9375  0.6521 -0.9582
 9151SOL    HW238913   1.414   0.777   5.553  0.6729  1.0770 -0.6985
 9152SOL     OW38914   2.922   2.774   5.132 -0.7494  0.1620 -0.0394
 9152SOL    HW138915   2.845   2.801   5.081 -0.6901 -0.7080 -0.5939
 9152SOL    HW238916   2.997   2.815   5.089 -1.3009  0.5397 -0.6319
 9153SOL     OW38917   0.860   1.981   2.154 -0.4087  0.5340 -0.0217
 9153SOL    HW138918   0.885   1.993   2.062  0.5883  0.3091  0.2258
 9153SOL    HW238919   0.832   2.070   2.178  0.5516  0.9059 -0.3007
 9154SOL     OW38920   2.186   4.559  11.025 -0.4399  0.5968 -0.3431
 9154SOL    HW138921   2.118   4.493  11.012  0.1581 -0.1210  0.1550
 9154SOL    HW238922   2.141   4.642  11.014 -0.5123  0.6087  0.0349
 9155SOL     OW38923   4.483   1.309  16.044  0.8145  0.2282 -0.1493
 9155SOL    HW138924   4.436   1.387  16.075 -1.7862 -1.6918  0.7323
 9155SOL    HW238925   4.478   1.322  15.950  0.4336  2.6685  0.2031
 9156SOL     OW38926   4.167   2.788   2.554 -1.3183  0.5123  0.3866
 9156SOL    HW138927   4.171   2.695   2.530  0.2439  0.5706  0.4163
 9156SOL    HW238928   4.257   2.816   2.535 -1.0022 -1.4222 -1.0559
 9157SOL     OW38929   2.201   4.053  12.955  0.2590 -0.0815  0.2112
 9157SOL    HW138930   2.276   4.031  12.898  0.3451 -1.4765  0.8551
 9157SOL    HW238931   2.236   4.103  13.028  1.3509  0.1830 -0.4947
 9158SOL     OW38932   3.420   3.722  13.241 -0.7750 -0.4976 -0.3770
 9158SOL    HW138933   3.453   3.671  13.315  2.3640 -1.0632 -2.1598
 9158SOL    HW238934   3.350   3.775  13.279 -0.3251 -0.4002  0.3190
 9159SOL     OW38935   1.470   3.153  14.796  0.4501 -0.0827 -0.1338
 9159SOL    HW138936   1.414   3.230  14.786 -0.7326 -1.0212 -0.7783
 9159SOL    HW238937   1.406   3.090  14.760  1.1475  0.2473 -1.9278
 9160SOL     OW38938   4.284   2.834   5.880  0.1520 -0.1906 -0.4029
 9160SOL    HW138939   4.238   2.838   5.796  0.4153  1.3322 -0.4732
 9160SOL    HW238940   4.308   2.926   5.895 -1.2392  0.3673 -1.5586
 9161SOL     OW38941   1.927   0.683   3.924 -0.0637 -0.5390  0.7461
 9161SOL    HW138942   1.903   0.593   3.947 -0.0873 -1.2803 -2.1266
 9161SOL    HW238943   2.020   0.687   3.947  0.0858  1.6295 -0.2839
 9162SOL     OW38944   1.376   0.884  14.076 -0.3496  0.4769 -0.0935
 9162SOL    HW138945   1.322   0.896  13.997  1.3132 -0.3647 -1.3519
 9162SOL    HW238946   1.345   0.945  14.143  0.5735  0.1794  0.6023
 9163SOL     OW38947   3.144   3.603  14.923  0.0859 -0.7997 -0.1267
 9163SOL    HW138948   3.063   3.553  14.934  0.2610 -1.7247 -2.9278
 9163SOL    HW238949   3.182   3.577  15.007  1.0043  0.8713 -0.0393
 9164SOL     OW38950   2.330   4.686   1.304 -0.2811 -0.9239  0.4233
 9164SOL    HW138951   2.352   4.703   1.396  2.8417  1.3030 -0.7439
 9164SOL    HW238952   2.410   4.652   1.264  0.7929  0.2925  1.5183
 9165SOL     OW38953   2.742   4.197   7.114  0.5887  0.4389  0.5711
 9165SOL    HW138954   2.824   4.196   7.065 -0.9766 -2.6703 -1.9301
 9165SOL    HW238955   2.756   4.133   7.184 -0.5685  0.4113  0.7816
 9166SOL     OW38956   3.332   1.547   4.056 -0.0808  0.0528  0.4004
 9166SOL    HW138957   3.364   1.637   4.055  0.4901 -0.1622 -1.0221
 9166SOL    HW238958   3.239   1.546   4.031  0.9850  1.9757 -3.6131
 9167SOL     OW38959   1.449   3.756  16.408 -0.1101  0.1313  0.1929
 9167SOL    HW138960   1.467   3.678  16.356 -1.4431 -0.4184  0.5583
 9167SOL    HW238961   1.512   3.744  16.480  0.6192 -1.5056 -0.7126
 9168SOL     OW38962   3.847   0.836   7.315  0.0052 -0.4042 -0.1693
 9168SOL    HW138963   3.800   0.828   7.397 -1.0320  0.3793 -0.6880
 9168SOL    HW238964   3.935   0.855   7.348  0.5568 -1.8935 -0.7694
 9169SOL     OW38965   1.402   3.595   4.381  0.4819  0.3344  0.3796
 9169SOL    HW138966   1.487   3.637   4.373  0.4728  0.3267  0.2492
 9169SOL    HW238967   1.361   3.649   4.449  1.9834  0.6359  1.0274
 9170SOL     OW38968   0.384   3.267   1.500 -0.1438  0.4924  0.4916
 9170SOL    HW138969   0.420   3.355   1.501  1.4054 -0.1396 -1.1432
 9170SOL    HW238970   0.417   3.239   1.586 -0.3019  0.2986  0.4906
 9171SOL     OW38971   0.654   4.183   3.367  0.1171 -0.1995  0.4183
 9171SOL    HW138972   0.615   4.229   3.441 -0.1480  0.0103  0.1529
 9171SOL    HW238973   0.636   4.249   3.299  0.6569 -0.1801  0.2954
 9172SOL     OW38974   1.326   0.085   1.854  0.1001 -0.0479 -0.3513
 9172SOL    HW138975   1.303   0.141   1.927  0.6405 -1.3827  0.8459
 9172SOL    HW238976   1.408   0.128   1.831 -0.2441  0.8145  0.0656
 9173SOL     OW38977   2.620   1.886   8.534  0.1338  0.0136  0.2160
 9173SOL    HW138978   2.680   1.904   8.607  1.1272  1.0318 -0.8609
 9173SOL    HW238979   2.675   1.909   8.459 -3.0332  0.3622 -1.9805
 9174SOL     OW38980   4.211   0.498  14.002 -0.3333  0.0608  0.3336
 9174SOL    HW138981   4.116   0.495  14.012 -0.5040  2.0122 -0.6205
 9174SOL    HW238982   4.236   0.472  14.091 -0.8625  0.1113  0.4980
 9175SOL     OW38983   0.631   1.899  13.011 -0.3858  0.6712  0.5627
 9175SOL    HW138984   0.629   1.980  13.062  2.0664  0.4761  0.9586
 9175SOL    HW238985   0.540   1.892  12.982  0.2287  0.2010 -1.2631
 9176SOL     OW38986   0.809   1.646   7.082  0.3022 -0.1486 -0.4865
 9176SOL    HW138987   0.883   1.609   7.130  1.0685  1.6172 -0.3227
 9176SOL    HW238988   0.771   1.707   7.146 -1.3703 -0.7032 -0.9442
 9177SOL     OW38989   2.976   0.105   2.049  0.0400 -0.1256  0.0495
 9177SOL    HW138990   3.015   0.103   2.136 -0.4806 -0.5027  0.2722
 9177SOL    HW238991   3.043   0.048   2.009 -0.9819 -0.8282 -0.6484
 9178SOL     OW38992   4.527   3.910   9.189 -0.5395  0.2280 -0.0373
 9178SOL    HW138993   4.520   3.815   9.198 -2.4981  0.5113  1.5832
 9178SOL    HW238994   4.441   3.942   9.217 -0.1585 -1.1887  2.7081
 9179SOL     OW38995   1.067   3.683   2.830  0.3059  0.2092 -0.1092
 9179SOL    HW138996   1.045   3.760   2.778  0.2411 -0.1504 -0.6084
 9179SOL    HW238997   1.155   3.712   2.854  0.6065 -1.2970  0.6508
 9180SOL     OW38998   3.452   1.852   5.938  0.6239 -0.0802 -0.0149
 9180SOL    HW138999   3.449   1.762   5.972  0.9000 -0.5703 -1.2555
 9180SOL    HW239000   3.532   1.883   5.979  0.9388  1.6207 -1.8902
 9181SOL     OW39001   2.353   1.157   0.901 -0.3017 -0.0291 -0.5709
 9181SOL    HW139002   2.341   1.252   0.894 -0.6184  0.0119  0.5894
 9181SOL    HW239003   2.305   1.132   0.822 -3.7703 -0.4571  1.7108
 9182SOL     OW39004   2.058   2.689   2.205  0.7004 -0.6889  0.1123
 9182SOL    HW139005   2.000   2.623   2.242  1.1476 -0.4403  1.2373
 9182SOL    HW239006   2.054   2.669   2.111  2.7887  0.2898 -0.1899
 9183SOL     OW39007   2.673   0.932   9.087  0.1252  0.4242 -0.5339
 9183SOL    HW139008   2.720   1.011   9.112 -2.2058  1.4256  0.6678
 9183SOL    HW239009   2.703   0.876   9.159 -0.2528  1.3692  0.3624
 9184SOL     OW39010   3.078   2.062   0.109  0.2148 -1.2609 -0.2211
 9184SOL    HW139011   3.171   2.083   0.123  0.3313 -2.7183  1.0963
 9184SOL    HW239012   3.029   2.099   0.183 -0.6342 -3.5915  0.3744
 9185SOL     OW39013   1.548   0.563   2.381 -0.0547  0.1080 -0.6095
 9185SOL    HW139014   1.543   0.530   2.471 -0.2963 -0.6659 -0.9013
 9185SOL    HW239015   1.614   0.506   2.341  0.0483 -1.1625  1.3129
 9186SOL     OW39016   0.105   2.487   3.967 -0.4790 -0.2901  0.8133
 9186SOL    HW139017   0.112   2.394   3.988 -4.0387 -0.6444  0.4010
 9186SOL    HW239018   0.124   2.482   3.873 -0.6964 -0.0465  0.7566
 9187SOL     OW39019   0.011   0.875   3.196 -0.1331  0.9546 -0.5807
 9187SOL    HW139020   4.673   0.900   3.266 -0.3980  0.5301 -0.6612
 9187SOL    HW239021   4.680   0.812   3.150  0.4440 -0.8386  1.1873
 9188SOL     OW39022   2.100   2.072   1.899 -0.8090 -0.2336  0.0462
 9188SOL    HW139023   2.087   1.999   1.838  0.0055 -1.0843  0.8888
 9188SOL    HW239024   2.024   2.070   1.957 -1.9198  0.8376 -1.3640
 9189SOL     OW39025   4.425   4.522   7.836  0.1717 -0.3981  0.1291
 9189SOL    HW139026   4.392   4.561   7.755  1.4319 -1.9765 -1.1620
 9189SOL    HW239027   4.442   4.431   7.811  2.2939  0.0764 -0.1098
 9190SOL     OW39028   0.108   1.186   3.205  0.2423  0.8528  0.1259
 9190SOL    HW139029   0.028   1.202   3.155  0.2682 -1.2000 -0.6167
 9190SOL    HW239030   0.135   1.094   3.193 -0.1807  0.9278 -1.3599
 9191SOL     OW39031   0.035   0.526  12.171 -0.3943 -0.4165  0.0981
 9191SOL    HW139032   0.015   0.597  12.232 -1.1097 -0.9109  0.4416
 9191SOL    HW239033   0.050   0.451  12.228  2.3700 -0.7738 -1.1053
 9192SOL     OW39034   0.464   1.920  15.490 -0.7176  0.0739  0.3737
 9192SOL    HW139035   0.411   1.841  15.501 -1.4203  0.4478 -0.2636
 9192SOL    HW239036   0.549   1.898  15.527  0.1609 -2.3714 -3.1123
 9193SOL     OW39037   4.201   3.642   5.230 -0.6334 -0.8326 -0.2056
 9193SOL    HW139038   4.166   3.588   5.302  0.3675 -3.4779 -1.6996
 9193SOL    HW239039   4.283   3.672   5.269 -1.9462  0.6967  1.4240
 9194SOL     OW39040   1.914   4.618   3.579 -0.4292  0.6190  0.5077
 9194SOL    HW139041   2.002   4.641   3.549 -0.2605  0.6616  1.0365
 9194SOL    HW239042   1.880   4.707   3.576 -0.9579  0.4056  0.2652
 9195SOL     OW39043   4.422   2.125   6.156  0.7558  0.2246  0.2690
 9195SOL    HW139044   4.428   2.130   6.061 -0.9285 -2.4157  0.0341
 9195SOL    HW239045   4.439   2.217   6.179  0.7117  0.7827 -1.9156
 9196SOL     OW39046   1.724   1.381   3.915  0.1634  1.0152  0.1385
 9196SOL    HW139047   1.726   1.330   3.835 -1.5620  2.0555 -0.5708
 9196SOL    HW239048   1.726   1.469   3.878 -2.2201  0.5335 -1.1278
 9197SOL     OW39049   0.903   3.596   6.196 -0.3979  0.0433  0.0946
 9197SOL    HW139050   0.904   3.502   6.215 -3.4809  0.0390  0.3381
 9197SOL    HW239051   0.825   3.626   6.244 -0.4755 -1.2707  0.7758
 9198SOL     OW39052   2.385   1.341   2.695 -0.0548  0.2319  0.1163
 9198SOL    HW139053   2.303   1.296   2.679 -0.2269  0.5806  0.0131
 9198SOL    HW239054   2.363   1.433   2.708 -0.2619  0.1563  0.3076
 9199SOL     OW39055   0.717   3.158  17.453 -0.1868 -0.3447 -0.0097
 9199SOL    HW139056   0.737   3.242  17.410 -2.0066  0.4537  0.7226
 9199SOL    HW239057   0.626   3.142  17.429 -1.0515  1.1954  2.2193
 9200SOL     OW39058   1.829   3.348   9.960 -0.5853  0.2448 -0.1203
 9200SOL    HW139059   1.823   3.302  10.043 -3.1267 -1.3350 -1.1812
 9200SOL    HW239060   1.917   3.324   9.931 -1.4449 -2.0409 -0.8284
 9201SOL     OW39061   3.370   0.660  14.776 -0.1446  0.1393 -0.1758
 9201SOL    HW139062   3.399   0.597  14.842 -0.8909  0.0861  0.0984
 9201SOL    HW239063   3.296   0.697  14.823  0.5727  0.6950  0.5193
 9202SOL     OW39064   0.606   2.658  12.916 -0.2966 -0.0154 -0.0607
 9202SOL    HW139065   0.519   2.696  12.904 -0.6653 -1.8961 -3.5597
 9202SOL    HW239066   0.648   2.700  12.841  0.1922 -1.4554 -0.5824
 9203SOL     OW39067   4.630   0.249   8.364  0.5723 -0.5394 -0.3074
 9203SOL    HW139068   4.616   0.200   8.283 -2.2932  1.8948 -1.2639
 9203SOL    HW239069   4.653   0.176   8.421  1.4460  0.3641  0.5092
 9204SOL     OW39070   1.449   2.696  13.808 -0.3381 -0.3445 -0.1107
 9204SOL    HW139071   1.434   2.624  13.747  0.8486 -2.2588  1.8666
 9204SOL    HW239072   1.362   2.717  13.843  0.0628  0.1710  0.5652
 9205SOL     OW39073   4.021   2.146  16.164  0.7524 -0.4826 -0.5738
 9205SOL    HW139074   4.033   2.140  16.069  0.8331 -0.0829 -0.5892
 9205SOL    HW239075   3.987   2.235  16.170  0.0067 -0.8542  0.6201
 9206SOL     OW39076   1.806   0.458   6.153  0.0621 -0.3164  0.0244
 9206SOL    HW139077   1.783   0.441   6.244 -0.2296  4.1001  0.7944
 9206SOL    HW239078   1.868   0.531   6.153 -2.5255  1.8923  0.8239
 9207SOL     OW39079   0.475   3.249   4.507 -0.2893  0.2553 -0.0413
 9207SOL    HW139080   0.418   3.311   4.461  0.6903  0.5358 -0.8723
 9207SOL    HW239081   0.435   3.164   4.490 -4.2152  1.7975  1.2641
 9208SOL     OW39082   0.606   4.362  15.610  0.1271  0.1355 -0.2858
 9208SOL    HW139083   0.595   4.346  15.704 -0.9257 -1.5784 -0.6991
 9208SOL    HW239084   0.612   4.457  15.600  0.9679  0.1336  0.1715
 9209SOL     OW39085   3.237   2.357   1.272  0.6112  0.3607  0.4677
 9209SOL    HW139086   3.191   2.384   1.192  2.5645  0.9490 -0.4546
 9209SOL    HW239087   3.325   2.364   1.237  0.0086  1.2613 -0.8684
 9210SOL     OW39088   1.296   1.336   7.224 -0.8070 -0.7220  0.6987
 9210SOL    HW139089   1.382   1.322   7.184 -0.9732 -1.3524  0.5622
 9210SOL    HW239090   1.262   1.391   7.153 -0.9739 -2.4558 -0.5732
 9211SOL     OW39091   2.593   2.070  17.324 -0.0964  0.3026 -0.1817
 9211SOL    HW139092   2.610   2.087  17.231 -0.6324 -0.8348 -0.4931
 9211SOL    HW239093   2.611   2.159  17.354 -0.5727  0.5185 -0.5253
 9212SOL     OW39094   3.189   1.015   4.149  0.0080 -0.6613 -0.0520
 9212SOL    HW139095   3.122   1.040   4.212  0.8218  0.2986  0.4222
 9212SOL    HW239096   3.264   1.062   4.184 -0.0402 -1.6799  1.4474
 9213SOL     OW39097   4.060   4.636   7.511 -0.2267  0.3554  0.4560
 9213SOL    HW139098   4.004   4.694   7.562 -0.5223  0.0165  0.5203
 9213SOL    HW239099   4.007   4.561   7.482  3.1090 -1.5135 -0.8245
 9214SOL     OW39100   1.275   1.322   3.485  0.1699  0.2289  0.4821
 9214SOL    HW139101   1.335   1.279   3.422 -1.7327 -0.4639 -0.8583
 9214SOL    HW239102   1.325   1.384   3.538 -1.3168  0.3547  1.7240
 9215SOL     OW39103   1.698   4.277   2.806 -0.2949  0.2946 -0.7493
 9215SOL    HW139104   1.722   4.186   2.790  0.0089 -0.0329  1.5606
 9215SOL    HW239105   1.697   4.310   2.715  0.9447  1.3308 -0.4058
 9216SOL     OW39106   1.991   2.827   1.953 -0.1454  0.2288  0.2105
 9216SOL    HW139107   2.020   2.917   1.968  3.2606 -0.9064  0.4509
 9216SOL    HW239108   1.901   2.825   1.988  0.2456 -0.8844  1.1459
 9217SOL     OW39109   0.828   0.952   4.026  0.1412 -0.2995 -0.1769
 9217SOL    HW139110   0.853   0.883   3.965  0.1346 -0.8388  0.4372
 9217SOL    HW239111   0.778   1.014   3.973  0.8549  1.7863  1.5559
 9218SOL     OW39112   3.526   1.568   6.010  0.1400 -0.1401  0.4507
 9218SOL    HW139113   3.439   1.565   5.971  0.5888 -0.6514 -0.4961
 9218SOL    HW239114   3.509   1.522   6.093  0.7441  0.1081  0.7183
 9219SOL     OW39115   3.802   0.238   5.402  0.3115  0.5474 -0.0416
 9219SOL    HW139116   3.861   0.310   5.426 -1.5928  2.5457 -1.2855
 9219SOL    HW239117   3.792   0.271   5.312  0.4957  1.1665  0.1603
 9220SOL     OW39118   1.037   3.920   7.903 -0.2508 -0.3120  0.0334
 9220SOL    HW139119   1.032   3.859   7.978 -1.9136  0.1252  0.2928
 9220SOL    HW239120   1.019   3.863   7.828  1.6396  0.9188 -1.3457
 9221SOL     OW39121   2.683   2.534  17.477  0.3800 -0.5014 -0.3206
 9221SOL    HW139122   2.638   2.508  17.557  0.6773  1.1347  0.3741
 9221SOL    HW239123   2.657   2.626  17.473  0.5521 -0.4066  0.6822
 9222SOL     OW39124   1.266   3.661   4.622 -0.1996  0.2904  0.2695
 9222SOL    HW139125   1.205   3.594   4.592 -0.5219 -0.1002  1.7913
 9222SOL    HW239126   1.261   3.642   4.715  1.1243 -0.6577  0.1555
 9223SOL     OW39127   0.316   1.811   3.237 -0.3796 -1.0615  0.1165
 9223SOL    HW139128   0.318   1.889   3.182 -0.9315  0.0923  1.7721
 9223SOL    HW239129   0.229   1.776   3.218 -1.4313  1.1424  0.9326
 9224SOL     OW39130   0.654   2.717   0.187 -0.0317  0.5138  0.4586
 9224SOL    HW139131   0.651   2.813   0.177  0.8430  0.5472  0.6004
 9224SOL    HW239132   0.721   2.702   0.253  0.1723  1.1170  0.3922
 9225SOL     OW39133   2.977   1.553   0.516 -0.2730  0.0847  0.1143
 9225SOL    HW139134   2.890   1.591   0.505  0.4717  1.3212 -1.5883
 9225SOL    HW239135   2.958   1.468   0.556  2.5116  0.9399  3.3054
 9226SOL     OW39136   1.110   3.876   9.097 -0.0885  0.8302  0.4131
 9226SOL    HW139137   1.034   3.905   9.046  1.0304 -0.1012 -1.7704
 9226SOL    HW239138   1.187   3.916   9.057  0.0519 -0.1373 -0.2744
 9227SOL     OW39139   0.019   1.798   0.338  0.5388 -0.0954 -0.0946
 9227SOL    HW139140   4.673   1.844   0.289  1.5712  2.3784  0.8023
 9227SOL    HW239141   0.084   1.794   0.268  0.1118 -0.8958 -0.4462
 9228SOL     OW39142   2.269   1.922   9.538  0.3788  0.1377  0.4959
 9228SOL    HW139143   2.323   1.995   9.509 -0.5080  0.6810  0.2203
 9228SOL    HW239144   2.254   1.939   9.631 -1.4027  0.6783  0.1026
 9229SOL     OW39145   4.581   1.015   6.728 -0.2435 -0.4047 -0.0576
 9229SOL    HW139146   4.584   0.997   6.634  0.2246  1.3541 -0.3843
 9229SOL    HW239147   4.548   0.933   6.763 -1.1620 -0.6723 -1.5541
 9230SOL     OW39148   3.100   3.703   6.366  0.3138  0.2303 -0.4254
 9230SOL    HW139149   3.190   3.690   6.337  0.5345  1.4439 -0.2539
 9230SOL    HW239150   3.055   3.697   6.282 -0.0186 -0.4849 -0.2048
 9231SOL     OW39151   2.912   0.042   7.087 -0.0258 -0.7976  0.4957
 9231SOL    HW139152   2.850   0.112   7.064 -0.9603 -1.2948  1.5407
 9231SOL    HW239153   2.938   0.071   7.174 -0.6256  2.4223 -0.3753
 9232SOL     OW39154   4.588   2.540  11.284  0.2025  0.2934  0.0297
 9232SOL    HW139155   4.629   2.547  11.371 -1.4657 -1.1860  0.9399
 9232SOL    HW239156   4.641   2.607  11.242  0.0408  0.8398  0.6902
 9233SOL     OW39157   2.641   3.517   4.474 -0.3482 -0.0447 -0.0673
 9233SOL    HW139158   2.602   3.601   4.451 -0.4471  0.4908  2.0973
 9233SOL    HW239159   2.588   3.479   4.543 -4.3177  1.6514 -2.2008
 9234SOL     OW39160   3.532   1.750   6.457  0.3411  0.3057  0.5614
 9234SOL    HW139161   3.613   1.699   6.457  0.5167  0.5771 -2.5363
 9234SOL    HW239162   3.477   1.683   6.419  2.0223  0.0429 -1.3951
 9235SOL     OW39163   0.021   2.339   7.640 -0.7496  0.3468  0.2900
 9235SOL    HW139164   4.714   2.411   7.584 -0.9445  0.1150  0.0936
 9235SOL    HW239165   4.674   2.336   7.707  0.8144 -0.6436  1.8715
 9236SOL     OW39166   1.063   0.295  16.826 -0.6154 -0.0351 -0.3666
 9236SOL    HW139167   1.088   0.206  16.803 -0.9014 -0.6679  1.7904
 9236SOL    HW239168   1.063   0.334  16.739  0.0099 -0.8854 -0.7479
 9237SOL     OW39169   3.958   2.928  16.330 -0.3084  0.3575  0.0636
 9237SOL    HW139170   3.955   2.944  16.236  1.5156  0.2554 -0.0179
 9237SOL    HW239171   4.050   2.945  16.350 -0.0476 -0.6215 -0.2698
 9238SOL     OW39172   1.822   4.465   0.303  0.3407 -0.2349  0.0420
 9238SOL    HW139173   1.817   4.556   0.273  0.5031  0.3190  1.6908
 9238SOL    HW239174   1.779   4.463   0.388  0.5186  0.2223  0.1458
 9239SOL     OW39175   4.384   1.782  13.131 -0.1644 -0.8312  0.0677
 9239SOL    HW139176   4.449   1.745  13.192 -0.6972 -0.9110  0.5822
 9239SOL    HW239177   4.311   1.802  13.189 -0.7771 -2.0480 -0.3023
 9240SOL     OW39178   2.631   0.415   4.766  0.2606  0.1275  0.3995
 9240SOL    HW139179   2.605   0.367   4.845  1.2703 -0.4116  0.4044
 9240SOL    HW239180   2.640   0.346   4.701 -0.6255 -0.4515  0.8926
 9241SOL     OW39181   1.664   1.626   8.427 -0.0013 -0.1017 -0.1127
 9241SOL    HW139182   1.655   1.591   8.338  0.4600  1.5116 -0.7890
 9241SOL    HW239183   1.651   1.544   8.476 -4.6762  1.3911  1.0864
 9242SOL     OW39184   0.433   3.740   7.893 -0.1730  0.1541 -0.0361
 9242SOL    HW139185   0.449   3.824   7.851 -0.0409 -0.3051 -0.9190
 9242SOL    HW239186   0.522   3.703   7.897  0.3319  1.5785  2.2272
 9243SOL     OW39187   3.106   3.371   6.947  0.4108 -0.9903 -0.9945
 9243SOL    HW139188   3.097   3.389   6.853 -1.8700  0.3912 -0.4851
 9243SOL    HW239189   3.015   3.364   6.975  1.3235  0.2300  2.2266
 9244SOL     OW39190   3.217   3.701  11.052  0.3125 -0.7248 -0.8632
 9244SOL    HW139191   3.253   3.633  11.109 -0.8503 -0.4118  0.2557
 9244SOL    HW239192   3.197   3.770  11.116  2.2480 -2.8545  2.0194
 9245SOL     OW39193   0.588   3.116   8.189 -0.4038  0.1172  0.0805
 9245SOL    HW139194   0.535   3.188   8.157 -3.2000 -2.5141 -1.2185
 9245SOL    HW239195   0.589   3.065   8.108 -1.6210 -0.1295  0.2238
 9246SOL     OW39196   4.389   4.055   4.969  0.6522 -0.5831  0.3903
 9246SOL    HW139197   4.418   4.016   4.887 -2.0459 -1.0364 -0.3686
 9246SOL    HW239198   4.299   4.022   4.965  1.6545 -3.3416  1.0675
 9247SOL     OW39199   1.750   2.508   3.750 -0.1427 -0.3482 -0.4889
 9247SOL    HW139200   1.739   2.416   3.774 -0.7623  0.1192  1.0226
 9247SOL    HW239201   1.666   2.535   3.787  0.2615  1.2444 -0.6966
 9248SOL     OW39202   3.412   2.309   6.478 -0.1538  0.4074  0.1473
 9248SOL    HW139203   3.471   2.356   6.537 -0.8868  1.2522  0.2074
 9248SOL    HW239204   3.445   2.219   6.481  1.6566  1.1133  1.6042
 9249SOL     OW39205   2.930   1.289   5.040 -0.1570 -0.0036  0.4566
 9249SOL    HW139206   2.892   1.233   4.973  0.4583  2.7981 -2.2520
 9249SOL    HW239207   2.970   1.223   5.096  0.2695 -0.0563  0.0862
 9250SOL     OW39208   0.676   0.420   5.748 -0.0305  0.1059  0.0213
 9250SOL    HW139209   0.603   0.360   5.761 -1.6735  1.9151 -0.9047
 9250SOL    HW239210   0.633   0.505   5.748 -0.8291 -0.3041  0.3446
 9251SOL     OW39211   1.147   2.871   9.286 -0.4613 -0.3693 -0.0882
 9251SOL    HW139212   1.102   2.788   9.271  0.1563 -0.8236  0.5806
 9251SOL    HW239213   1.192   2.839   9.364 -0.9606 -4.0903 -1.3367
 9252SOL     OW39214   0.620   1.311   5.984 -0.4485 -0.0337  0.0576
 9252SOL    HW139215   0.529   1.291   6.006 -0.9310  0.6735 -1.3221
 9252SOL    HW239216   0.633   1.254   5.909 -1.0563  2.3368 -1.8548
 9253SOL     OW39217   4.021   0.593  14.993 -0.4853 -0.2122  0.0073
 9253SOL    HW139218   4.111   0.574  14.969 -0.1621  1.5741 -0.1856
 9253SOL    HW239219   3.978   0.509  14.976  1.0569 -0.9770 -0.1036
 9254SOL     OW39220   1.193   2.586   9.451 -0.4264  0.0579 -0.0890
 9254SOL    HW139221   1.151   2.563   9.534 -2.5530 -0.6435 -1.3777
 9254SOL    HW239222   1.139   2.528   9.397 -1.3848  0.3985  0.5157
 9255SOL     OW39223   0.031   1.516   8.393  0.3668 -0.1818 -0.6578
 9255SOL    HW139224   0.005   1.478   8.309  1.0636 -0.5485 -0.7111
 9255SOL    HW239225   4.708   1.460   8.456  2.0693  1.7294  2.2508
 9256SOL     OW39226   4.371   3.506  16.331  0.1853 -0.0037 -0.1209
 9256SOL    HW139227   4.308   3.433  16.330 -1.1331  1.1540 -1.6665
 9256SOL    HW239228   4.451   3.459  16.308 -0.1072  2.0574 -5.4871
 9257SOL     OW39229   3.369   1.784   2.312  0.6336 -0.1208 -0.4729
 9257SOL    HW139230   3.301   1.762   2.249  0.3893 -3.0705  0.8258
 9257SOL    HW239231   3.344   1.873   2.335 -0.0126 -0.2949 -0.5157
 9258SOL     OW39232   2.089   4.216   0.597 -0.3840 -0.3674  0.3296
 9258SOL    HW139233   2.006   4.262   0.584 -1.4996 -2.5830 -0.3972
 9258SOL    HW239234   2.051   4.130   0.615 -1.4994 -0.0324 -0.4244
 9259SOL     OW39235   3.744   3.455   5.977  0.5600  0.1983  0.5728
 9259SOL    HW139236   3.734   3.548   5.956  0.2762  0.2504  0.9389
 9259SOL    HW239237   3.785   3.406   5.906  2.6948  0.7338  1.4242
 9260SOL     OW39238   1.503   3.561   6.253  0.5852  0.0025  0.6821
 9260SOL    HW139239   1.483   3.652   6.275  1.9185  0.1706  1.1910
 9260SOL    HW239240   1.598   3.561   6.258  0.7177  0.5431 -1.9295
 9261SOL     OW39241   1.932   1.976  10.258  0.3620  0.0273 -0.1495
 9261SOL    HW139242   1.845   2.005  10.288  0.8500  0.5753  0.7692
 9261SOL    HW239243   1.928   1.885  10.286 -0.8747 -0.1476 -0.8968
 9262SOL     OW39244   4.176   2.678   5.650 -0.3327 -0.1212 -0.1706
 9262SOL    HW139245   4.260   2.652   5.612  0.2473  1.9789 -0.3528
 9262SOL    HW239246   4.107   2.635   5.601  0.3267  0.4954 -1.6424
 9263SOL     OW39247   2.013   3.784   5.633 -0.3629  0.3327 -0.3895
 9263SOL    HW139248   2.035   3.773   5.725 -2.8091 -1.2195 -0.0030
 9263SOL    HW239249   1.920   3.801   5.647 -0.3865  1.1111 -1.4328
 9264SOL     OW39250   2.119   3.017  10.914 -0.4222  0.0833  0.0735
 9264SOL    HW139251   2.117   2.936  10.964 -1.2289 -0.2913 -0.5419
 9264SOL    HW239252   2.025   3.027  10.896 -0.5539  0.6196  1.0930
 9265SOL     OW39253   1.630   2.178   4.249  0.2124  0.0451 -0.8729
 9265SOL    HW139254   1.660   2.090   4.224  0.4820 -0.3944  0.9959
 9265SOL    HW239255   1.708   2.233   4.242 -0.8783  1.9119  1.8197
 9266SOL     OW39256   2.653   2.838   2.858 -0.7277  0.0298 -0.1227
 9266SOL    HW139257   2.584   2.805   2.801 -0.1686  1.5404 -1.6938
 9266SOL    HW239258   2.712   2.877   2.792  0.9761  1.5535  2.2862
 9267SOL     OW39259   3.110   0.901  16.764  0.0421  0.4393 -0.0127
 9267SOL    HW139260   3.113   0.896  16.668  1.7071 -0.2711  0.0758
 9267SOL    HW239261   3.123   0.810  16.791  0.0177  0.2161 -0.7525
 9268SOL     OW39262   3.788   4.285   5.514  0.0293  0.2558  0.2128
 9268SOL    HW139263   3.728   4.215   5.540 -0.4951  1.4147  2.1436
 9268SOL    HW239264   3.751   4.359   5.563  0.2245 -0.4017  1.3551
 9269SOL     OW39265   4.370   0.119   7.691 -0.4094  0.4958 -0.2370
 9269SOL    HW139266   4.452   0.094   7.649  0.7947 -0.2536  2.5530
 9269SOL    HW239267   4.321   0.056   7.639  1.3540 -0.6421 -0.5096
 9270SOL     OW39268   1.199   3.363   8.859  0.4745  0.0130  0.4782
 9270SOL    HW139269   1.162   3.417   8.929  0.4341  1.4400 -0.6471
 9270SOL    HW239270   1.143   3.289   8.882  1.2236 -1.3903 -2.1458
 9271SOL     OW39271   1.681   4.047   8.839  0.5654  0.2076  0.0560
 9271SOL    HW139272   1.765   4.001   8.845 -0.4123 -1.6148 -0.0641
 9271SOL    HW239273   1.650   4.013   8.755 -0.0063  1.0380 -0.0616
 9272SOL     OW39274   2.673   0.348  16.496  0.0321  0.3063  0.2684
 9272SOL    HW139275   2.618   0.282  16.453 -0.2067  0.1640  0.7861
 9272SOL    HW239276   2.614   0.421  16.517 -1.1507  0.4093 -3.3186
 9273SOL     OW39277   3.126   3.937  11.182  0.3765  0.1453 -0.9472
 9273SOL    HW139278   3.057   3.931  11.116  0.2578 -0.7936 -0.7427
 9273SOL    HW239279   3.134   4.032  11.194 -1.6232  0.4027 -1.6747
 9274SOL     OW39280   4.708   3.217   7.071  0.6444 -0.0836 -0.0762
 9274SOL    HW139281   4.660   3.182   7.147 -0.9329  1.2157 -0.4859
 9274SOL    HW239282   0.021   3.136   7.033  2.4641 -0.0001  1.4146
 9275SOL     OW39283   4.673   3.880   5.396 -0.4170  0.1950  0.3049
 9275SOL    HW139284   0.025   3.880   5.456  0.3515 -1.3024 -0.6702
 9275SOL    HW239285   4.671   3.967   5.357 -1.4455 -0.8261 -1.9205
 9276SOL     OW39286   2.384   3.852   8.617 -0.1932  0.5525  0.5243
 9276SOL    HW139287   2.442   3.900   8.558  1.1861  1.2087  2.4062
 9276SOL    HW239288   2.419   3.901   8.691 -0.1876  2.5889 -0.8310
 9277SOL     OW39289   4.037   1.825   5.732  0.3501  0.6835  1.0576
 9277SOL    HW139290   4.124   1.786   5.729 -0.6963 -1.5275 -0.2791
 9277SOL    HW239291   3.967   1.765   5.707 -0.0714  0.5328  2.6117
 9278SOL     OW39292   1.240   3.346  14.851  0.0775 -0.8350 -0.1327
 9278SOL    HW139293   1.269   3.413  14.914 -1.6685 -0.6635  0.5044
 9278SOL    HW239294   1.227   3.390  14.767 -2.6504 -0.3966  0.5173
 9279SOL     OW39295   3.322   1.571   6.538  0.5627  0.3751 -0.0446
 9279SOL    HW139296   3.408   1.558   6.579  0.4926  0.5874  0.1678
 9279SOL    HW239297   3.315   1.665   6.525 -3.0007 -0.2258 -2.3444
 9280SOL     OW39298   0.898   0.111  11.784  0.1182 -0.3621 -0.1553
 9280SOL    HW139299   0.900   0.188  11.728 -2.9923  1.6566  2.5139
 9280SOL    HW239300   0.984   0.111  11.825 -0.2191 -0.2552  0.5585
 9281SOL     OW39301   0.602   2.305   0.445 -0.3059  0.4775 -0.3035
 9281SOL    HW139302   0.575   2.272   0.531  0.8956  1.7909  0.5759
 9281SOL    HW239303   0.694   2.279   0.450 -1.1828 -2.3207  0.9380
 9282SOL     OW39304   3.998   0.649   4.245  0.6295  0.1664  0.0220
 9282SOL    HW139305   4.030   0.740   4.244  1.6726 -0.2041 -2.0702
 9282SOL    HW239306   4.046   0.621   4.167 -1.4479  0.8912 -1.5148
 9283SOL     OW39307   3.887   4.087   5.188  0.1439  0.1799 -0.1627
 9283SOL    HW139308   3.874   4.114   5.098 -0.0320  0.8558  0.0626
 9283SOL    HW239309   3.948   4.014   5.183 -0.3170 -0.2060 -0.1495
 9284SOL     OW39310   0.459   3.673  15.593  0.2705  0.1119 -0.1435
 9284SOL    HW139311   0.491   3.762  15.606 -2.3800  0.8883  0.8141
 9284SOL    HW239312   0.497   3.650  15.508  0.0736  0.3283 -0.2909
 9285SOL     OW39313   0.236   3.095  17.566 -0.3469  0.0228 -0.2765
 9285SOL    HW139314   0.157   3.049  17.538 -0.3609 -0.6903  0.9343
 9285SOL    HW239315   0.244   3.072  17.658 -0.8476 -0.5281 -0.3693
 9286SOL     OW39316   3.326   2.588   9.035 -0.1356  0.3178 -0.2685
 9286SOL    HW139317   3.268   2.535   9.090  0.0656 -0.0816 -0.4466
 9286SOL    HW239318   3.327   2.666   9.092  2.1568 -0.8020  1.2128
 9287SOL     OW39319   2.978   2.625   2.922  0.8377  0.6615  0.4441
 9287SOL    HW139320   3.000   2.671   2.841 -1.4687  0.7394 -0.1220
 9287SOL    HW239321   2.919   2.683   2.970 -0.6842 -0.5947  0.0962
 9288SOL     OW39322   0.703   2.497   6.792  0.5064 -0.5373 -0.7869
 9288SOL    HW139323   0.740   2.440   6.725 -0.1620 -0.6925 -1.0168
 9288SOL    HW239324   0.608   2.486   6.785  0.4430  0.5847 -1.8193
 9289SOL     OW39325   0.442   0.028  16.060 -0.0609 -0.4365 -0.1811
 9289SOL    HW139326   0.524   0.075  16.043  0.1179 -1.2464 -1.5408
 9289SOL    HW239327   0.470   4.703  16.137 -1.2006  2.4657  2.0240
 9290SOL     OW39328   0.428   2.932   2.186 -0.1841 -0.3059  0.0507
 9290SOL    HW139329   0.449   3.015   2.143 -0.4100 -1.6355 -2.6578
 9290SOL    HW239330   0.383   2.890   2.113 -0.6215 -0.3020  0.3175
 9291SOL     OW39331   1.593   2.572   1.828  0.1745 -0.1998 -0.1004
 9291SOL    HW139332   1.543   2.632   1.774 -2.8139 -3.0202 -0.4898
 9291SOL    HW239333   1.569   2.488   1.787  0.7580  0.3481 -1.5355
 9292SOL     OW39334   0.811   1.941  14.859 -0.7073  0.4018  0.0355
 9292SOL    HW139335   0.829   2.001  14.931  1.2380  1.4393 -1.3231
 9292SOL    HW239336   0.774   1.872  14.915  0.6145  0.4452  0.9507
 9293SOL     OW39337   1.579   4.589   7.542  0.2616  0.0744 -0.1495
 9293SOL    HW139338   1.609   4.612   7.631  0.3142 -1.0358  0.1156
 9293SOL    HW239339   1.539   4.674   7.522  1.1349  0.8076  1.2031
 9294SOL     OW39340   1.716   0.482   7.717 -0.1105  0.7031 -0.0958
 9294SOL    HW139341   1.779   0.496   7.788 -0.3997  0.6434  0.1724
 9294SOL    HW239342   1.775   0.477   7.642 -2.6320  0.5500 -2.0497
 9295SOL     OW39343   4.312   3.474   0.344 -0.2155 -0.0817  0.2534
 9295SOL    HW139344   4.300   3.380   0.358 -3.3221  0.1172 -0.9735
 9295SOL    HW239345   4.391   3.496   0.393 -0.5147  1.9209 -0.1672
 9296SOL     OW39346   1.162   3.204   3.250 -0.0286  0.2368  0.1575
 9296SOL    HW139347   1.187   3.254   3.328 -1.4106  0.0144  0.7507
 9296SOL    HW239348   1.090   3.265   3.233 -1.4735 -2.5615 -3.8096
 9297SOL     OW39349   3.192   1.094   1.431  0.3335 -0.0181 -0.0093
 9297SOL    HW139350   3.282   1.124   1.445  0.6937 -1.2701  0.4820
 9297SOL    HW239351   3.143   1.175   1.430  0.0358 -0.1885  0.6478
 9298SOL     OW39352   3.815   1.164   4.941 -0.4067  1.2079  0.3496
 9298SOL    HW139353   3.801   1.084   4.991 -0.4475 -1.4068 -3.7974
 9298SOL    HW239354   3.816   1.131   4.851 -1.7238  1.4844  0.2373
 9299SOL     OW39355   2.652   4.010   4.431  0.0421 -0.3988  0.5660
 9299SOL    HW139356   2.723   3.976   4.377  0.2830  0.8871  0.0612
 9299SOL    HW239357   2.669   4.104   4.446 -2.3221  0.1034  0.0672
 9300SOL     OW39358   3.053   3.792   7.958 -0.2713  0.0674  0.3354
 9300SOL    HW139359   3.050   3.821   8.049  2.5745  2.0369 -0.2078
 9300SOL    HW239360   3.088   3.871   7.918 -2.9793  1.1831  0.1205
 9301SOL     OW39361   1.937   3.416   2.741  0.4247  0.6650  0.5692
 9301SOL    HW139362   2.002   3.387   2.804 -0.7369 -0.5405  1.2074
 9301SOL    HW239363   1.987   3.486   2.698 -0.3594  1.6136  1.1761
 9302SOL     OW39364   3.154   2.989   8.736  0.1303  0.4103  0.0944
 9302SOL    HW139365   3.201   2.909   8.763 -1.2534  0.1360  1.6913
 9302SOL    HW239366   3.066   2.954   8.748  1.1626 -1.8495  1.0469
 9303SOL     OW39367   3.237   4.703  17.151  0.7475 -0.0698  0.3111
 9303SOL    HW139368   3.162   0.021  17.108 -0.0636 -0.6975  1.1446
 9303SOL    HW239369   3.246   4.631  17.088  0.0345  0.5271 -0.4816
 9304SOL     OW39370   3.553   0.866   7.165 -0.4931 -0.5839 -0.4066
 9304SOL    HW139371   3.551   0.847   7.258  2.0565 -0.1334 -0.2605
 9304SOL    HW239372   3.476   0.818   7.135 -1.7425  1.1368  0.0811
 9305SOL     OW39373   4.211   1.360  15.936  0.2323 -0.3035 -0.4102
 9305SOL    HW139374   4.154   1.422  15.891 -0.2218 -1.5625 -1.5845
 9305SOL    HW239375   4.210   1.411  16.016 -0.6722 -1.4945  0.3414
 9306SOL     OW39376   3.995   4.058   5.618 -0.2308 -0.3314 -0.0628
 9306SOL    HW139377   4.003   4.153   5.619  0.2328 -0.3487 -1.6394
 9306SOL    HW239378   3.932   4.033   5.685 -0.1770 -1.2820 -0.3647
 9307SOL     OW39379   1.338   2.816   3.374  0.4464  0.3072 -0.1180
 9307SOL    HW139380   1.335   2.882   3.306  0.7063  1.8898  1.3939
 9307SOL    HW239381   1.398   2.753   3.334 -1.1739  0.0982 -2.1991
 9308SOL     OW39382   2.726   2.847   4.342  0.1669 -0.1954 -0.0970
 9308SOL    HW139383   2.711   2.932   4.301  0.7530 -0.2626 -0.4532
 9308SOL    HW239384   2.810   2.851   4.388 -0.0553 -0.0908  0.2986
 9309SOL     OW39385   0.630   3.570   6.642 -0.2917  0.3885 -0.0304
 9309SOL    HW139386   0.695   3.552   6.710  1.4295  1.1072 -1.4817
 9309SOL    HW239387   0.608   3.482   6.612 -3.4915  0.8430  0.9884
 9310SOL     OW39388   3.139   4.253   3.659 -0.0616  0.4591 -0.4531
 9310SOL    HW139389   3.188   4.280   3.581  0.1303  0.8842 -0.1791
 9310SOL    HW239390   3.081   4.186   3.621 -0.7009  0.3960  0.6355
 9311SOL     OW39391   2.682   1.573   2.365  0.1361 -0.5758  0.0651
 9311SOL    HW139392   2.597   1.567   2.321  0.3626 -0.9231 -0.3217
 9311SOL    HW239393   2.724   1.650   2.326 -1.1940  1.0670  1.9107
 9312SOL     OW39394   2.106   1.568   4.072  0.0642 -0.3889  0.7367
 9312SOL    HW139395   2.156   1.504   4.021  0.8288  2.2266 -1.8232
 9312SOL    HW239396   2.109   1.646   4.017  0.2096  0.4800  1.9790
 9313SOL     OW39397   2.249   1.337   3.097  0.7323  0.4170 -0.0331
 9313SOL    HW139398   2.241   1.274   3.169  0.9936  0.8716  0.3971
 9313SOL    HW239399   2.196   1.410   3.130  1.7034 -0.2813  3.0817
 9314SOL     OW39400   0.052   2.090   3.082 -0.6595 -0.5977  0.1211
 9314SOL    HW139401   0.040   2.181   3.055 -3.5512 -0.8256  0.6567
 9314SOL    HW239402   4.692   2.071   3.126  1.0151 -0.1195  3.4861
 9315SOL     OW39403   0.957   1.601   8.048 -0.0188  1.2832  0.0490
 9315SOL    HW139404   0.958   1.658   7.971 -2.5992 -0.2718 -1.1555
 9315SOL    HW239405   1.043   1.561   8.049 -0.5919  0.0391 -0.1736
 9316SOL     OW39406   3.980   1.264   1.806  0.1957 -0.4555 -0.0298
 9316SOL    HW139407   3.952   1.206   1.877 -0.1511 -2.8273 -2.0818
 9316SOL    HW239408   3.920   1.254   1.732  0.7040  0.5330 -0.5721
 9317SOL     OW39409   0.988   3.617   8.411  0.1893 -0.1630 -0.0956
 9317SOL    HW139410   1.077   3.641   8.436  0.0093 -0.6483  1.0099
 9317SOL    HW239411   1.016   3.540   8.361 -2.3727 -2.4930  2.0821
 9318SOL     OW39412   1.105   3.098  17.468  0.2771 -0.1481 -0.3762
 9318SOL    HW139413   1.040   3.106  17.538  1.4578 -0.3286  0.7253
 9318SOL    HW239414   1.065   3.157  17.404  1.1051  0.3211 -0.4553
 9319SOL     OW39415   4.136   4.240   2.005  0.0020  0.3424 -0.2477
 9319SOL    HW139416   4.232   4.238   2.005  0.0061  0.0672  1.3929
 9319SOL    HW239417   4.118   4.146   2.012 -1.8691  0.6569 -0.8687
 9320SOL     OW39418   2.984   2.770  12.980  0.0775 -0.0074 -0.1934
 9320SOL    HW139419   3.013   2.850  12.936  0.8296  0.2662  0.7904
 9320SOL    HW239420   2.945   2.806  13.059  2.5632 -1.1073  1.5693
 9321SOL     OW39421   2.684   4.255   2.676 -0.0448 -0.2741 -0.5697
 9321SOL    HW139422   2.635   4.174   2.690 -0.5641  0.1922  0.3254
 9321SOL    HW239423   2.630   4.294   2.607 -0.7949  0.8924  0.6930
 9322SOL     OW39424   2.760   4.155   0.059  0.2183 -0.4348 -0.3298
 9322SOL    HW139425   2.801   4.077   0.096  0.4726  0.1239  0.5623
 9322SOL    HW239426   2.718   4.120  17.673 -2.8670  0.3188  0.9791
 9323SOL     OW39427   1.501   4.509   3.855 -0.2977 -0.0284 -0.0918
 9323SOL    HW139428   1.560   4.487   3.782  0.4684 -2.7048  1.3175
 9323SOL    HW239429   1.542   4.463   3.928  0.4701  0.2468 -0.3433
 9324SOL     OW39430   0.727   1.513  17.083 -0.1884  0.5416  0.0038
 9324SOL    HW139431   0.809   1.476  17.116  0.2613 -1.8973 -3.7759
 9324SOL    HW239432   0.760   1.592  17.041 -0.0250  2.0565  2.9676
 9325SOL     OW39433   1.046   2.727  13.174  0.3200 -0.2310  0.3631
 9325SOL    HW139434   1.111   2.676  13.126 -0.1579 -1.1314  0.6813
 9325SOL    HW239435   1.028   2.811  13.131 -1.5592 -0.6860  0.2674
 9326SOL     OW39436   1.206   1.997   6.838 -0.1895  0.7791 -0.2866
 9326SOL    HW139437   1.199   2.091   6.854  0.8572  0.4595  2.1130
 9326SOL    HW239438   1.125   1.966   6.877 -1.4229  3.9614 -0.3675
 9327SOL     OW39439   0.674   1.245  17.006  0.2135  0.2517  0.0124
 9327SOL    HW139440   0.652   1.238  17.099  1.5993  0.2257  0.3361
 9327SOL    HW239441   0.705   1.335  16.995  2.3797 -0.6620 -1.1943
 9328SOL     OW39442   0.865   1.397   1.510  0.3558  0.6473 -0.0464
 9328SOL    HW139443   0.901   1.331   1.451  1.3417  2.3512 -1.3533
 9328SOL    HW239444   0.816   1.447   1.445 -0.8215 -0.4089  0.0369
 9329SOL     OW39445   4.352   0.379  13.511 -0.4535  0.0201 -0.0542
 9329SOL    HW139446   4.303   0.421  13.582 -1.3819  0.2352 -0.8262
 9329SOL    HW239447   4.439   0.412  13.535 -0.2641  0.3306 -1.1620
 9330SOL     OW39448   1.830   2.715   9.158  0.1265 -0.2009 -0.8566
 9330SOL    HW139449   1.888   2.754   9.223 -2.1902  0.6206  0.7207
 9330SOL    HW239450   1.879   2.730   9.078 -1.0272 -0.9431 -1.7116
 9331SOL     OW39451   2.641   1.481   8.273 -0.2484  0.3916 -0.0441
 9331SOL    HW139452   2.729   1.471   8.236  0.1238 -1.1337  1.2356
 9331SOL    HW239453   2.634   1.574   8.252  0.9732  0.4548 -0.1925
 9332SOL     OW39454   1.304   2.160   2.396 -0.2589  0.5050 -0.6693
 9332SOL    HW139455   1.338   2.185   2.482 -0.7307  0.3449 -0.4344
 9332SOL    HW239456   1.227   2.216   2.409 -0.8146 -0.0289 -1.6041
 9333SOL     OW39457   3.626   2.650   2.337 -0.3269  0.0690  0.0114
 9333SOL    HW139458   3.716   2.659   2.306 -1.3407  0.9079 -2.6802
 9333SOL    HW239459   3.594   2.709   2.268 -0.5989  0.6086  0.5991
 9334SOL     OW39460   3.682   2.207  13.234  0.4617  0.6894 -0.0013
 9334SOL    HW139461   3.676   2.113  13.213 -0.0747  0.4004  1.4800
 9334SOL    HW239462   3.601   2.221  13.283  0.9085 -3.4869  1.9782
 9335SOL     OW39463   3.202   2.491   6.053  0.0390 -0.0429  0.5767
 9335SOL    HW139464   3.190   2.525   5.964 -0.1586  1.8921  1.3384
 9335SOL    HW239465   3.109   2.469   6.059 -0.5269  2.0887 -0.1715
 9336SOL     OW39466   0.580   2.334   4.904  0.0569  0.0672 -0.1757
 9336SOL    HW139467   0.632   2.313   4.827  0.0289  2.0370 -0.7397
 9336SOL    HW239468   0.497   2.290   4.882 -0.3033  0.7829 -0.2449
 9337SOL     OW39469   1.537   1.103  15.278 -0.5606 -0.1264 -0.1902
 9337SOL    HW139470   1.582   1.039  15.223  0.2397 -0.5562  0.9646
 9337SOL    HW239471   1.548   1.189  15.237  2.2529  0.7759  2.5097
 9338SOL     OW39472   1.251   3.270  15.290  0.0042  0.1474 -0.6871
 9338SOL    HW139473   1.212   3.338  15.235  1.6114  2.0715  0.5198
 9338SOL    HW239474   1.316   3.321  15.339 -1.4286 -0.9729  2.4341
 9339SOL     OW39475   0.262   1.694   9.566  0.2335 -0.2061  0.5203
 9339SOL    HW139476   0.327   1.628   9.591  0.1967 -0.2811  0.4186
 9339SOL    HW239477   0.307   1.746   9.500  0.3738 -1.9028 -0.7011
 9340SOL     OW39478   1.139   1.770   5.863 -0.7045  0.4396  0.2768
 9340SOL    HW139479   1.050   1.778   5.896 -1.5553 -1.0327 -1.6541
 9340SOL    HW239480   1.192   1.776   5.943 -1.3741 -1.0162  0.8148
 9341SOL     OW39481   0.193   0.810   9.574  0.4684 -0.2211 -0.0506
 9341SOL    HW139482   0.231   0.831   9.659 -0.4056  4.1923 -0.6993
 9341SOL    HW239483   0.180   0.901   9.544 -0.3909 -0.5805 -0.7874
 9342SOL     OW39484   3.143   1.341   4.708  0.1742 -0.2233 -0.2934
 9342SOL    HW139485   3.147   1.362   4.801  0.2131  0.4956 -0.4522
 9342SOL    HW239486   3.236   1.329   4.691  0.2302  0.7513 -0.6785
 9343SOL     OW39487   1.933   0.539   5.282  0.4131  0.0393  0.6030
 9343SOL    HW139488   1.865   0.544   5.349 -0.2605 -0.5840 -0.0338
 9343SOL    HW239489   1.993   0.605   5.318 -0.5247  0.3109  1.6695
 9344SOL     OW39490   1.990   0.648   6.463  0.0158 -1.0907 -0.1896
 9344SOL    HW139491   1.958   0.709   6.397  3.8967 -0.2398 -1.2833
 9344SOL    HW239492   2.066   0.696   6.496 -0.4668 -1.5809  1.6435
 9345SOL     OW39493   4.567   3.058  10.987  0.6332  0.1078 -0.2417
 9345SOL    HW139494   4.494   3.113  10.959 -0.9233 -1.1264  1.4195
 9345SOL    HW239495   4.530   2.978  10.950  0.2327  1.0169 -1.8127
 9346SOL     OW39496   4.151   1.555   3.453 -0.2669 -0.0990 -0.5865
 9346SOL    HW139497   4.209   1.628   3.431 -0.6386 -0.5801 -3.2205
 9346SOL    HW239498   4.209   1.480   3.458 -1.4988 -0.9644  0.7299
 9347SOL     OW39499   3.768   1.386  14.109  0.1583  0.7582 -0.3111
 9347SOL    HW139500   3.825   1.355  14.039  0.4642 -1.0044  0.7249
 9347SOL    HW239501   3.807   1.334  14.179 -1.1254 -0.5330 -0.5567
 9348SOL     OW39502   3.549   3.122   7.023 -0.4945 -0.3692 -0.0909
 9348SOL    HW139503   3.621   3.065   6.999 -0.2388 -0.5520  1.0953
 9348SOL    HW239504   3.568   3.199   6.969  2.2304 -0.7145  0.3753
 9349SOL     OW39505   2.395   3.926   3.678 -0.0997 -0.5567  0.0192
 9349SOL    HW139506   2.479   3.956   3.642  0.3790  1.3316  2.7771
 9349SOL    HW239507   2.432   3.843   3.708 -0.9144 -1.8274 -2.4945
 9350SOL     OW39508   3.874   1.399   3.760 -0.1496 -0.1690  0.1723
 9350SOL    HW139509   3.954   1.419   3.808  0.7373 -0.3218 -1.2155
 9350SOL    HW239510   3.887   1.454   3.682  0.4222 -0.5330  0.0067
 9351SOL     OW39511   3.054   0.805   1.456 -0.5317  0.3823 -0.6002
 9351SOL    HW139512   2.990   0.792   1.526 -0.9353 -0.2728 -1.0978
 9351SOL    HW239513   3.043   0.896   1.428  0.7630  1.6873  3.1757
 9352SOL     OW39514   3.719   4.572  13.912  0.1036  0.2955 -0.3831
 9352SOL    HW139515   3.800   4.607  13.950  1.9845 -1.3923 -2.8606
 9352SOL    HW239516   3.653   4.623  13.960 -0.0004  0.9854 -1.2604
 9353SOL     OW39517   1.900   2.515   7.434 -0.4604 -0.1312 -0.1802
 9353SOL    HW139518   1.813   2.504   7.397 -1.2990  1.0919  1.4048
 9353SOL    HW239519   1.895   2.486   7.525 -2.4319 -1.8419 -0.8405
 9354SOL     OW39520   1.802   2.394   8.695 -0.5777 -0.2263  0.4923
 9354SOL    HW139521   1.892   2.368   8.713 -0.0888 -0.1984 -1.9209
 9354SOL    HW239522   1.753   2.352   8.766 -1.6022  1.9150  1.0860
 9355SOL     OW39523   0.555   0.410   5.335 -0.0923  0.4903 -0.2398
 9355SOL    HW139524   0.593   0.335   5.382 -2.3577  1.2050  2.7647
 9355SOL    HW239525   0.631   0.433   5.282  0.8796  1.2781  1.4983
 9356SOL     OW39526   4.590   3.421  10.250  0.4084 -0.1264  0.1838
 9356SOL    HW139527   4.561   3.383  10.167 -2.1120  0.5878  0.7344
 9356SOL    HW239528   4.560   3.511  10.239 -1.3317 -0.6991  0.2797
 9357SOL     OW39529   0.952   3.867   2.140  0.3642  0.0974 -0.3626
 9357SOL    HW139530   0.859   3.850   2.157  0.3609 -0.6491 -1.1502
 9357SOL    HW239531   0.969   3.852   2.047  0.2031  2.1645 -0.7254
 9358SOL     OW39532   2.182   4.626   2.266  0.3328 -0.0021 -0.0406
 9358SOL    HW139533   2.157   4.572   2.340 -0.2660  0.6912  0.2701
 9358SOL    HW239534   2.095   4.650   2.234 -0.0680  0.1627  1.1513
 9359SOL     OW39535   0.555   4.088   4.206 -0.0475  0.0584  0.6048
 9359SOL    HW139536   0.468   4.123   4.227 -0.2526 -0.8844  1.3111
 9359SOL    HW239537   0.601   4.086   4.289 -0.1608 -1.2775  0.6313
 9360SOL     OW39538   3.482   3.764   7.637  0.1163  0.0587 -0.1865
 9360SOL    HW139539   3.488   3.852   7.674 -1.6430 -0.6289  1.7252
 9360SOL    HW239540   3.452   3.721   7.717 -2.8275 -2.8865 -2.8501
 9361SOL     OW39541   0.494   4.297   8.345 -0.4072  0.0073  0.6725
 9361SOL    HW139542   0.496   4.220   8.289  2.3928  0.4811  0.1324
 9361SOL    HW239543   0.533   4.262   8.425  1.2536 -0.1269 -0.1985
 9362SOL     OW39544   4.035   3.545   9.018  0.4138  1.0390  0.4818
 9362SOL    HW139545   3.983   3.464   9.018  0.4324  1.0265 -0.5929
 9362SOL    HW239546   3.965   3.609   9.013 -1.0127 -0.4364  1.4869
 9363SOL     OW39547   2.574   4.109   7.731 -0.5529 -0.4523 -0.0961
 9363SOL    HW139548   2.548   4.021   7.760  0.5995 -0.8859 -0.3861
 9363SOL    HW239549   2.666   4.106   7.756 -0.3025 -1.0428 -1.0633
 9364SOL     OW39550   0.971   1.703   1.291 -0.6041  0.2423  0.1287
 9364SOL    HW139551   1.003   1.793   1.282  0.0415  0.1794  1.7651
 9364SOL    HW239552   1.010   1.680   1.375  0.2454 -4.6675 -1.5643
 9365SOL     OW39553   0.327   2.694   0.955 -0.1902  0.5804 -0.5477
 9365SOL    HW139554   0.251   2.702   0.898 -0.0853 -0.3614 -0.8147
 9365SOL    HW239555   0.384   2.634   0.908  1.6604  1.1961  0.8761
 9366SOL     OW39556   2.664   2.100   7.793 -0.4240  0.2263 -0.6400
 9366SOL    HW139557   2.649   2.155   7.715  1.3551  0.1653 -1.0348
 9366SOL    HW239558   2.760   2.101   7.791 -0.3559 -0.0465  2.8788
 9367SOL     OW39559   2.802   3.728  12.306  0.2507 -0.2461  0.6189
 9367SOL    HW139560   2.779   3.818  12.332 -0.4629 -0.4426  0.6549
 9367SOL    HW239561   2.879   3.711  12.360  0.7460  1.4305  0.4560
 9368SOL     OW39562   3.027   1.024   1.222 -0.0563 -0.1364  0.0767
 9368SOL    HW139563   3.021   1.101   1.166 -0.6448 -0.1901  0.0624
 9368SOL    HW239564   3.068   1.059   1.301  2.6967 -1.1592 -0.9168
 9369SOL     OW39565   0.015   2.899  12.770  0.5050 -0.7618  1.0737
 9369SOL    HW139566   0.052   2.947  12.696 -0.9786 -2.8745 -1.0718
 9369SOL    HW239567   4.651   2.875  12.735  0.5502 -0.5415  0.8090
 9370SOL     OW39568   1.069   1.568   3.481 -0.2580  0.1196 -0.4945
 9370SOL    HW139569   1.037   1.492   3.433 -2.0464  0.2503  0.4719
 9370SOL    HW239570   1.151   1.587   3.435  0.2418 -0.7517  0.0409
 9371SOL     OW39571   3.779   4.056  11.863 -0.4403  0.8890  0.3100
 9371SOL    HW139572   3.831   4.029  11.938  1.8019 -0.5108 -1.7489
 9371SOL    HW239573   3.819   4.141  11.842  0.4747  0.0182 -1.5150
 9372SOL     OW39574   1.361   0.151   8.697 -0.0025  0.0520 -0.0528
 9372SOL    HW139575   1.373   0.092   8.772  4.0474  0.5054 -0.3336
 9372SOL    HW239576   1.299   0.097   8.648  0.7731  0.2330 -1.2346
 9373SOL     OW39577   2.488   1.294   5.747  0.1769 -0.2705 -0.2676
 9373SOL    HW139578   2.543   1.282   5.669 -1.5371 -2.7605 -1.1098
 9373SOL    HW239579   2.552   1.326   5.811  2.0561 -0.2942 -2.1319
 9374SOL     OW39580   3.793   3.840   3.009 -0.0789  0.3458  0.2731
 9374SOL    HW139581   3.866   3.798   3.054 -2.0371 -1.6479  1.5426
 9374SOL    HW239582   3.743   3.764   2.981 -0.4767  2.0352 -3.6457
 9375SOL     OW39583   4.455   1.558   9.179 -0.2276 -0.4729 -0.1436
 9375SOL    HW139584   4.397   1.497   9.224 -0.3507 -0.8924 -0.8709
 9375SOL    HW239585   4.414   1.552   9.093  0.2969 -1.4453 -0.3254
 9376SOL     OW39586   1.317   1.382   2.273  0.1321  0.5269  0.4685
 9376SOL    HW139587   1.368   1.376   2.193 -0.7671  0.9768 -0.1350
 9376SOL    HW239588   1.375   1.431   2.331  1.3113 -0.2605 -0.0550
 9377SOL     OW39589   0.947   1.237  12.597 -1.0897 -0.3763 -0.4002
 9377SOL    HW139590   0.975   1.192  12.518  0.1926  0.6978 -0.5612
 9377SOL    HW239591   0.902   1.168  12.647  0.9299 -1.3176  0.1223
 9378SOL     OW39592   1.916   3.823   3.580 -0.3236 -0.2305  0.1395
 9378SOL    HW139593   1.941   3.846   3.669 -1.6325 -0.0544  0.4504
 9378SOL    HW239594   1.822   3.833   3.591 -0.3972 -0.5297 -0.2219
 9379SOL     OW39595   4.634   3.652   1.767 -0.1040 -0.1177 -0.7017
 9379SOL    HW139596   4.608   3.578   1.711 -1.4897 -0.4385  0.3586
 9379SOL    HW239597   4.569   3.650   1.838  1.2695  3.1398  0.6275
 9380SOL     OW39598   0.179   0.303   4.073 -0.1587  0.4238  0.4644
 9380SOL    HW139599   0.088   0.275   4.085 -0.1047 -0.1586 -0.5453
 9380SOL    HW239600   0.195   0.271   3.985 -1.0315  0.5863  0.2426
 9381SOL     OW39601   3.294   1.303   0.095 -0.6450 -0.9587  0.7634
 9381SOL    HW139602   3.283   1.380   0.151  2.0673 -0.7568  1.0395
 9381SOL    HW239603   3.376   1.264   0.125  0.6840  0.0548 -1.5534
 9382SOL     OW39604   3.333   4.154  11.383 -0.4157  0.6170  0.0262
 9382SOL    HW139605   3.262   4.180  11.324 -0.0811  1.2903 -0.0721
 9382SOL    HW239606   3.410   4.205  11.360 -0.0780 -0.1634 -0.5809
 9383SOL     OW39607   4.261   3.649   8.978 -0.0866 -0.4288  0.0803
 9383SOL    HW139608   4.302   3.646   9.064 -2.3090 -0.0035  1.1723
 9383SOL    HW239609   4.171   3.626   9.002 -0.8432  1.2973 -1.0783
 9384SOL     OW39610   2.880   0.241  10.391  0.4998 -0.1551  0.0930
 9384SOL    HW139611   2.861   0.261  10.300  0.9851 -1.1679 -0.2274
 9384SOL    HW239612   2.817   0.172  10.408 -1.0385  1.4252  0.7966
 9385SOL     OW39613   3.299   3.794   5.298 -0.2946  0.0185 -0.0160
 9385SOL    HW139614   3.395   3.792   5.300 -0.2707  0.4322 -0.5508
 9385SOL    HW239615   3.287   3.732   5.370 -1.2242  0.2608  0.0335
 9386SOL     OW39616   3.545   0.437   0.968 -0.8103 -0.2131  0.2482
 9386SOL    HW139617   3.514   0.478   0.888 -1.1317 -1.7650 -0.4229
 9386SOL    HW239618   3.616   0.381   0.936 -2.2558 -1.7906 -0.2145
 9387SOL     OW39619   0.975   0.788   0.972 -0.8522 -0.1908 -0.0290
 9387SOL    HW139620   1.001   0.811   0.883  0.8233 -1.5416  0.1071
 9387SOL    HW239621   0.906   0.852   0.990  0.9468  1.3439  1.3245
 9388SOL     OW39622   0.554   3.091   0.604  0.3600  0.1352  0.1291
 9388SOL    HW139623   0.475   3.045   0.635  0.3711 -0.5812 -0.9013
 9388SOL    HW239624   0.535   3.125   0.517 -0.7339 -0.2439  0.2207
 9389SOL     OW39625   4.176   2.712   6.884  0.1038 -0.0618  0.3286
 9389SOL    HW139626   4.164   2.768   6.808 -0.8058 -1.4974 -0.5802
 9389SOL    HW239627   4.259   2.671   6.862 -0.1104 -1.9481  2.9387
 9390SOL     OW39628   4.124   4.310   6.472 -0.1589 -0.0017 -0.0067
 9390SOL    HW139629   4.109   4.361   6.552 -0.5403  0.4646 -0.3805
 9390SOL    HW239630   4.036   4.278   6.457 -0.2124 -0.2024  0.7345
 9391SOL     OW39631   0.116   3.708  11.370 -0.7177 -0.0923  0.4961
 9391SOL    HW139632   0.117   3.695  11.465  2.5373  1.5322  0.6819
 9391SOL    HW239633   0.145   3.621  11.343 -1.3186 -0.0907 -0.1405
 9392SOL     OW39634   0.622   4.564   5.861 -0.1503  0.0230 -0.0880
 9392SOL    HW139635   0.671   4.514   5.796 -1.2128 -1.5637  0.3322
 9392SOL    HW239636   0.686   4.631   5.886 -0.5471  0.6264 -0.7195
 9393SOL     OW39637   2.221   2.566   5.777 -0.6953 -0.4807  0.5852
 9393SOL    HW139638   2.142   2.595   5.731 -0.6503  0.5687  1.1656
 9393SOL    HW239639   2.205   2.599   5.866  0.4667 -3.0652  1.7308
 9394SOL     OW39640   0.384   3.653   3.908  0.4694  0.0575 -0.1835
 9394SOL    HW139641   0.413   3.741   3.934 -0.2124 -0.0878  1.0194
 9394SOL    HW239642   0.292   3.676   3.912  0.9438  1.5540  1.9366
 9395SOL     OW39643   1.240   3.340   6.386 -0.3242 -0.0698 -0.5890
 9395SOL    HW139644   1.310   3.354   6.449  0.2805 -1.6723 -0.9001
 9395SOL    HW239645   1.211   3.424   6.351 -3.3347 -0.6036  0.5660
 9396SOL     OW39646   1.347   3.269   8.636  0.5760 -0.1125 -0.0920
 9396SOL    HW139647   1.296   3.287   8.715 -2.2935 -1.1266 -1.7086
 9396SOL    HW239648   1.298   3.204   8.586  0.4586  1.6402 -2.2712
 9397SOL     OW39649   2.303   0.329   9.547 -0.4644 -0.1779  0.3974
 9397SOL    HW139650   2.380   0.277   9.569  0.3873  0.9856  0.2208
 9397SOL    HW239651   2.300   0.337   9.452 -1.8122 -1.0950  0.3647
 9398SOL     OW39652   1.249   1.143   4.259 -0.2196 -0.0921  0.0544
 9398SOL    HW139653   1.253   1.104   4.172  2.2595 -0.3926  0.2847
 9398SOL    HW239654   1.343   1.143   4.278 -0.0144  0.7248 -0.9459
 9399SOL     OW39655   4.095   2.559   7.486 -0.2413  0.2567  0.5719
 9399SOL    HW139656   4.182   2.586   7.513  0.6579 -1.0393 -1.0179
 9399SOL    HW239657   4.100   2.465   7.500  0.5294  0.0220 -1.3257
 9400SOL     OW39658   3.750   1.547   2.892 -0.5591  0.2764  0.3316
 9400SOL    HW139659   3.747   1.634   2.853 -0.0984 -0.3491 -1.1257
 9400SOL    HW239660   3.841   1.525   2.872  0.7226  3.6792  2.5221
 9401SOL     OW39661   2.602   2.251   2.790 -0.0069  0.1324 -0.9470
 9401SOL    HW139662   2.512   2.262   2.757 -0.2002  2.1350  0.1889
 9401SOL    HW239663   2.626   2.344   2.790  1.4150 -0.2398  0.2890
 9402SOL     OW39664   3.853   0.103   6.111  0.0098 -0.4776  0.0246
 9402SOL    HW139665   3.903   0.072   6.187 -3.9549  0.1885  2.9108
 9402SOL    HW239666   3.869   0.196   6.121  0.5568 -0.9458  3.6064
 9403SOL     OW39667   3.195   0.938   5.850 -0.3356 -0.6638  0.1142
 9403SOL    HW139668   3.101   0.924   5.858 -0.0539 -1.2101  2.2357
 9403SOL    HW239669   3.219   0.923   5.758  0.1732  0.6021  0.0277
 9404SOL     OW39670   1.243   0.188   4.466 -0.2523  0.4097 -0.2129
 9404SOL    HW139671   1.332   0.210   4.439 -0.4681  3.3499  1.4598
 9404SOL    HW239672   1.219   0.133   4.391 -2.3957  0.7952  0.1883
 9405SOL     OW39673   4.569   0.572   1.962 -0.0911  0.4419 -0.6244
 9405SOL    HW139674   4.511   0.641   1.930  1.6162  2.6681  1.1335
 9405SOL    HW239675   4.534   0.500   1.909  1.9695 -0.5004 -0.7168
 9406SOL     OW39676   4.094   1.738  13.934  0.2659 -0.3353  0.1287
 9406SOL    HW139677   4.018   1.755  13.990 -0.3715  2.1426 -1.4561
 9406SOL    HW239678   4.159   1.758  14.000  0.6669 -0.2238 -0.2994
 9407SOL     OW39679   4.382   3.541   4.794 -0.4498 -0.4998 -0.0164
 9407SOL    HW139680   4.384   3.446   4.810 -1.3072 -0.9177 -2.4458
 9407SOL    HW239681   4.307   3.579   4.839  0.0512 -0.8877  1.1559
 9408SOL     OW39682   4.221   4.591   4.164 -0.1384 -0.0180 -0.7704
 9408SOL    HW139683   4.301   4.538   4.169 -1.4948 -2.0523 -0.7332
 9408SOL    HW239684   4.154   4.523   4.166 -1.5132  1.3349 -0.6950
 9409SOL     OW39685   0.044   1.160  16.496  0.0731  0.2444  0.0018
 9409SOL    HW139686   4.676   1.188  16.485  0.5242  1.4577 -0.6282
 9409SOL    HW239687   0.056   1.101  16.422  0.1364  0.2344  0.0199
 9410SOL     OW39688   1.714   0.552   2.937  0.1732  0.4923  0.0733
 9410SOL    HW139689   1.677   0.580   3.021 -1.5193 -0.7420 -0.2567
 9410SOL    HW239690   1.792   0.508   2.971 -0.7732 -1.6725 -0.5099
 9411SOL     OW39691   3.910   2.059   5.835 -0.0172  0.5599  0.5052
 9411SOL    HW139692   3.962   2.139   5.832 -0.5962  0.9822  1.8509
 9411SOL    HW239693   3.970   1.989   5.808 -0.1084  0.4620  0.5541
 9412SOL     OW39694   2.678   2.564   6.358 -0.4275  0.1980 -0.0712
 9412SOL    HW139695   2.703   2.487   6.409  1.7452  1.8240  1.3337
 9412SOL    HW239696   2.608   2.530   6.303 -1.0596  3.1089 -1.0781
 9413SOL     OW39697   3.205   3.989   8.233 -0.1739  0.0134 -0.0326
 9413SOL    HW139698   3.295   3.969   8.206 -0.2723  1.6111 -1.5804
 9413SOL    HW239699   3.174   3.911   8.279 -0.9089  0.7677  0.7486
 9414SOL     OW39700   1.651   1.610   2.189  0.1141 -0.3217  0.0938
 9414SOL    HW139701   1.586   1.620   2.119 -0.3083 -0.9129  0.4059
 9414SOL    HW239702   1.724   1.659   2.149  2.0472 -1.3470  2.3497
 9415SOL     OW39703   3.679   1.404  10.386 -0.0457  0.9042 -0.1673
 9415SOL    HW139704   3.771   1.377  10.392 -1.2305 -2.6876  1.5424
 9415SOL    HW239705   3.656   1.342  10.318 -1.3210  1.2578 -0.0577
 9416SOL     OW39706   0.428   3.170   3.169 -0.2633 -0.3009  0.0619
 9416SOL    HW139707   0.419   3.170   3.264 -0.6398  2.3821  0.0528
 9416SOL    HW239708   0.475   3.254   3.163 -1.1684 -0.0734 -3.7017
 9417SOL     OW39709   0.459   3.900   5.523 -0.0414  0.3324  0.0774
 9417SOL    HW139710   0.530   3.874   5.581 -1.3142 -2.0293  0.5652
 9417SOL    HW239711   0.488   3.988   5.500  1.2017 -0.7392 -2.4442
 9418SOL     OW39712   0.554   3.655   4.797 -0.0286  0.8764  0.2986
 9418SOL    HW139713   0.581   3.570   4.762  2.1916  1.2871  1.0365
 9418SOL    HW239714   0.619   3.714   4.759 -0.5219  1.1836 -0.0636
 9419SOL     OW39715   1.958   2.138  12.202 -0.4393 -0.2898 -0.1483
 9419SOL    HW139716   1.974   2.107  12.291 -0.2776 -1.4948 -0.5972
 9419SOL    HW239717   2.036   2.192  12.187 -0.9189  0.8165  1.3066
 9420SOL     OW39718   1.636   1.738  13.794 -1.0394 -0.0622  0.5020
 9420SOL    HW139719   1.632   1.723  13.700  0.1134 -0.5866  0.5274
 9420SOL    HW239720   1.550   1.710  13.824 -2.1259  1.6288 -1.1278
 9421SOL     OW39721   3.057   2.607   3.338 -0.2575  0.6032 -0.1089
 9421SOL    HW139722   3.038   2.558   3.258 -0.6644  2.1597 -0.9617
 9421SOL    HW239723   2.975   2.644   3.368 -0.1730  0.5978  0.1295
 9422SOL     OW39724   3.763   4.588   8.147 -0.1908  0.0229  1.0837
 9422SOL    HW139725   3.820   4.511   8.152  0.5185  0.5037  0.3429
 9422SOL    HW239726   3.791   4.638   8.070  0.1067  1.4569  2.1329
 9423SOL     OW39727   4.557   2.690   8.341  0.2769 -0.3555  0.0974
 9423SOL    HW139728   4.621   2.756   8.367  0.2617 -0.0914 -0.5340
 9423SOL    HW239729   4.620   2.641   8.288 -1.5879 -0.7746 -1.7224
 9424SOL     OW39730   4.514   4.185   0.431  0.3917 -0.4157  0.1174
 9424SOL    HW139731   4.470   4.116   0.382 -0.6063  0.5739 -0.3958
 9424SOL    HW239732   4.441   4.199   0.492 -1.2898 -2.3072 -1.4665
 9425SOL     OW39733   1.584   3.897  13.095  0.1774 -0.2842 -0.0760
 9425SOL    HW139734   1.558   3.818  13.143 -0.7084 -0.2499 -0.5084
 9425SOL    HW239735   1.513   3.956  13.119 -0.2732 -1.1114  0.6327
 9426SOL     OW39736   2.140   2.759   8.460 -0.2633 -0.4778  0.3239
 9426SOL    HW139737   2.162   2.671   8.488  0.4767 -0.7670 -1.1603
 9426SOL    HW239738   2.113   2.752   8.368  0.1364  1.7233  0.0257
 9427SOL     OW39739   0.384   2.433  16.283 -0.0583 -0.3010  0.5378
 9427SOL    HW139740   0.446   2.378  16.234  0.7966  0.3787  0.8579
 9427SOL    HW239741   0.423   2.428  16.371  0.0809  2.2203  0.6179
 9428SOL     OW39742   0.561   3.131  14.318  0.2061 -0.0292  0.1135
 9428SOL    HW139743   0.509   3.090  14.248  2.0236 -2.0079 -0.0571
 9428SOL    HW239744   0.570   3.064  14.385 -1.2677  0.2787  0.6130
 9429SOL     OW39745   2.597   2.028   3.847 -0.3082  0.1808  0.1211
 9429SOL    HW139746   2.520   2.085   3.843 -0.4792  0.0718  2.3317
 9429SOL    HW239747   2.625   2.042   3.937 -1.6873 -0.6173  0.6815
 9430SOL     OW39748   2.595   0.983   5.693 -0.1003 -0.4551 -0.1753
 9430SOL    HW139749   2.647   0.926   5.635  2.6445 -0.1554  1.9845
 9430SOL    HW239750   2.667   1.045   5.704 -0.7488  0.2580  0.0219
 9431SOL     OW39751   3.594   1.153  11.450 -0.7739 -0.0504  0.1256
 9431SOL    HW139752   3.527   1.084  11.450 -1.2297  0.3969 -0.4975
 9431SOL    HW239753   3.659   1.111  11.506  1.3105  1.2483 -1.3297
 9432SOL     OW39754   4.201   4.448   4.927  0.1441  0.1287 -0.1309
 9432SOL    HW139755   4.134   4.402   4.876 -1.2181 -1.3108  2.9814
 9432SOL    HW239756   4.269   4.380   4.932  0.2713  0.3052  0.5207
 9433SOL     OW39757   0.866   2.713   0.385 -0.4729 -0.4020  0.3239
 9433SOL    HW139758   0.829   2.771   0.452 -1.5947 -1.3870  0.5601
 9433SOL    HW239759   0.883   2.635   0.437 -0.2074 -0.6095 -0.0730
 9434SOL     OW39760   2.975   4.304   2.799 -0.6539 -0.4997  0.0463
 9434SOL    HW139761   2.929   4.228   2.834 -2.7401  1.6515  1.9576
 9434SOL    HW239762   2.977   4.290   2.704 -1.2676 -1.5955  0.1904
 9435SOL     OW39763   3.293   3.733  17.035 -0.3212  0.8273 -0.3023
 9435SOL    HW139764   3.204   3.727  16.999 -0.5645 -1.7631  0.7215
 9435SOL    HW239765   3.290   3.654  17.088  1.6853 -0.1589 -1.6879
 9436SOL     OW39766   4.343   4.317  13.572 -0.0609 -0.0896 -0.4303
 9436SOL    HW139767   4.432   4.350  13.564  0.7903 -2.2206  0.2710
 9436SOL    HW239768   4.298   4.397  13.599  1.9194  0.2157  1.9866
 9437SOL     OW39769   1.741   3.211   7.733 -0.2768  0.5092 -0.0389
 9437SOL    HW139770   1.747   3.122   7.699 -1.2899 -0.2617  1.8006
 9437SOL    HW239771   1.732   3.197   7.827  0.0479 -1.2924 -0.2792
 9438SOL     OW39772   2.478   0.328  17.512  0.3975  0.0885 -0.3879
 9438SOL    HW139773   2.474   0.260  17.580 -1.1858 -0.3507 -0.9183
 9438SOL    HW239774   2.563   0.369  17.527 -0.2610  1.0695  0.6669
 9439SOL     OW39775   0.970   0.996   5.790  0.6888  0.0250  0.2862
 9439SOL    HW139776   0.996   0.923   5.846  2.5021  0.6475  0.2419
 9439SOL    HW239777   0.903   0.951   5.737 -0.0779  1.4784  0.0022
 9440SOL     OW39778   1.404   1.023   1.243 -0.4342 -0.7181 -0.2435
 9440SOL    HW139779   1.394   0.936   1.282 -1.3516  0.2735  1.7002
 9440SOL    HW239780   1.456   1.067   1.310 -1.2290 -0.3328  0.1221
 9441SOL     OW39781   4.634   4.124  11.137  0.1436 -0.1815  0.1364
 9441SOL    HW139782   4.565   4.157  11.080  0.8248  0.1223 -0.4981
 9441SOL    HW239783   4.692   4.068  11.085 -1.9021 -1.7031 -0.5151
 9442SOL     OW39784   3.466   3.765   8.483 -0.3734  0.4791  0.1641
 9442SOL    HW139785   3.441   3.777   8.575  0.5074 -0.5956  0.5454
 9442SOL    HW239786   3.546   3.714   8.494 -0.5245  0.4685  1.2816
 9443SOL     OW39787   1.814   0.881  14.375 -0.2748 -0.0649  0.1530
 9443SOL    HW139788   1.904   0.883  14.406 -0.6267  1.3115  1.1090
 9443SOL    HW239789   1.825   0.872  14.281 -1.2549 -0.1941  0.0432
 9444SOL     OW39790   2.490   2.363   7.410 -0.4102  0.2550 -0.2375
 9444SOL    HW139791   2.462   2.445   7.450  1.2610  0.7016  0.0040
 9444SOL    HW239792   2.413   2.312   7.435 -0.0048 -0.5097 -0.5456
 9445SOL     OW39793   3.282   2.252   9.689  0.6452  0.1959  0.1774
 9445SOL    HW139794   3.323   2.177   9.732  2.4667  0.6692 -0.7511
 9445SOL    HW239795   3.249   2.214   9.608 -1.1164 -2.3587  2.0645
 9446SOL     OW39796   1.824   0.893   9.846  0.4553 -0.2563  0.4515
 9446SOL    HW139797   1.734   0.869   9.820 -0.8653  0.9342  3.9548
 9446SOL    HW239798   1.824   0.855   9.934  2.4401  1.9006  1.3453
 9447SOL     OW39799   1.956   1.448   7.076  0.3814 -0.0524 -0.0824
 9447SOL    HW139800   1.970   1.363   7.116 -1.3018 -0.3762 -0.1919
 9447SOL    HW239801   1.922   1.419   6.991 -0.4127 -0.3828  0.3440
 9448SOL     OW39802   2.989   1.370   8.803 -0.3212 -0.2116  0.4449
 9448SOL    HW139803   2.909   1.318   8.800  1.4960 -3.0330  1.1609
 9448SOL    HW239804   2.964   1.445   8.857  0.6989  1.0266 -0.7817
 9449SOL     OW39805   1.926   3.656  12.445 -0.0273 -0.2501  0.2784
 9449SOL    HW139806   1.916   3.726  12.380 -0.0430 -2.7305 -2.3862
 9449SOL    HW239807   1.913   3.709  12.523  0.7159 -1.0953  0.9773
 9450SOL     OW39808   2.010   3.973   8.783  0.5420 -0.1617  0.0135
 9450SOL    HW139809   1.981   3.897   8.833  1.8054  0.3096  1.4789
 9450SOL    HW239810   2.019   4.025   8.863  1.3385 -0.5174  0.1519
 9451SOL     OW39811   0.126   0.289  17.522 -0.7011 -0.3380 -0.5495
 9451SOL    HW139812   0.161   0.348  17.589 -1.8112  3.1750 -3.0542
 9451SOL    HW239813   0.191   0.309  17.455 -1.4301 -0.2177 -1.2204
 9452SOL     OW39814   1.483   1.662   0.066 -0.2953 -0.6262  0.6013
 9452SOL    HW139815   1.461   1.739   0.120 -1.5376  0.1419 -0.9949
 9452SOL    HW239816   1.399   1.663   0.020 -0.5642 -1.5377  1.0880
 9453SOL     OW39817   1.684   2.843   7.468 -0.6035  0.1979 -0.1180
 9453SOL    HW139818   1.767   2.823   7.425 -1.2347  0.1698 -1.3240
 9453SOL    HW239819   1.621   2.778   7.436 -1.0433  0.6536 -0.1967
 9454SOL     OW39820   4.223   1.505  15.449 -0.0735 -0.2243 -0.0325
 9454SOL    HW139821   4.280   1.445  15.401 -0.9310 -1.1267  0.1017
 9454SOL    HW239822   4.163   1.441  15.487  0.0573 -1.2803 -1.6357
 9455SOL     OW39823   2.020   2.951   5.960  0.0058 -0.7065  0.6088
 9455SOL    HW139824   2.067   3.034   5.952  0.9748 -1.1822  1.2775
 9455SOL    HW239825   1.990   2.952   6.051  2.4260 -2.4922  1.4408
 9456SOL     OW39826   3.218   1.608  10.908 -0.3489 -0.5801 -0.6490
 9456SOL    HW139827   3.122   1.608  10.910 -0.3092  0.4379  0.6651
 9456SOL    HW239828   3.226   1.673  10.837  0.4407 -0.7620 -0.7327
 9457SOL     OW39829   1.754   2.591   0.904  0.6509  0.3657 -0.2235
 9457SOL    HW139830   1.845   2.565   0.890  0.3625 -0.4237 -0.6102
 9457SOL    HW239831   1.765   2.612   0.996 -1.6749  1.9512 -0.3257
 9458SOL     OW39832   1.129   1.605  10.883  0.3504  0.4297  0.1123
 9458SOL    HW139833   1.061   1.544  10.912  0.6264 -0.0764 -0.3031
 9458SOL    HW239834   1.160   1.546  10.814  0.4425  1.4881 -0.7578
 9459SOL     OW39835   0.979   1.043   7.222  0.4290 -0.2502 -0.6557
 9459SOL    HW139836   0.901   0.995   7.249 -0.0926  0.0682 -1.6007
 9459SOL    HW239837   0.948   1.133   7.235  1.9668  0.2115 -0.1586
 9460SOL     OW39838   0.463   4.266   7.388  0.1200  0.5096  0.1279
 9460SOL    HW139839   0.381   4.315   7.391  0.0273  0.3499  0.1786
 9460SOL    HW239840   0.435   4.220   7.310  0.7643  0.5414 -0.1222
 9461SOL     OW39841   2.946   3.287   0.299 -0.8481 -0.0441 -0.2612
 9461SOL    HW139842   3.038   3.303   0.278 -0.7566 -1.4528 -0.9359
 9461SOL    HW239843   2.900   3.324   0.223  2.2847 -1.3304 -2.8245
 9462SOL     OW39844   1.871   3.840   5.921  0.0352  0.6320  0.1344
 9462SOL    HW139845   1.833   3.757   5.948 -1.0759  0.9031 -0.5824
 9462SOL    HW239846   1.853   3.888   6.002 -0.9142 -1.4135  1.1312
 9463SOL     OW39847   2.115   3.142   4.281  0.1400  0.4992  0.5204
 9463SOL    HW139848   2.090   3.160   4.190  0.3135  2.3751  0.8408
 9463SOL    HW239849   2.030   3.123   4.320  0.7894  1.1747  2.2722
 9464SOL     OW39850   2.977   1.307  11.277  0.5259  0.8030 -0.5339
 9464SOL    HW139851   2.907   1.370  11.297 -0.1980 -0.3005  0.4922
 9464SOL    HW239852   2.964   1.243  11.347  0.4133  2.2028  0.7324
 9465SOL     OW39853   0.821   2.763   4.988  0.4775 -0.8214  0.5064
 9465SOL    HW139854   0.791   2.687   5.037 -1.7947  0.7956  1.6313
 9465SOL    HW239855   0.842   2.821   5.061 -3.1535  1.4078 -0.1835
 9466SOL     OW39856   3.067   4.556  15.242 -0.5451 -0.1904 -0.1030
 9466SOL    HW139857   3.097   4.471  15.273  1.8143  0.8596  0.5090
 9466SOL    HW239858   3.127   4.585  15.173 -0.1504 -0.1597  0.2511
 9467SOL     OW39859   3.361   3.364   7.093  0.3407  0.8842 -0.0948
 9467SOL    HW139860   3.411   3.360   7.011  1.3997  1.5393  0.5195
 9467SOL    HW239861   3.290   3.418   7.058  1.2303  0.8623 -1.9461
 9468SOL     OW39862   3.207   0.907   8.319  0.2458  0.1947  0.2284
 9468SOL    HW139863   3.301   0.919   8.333  0.0849  0.3262  1.1627
 9468SOL    HW239864   3.184   0.998   8.298  0.6115 -0.4075 -2.7820
 9469SOL     OW39865   2.886   2.886   6.355 -0.4586  0.2068 -0.0002
 9469SOL    HW139866   2.810   2.879   6.413 -0.0140  1.1678  0.6964
 9469SOL    HW239867   2.882   2.812   6.296  1.1666  1.9799 -2.3563
 9470SOL     OW39868   2.329   1.094  17.095 -0.1330 -0.3039 -0.3623
 9470SOL    HW139869   2.420   1.119  17.110 -0.6704  0.8947  0.8030
 9470SOL    HW239870   2.309   1.132  17.010 -0.6853  1.5849  0.6302
 9471SOL     OW39871   2.798   2.758   1.003  0.0818  0.8962 -0.3568
 9471SOL    HW139872   2.775   2.667   0.986 -1.3769  0.9431  1.3501
 9471SOL    HW239873   2.886   2.741   1.037  0.4195 -1.2428 -2.2757
 9472SOL     OW39874   4.439   1.417   5.328  0.2799  0.1533  0.2007
 9472SOL    HW139875   4.475   1.490   5.276 -0.8938  1.5002  1.2925
 9472SOL    HW239876   4.378   1.468   5.381  2.7678  2.0156  1.2893
 9473SOL     OW39877   3.547   3.045   6.339  0.5453 -0.2289  0.4348
 9473SOL    HW139878   3.546   3.066   6.432  0.9168 -2.1232  0.8511
 9473SOL    HW239879   3.613   2.976   6.339  0.8257  0.0317 -1.5865
 9474SOL     OW39880   2.326   4.445   6.991  0.1152  0.4695 -0.3218
 9474SOL    HW139881   2.387   4.410   7.056  1.0768  0.9640 -0.9512
 9474SOL    HW239882   2.258   4.487   7.044 -0.7529 -0.5703 -0.6217
 9475SOL     OW39883   2.840   3.558   8.160  0.1113 -0.1118  0.3962
 9475SOL    HW139884   2.762   3.530   8.113 -1.3287  3.3105  0.7893
 9475SOL    HW239885   2.798   3.602   8.233  0.7619  0.9688  0.1184
 9476SOL     OW39886   3.471   3.867   8.249  0.0633  0.5381  0.6582
 9476SOL    HW139887   3.464   3.831   8.337  2.0271 -1.8661 -0.1401
 9476SOL    HW239888   3.515   3.791   8.210 -1.9748  0.3801 -1.3783
 9477SOL     OW39889   1.417   2.770   1.705  0.3102  0.0044  0.4306
 9477SOL    HW139890   1.485   2.835   1.694  1.6451 -1.4007  0.3733
 9477SOL    HW239891   1.340   2.814   1.742 -0.3450 -0.0381 -0.8991
 9478SOL     OW39892   0.853   2.606   7.076  0.2336 -0.2637 -0.3110
 9478SOL    HW139893   0.781   2.559   7.118 -0.8396  1.6013 -0.0805
 9478SOL    HW239894   0.899   2.645   7.150  0.6364  0.6664 -1.0550
 9479SOL     OW39895   3.254   3.244  16.829  0.3743  0.3248 -0.1361
 9479SOL    HW139896   3.290   3.243  16.741 -0.8547  0.1504 -0.6436
 9479SOL    HW239897   3.328   3.249  16.890 -0.4094 -1.5071  0.9726
 9480SOL     OW39898   2.532   0.097   9.268 -0.5058 -0.6107 -0.4159
 9480SOL    HW139899   2.598   0.152   9.227 -0.1813 -2.3040 -2.1847
 9480SOL    HW239900   2.475   0.167   9.299  1.7990  0.9201  0.3054
 9481SOL     OW39901   0.115   2.121   5.808 -0.1843 -0.1903 -0.2663
 9481SOL    HW139902   0.135   2.190   5.745 -0.9410  0.9130  0.7042
 9481SOL    HW239903   0.169   2.051   5.771  0.1311 -0.1758  0.1597
 9482SOL     OW39904   4.243   3.352   1.368  0.1716 -0.2642  0.7473
 9482SOL    HW139905   4.269   3.402   1.291 -2.9935  0.0125 -0.1444
 9482SOL    HW239906   4.299   3.275   1.360  0.0231 -0.2881 -0.0647
 9483SOL     OW39907   1.989   2.814  12.643 -0.2579 -0.4182 -0.2949
 9483SOL    HW139908   2.072   2.862  12.642  0.1113 -1.0354  0.8809
 9483SOL    HW239909   1.937   2.871  12.699  0.3414  0.1006 -0.2642
 9484SOL     OW39910   0.534   0.968   0.060 -0.8162 -0.1946 -0.1433
 9484SOL    HW139911   0.565   1.026   0.130  0.0723  0.3904 -1.0238
 9484SOL    HW239912   0.456   1.014   0.029 -1.0139 -0.5095 -0.1159
 9485SOL     OW39913   0.410   0.880  16.315  0.6457 -0.2181  0.1325
 9485SOL    HW139914   0.398   0.975  16.309  2.5259  0.0698  0.8249
 9485SOL    HW239915   0.422   0.873  16.410  1.2788  1.5170  0.1766
 9486SOL     OW39916   0.895   0.818   4.810 -0.0300 -0.1732 -0.1583
 9486SOL    HW139917   0.861   0.817   4.721 -0.7124 -3.4747  0.1419
 9486SOL    HW239918   0.838   0.892   4.833 -0.4654 -0.3484 -0.6765
 9487SOL     OW39919   2.160   2.712   2.873  0.2489  0.1197 -0.5774
 9487SOL    HW139920   2.157   2.616   2.869  3.0425 -0.0038  0.4788
 9487SOL    HW239921   2.163   2.726   2.778  0.1511 -1.8354 -0.8690
 9488SOL     OW39922   2.829   4.445   8.606  0.5393  0.4495 -0.1895
 9488SOL    HW139923   2.910   4.434   8.657  0.6229 -1.4081 -0.7419
 9488SOL    HW239924   2.769   4.394   8.661 -0.7291  0.4558 -1.5687
 9489SOL     OW39925   2.063   0.672   1.322 -0.6961  0.1585 -0.3355
 9489SOL    HW139926   2.115   0.650   1.244 -0.2302 -0.2616  0.0989
 9489SOL    HW239927   2.126   0.697   1.390 -0.7474  1.4878 -0.7832
 9490SOL     OW39928   0.884   2.183  15.029  0.6954 -0.1416  0.2864
 9490SOL    HW139929   0.934   2.188  15.110  0.6451 -0.6306  0.3507
 9490SOL    HW239930   0.852   2.273  15.018  2.0877  0.5331  1.8430
 9491SOL     OW39931   0.219   3.341   2.802  0.5708 -0.1040 -0.9300
 9491SOL    HW139932   0.264   3.410   2.851 -0.9833  0.8529 -0.8574
 9491SOL    HW239933   0.217   3.267   2.863 -3.1256  1.7297  1.1590
 9492SOL     OW39934   3.680   2.181   3.248 -0.1874  0.4204 -0.0243
 9492SOL    HW139935   3.685   2.252   3.183 -1.7056 -0.1078 -0.7009
 9492SOL    HW239936   3.666   2.239   3.323 -2.2243  0.4578 -0.4380
 9493SOL     OW39937   4.674   0.073   1.932 -0.4920  0.5389 -0.0854
 9493SOL    HW139938   4.587   0.067   1.971  0.0351 -1.0136  0.8647
 9493SOL    HW239939   4.659   0.107   1.844  2.3435 -0.1736 -0.8574
 9494SOL     OW39940   4.247   2.835   9.350  0.5842 -0.3170  0.4748
 9494SOL    HW139941   4.307   2.765   9.376 -0.6866 -0.8480  1.9808
 9494SOL    HW239942   4.274   2.843   9.258 -0.3982 -0.4494  0.1716
 9495SOL     OW39943   0.911   1.878   4.141  0.6905 -0.2574 -0.1750
 9495SOL    HW139944   0.891   1.813   4.073 -2.1560 -0.7531  1.1580
 9495SOL    HW239945   0.917   1.822   4.218 -3.4210 -2.5463 -1.4982
 9496SOL     OW39946   0.899   0.560   5.891  0.2096 -0.1492  0.1604
 9496SOL    HW139947   0.848   0.490   5.851  0.2468  0.1463 -0.4030
 9496SOL    HW239948   0.843   0.635   5.868  1.5855 -0.1194 -3.0867
 9497SOL     OW39949   3.828   0.596   1.784 -0.2117 -0.5804 -0.2010
 9497SOL    HW139950   3.816   0.584   1.690  1.9969 -0.7178 -0.4551
 9497SOL    HW239951   3.736   0.584   1.809 -0.8325  1.8663 -1.3191
 9498SOL     OW39952   0.652   3.579   7.490  0.1713 -0.6843  0.0836
 9498SOL    HW139953   0.718   3.584   7.560  0.2197 -0.8974  0.0534
 9498SOL    HW239954   0.631   3.486   7.491 -2.9344  0.0301  0.5861
 9499SOL     OW39955   3.842   4.542   6.112  0.6932 -0.0158 -0.4498
 9499SOL    HW139956   3.919   4.521   6.165  1.3751  1.6717 -0.7875
 9499SOL    HW239957   3.807   4.612   6.167  0.7849 -0.1654 -0.2056
 9500SOL     OW39958   3.559   4.090   6.951 -0.1495  0.3818  0.1294
 9500SOL    HW139959   3.537   4.183   6.948 -1.1147  0.1493  0.2163
 9500SOL    HW239960   3.477   4.054   6.917 -0.3326  1.7373 -0.8657
 9501SOL     OW39961   0.341   2.383  11.932  0.4822 -0.2698  0.1938
 9501SOL    HW139962   0.273   2.370  11.866 -0.5215  1.6219  0.8276
 9501SOL    HW239963   0.349   2.296  11.969  3.3883  0.1782  0.6029
 9502SOL     OW39964   0.180   3.368  17.542 -0.7647  0.1944 -0.5005
 9502SOL    HW139965   0.260   3.419  17.557 -0.9590 -0.2727  2.0469
 9502SOL    HW239966   0.205   3.278  17.564  2.4783  1.1657 -0.2310
 9503SOL     OW39967   0.833   4.534   3.097  0.0345 -0.3581  0.1497
 9503SOL    HW139968   0.886   4.514   3.020 -1.8688 -0.0043 -1.2441
 9503SOL    HW239969   0.776   4.602   3.060 -0.7275 -0.2914  1.4524
 9504SOL     OW39970   2.002   0.291   2.352  0.0729  0.5669  0.0197
 9504SOL    HW139971   2.096   0.284   2.371  0.1376  0.1801 -0.4313
 9504SOL    HW239972   2.007   0.295   2.256  0.7832 -0.4548  0.0107
 9505SOL     OW39973   4.405   4.229   6.804  0.7613  0.4138  0.1616
 9505SOL    HW139974   4.349   4.190   6.737  0.8271 -1.2387  1.0702
 9505SOL    HW239975   4.483   4.261   6.758  1.1906 -2.4235 -1.1241
 9506SOL     OW39976   1.369   4.642   6.675  0.1342  0.4825  0.0942
 9506SOL    HW139977   1.376   4.686   6.759  2.1938 -0.2223  0.3033
 9506SOL    HW239978   1.430   4.692   6.621 -0.3338  2.8033  1.7634
 9507SOL     OW39979   0.467   0.613   5.768  0.8040 -0.0713 -0.1389
 9507SOL    HW139980   0.460   0.690   5.710  0.7741  0.7960  1.0131
 9507SOL    HW239981   0.452   0.659   5.851 -0.4650  0.4284 -0.6380
 9508SOL     OW39982   3.212   2.755  14.466 -0.1144 -0.1005  0.0214
 9508SOL    HW139983   3.298   2.713  14.456 -1.9495 -3.7563 -0.5333
 9508SOL    HW239984   3.169   2.741  14.381  0.5504  1.3980 -0.5554
 9509SOL     OW39985   2.497   3.560   8.520  0.2804 -0.2020  0.5427
 9509SOL    HW139986   2.511   3.510   8.439  1.2008  0.7991  0.0950
 9509SOL    HW239987   2.403   3.577   8.515 -0.3968 -3.8301  0.5522
 9510SOL     OW39988   4.670   3.604   3.792  0.4154  0.4052 -0.5185
 9510SOL    HW139989   4.704   3.596   3.703  0.9092 -0.0804 -0.2830
 9510SOL    HW239990   4.706   3.689   3.820 -0.9551  0.4516  1.1120
 9511SOL     OW39991   2.698   3.071   5.058  0.0614 -0.0107 -0.3940
 9511SOL    HW139992   2.716   2.990   5.011  0.4615  0.6274 -1.3624
 9511SOL    HW239993   2.695   3.035   5.146 -1.1697 -0.8537 -0.7748
 9512SOL     OW39994   1.877   3.377   8.674  0.7472  0.3006 -0.0554
 9512SOL    HW139995   1.782   3.366   8.671  0.6140  1.5286 -0.3084
 9512SOL    HW239996   1.909   3.287   8.670 -0.4525 -0.2744  3.6107
 9513SOL     OW39997   4.491   1.581   3.209  0.1647  0.3351  0.0986
 9513SOL    HW139998   4.538   1.630   3.276 -1.2069 -0.9941  2.0451
 9513SOL    HW239999   4.552   1.592   3.136 -0.7501 -0.7756 -0.8453
 9514SOL     OW40000   2.268   1.132   8.839  0.1552 -0.2950  0.2901
 9514SOL    HW140001   2.270   1.196   8.910 -1.9620  1.5406 -1.2773
 9514SOL    HW240002   2.221   1.066   8.890 -0.4479 -1.2684 -1.5036
 9515SOL     OW40003   2.721   2.534   3.211 -0.9406 -0.3685 -0.1238
 9515SOL    HW140004   2.759   2.614   3.176  0.2196 -2.2171 -3.0773
 9515SOL    HW240005   2.765   2.472   3.153  0.3449  0.0114  0.4339
 9516SOL     OW40006   3.624   2.584  15.197  0.1242  0.5853  0.1098
 9516SOL    HW140007   3.529   2.586  15.184  0.2471 -0.7547 -0.9898
 9516SOL    HW240008   3.649   2.523  15.127 -0.2423  1.3133 -0.6639
 9517SOL     OW40009   0.592   3.903   6.922  0.1362 -0.0408 -0.5121
 9517SOL    HW140010   0.638   3.820   6.928 -0.3131 -0.3923 -1.8249
 9517SOL    HW240011   0.541   3.889   6.841 -0.6748  1.7473 -0.3272
 9518SOL     OW40012   0.398   0.923   2.277  0.0395  0.1522  0.3541
 9518SOL    HW140013   0.489   0.953   2.281 -0.4444  1.4185  1.9657
 9518SOL    HW240014   0.402   0.864   2.353  0.8618 -0.5946 -0.2799
 9519SOL     OW40015   1.057   1.692   2.842 -0.6522  0.4715  0.3756
 9519SOL    HW140016   1.062   1.779   2.883  1.2889  0.8697 -0.7447
 9519SOL    HW240017   1.059   1.711   2.749  1.4853 -1.2676  0.0831
 9520SOL     OW40018   1.333   0.676   5.306 -0.1143 -0.5604  0.0539
 9520SOL    HW140019   1.406   0.676   5.369  0.4468  2.0734 -0.6133
 9520SOL    HW240020   1.330   0.580   5.303 -4.3598 -0.4711  1.6810
 9521SOL     OW40021   1.594   2.374   8.036  0.1495 -0.1676  0.3859
 9521SOL    HW140022   1.602   2.285   8.001 -0.4495  0.0764 -0.3668
 9521SOL    HW240023   1.578   2.424   7.956  0.1876 -0.5246  0.1538
 9522SOL     OW40024   4.465   2.751   3.462  0.0929  0.3041  0.2009
 9522SOL    HW140025   4.504   2.699   3.532  0.0670  0.4244  0.3056
 9522SOL    HW240026   4.510   2.722   3.383  0.3114  1.8292 -0.2510
 9523SOL     OW40027   2.234   4.210   2.491 -0.7690 -0.3328  0.1135
 9523SOL    HW140028   2.148   4.222   2.453 -1.1394  0.3631  1.1571
 9523SOL    HW240029   2.222   4.246   2.579  0.2404  2.4014 -0.8773
 9524SOL     OW40030   2.259   3.425   4.210  0.5566  0.2592 -0.4066
 9524SOL    HW140031   2.351   3.447   4.194  0.0631  1.7320 -1.3184
 9524SOL    HW240032   2.237   3.365   4.139  2.0267  0.2389 -0.8366
 9525SOL     OW40033   0.951   2.794  13.868  0.0948 -0.3702 -0.2979
 9525SOL    HW140034   0.904   2.746  13.800 -0.2332  0.0741 -0.3825
 9525SOL    HW240035   0.888   2.785  13.940  1.0273 -1.3424  0.4034
 9526SOL     OW40036   3.299   2.652   2.858  0.0131  0.1440 -0.0913
 9526SOL    HW140037   3.256   2.728   2.820 -0.8318  0.1922  0.9636
 9526SOL    HW240038   3.391   2.674   2.870 -0.4455  2.9585 -1.6124
 9527SOL     OW40039   1.997   2.208   4.506 -0.3553 -0.1635 -0.7849
 9527SOL    HW140040   1.943   2.148   4.558 -0.3744  1.2557  0.8371
 9527SOL    HW240041   1.948   2.290   4.515 -1.2847 -0.9223  0.9925
 9528SOL     OW40042   3.016   3.574  10.785  0.1361  0.0198  0.1277
 9528SOL    HW140043   3.041   3.489  10.821  0.6334  0.1363  0.0520
 9528SOL    HW240044   2.966   3.542  10.709  0.7533 -0.5847 -0.0175
 9529SOL     OW40045   1.358   3.844   8.027 -0.1096 -0.0048 -0.2526
 9529SOL    HW140046   1.294   3.913   8.045  0.4978  0.8900 -1.5764
 9529SOL    HW240047   1.382   3.851   7.935  1.2873 -1.8259 -0.0204
 9530SOL     OW40048   2.159   1.784   2.465  0.2789 -0.0889  0.1621
 9530SOL    HW140049   2.243   1.790   2.421  0.3391  0.7890  0.3990
 9530SOL    HW240050   2.131   1.694   2.448  1.6179 -1.1056  3.2187
 9531SOL     OW40051   4.552   3.995   7.806 -0.3981 -0.4291  0.0217
 9531SOL    HW140052   4.615   3.936   7.764  1.6705  1.2615  0.7521
 9531SOL    HW240053   4.552   3.969   7.898 -1.8496  1.9015  0.6803
 9532SOL     OW40054   1.136   3.700   1.869  0.2870  0.2349  0.4846
 9532SOL    HW140055   1.070   3.634   1.889  0.0792  0.8334  1.7649
 9532SOL    HW240056   1.206   3.642   1.840  1.6140  1.5312  1.0981
 9533SOL     OW40057   2.076   2.325   3.779  0.1080 -0.9922  0.3269
 9533SOL    HW140058   2.121   2.326   3.864  2.0797 -0.7579 -0.7359
 9533SOL    HW240059   2.042   2.415   3.780 -1.4509 -1.5756  0.4885
 9534SOL     OW40060   2.272   0.264  11.686 -0.6033 -0.0707 -0.1548
 9534SOL    HW140061   2.300   0.347  11.647 -1.6289  0.0225 -0.6865
 9534SOL    HW240062   2.292   0.271  11.779  1.1589 -0.2794 -0.5292
 9535SOL     OW40063   4.221   4.339   3.575 -0.2803  0.4026 -0.3226
 9535SOL    HW140064   4.312   4.328   3.549 -0.2508  1.0397 -0.4896
 9535SOL    HW240065   4.230   4.385   3.659 -2.5962  1.2830 -0.5502
 9536SOL     OW40066   4.576   2.726   7.519  0.7377 -0.0774 -0.3544
 9536SOL    HW140067   4.553   2.818   7.534  1.3340  0.0176 -0.0132
 9536SOL    HW240068   4.642   2.729   7.589  0.0615  1.5734  0.2210
 9537SOL     OW40069   2.260   0.234   8.017 -0.5324  0.0084 -0.0286
 9537SOL    HW140070   2.343   0.282   8.027  1.0788 -2.1628 -2.9473
 9537SOL    HW240071   2.225   0.237   8.106 -0.5151  0.7623 -0.0467
 9538SOL     OW40072   1.589   0.389   9.367  0.5881  0.9523  0.1176
 9538SOL    HW140073   1.618   0.375   9.277  0.1522 -0.9132  0.2609
 9538SOL    HW240074   1.497   0.399   9.343 -0.0943 -2.6295  1.1763
 9539SOL     OW40075   3.063   0.585   4.381 -0.4707  0.1660  0.1130
 9539SOL    HW140076   3.128   0.642   4.339 -1.1871  1.9210  1.4025
 9539SOL    HW240077   2.985   0.601   4.328  0.5543  1.6239 -0.9490
 9540SOL     OW40078   2.267   4.451   4.649 -0.0147 -0.0130 -0.5140
 9540SOL    HW140079   2.271   4.546   4.637 -2.2818  0.3817  1.6343
 9540SOL    HW240080   2.354   4.418   4.669 -0.4790 -1.7771 -1.4489
 9541SOL     OW40081   2.739   0.884   0.270  0.4564  0.0968 -0.3933
 9541SOL    HW140082   2.810   0.941   0.239 -0.4538  1.4311 -0.0264
 9541SOL    HW240083   2.785   0.800   0.262 -2.7817 -1.5064 -1.8693
 9542SOL     OW40084   2.152   2.776   7.110 -0.4692 -0.2953 -0.3238
 9542SOL    HW140085   2.225   2.792   7.049  0.9080 -2.2778  0.7996
 9542SOL    HW240086   2.168   2.683   7.125 -0.2359 -0.4615 -1.5396
 9543SOL     OW40087   4.714   2.600   9.329 -0.1656 -0.4152 -0.1220
 9543SOL    HW140088   0.030   2.655   9.397  0.9199 -1.8847  0.4588
 9543SOL    HW240089   0.015   2.512   9.358 -0.5066 -0.4854 -0.0617
 9544SOL     OW40090   2.827   1.940   4.207 -0.4501 -0.0626 -0.1071
 9544SOL    HW140091   2.905   1.919   4.157  0.8719 -0.4487  2.1298
 9544SOL    HW240092   2.853   1.966   4.296  1.2694 -1.2692 -0.2783
 9545SOL     OW40093   0.303   2.779   7.003 -0.0662  0.2219  0.3067
 9545SOL    HW140094   0.382   2.732   7.031  0.1101  0.1906 -0.2469
 9545SOL    HW240095   0.257   2.734   6.932  1.5231 -0.6787 -0.1449
 9546SOL     OW40096   3.388   3.510   5.736  0.2998 -0.3212 -0.2167
 9546SOL    HW140097   3.475   3.490   5.701  0.1067 -0.1960 -0.7720
 9546SOL    HW240098   3.387   3.484   5.828 -1.1118  0.1629 -0.0945
 9547SOL     OW40099   4.119   3.912   3.072 -0.5711  0.1061  0.3693
 9547SOL    HW140100   4.168   3.957   3.141  0.5071 -0.1570 -0.2280
 9547SOL    HW240101   4.064   3.980   3.034 -0.9737 -0.2289  0.3522
 9548SOL     OW40102   3.385   1.040   8.665  0.7892  0.2800 -0.4119
 9548SOL    HW140103   3.304   1.090   8.655  1.3721  0.7650 -2.6480
 9548SOL    HW240104   3.365   1.007   8.753  1.6139 -1.2048 -0.7803
 9549SOL     OW40105   1.043   4.220   9.808 -0.3133 -0.1354  0.0854
 9549SOL    HW140106   0.991   4.161   9.753 -1.1277  1.5590 -1.0100
 9549SOL    HW240107   1.098   4.158   9.855 -0.5454  0.2566  0.8675
 9550SOL     OW40108   4.272   0.425   5.981  0.5476  0.1097  0.1865
 9550SOL    HW140109   4.238   0.448   6.067 -1.0147  2.5175 -1.1081
 9550SOL    HW240110   4.320   0.507   5.966 -3.0435  2.1072 -0.3282
 9551SOL     OW40111   0.184   2.904  14.121  0.0339 -0.5287  0.0953
 9551SOL    HW140112   0.202   2.815  14.153  0.1451  0.2436  2.2278
 9551SOL    HW240113   0.224   2.975  14.171 -1.3766  1.0780 -1.0556
 9552SOL     OW40114   4.084   2.721  16.060  1.0206  0.0445 -0.2522
 9552SOL    HW140115   4.065   2.648  16.002  0.4281  0.9124 -1.1442
 9552SOL    HW240116   4.084   2.680  16.146 -0.7532  0.9347  0.1624
 9553SOL     OW40117   0.189   0.044  13.221 -0.1251 -0.5464  0.1894
 9553SOL    HW140118   0.209   0.057  13.314  2.7291  0.9668 -0.6434
 9553SOL    HW240119   0.235   0.119  13.184 -1.9068  0.2739 -0.3282
 9554SOL     OW40120   1.014   1.299   8.863 -0.0391  0.0072  0.1348
 9554SOL    HW140121   0.965   1.294   8.946  0.5051 -1.1995  0.3789
 9554SOL    HW240122   0.948   1.335   8.803  0.0186 -1.3469 -0.7176
 9555SOL     OW40123   1.473   2.574  10.154 -0.0888 -0.1120  0.2135
 9555SOL    HW140124   1.472   2.571  10.250  0.7935  1.3393  0.2738
 9555SOL    HW240125   1.449   2.666  10.143  1.1841  0.1542 -0.3350
 9556SOL     OW40126   2.710   1.198   1.115  0.3415  0.4275  0.3647
 9556SOL    HW140127   2.660   1.276   1.091  1.4678  0.4939 -1.7750
 9556SOL    HW240128   2.802   1.225   1.103  0.1139  1.1375  0.1981
 9557SOL     OW40129   0.892   1.376   6.141  0.0700  0.2164 -0.3426
 9557SOL    HW140130   0.982   1.356   6.163 -0.7028  0.1495  2.7518
 9557SOL    HW240131   0.887   1.339   6.053  0.8122  0.9552 -0.6970
 9558SOL     OW40132   3.433   2.230   6.004  0.0942  0.2214 -0.2513
 9558SOL    HW140133   3.363   2.229   5.940 -1.9219  0.3839  1.9472
 9558SOL    HW240134   3.499   2.186   5.951 -0.1783 -0.3412 -0.1295
 9559SOL     OW40135   2.643   3.167   7.865 -0.0462  0.2655  0.2087
 9559SOL    HW140136   2.599   3.197   7.786  1.7966 -1.7308 -1.5856
 9559SOL    HW240137   2.735   3.190   7.852 -0.4715  1.6274 -0.3713
 9560SOL     OW40138   0.714   2.516  16.495  0.1810 -0.3041 -0.7752
 9560SOL    HW140139   0.619   2.504  16.494  0.2104 -0.5235 -0.7824
 9560SOL    HW240140   0.740   2.467  16.573 -0.2093 -0.6524 -0.8665
 9561SOL     OW40141   3.894   0.693   8.695  0.8225  0.0066  0.2336
 9561SOL    HW140142   3.949   0.685   8.617 -2.5242 -0.6774 -2.0638
 9561SOL    HW240143   3.954   0.752   8.741  0.3196  0.4985  0.2651
 9562SOL     OW40144   2.949   0.224   1.786 -0.6281  0.3222  0.3411
 9562SOL    HW140145   2.881   0.165   1.754 -0.8701  0.2805  0.9277
 9562SOL    HW240146   2.949   0.207   1.880  1.9547  0.5278  0.3806
 9563SOL     OW40147   4.416   4.426  15.060 -0.0547  0.1383 -1.0561
 9563SOL    HW140148   4.442   4.334  15.067 -3.2063 -0.7503 -1.0943
 9563SOL    HW240149   4.323   4.405  15.054  0.0425 -0.3499 -0.8351
 9564SOL     OW40150   1.157   0.745  11.734  0.3075  0.0942  0.0855
 9564SOL    HW140151   1.188   0.656  11.717  0.3799  0.2471 -0.5479
 9564SOL    HW240152   1.219   0.776  11.800 -0.0357 -0.7109  0.7861
 9565SOL     OW40153   1.752   0.741   2.125  0.2141 -0.1010  0.6488
 9565SOL    HW140154   1.706   0.770   2.204  0.4235  0.3928  0.5911
 9565SOL    HW240155   1.801   0.820   2.100 -0.9333  0.7263  0.9877
   4.72271   4.72271  17.69283
