Membrane in water
40155
    1TCq1    O1    1   2.571   2.936  11.542  0.2502  0.6203 -0.1357
    1TCq1    C1    2   2.529   2.857  11.439  0.0119 -0.0823  0.0919
    1TCq1    O2    3   2.412   2.855  11.392  0.1544 -0.4429  0.2110
    1TCq1    C2    4   2.625   2.750  11.414  0.0494 -0.2544  0.3552
    1TCq1    C3    5   2.760   2.769  11.406  0.7113 -0.3728  0.1763
    1TCq1    C4    6   2.844   2.660  11.402 -0.0596  0.2156  0.5084
    1TCq1    C5    7   2.785   2.534  11.386  0.0838 -0.7343  0.0666
    1TCq1    C6    8   2.651   2.528  11.352 -0.0169 -0.7853 -0.1366
    1TCq1    C7    9   2.567   2.635  11.375 -0.3983 -0.0134 -0.1758
    1TCq1    C8   10   2.583   2.407  11.370 -0.5811 -0.2398  0.9172
    1TCq1    O4   11   2.483   2.405  11.439 -0.0735  0.0051 -0.2532
    1TCq1    C9   12   2.984   2.681  11.418  0.2800  0.3656  0.8228
    1TCq1    O5   13   3.059   2.587  11.449  0.2856  0.0009 -0.1861
    1TCq1    O6   14   3.026   2.800  11.437 -0.2166 -0.3192 -0.3668
    1TCq1    H1   15   2.649   2.909  11.594 -1.2571  0.3196  1.9535
    1TCq1    H2   16   2.797   2.869  11.424 -1.7714  0.2960  1.6605
    1TCq1    H3   17   2.846   2.446  11.370  0.1779 -0.7527  0.5401
    1TCq1    H4   18   2.459   2.628  11.379 -0.3224 -0.9792  0.2202
    2MPD2     C   19   2.549   1.896  11.338 -0.0394  0.5530  0.2969
    2MPD2    C1   20   2.503   1.989  11.430  0.0169 -0.2605 -0.5401
    2MPD2    C2   21   2.521   2.124  11.409 -0.1131 -0.0785  0.1043
    2MPD2    C3   22   2.602   2.173  11.304 -0.5938 -0.2292  0.0017
    2MPD2    C4   23   2.635   2.078  11.212  0.5986 -0.0636 -0.3820
    2MPD2    C5   24   2.613   1.944  11.226  0.0741  0.3336  0.7001
    2MPD2     H   25   2.475   2.184  11.486 -0.4420 -1.4202  0.9451
    2MPD2    H1   26   2.708   2.107  11.138  0.4159 -3.6535 -1.9785
    2MPD2    H2   27   2.527   1.790  11.341 -0.9720  0.7678  1.0497
    2MPD2    H3   28   2.655   1.878  11.150 -0.5968  0.2286  0.4268
    2MPD2     N   29   2.640   2.311  11.287 -0.2827  0.6372 -0.4873
    2MPD2    H5   30   2.706   2.335  11.214  0.8346 -0.3603  0.1982
    2MPD2    N1   31   2.418   1.960  11.536  0.0466 -0.4731  0.2241
    2MPD2    H7   32   2.375   2.034  11.592  0.0838 -0.5771  0.3918
    3TCq1    O1   33   1.858   2.654  10.452 -0.1443  0.5809  0.3682
    3TCq1    C1   34   1.737   2.710  10.474 -0.2607 -0.0898 -0.2704
    3TCq1    O2   35   1.625   2.661  10.461  0.1601  0.6553 -0.4646
    3TCq1    C2   36   1.756   2.840  10.540 -0.0010 -0.3223 -0.1345
    3TCq1    C3   37   1.865   2.919  10.500  0.1305  0.7870 -0.1214
    3TCq1    C4   38   1.890   3.036  10.570  1.2119  0.5378  0.3799
    3TCq1    C5   39   1.823   3.074  10.681  0.2168  0.4545 -0.2130
    3TCq1    C6   40   1.726   2.993  10.730  0.0312 -0.4949 -0.2217
    3TCq1    C7   41   1.690   2.879  10.658  0.2260 -0.2579  0.2112
    3TCq1    C8   42   1.625   3.036  10.830 -0.1558  0.6326 -0.6906
    3TCq1    O4   43   1.533   2.960  10.854 -0.5376 -0.1783 -0.0980
    3TCq1    C9   44   1.992   3.118  10.510  0.3203  0.2212 -0.4884
    3TCq1    O5   45   2.022   3.230  10.566 -0.0918 -0.4539 -0.2785
    3TCq1    O6   46   2.046   3.082  10.407 -0.3619  0.1053  0.0883
    3TCq1    H1   47   1.941   2.706  10.460  0.6621 -0.6403  0.0102
    3TCq1    H2   48   1.916   2.893  10.408  2.4091  1.5281  0.9488
    3TCq1    H3   49   1.857   3.172  10.713  0.5600  0.6484 -1.1867
    3TCq1    H4   50   1.619   2.807  10.697  1.5903 -2.1455 -0.7894
    4MPD2     C   51   1.416   3.382  11.145  0.2082  0.3097 -0.4027
    4MPD2    C1   52   1.501   3.454  11.061  0.0863  0.8799  0.2954
    4MPD2    C2   53   1.578   3.380  10.970 -0.2128 -0.0494 -0.1036
    4MPD2    C3   54   1.556   3.240  10.955 -0.2411  0.6601 -0.0888
    4MPD2    C4   55   1.446   3.186  11.010 -0.0161 -0.1339 -0.4480
    4MPD2    C5   56   1.386   3.256  11.107  0.1569 -0.3345 -0.5704
    4MPD2     H   57   1.642   3.435  10.902 -2.4235 -0.2726 -2.3375
    4MPD2    H1   58   1.410   3.084  10.999  1.4690 -0.5047 -1.7695
    4MPD2    H2   59   1.356   3.428  11.223  2.2666 -2.0807  2.5864
    4MPD2    H3   60   1.305   3.204  11.157  0.3792 -0.1886 -0.0543
    4MPD2     N   61   1.636   3.175  10.860  0.3542  0.5231  0.2085
    4MPD2    H5   62   1.715   3.226  10.822  1.5095 -1.6855 -0.3406
    4MPD2    N1   63   1.515   3.594  11.065 -0.7195  0.3723 -0.3217
    4MPD2    H7   64   1.589   3.635  11.009 -0.9697 -2.4733 -2.7101
    5TCq1    O1   65   1.889   0.228   9.955 -0.3100  0.2987  0.1158
    5TCq1    C1   66   1.936   0.135  10.042 -0.0680  0.2998 -0.0888
    5TCq1    O2   67   1.927   0.014  10.023  0.0143 -0.1405  0.1885
    5TCq1    C2   68   2.062   0.198  10.096  0.1381  0.6563 -0.7473
    5TCq1    C3   69   2.142   0.264  10.004 -0.2173 -0.1219 -0.7860
    5TCq1    C4   70   2.279   0.276  10.023 -0.2360 -0.3860  0.1553
    5TCq1    C5   71   2.334   0.237  10.139  0.1472 -0.2393  0.2316
    5TCq1    C6   72   2.257   0.175  10.231 -0.1823  0.6391 -0.6109
    5TCq1    C7   73   2.126   0.142  10.205  0.2174  0.1611 -0.1069
    5TCq1    C8   74   2.327   0.086  10.310  0.3961 -0.6278 -0.0910
    5TCq1    O4   75   2.261   4.711  10.342  0.2474  0.2126 -0.1641
    5TCq1    C9   76   2.352   0.337   9.915 -0.2095 -0.0617  0.4775
    5TCq1    O5   77   2.289   0.411   9.830 -0.0666 -0.1721  0.2004
    5TCq1    O6   78   2.476   0.320   9.911 -0.0850  0.2851  0.4523
    5TCq1    H1   79   1.919   0.316   9.988  1.0007  0.2938 -1.0630
    5TCq1    H2   80   2.111   0.293   9.904  2.3046  1.8798 -1.0091
    5TCq1    H3   81   2.435   0.268  10.162  0.6061 -0.7149 -1.1756
    5TCq1    H4   82   2.066   0.082  10.272 -0.0123 -0.7705 -1.1471
    6MPD2     C   83   2.621   0.138  10.518 -0.0322 -0.0958  0.3681
    6MPD2    C1   84   2.529   0.066  10.448  0.3098  0.1551  0.3230
    6MPD2    C2   85   2.535   4.655  10.461  0.3541 -0.0773  0.0535
    6MPD2    C3   86   2.607   4.587  10.556  0.7476 -0.3251 -0.2865
    6MPD2    C4   87   2.701   4.659  10.625 -0.9991  0.0597 -0.9027
    6MPD2    C5   88   2.708   0.071  10.595  0.1475  0.6306  0.2814
    6MPD2     H   89   2.484   4.600  10.382  2.5422 -1.0762 -0.6565
    6MPD2    H1   90   2.765   4.614  10.699 -2.1499  0.7228  0.5028
    6MPD2    H2   91   2.616   0.246  10.508 -1.2546 -0.0913  1.0245
    6MPD2    H3   92   2.776   0.131  10.654  0.4511  0.0606  0.5083
    6MPD2     N   93   2.608   4.441  10.549 -0.7963  0.4938 -0.1552
    6MPD2    H5   94   2.535   4.398  10.492 -0.0046  0.2725 -0.9939
    6MPD2    N1   95   2.443   0.135  10.361 -0.2959  0.0773  0.1259
    6MPD2    H7   96   2.459   0.233  10.342  0.1637 -0.1271 -0.5241
    7TCq1    O1   97   3.988   0.204  12.729  0.0643 -0.5456  0.1744
    7TCq1    C1   98   4.000   0.128  12.836  0.6752  0.3904 -0.0292
    7TCq1    O2   99   4.031   0.163  12.949  0.9914  1.1544 -0.1994
    7TCq1    C2  100   4.000   4.714  12.802 -0.6058 -0.0205 -1.0399
    7TCq1    C3  101   3.931   4.677  12.691  0.1110  0.4805 -0.0277
    7TCq1    C4  102   3.928   4.547  12.666  1.2995 -0.2198  0.6509
    7TCq1    C5  103   3.979   4.450  12.748  0.8391 -0.0279  0.0863
    7TCq1    C6  104   4.032   4.493  12.868 -0.1077 -0.1160  0.9606
    7TCq1    C7  105   4.045   4.627  12.897 -0.2024 -0.3213  0.0091
    7TCq1    C8  106   4.083   4.385  12.953  0.4389  0.2382  0.7466
    7TCq1    O4  107   4.141   4.289  12.903 -0.4553  0.6834  0.2258
    7TCq1    C9  108   3.868   4.497  12.544  0.4274  0.3394 -0.0498
    7TCq1    O5  109   3.862   4.370  12.529 -0.0503  0.2864 -0.3054
    7TCq1    O6  110   3.782   4.573  12.487  0.0372  0.0575 -0.0776
    7TCq1    H1  111   3.984   0.160  12.641  0.2699  4.4913 -2.3742
    7TCq1    H2  112   3.873   0.011  12.621 -1.1254 -1.2532 -0.4846
    7TCq1    H3  113   3.980   4.346  12.718  0.8775  0.2903 -0.9901
    7TCq1    H4  114   4.084   4.657  12.994 -2.5229 -0.5508  1.0121
    8MPD2     C  115   4.132   4.173  13.414 -0.6744  0.4879  0.1434
    8MPD2    C1  116   4.171   4.125  13.287  0.0551  0.2715  0.0611
    8MPD2    C2  117   4.151   4.207  13.177  0.2753  0.0345  0.5142
    8MPD2    C3  118   4.105   4.335  13.194  0.8217 -0.7388  0.4524
    8MPD2    C4  119   4.070   4.381  13.319  0.1403 -0.6473  0.1333
    8MPD2    C5  120   4.086   4.304  13.428 -0.3425 -0.4273  0.2841
    8MPD2     H  121   4.184   4.173  13.080 -0.0020 -1.2931  0.8930
    8MPD2    H1  122   4.030   4.481  13.333  1.0822 -0.2576  0.0981
    8MPD2    H2  123   4.142   4.105  13.498  1.2516  0.6579  0.0501
    8MPD2    H3  124   4.057   4.342  13.526 -2.7298 -0.7013 -0.3292
    8MPD2     N  125   4.066   4.420  13.085 -0.1589  0.0032  0.6064
    8MPD2    H5  126   4.019   4.505  13.114 -0.6947  0.8384 -2.7571
    8MPD2    N1  127   4.223   3.992  13.283 -0.2197  0.0034  0.6162
    8MPD2    H7  128   4.218   3.944  13.371  3.1980  1.3258  1.5277
    9TCq1    O1  129   2.418   2.849  10.181 -0.2739  0.2027 -0.0611
    9TCq1    C1  130   2.411   2.817  10.312  0.0349 -0.2330  0.4952
    9TCq1    O2  131   2.379   2.882  10.405  0.2267 -0.3226  0.1005
    9TCq1    C2  132   2.469   2.689  10.326  0.5823 -0.5040  0.5906
    9TCq1    C3  133   2.564   2.634  10.237 -0.8230 -0.1582 -0.1760
    9TCq1    C4  134   2.637   2.527  10.275 -0.2732  0.3327  0.4825
    9TCq1    C5  135   2.640   2.488  10.400 -0.2784 -0.5465 -0.1539
    9TCq1    C6  136   2.549   2.542  10.488  0.1976 -0.5708  0.4278
    9TCq1    C7  137   2.460   2.643  10.451  0.6426 -0.5688  0.6646
    9TCq1    C8  138   2.543   2.470  10.618 -0.6952 -0.0200 -0.1708
    9TCq1    O4  139   2.601   2.368  10.630  0.0825  0.6512 -0.1062
    9TCq1    C9  140   2.733   2.467  10.179  0.8863 -0.6698  0.2051
    9TCq1    O5  141   2.793   2.365  10.207  0.4222  0.3644  0.3654
    9TCq1    O6  142   2.744   2.526  10.071  0.7486 -0.4236 -0.2086
    9TCq1    H1  143   2.410   2.771  10.122  0.3676 -0.3473  0.5844
    9TCq1    H2  144   2.574   2.664  10.134  1.6426  1.3329  0.4798
    9TCq1    H3  145   2.702   2.408  10.437  5.6756  4.0816 -0.1902
    9TCq1    H4  146   2.375   2.676  10.510  1.1290 -0.3043  1.2148
   10MPD2     C  147   2.486   2.369  10.889  0.2247  0.1358 -0.0405
   10MPD2    C1  148   2.435   2.487  10.836  0.5092  0.3021  0.8616
   10MPD2    C2  149   2.354   2.557  10.925 -0.7605 -0.2966  0.0016
   10MPD2    C3  150   2.337   2.516  11.060  0.1693 -0.2593  0.3073
   10MPD2    C4  151   2.391   2.394  11.101  0.0929 -1.8434 -0.0556
   10MPD2    C5  152   2.472   2.326  11.012  0.3201  1.0301  0.1044
   10MPD2     H  153   2.300   2.643  10.889  2.0859  1.0765 -1.0341
   10MPD2    H1  154   2.376   2.349  11.198  0.1535 -0.3676  0.6398
   10MPD2    H2  155   2.542   2.299  10.828 -3.0746 -1.1480 -1.6226
   10MPD2    H3  156   2.525   2.235  11.039  0.6738  1.2117  0.0279
   10MPD2     N  157   2.246   2.578  11.144 -0.1859 -0.4698 -0.1726
   10MPD2    H5  158   2.219   2.527  11.227  1.1885  0.4632  0.8446
   10MPD2    N1  159   2.444   2.524  10.702 -0.0803  0.7312 -0.2400
   10MPD2    H7  160   2.391   2.599  10.660 -0.6358  1.5819  1.9591
   11TCq1    O1  161   2.946   3.040  14.627  0.5857 -0.2975 -0.1121
   11TCq1    C1  162   2.973   2.913  14.597 -0.1377  0.0739  0.1371
   11TCq1    O2  163   3.007   2.831  14.680 -0.1595 -0.1532 -0.4352
   11TCq1    C2  164   2.880   2.867  14.495  0.7466 -0.2676 -0.6757
   11TCq1    C3  165   2.907   2.910  14.367 -0.0671 -0.0550 -0.3550
   11TCq1    C4  166   2.848   2.843  14.265 -0.5244 -0.4492  0.5534
   11TCq1    C5  167   2.756   2.746  14.284 -0.6524 -0.3607  0.4032
   11TCq1    C6  168   2.734   2.705  14.419 -0.6234  0.6243 -0.0076
   11TCq1    C7  169   2.798   2.763  14.518  0.0636 -0.6093 -0.0337
   11TCq1    C8  170   2.642   2.601  14.455  0.1265  0.1825 -0.1647
   11TCq1    O4  171   2.640   2.576  14.576  0.6389 -0.0699  0.4333
   11TCq1    C9  172   2.848   2.911  14.137 -0.2139 -0.3311 -0.1307
   11TCq1    O5  173   2.941   2.988  14.111 -0.2031  0.4428 -0.1506
   11TCq1    O6  174   2.763   2.881  14.046  0.6028 -0.1634 -0.3317
   11TCq1    H1  175   2.913   3.091  14.549  1.6111 -1.7745 -1.5066
   11TCq1    H2  176   2.977   2.988  14.338 -0.8379 -0.0169 -2.1289
   11TCq1    H3  177   2.703   2.703  14.200 -0.8853  0.1487  0.2938
   11TCq1    H4  178   2.790   2.732  14.621 -0.8683  0.8516  0.3336
   12MPD2     C  179   2.468   2.374  14.473 -0.2135  0.2376 -0.1698
   12MPD2    C1  180   2.519   2.416  14.350  0.5921  0.0238  0.4600
   12MPD2    C2  181   2.496   2.352  14.229 -0.5469  0.4328  0.3159
   12MPD2    C3  182   2.428   2.232  14.237 -0.2531 -0.3340 -0.1707
   12MPD2    C4  183   2.381   2.183  14.356  0.0958 -0.3860  0.1498
   12MPD2    C5  184   2.400   2.256  14.474  0.3738 -0.6215 -0.7825
   12MPD2     H  185   2.529   2.393  14.134 -0.1264  0.9564  0.6895
   12MPD2    H1  186   2.314   2.098  14.366 -0.3364 -0.1946 -1.2526
   12MPD2    H2  187   2.468   2.435  14.563 -0.5908 -0.8184  0.5528
   12MPD2    H3  188   2.358   2.218  14.566  1.0052  1.0559  0.1989
   12MPD2     N  189   2.378   2.161  14.123 -0.1975  0.6081  0.0525
   12MPD2    H5  190   2.323   2.077  14.132  0.2921  0.3390  0.5820
   12MPD2    N1  191   2.599   2.537  14.343 -0.0612  0.4835  0.3356
   12MPD2    H7  192   2.640   2.561  14.253 -2.3403  2.1968 -0.2471
   13TCq1    O1  193   2.290   2.339   9.909  0.4443  0.6039 -0.7736
   13TCq1    C1  194   2.213   2.273   9.999 -0.2622  0.0359  0.2939
   13TCq1    O2  195   2.103   2.222   9.978 -0.3121  0.3577 -0.3092
   13TCq1    C2  196   2.286   2.260  10.119  0.0343  0.5790  0.4422
   13TCq1    C3  197   2.420   2.221  10.118 -0.6628  0.7132  0.2695
   13TCq1    C4  198   2.477   2.200  10.243  0.7981  0.4791 -0.9970
   13TCq1    C5  199   2.418   2.235  10.363  0.1927  0.4141  0.4695
   13TCq1    C6  200   2.293   2.274  10.351 -0.0980  0.1184  0.0708
   13TCq1    C7  201   2.224   2.294  10.234 -0.2010  0.8256  0.0497
   13TCq1    C8  202   2.214   2.290  10.469 -0.5706 -0.5836  0.2911
   13TCq1    O4  203   2.130   2.381  10.467 -0.1666  0.1839  0.1027
   13TCq1    C9  204   2.607   2.128  10.247 -0.2033 -0.0020  0.7722
   13TCq1    O5  205   2.636   2.067  10.358 -0.3587  0.7371  0.6784
   13TCq1    O6  206   2.666   2.112  10.143  0.4151 -0.2256  0.4967
   13TCq1    H1  207   2.372   2.381   9.943  0.6990 -1.7247  1.4703
   13TCq1    H2  208   2.485   2.206  10.033 -0.1912  0.1769  0.7245
   13TCq1    H3  209   2.473   2.229  10.456 -2.1973 -0.7772  1.8265
   13TCq1    H4  210   2.118   2.316  10.235 -0.0926  1.3929 -2.7207
   14MPD2     C  211   2.252   2.089  10.774 -0.2268  0.1320 -0.9286
   14MPD2    C1  212   2.198   2.186  10.697  0.0199  0.7646  0.0364
   14MPD2    C2  213   2.088   2.256  10.746  0.1407 -0.2632  0.6012
   14MPD2    C3  214   2.039   2.223  10.873 -0.3137  0.0383 -0.0188
   14MPD2    C4  215   2.108   2.141  10.959  0.4511 -0.2675  0.2411
   14MPD2    C5  216   2.218   2.073  10.911  0.4796 -0.0142  0.4019
   14MPD2     H  217   2.038   2.334  10.689 -0.6453 -1.8542 -0.8894
   14MPD2    H1  218   2.071   2.135  11.060 -1.4736  0.5227 -0.4103
   14MPD2    H2  219   2.341   2.038  10.738 -0.1773  0.7908 -1.7255
   14MPD2    H3  220   2.274   2.005  10.974 -0.1870  2.2661  3.4509
   14MPD2     N  221   1.917   2.287  10.910  0.2801  0.3206 -0.3587
   14MPD2    H5  222   1.872   2.351  10.846  0.4885  0.2356 -0.5871
   14MPD2    N1  223   2.252   2.207  10.571  0.7052  0.3181  0.2508
   14MPD2    H7  224   2.330   2.145  10.552  0.0387 -0.5494  0.3413
   15TCq1    O1  225   3.137   2.199   1.161 -0.1669  0.4345  0.0126
   15TCq1    C1  226   3.167   2.306   1.234  0.1878  0.2499 -0.4634
   15TCq1    O2  227   3.092   2.399   1.258  0.5773 -0.5891 -0.5682
   15TCq1    C2  228   3.242   2.246   1.343  0.2019 -0.7039  0.5429
   15TCq1    C3  229   3.204   2.290   1.472 -0.7486  0.2415  0.1960
   15TCq1    C4  230   3.261   2.226   1.579 -0.0404  0.0585  1.0733
   15TCq1    C5  231   3.353   2.129   1.562  0.0792 -0.0066 -0.4930
   15TCq1    C6  232   3.385   2.092   1.436  0.2672  0.2194  0.4355
   15TCq1    C7  233   3.335   2.147   1.323 -0.1164  0.3389  0.4430
   15TCq1    C8  234   3.474   1.978   1.425 -0.3242  0.1685 -0.5653
   15TCq1    O4  235   3.535   1.936   1.523  0.1857 -0.5366 -0.3730
   15TCq1    C9  236   3.193   2.251   1.701  0.0767 -0.1122 -0.2324
   15TCq1    O5  237   3.252   2.219   1.807 -0.5601  0.1208 -0.2083
   15TCq1    O6  238   3.096   2.331   1.703 -0.0226 -0.2455 -0.2929
   15TCq1    H1  239   3.189   2.117   1.172 -1.4906  0.0766  3.5739
   15TCq1    H2  240   3.127   2.363   1.494 -1.4190 -0.6903  0.9356
   15TCq1    H3  241   3.395   2.092   1.655  0.4505 -2.0724 -1.4716
   15TCq1    H4  242   3.374   2.133   1.223 -0.8611  2.2536 -0.1150
   16MPD2     C  243   3.499   1.758   1.136  0.3426  0.1084 -0.0757
   16MPD2    C1  244   3.541   1.818   1.258 -0.2381 -0.7800  0.6354
   16MPD2    C2  245   3.649   1.768   1.331 -0.2206 -0.2118  0.2836
   16MPD2    C3  246   3.708   1.653   1.277  0.8517 -0.1501  0.5232
   16MPD2    C4  247   3.666   1.604   1.156  0.1796  0.9197  0.0025
   16MPD2    C5  248   3.561   1.647   1.087  0.5917  1.1358  0.5410
   16MPD2     H  249   3.693   1.814   1.419 -0.9662 -0.1073  0.6012
   16MPD2    H1  250   3.695   1.505   1.123 -1.4675  0.5431 -0.2993
   16MPD2    H2  251   3.410   1.796   1.088  1.4943  1.6015 -1.0388
   16MPD2    H3  252   3.534   1.594   0.997  1.4134  1.0725  0.3276
   16MPD2     N  253   3.813   1.595   1.358  0.0612 -0.1265  1.0474
   16MPD2    H5  254   3.821   1.629   1.453 -3.4118  0.8683  0.9653
   16MPD2    N1  255   3.465   1.927   1.298 -0.4458 -0.5650 -0.0667
   16MPD2    H7  256   3.400   1.974   1.236 -0.1741 -1.5937 -1.1060
   17TCq1    O1  257   2.556   2.083  10.609 -0.1812 -0.5328 -0.0072
   17TCq1    C1  258   2.629   2.061  10.715  0.1492  0.1071 -0.6981
   17TCq1    O2  259   2.585   2.025  10.824  0.2678 -0.1007  0.0815
   17TCq1    C2  260   2.744   1.997  10.660  0.7346 -0.4296 -0.2552
   17TCq1    C3  261   2.823   2.073  10.574  0.5016 -0.4014  0.1763
   17TCq1    C4  262   2.947   2.022  10.547  0.2296 -0.3902  0.3839
   17TCq1    C5  263   2.990   1.903  10.596 -0.2421  0.8277 -0.3090
   17TCq1    C6  264   2.913   1.835  10.689 -0.3197  0.0540  0.7153
   17TCq1    C7  265   2.792   1.884  10.725 -0.3257 -0.5016 -0.2269
   17TCq1    C8  266   2.969   1.721  10.765 -0.2632 -0.3740 -0.0155
   17TCq1    O4  267   2.902   1.684  10.861  0.1088  0.0386 -0.0633
   17TCq1    C9  268   3.023   2.105  10.454 -0.6810  0.0759 -0.4365
   17TCq1    O5  269   3.143   2.078  10.430  0.3109 -0.3382 -0.3939
   17TCq1    O6  270   2.965   2.191  10.391  0.3940  0.2614 -0.2273
   17TCq1    H1  271   2.612   2.063  10.531  0.2684  1.4184 -0.1842
   17TCq1    H2  272   2.783   2.157  10.519 -0.8705 -1.1438  0.0393
   17TCq1    H3  273   3.087   1.880  10.555  0.8102 -1.0481  3.2781
   17TCq1    H4  274   2.730   1.845  10.805  1.8558 -1.6845  0.8713
   18MPD2     C  275   3.113   1.474  10.847 -0.3650 -0.2329 -0.1867
   18MPD2    C1  276   3.171   1.569  10.771  0.4980  0.1412 -0.0021
   18MPD2    C2  277   3.296   1.550  10.723  0.0052 -0.3787  0.2778
   18MPD2    C3  278   3.370   1.438  10.740  0.1333  0.5960  0.0028
   18MPD2    C4  279   3.315   1.345  10.819 -0.4007  0.1928  0.0756
   18MPD2    C5  280   3.191   1.367  10.878 -0.6481 -0.1231  0.5703
   18MPD2     H  281   3.331   1.628  10.657  0.5486 -0.4761  0.4468
   18MPD2    H1  282   3.367   1.255  10.847  1.7252  0.5490 -2.7655
   18MPD2    H2  283   3.015   1.479  10.893 -0.8602  2.0227 -1.5101
   18MPD2    H3  284   3.139   1.281  10.920  0.5107 -2.1816 -2.2416
   18MPD2     N  285   3.508   1.415  10.693  0.1724 -0.1732 -0.4492
   18MPD2    H5  286   3.551   1.327  10.719  1.7192  0.8829  0.5400
   18MPD2    N1  287   3.096   1.680  10.715  0.0425 -0.4839 -0.4058
   18MPD2    H7  288   3.137   1.726  10.634  0.7934  3.4354  2.1852
   19TMC2    C1  289   3.213   2.185  14.021 -0.5766 -0.6595  0.4225
   19TMC2    C2  290   3.160   2.183  13.893  0.8532 -0.6453 -0.3747
   19TMC2    C3  291   3.068   2.082  13.852 -0.2176 -0.1654 -0.2230
   19TMC2    C4  292   3.189   2.075  14.101 -0.2749 -0.1524 -0.4132
   19TMC2    C5  293   3.102   1.977  14.058 -0.0246  0.0271  0.0615
   19TMC2    C6  294   3.040   1.979  13.935  0.2712  0.3606  0.1363
   19TMC2     C  295   3.319   2.276  14.038  0.3493  0.1211 -0.4209
   19TMC2     O  296   3.340   2.354  13.946 -0.4677 -0.6379  0.0384
   19TMC2     H  297   3.183   2.258  13.818 -1.9959 -0.1260 -0.7507
   19TMC2    H1  298   3.209   2.085  14.207  0.4725 -2.0428 -0.3772
   19TMC2    H2  299   2.958   1.912  13.910  0.7491  0.5363 -1.8522
   19TMC2    C7  300   3.062   1.875  14.156  0.4374  0.4393  0.1935
   19TMC2    C8  301   2.989   2.093  13.725  0.1456 -0.6059  0.1067
   19TMC2    O1  302   3.073   1.904  14.276 -0.4032 -0.3110 -0.6765
   19TMC2    O2  303   2.933   2.199  13.700 -0.1585  0.3541 -1.0238
   19TMC2    O5  304   2.961   1.967  13.682  0.2531  0.1982  0.6646
   19TMC2    H5  305   2.982   1.900  13.751  0.7594 -0.3687 -0.0448
   20MPD2     C  306   3.507   2.479  14.136 -0.1577 -0.0846 -0.0495
   20MPD2    C1  307   3.444   2.389  14.224  0.0756 -0.1365  0.1019
   20MPD2    C2  308   3.483   2.372  14.351  0.2673 -0.5222  0.0257
   20MPD2    C3  309   3.586   2.446  14.402 -0.0876 -0.8308 -0.3760
   20MPD2    C4  310   3.640   2.543  14.323  0.1793  0.2678  0.3362
   20MPD2    C5  311   3.608   2.555  14.190 -0.1908  0.3993  0.4810
   20MPD2     H  312   3.432   2.297  14.409 -1.8739  1.8429  1.1681
   20MPD2    H1  313   3.720   2.608  14.359  2.4743 -2.2448 -0.2363
   20MPD2    H2  314   3.494   2.490  14.029 -0.4891 -1.7896 -0.1808
   20MPD2    H3  315   3.661   2.627  14.130 -0.0732  0.2092  0.3585
   20MPD2     N  316   3.637   2.420  14.530  0.0858 -0.3252  0.2519
   20MPD2    H5  317   3.722   2.472  14.547 -0.4159  0.3468  0.6831
   20MPD2    N1  318   3.359   2.289  14.169 -0.3293  0.0927  0.8197
   20MPD2    H7  319   3.326   2.225  14.240 -1.6838  1.0976  1.0860
   21MPD2     C  320   1.837   3.006  14.055  0.7094 -0.8568 -0.0862
   21MPD2    C1  321   1.847   2.883  14.112  0.3107 -0.1537  0.1692
   21MPD2    C2  322   1.731   2.814  14.157 -0.3355 -0.5134  0.1160
   21MPD2    C3  323   1.618   2.884  14.176 -0.3821  0.4491 -1.1182
   21MPD2    C4  324   1.606   3.017  14.140 -0.2116  0.1888  0.0329
   21MPD2    C5  325   1.715   3.071  14.078  0.3007 -0.4664  0.5943
   21MPD2     H  326   1.736   2.710  14.187  0.1781 -0.6861 -0.5702
   21MPD2    H1  327   1.508   3.062  14.139 -1.3263 -2.2583  0.1285
   21MPD2    H2  328   1.921   3.065  14.019  2.0521 -3.7046 -1.6066
   21MPD2    H3  329   1.701   3.175  14.050  2.2013 -0.7462 -1.3569
   21MPD2     N  330   1.508   2.828  14.234  0.2840 -0.0657 -0.5622
   21MPD2    H5  331   1.434   2.889  14.266 -0.4658 -1.4016  0.2189
   21MPD2    N1  332   1.975   2.817  14.126  0.2393  0.1998 -0.4119
   21MPD2    H7  333   1.963   2.721  14.157  0.7040  0.6807  1.2535
   22TCq2    C1  334   1.470   2.700  14.214  0.0112 -0.0120  0.3235
   22TCq2    O2  335   1.515   2.610  14.142 -0.7572  0.1192  0.2446
   22TCq2    C2  336   1.335   2.686  14.276 -0.0961  0.3826  0.3054
   22TCq2    C3  337   1.238   2.625  14.196  0.1413 -0.5428  0.5545
   22TCq2    C4  338   1.111   2.640  14.227 -0.1439 -0.5035 -0.4566
   22TCq2    C5  339   1.075   2.711  14.339 -0.0085  0.4006  0.1748
   22TCq2    C6  340   1.171   2.766  14.414 -0.3020  0.6726 -0.5144
   22TCq2    C7  341   1.305   2.756  14.387  0.1870  0.2313 -0.5373
   22TCq2    C8  342   1.130   2.849  14.528  0.6779 -0.2125 -0.1809
   22TCq2    O4  343   1.226   2.881  14.596 -0.0598  0.1878  0.0980
   22TCq2    C9  344   1.012   2.597  14.136  0.5389 -0.0400  0.2018
   22TCq2    O5  345   1.049   2.518  14.048  1.2421  0.0501  0.2275
   22TCq2    O6  346   0.912   2.669  14.128  0.2037 -1.0151  0.1288
   22TCq2    H2  347   1.257   2.574  14.102 -0.1047 -0.1007  0.2673
   22TCq2    H3  348   0.967   2.722  14.349 -0.0294 -0.5343  0.9878
   22TCq2    H4  349   1.381   2.784  14.458 -0.8724  1.0151  0.2902
   23MPD2     C  350   2.490   4.371  15.086 -0.3857 -0.1061 -0.0841
   23MPD2    C1  351   2.466   4.233  15.098 -0.0766  0.5125 -0.2401
   23MPD2    C2  352   2.379   4.176  15.005  0.6927 -0.7349 -0.9139
   23MPD2    C3  353   2.325   4.247  14.903  0.2436 -0.3601 -0.2466
   23MPD2    C4  354   2.355   4.386  14.902  0.2573 -0.4583  0.2601
   23MPD2    C5  355   2.440   4.452  14.987 -0.1255  0.0899  0.1327
   23MPD2     H  356   2.347   4.074  15.019 -2.3399  0.5135  1.3171
   23MPD2    H1  357   2.312   4.442  14.820  2.3349  0.3931 -0.2484
   23MPD2    H2  358   2.566   4.413  15.151  0.7936  2.0385 -2.8234
   23MPD2    H3  359   2.462   4.557  14.972 -0.3197 -0.1812 -1.9731
   23MPD2     N  360   2.216   4.194  14.829 -0.4496 -0.1740 -0.3549
   23MPD2    H5  361   2.183   4.256  14.756 -1.2597  1.7706  1.6921
   23MPD2    N1  362   2.501   4.151  15.205 -0.5805  0.7243  0.3638
   23MPD2    H7  363   2.454   4.060  15.208 -0.5368  0.6854 -0.0627
   24TCq2    C1  364   2.163   4.071  14.846 -0.2248  0.3483  0.4882
   24TCq2    O2  365   2.190   3.977  14.916 -0.1974 -0.3085 -0.3787
   24TCq2    C2  366   2.064   4.042  14.743  0.1349  0.0088  0.4545
   24TCq2    C3  367   1.991   4.144  14.690  0.7537 -0.2255  0.5753
   24TCq2    C4  368   1.900   4.123  14.589  0.0418 -0.0844  0.2646
   24TCq2    C5  369   1.881   3.986  14.556 -0.5843  0.0580  0.1216
   24TCq2    C6  370   1.941   3.885  14.619 -0.1486  0.2483 -0.4866
   24TCq2    C7  371   2.033   3.910  14.714 -0.5279 -0.0583 -0.1482
   24TCq2    C8  372   1.955   3.758  14.559 -0.4316 -0.1156  0.3431
   24TCq2    O4  373   2.061   3.699  14.576 -0.4833 -0.4654  0.1062
   24TCq2    C9  374   1.837   4.226  14.510  0.0455  0.5365  0.1770
   24TCq2    O5  375   1.730   4.187  14.458  0.7725 -0.5789 -0.2003
   24TCq2    O6  376   1.884   4.337  14.514  0.2550 -0.0599  0.3835
   24TCq2    H2  377   2.001   4.247  14.721  1.1163  0.0338 -0.4018
   24TCq2    H3  378   1.823   3.978  14.464  2.0148 -1.3713 -1.3898
   24TCq2    H4  379   2.081   3.827  14.765 -2.3197  0.4790  2.4496
   25TMC2    C1  380   1.496   1.125  11.083 -0.5028  0.0776  0.0726
   25TMC2    C2  381   1.508   1.240  11.007  1.2042  0.1993 -0.2464
   25TMC2    C3  382   1.428   1.343  11.046  0.7093 -0.8892 -0.2571
   25TMC2    C4  383   1.396   1.108  11.182 -0.0766  0.4280  0.3531
   25TMC2    C5  384   1.302   1.205  11.194 -0.9009 -0.0052 -0.2830
   25TMC2    C6  385   1.318   1.331  11.132 -0.3422  0.2886  0.6314
   25TMC2     C  386   1.600   1.025  11.066  0.1166  0.1663 -0.0530
   25TMC2     O  387   1.687   1.059  10.983  0.0443 -0.1589 -0.0966
   25TMC2     H  388   1.591   1.257  10.940  0.9134 -1.0397 -0.9144
   25TMC2    H1  389   1.396   1.021  11.247 -1.7927 -1.0520 -1.6065
   25TMC2    H2  390   1.264   1.421  11.159  0.1472  1.4191 -2.2477
   25TMC2    C7  391   1.241   1.226  11.330  0.2968  0.4641 -0.7238
   25TMC2    C8  392   1.439   1.469  10.979  0.3638 -0.1223 -0.0452
   25TMC2    O1  393   1.311   1.189  11.421 -0.1155  0.0571  0.3208
   25TMC2    O2  394   1.411   1.579  11.028 -0.4421 -0.8769 -0.1117
   25TMC2    O5  395   1.414   1.436  10.851  0.5209 -0.3661 -1.2298
   25TMC2    H5  396   1.419   1.338  10.841 -0.3417 -0.7439  1.9328
   26MPD2     C  397   1.772   0.553  11.007 -0.7270 -0.2946  0.1266
   26MPD2    C1  398   1.654   0.543  11.073  0.6323  0.1369 -0.5292
   26MPD2    C2  399   1.604   0.660  11.129 -0.3803 -0.1400 -0.0061
   26MPD2    C3  400   1.660   0.786  11.100 -0.0455 -0.2042  0.1431
   26MPD2    C4  401   1.780   0.790  11.031  0.8216  0.3694 -0.3632
   26MPD2    C5  402   1.837   0.672  10.997 -0.4122  0.0288  0.1484
   26MPD2     H  403   1.509   0.665  11.182 -1.0057 -0.9374 -1.0497
   26MPD2    H1  404   1.836   0.879  11.004  1.9174 -0.6056 -1.3005
   26MPD2    H2  405   1.828   0.469  10.968 -0.2801  1.4517 -3.0135
   26MPD2    H3  406   1.935   0.682  10.953 -0.9124  0.1996 -0.9285
   26MPD2     N  407   1.578   0.904  11.127 -0.2961  0.2326 -0.0384
   26MPD2    H5  408   1.500   0.887  11.189 -0.2658  1.2675  0.2956
   26MPD2    N1  409   1.594   0.408  11.082 -0.5384 -0.3212  0.2097
   26MPD2    H7  410   1.631   0.338  11.020  2.4033  2.5971 -1.3348
   27TMC2    C1  411   0.308   2.415  12.079  0.1467 -0.5480 -0.4974
   27TMC2    C2  412   0.391   2.383  11.971 -0.3545 -0.7066  0.1522
   27TMC2    C3  413   0.367   2.430  11.846 -0.1664  0.4054  0.3472
   27TMC2    C4  414   0.198   2.494  12.056 -0.7526  0.4026  0.4279
   27TMC2    C5  415   0.180   2.551  11.928  0.2493  0.1652  0.0483
   27TMC2    C6  416   0.261   2.512  11.822  0.2399 -0.3219 -0.2558
   27TMC2     C  417   0.387   2.460  12.190  0.8182 -0.6722  0.2340
   27TMC2     O  418   0.506   2.448  12.191 -0.3186  0.2341 -0.8569
   27TMC2     H  419   0.491   2.346  11.992  0.5519  1.9749  0.6216
   27TMC2    H1  420   0.131   2.512  12.139 -2.4847  1.3485 -1.1688
   27TMC2    H2  421   0.250   2.561  11.726  1.3245  0.4205 -0.0100
   27TMC2    C7  422   0.129   2.684  11.929 -0.2339 -0.2463  0.4921
   27TMC2    C8  423   0.482   2.427  11.757  0.0692  0.2532 -0.0755
   27TMC2    O1  424   0.145   2.736  12.039 -0.1524  0.2498  0.1430
   27TMC2    O2  425   0.498   2.516  11.675 -0.0914 -0.0691 -0.0439
   27TMC2    O5  426   0.508   2.297  11.734  0.3715  0.1610  0.1329
   27TMC2    H5  427   0.476   2.231  11.800  1.2245 -1.3557 -0.9803
   28MPD2     C  428   0.455   2.778  12.584  0.6905  0.0905  0.5421
   28MPD2    C1  429   0.334   2.807  12.527  0.1208 -0.3030  0.0176
   28MPD2    C2  430   0.293   2.724  12.422  0.2338 -0.4078 -0.2619
   28MPD2    C3  431   0.381   2.626  12.371 -0.4520  0.9038  0.0154
   28MPD2    C4  432   0.508   2.608  12.429  0.2006 -1.0206 -0.4160
   28MPD2    C5  433   0.538   2.681  12.538  0.5445  0.1876  0.7625
   28MPD2     H  434   0.199   2.748  12.375 -0.1520 -1.3600  0.0237
   28MPD2    H1  435   0.579   2.527  12.412  0.0039 -0.9279 -1.6467
   28MPD2    H2  436   0.475   2.823  12.681 -1.0693 -0.1600  1.0315
   28MPD2    H3  437   0.632   2.662  12.587  0.2449 -2.1304  0.4714
   28MPD2     N  438   0.320   2.554  12.268 -0.2196 -0.4034 -0.1078
   28MPD2    H5  439   0.219   2.563  12.264 -0.1458  0.0893 -0.7950
   28MPD2    N1  440   0.241   2.897  12.580  0.0135  0.5042 -0.3678
   28MPD2    H7  441   0.145   2.894  12.546  0.2978  0.7048 -1.1822
   29MPD2     C  442   0.036   0.495  14.692 -0.1451  0.8019  0.0891
   29MPD2    C1  443   0.112   0.544  14.589 -0.1446  0.4291  0.3112
   29MPD2    C2  444   0.114   0.686  14.569 -0.0997  0.4696  1.1644
   29MPD2    C3  445   0.039   0.764  14.652 -0.2077 -0.1846  0.7540
   29MPD2    C4  446   4.675   0.710  14.744  0.1070  0.0548  0.1787
   29MPD2    C5  447   4.678   0.573  14.764  1.0900  0.5040 -0.2258
   29MPD2     H  448   0.179   0.724  14.491 -1.5423  0.7990  0.1352
   29MPD2    H1  449   4.612   0.777  14.801  1.6949  1.4600  0.2924
   29MPD2    H2  450   0.025   0.388  14.708 -0.6316  1.1961  2.3601
   29MPD2    H3  451   4.624   0.525  14.845  1.3864  0.6037  0.0342
   29MPD2     N  452   0.040   0.905  14.646 -0.4336  0.1106 -0.3073
   29MPD2    H5  453   4.704   0.946  14.716 -0.6220  1.5025 -1.2896
   29MPD2    N1  454   0.192   0.472  14.490 -0.2521  0.2948 -0.4985
   29MPD2    H7  455   0.254   0.526  14.431  0.2960 -1.4740 -1.5695
   30TCq2    C1  456   0.098   0.984  14.547 -0.2078  0.4825  0.4032
   30TCq2    O2  457   0.143   0.947  14.443 -0.3203  0.4719 -0.3293
   30TCq2    C2  458   0.085   1.125  14.571  0.4838 -0.1273 -0.2037
   30TCq2    C3  459   0.077   1.181  14.700 -0.2930  0.4483  0.2181
   30TCq2    C4  460   0.070   1.317  14.720  0.1853 -0.1507  0.1402
   30TCq2    C5  461   0.079   1.403  14.616  0.1377  0.2542 -0.1347
   30TCq2    C6  462   0.095   1.346  14.489 -0.6885 -0.0357  0.6455
   30TCq2    C7  463   0.086   1.215  14.465 -0.0100 -0.2685  0.4988
   30TCq2    C8  464   0.163   1.421  14.384  0.4602  0.0296  0.1232
   30TCq2    O4  465   0.163   1.378  14.268  0.3260 -0.1668 -0.7616
   30TCq2    C9  466   0.057   1.360  14.859 -0.3694 -0.6558 -0.4693
   30TCq2    O5  467   0.054   1.488  14.873 -0.6573  0.4029 -0.4286
   30TCq2    O6  468   0.053   1.279  14.955 -0.0331  0.0053 -0.1645
   30TCq2    H2  469   0.079   1.124  14.793 -0.9394 -0.1880 -0.1576
   30TCq2    H3  470   0.066   1.507  14.640 -1.3752  0.4143 -1.6980
   30TCq2    H4  471   0.098   1.173  14.366  1.0195 -1.1010  0.9694
   31MPD2     C  472   1.941   4.533  14.802  0.9516  0.1097 -0.0475
   31MPD2    C1  473   1.996   4.659  14.793 -0.1960 -0.3841  0.0719
   31MPD2    C2  474   2.005   0.004  14.910  0.2913 -0.5207  0.0699
   31MPD2    C3  475   1.978   4.682  15.038 -0.1771  0.0680  0.5202
   31MPD2    C4  476   1.925   4.549  15.044 -0.4327 -0.3212  0.3148
   31MPD2    C5  477   1.908   4.478  14.925  0.2198  0.0695  0.4139
   31MPD2     H  478   2.036   0.108  14.901  0.9025 -0.4771  2.5995
   31MPD2    H1  479   1.915   4.501  15.141  0.7006  0.5854  0.8808
   31MPD2    H2  480   1.919   4.482  14.710  2.5201 -2.8784  1.2168
   31MPD2    H3  481   1.870   4.378  14.935  1.2014 -0.1018  2.4815
   31MPD2     N  482   2.002   0.019  15.161  0.5096  0.3948  0.4108
   31MPD2    H5  483   1.987   4.697  15.249  1.0318 -0.3741  0.0847
   31MPD2    N1  484   2.033   4.708  14.658 -0.2561 -0.3576 -0.5111
   31MPD2    H7  485   2.020   4.654  14.573  2.3345  0.2057 -1.2816
   32TCq2    C1  486   2.046   0.150  15.173 -0.1004  0.0835 -0.8482
   32TCq2    O2  487   2.073   0.235  15.090  0.2260 -0.1058 -0.1200
   32TCq2    C2  488   2.046   0.206  15.312 -0.4622 -0.5769 -0.9801
   32TCq2    C3  489   2.032   0.339  15.331  0.0488  0.0777  0.3969
   32TCq2    C4  490   2.007   0.392  15.456 -0.0183  0.3608  0.2637
   32TCq2    C5  491   2.003   0.307  15.565 -0.0861 -0.5734 -0.1330
   32TCq2    C6  492   2.038   0.176  15.546 -0.3422 -0.2006 -0.3075
   32TCq2    C7  493   2.062   0.126  15.420 -0.2664 -0.9057 -0.5157
   32TCq2    C8  494   2.053   0.092  15.662  0.1947  0.3229 -0.2973
   32TCq2    O4  495   2.137   0.006  15.649 -0.3088 -0.1860  0.5790
   32TCq2    C9  496   1.992   0.536  15.468 -0.5927  0.3666 -0.1889
   32TCq2    O5  497   1.965   0.600  15.360 -0.4134  0.3540  0.8864
   32TCq2    O6  498   1.974   0.583  15.581  0.2806  0.2716 -0.3353
   32TCq2    H2  499   2.047   0.402  15.244 -0.9869  0.4527  0.4918
   32TCq2    H3  500   2.003   0.363  15.658  1.5778  0.0585 -0.5045
   32TCq2    H4  501   2.096   0.024  15.405 -0.4666 -1.1148  0.4451
   33MPD2     C  502   3.957   1.844  10.125 -0.1543  0.0767  0.0216
   33MPD2    C1  503   3.838   1.818  10.182  0.1729  0.2145  0.9024
   33MPD2    C2  504   3.736   1.896  10.144  0.2234 -0.3912 -0.2039
   33MPD2    C3  505   3.750   1.998  10.048 -1.0914  0.0592  0.1855
   33MPD2    C4  506   3.871   2.013   9.988  0.3238  0.9018 -0.1682
   33MPD2    C5  507   3.967   1.937  10.025  0.3081 -0.6331 -0.2167
   33MPD2     H  508   3.646   1.879  10.201  1.0758 -0.3864  1.1316
   33MPD2    H1  509   3.890   2.107   9.937  4.1004  0.1506 -0.1523
   33MPD2    H2  510   4.051   1.795  10.147  0.2680 -0.8864 -4.0233
   33MPD2    H3  511   4.067   1.968   9.997  0.1436  1.0433  1.0366
   33MPD2     N  512   3.648   2.090  10.011 -0.2062  0.5182  0.0554
   33MPD2    H5  513   3.676   2.154   9.937 -1.1196  0.0750 -0.6712
   33MPD2    N1  514   3.817   1.722  10.280  0.2020 -0.3669 -0.4639
   33MPD2    H7  515   3.722   1.705  10.312 -0.1843  0.7465 -0.9902
   34TCq2    C1  516   3.521   2.105  10.066  0.3167 -0.0706  0.1946
   34TCq2    O2  517   3.460   2.034  10.149 -0.2430 -0.2961  0.3555
   34TCq2    C2  518   3.455   2.232  10.021  0.4218  0.4682  0.3285
   34TCq2    C3  519   3.320   2.243  10.056 -0.1685  0.0770 -0.5348
   34TCq2    C4  520   3.252   2.359  10.029  0.1197  0.5414  0.1659
   34TCq2    C5  521   3.313   2.461   9.962 -0.1686 -0.3354  0.6168
   34TCq2    C6  522   3.448   2.449   9.934 -0.1569 -0.9251  0.5651
   34TCq2    C7  523   3.521   2.339   9.966  0.1495  0.6271  0.5625
   34TCq2    C8  524   3.508   2.541   9.841  0.2089  1.0587  0.9252
   34TCq2    O4  525   3.628   2.512   9.820  0.0118  0.1521 -0.0723
   34TCq2    C9  526   3.110   2.374  10.050 -0.3771 -0.0794  0.2425
   34TCq2    O5  527   3.052   2.474  10.005 -0.2875  0.3481  0.6968
   34TCq2    O6  528   3.052   2.283  10.106  0.5360  0.2750  0.4136
   34TCq2    H2  529   3.270   2.159  10.104  0.1407  0.2503  0.0925
   34TCq2    H3  530   3.264   2.553   9.934 -1.1079 -1.2418 -0.7598
   34TCq2    H4  531   3.628   2.338   9.946  0.0160 -0.0971 -0.1416
   35MPD2     C  532   3.755   3.450  11.788  0.0383 -0.0549 -0.5428
   35MPD2    C1  533   3.850   3.348  11.771  0.1417 -0.5148 -0.3683
   35MPD2    C2  534   3.833   3.259  11.664  0.0771 -0.0461  0.2316
   35MPD2    C3  535   3.718   3.276  11.583  0.6155 -0.1831  0.2360
   35MPD2    C4  536   3.624   3.369  11.615 -0.5233 -0.1673  0.1703
   35MPD2    C5  537   3.639   3.459  11.717 -0.1159  1.0214  0.1819
   35MPD2     H  538   3.914   3.192  11.639  0.3434 -0.1846  1.4763
   35MPD2    H1  539   3.530   3.368  11.561 -1.5235  0.3109  1.8726
   35MPD2    H2  540   3.773   3.525  11.864  1.6039  0.5993 -1.5594
   35MPD2    H3  541   3.568   3.537  11.743  0.7031  1.4315  1.1526
   35MPD2     N  542   3.710   3.186  11.472 -0.0201  0.4900 -0.4248
   35MPD2    H5  543   3.793   3.133  11.451 -0.5086  0.1799 -1.5628
   35MPD2    N1  544   3.971   3.355  11.848 -0.4098  0.1384 -0.2264
   35MPD2    H7  545   3.981   3.432  11.913  2.9605  0.1402 -0.7322
   36TCq2    C1  546   3.606   3.160  11.394 -0.3539  0.8322  0.0737
   36TCq2    O2  547   3.487   3.169  11.428 -0.1354  0.0580 -0.2288
   36TCq2    C2  548   3.637   3.097  11.260 -0.4827  0.1839  0.5913
   36TCq2    C3  549   3.748   3.139  11.191 -0.7168 -0.5014  0.0437
   36TCq2    C4  550   3.774   3.092  11.065 -0.5034 -0.2981  0.3839
   36TCq2    C5  551   3.704   2.990  11.014  0.6931 -0.6011  0.0349
   36TCq2    C6  552   3.596   2.945  11.087 -0.2223  0.3987  0.4540
   36TCq2    C7  553   3.550   3.004  11.202  0.0670 -0.4927  0.9303
   36TCq2    C8  554   3.514   2.855  11.008  0.1957  0.1198  0.3557
   36TCq2    O4  555   3.574   2.783  10.925 -0.9532  0.2585  0.0266
   36TCq2    C9  556   3.886   3.154  10.991 -0.3010 -0.0559  0.2384
   36TCq2    O5  557   3.886   3.124  10.871 -0.4483  0.1079  0.5823
   36TCq2    O6  558   3.968   3.223  11.051  0.4986 -0.2928  0.2883
   36TCq2    H2  559   3.789   3.234  11.223 -0.0091  0.0531 -2.5288
   36TCq2    H3  560   3.742   2.937  10.926 -1.5305  0.6899 -1.6950
   36TCq2    H4  561   3.472   2.961  11.263 -0.6099 -0.3068  0.2041
   37TMC2    C1  562   1.793   3.720  11.404  0.6282  0.0860  0.2554
   37TMC2    C2  563   1.799   3.684  11.268  0.3836  0.0950  0.3627
   37TMC2    C3  564   1.918   3.697  11.202 -0.1112 -0.7888  0.1802
   37TMC2    C4  565   1.907   3.759  11.467 -0.0690  0.0506 -0.0674
   37TMC2    C5  566   2.025   3.771  11.397 -0.1613  0.5560  0.3811
   37TMC2    C6  567   2.031   3.740  11.262 -0.4051 -0.1604  0.2523
   37TMC2     C  568   1.682   3.672  11.481  0.7305  0.3764 -0.1203
   37TMC2     O  569   1.594   3.618  11.416 -0.1039  0.0630  0.1958
   37TMC2     H  570   1.723   3.626  11.218  0.3799 -0.9298  1.5405
   37TMC2    H1  571   1.911   3.781  11.573  0.4048 -1.4025  0.2108
   37TMC2    H2  572   2.120   3.735  11.200 -0.9731  2.1781 -0.7334
   37TMC2    C7  573   2.148   3.775  11.477 -0.7430 -0.6884  0.5649
   37TMC2    C8  574   1.940   3.627  11.081  1.2226  0.3716  0.4253
   37TMC2    O1  575   2.138   3.740  11.596 -0.3314 -0.3962  0.6440
   37TMC2    O2  576   2.010   3.670  10.989  0.5490 -0.9673  0.0445
   37TMC2    O5  577   1.893   3.502  11.098  0.0963  0.4930  0.5073
   37TMC2    H5  578   1.886   3.481  11.194 -0.0951  1.0457  0.6090
   38MPD2     C  579   1.337   3.700  11.859 -0.5710 -0.8111  0.3294
   38MPD2    C1  580   1.461   3.683  11.922 -0.1065 -0.6267  0.6394
   38MPD2    C2  581   1.577   3.686  11.843 -0.1876 -0.9194  0.0486
   38MPD2    C3  582   1.571   3.698  11.701  0.3224  0.1059 -1.0618
   38MPD2    C4  583   1.447   3.712  11.646  0.4083 -0.7544  0.3099
   38MPD2    C5  584   1.334   3.721  11.719  0.2510 -0.7466  0.5657
   38MPD2     H  585   1.672   3.656  11.886 -0.1781  1.3854  1.6405
   38MPD2    H1  586   1.454   3.754  11.546  2.0277 -1.4955  0.1108
   38MPD2    H2  587   1.245   3.709  11.915 -2.0960 -0.0303 -2.3096
   38MPD2    H3  588   1.241   3.743  11.668 -0.6164 -2.4175  1.4199
   38MPD2     N  589   1.690   3.685  11.622  0.0493  0.6815  0.2704
   38MPD2    H5  590   1.775   3.682  11.677  0.6224 -1.5394 -0.7356
   38MPD2    N1  591   1.479   3.644  12.054 -0.2014  0.2758  0.2395
   38MPD2    H7  592   1.575   3.640  12.087  0.6843  0.1677 -2.3457
   39MPD2     C  593   4.011   1.011   1.782  0.7576 -0.0161  0.0936
   39MPD2    C1  594   3.954   1.136   1.822 -0.7918 -0.4209  0.2300
   39MPD2    C2  595   3.847   1.189   1.756 -0.7014  0.0732 -0.4853
   39MPD2    C3  596   3.789   1.109   1.657 -0.3899  0.4096 -0.3131
   39MPD2    C4  597   3.833   0.984   1.630 -0.1791  0.4550 -0.2870
   39MPD2    C5  598   3.950   0.938   1.683  0.1372 -0.4986  0.0855
   39MPD2     H  599   3.816   1.292   1.767 -1.0448  0.0310 -1.0748
   39MPD2    H1  600   3.795   0.927   1.546 -1.0628  1.2393 -0.4162
   39MPD2    H2  601   4.107   0.983   1.823  0.4432 -1.3436 -0.0861
   39MPD2    H3  602   3.986   0.844   1.643 -0.5894 -0.2830 -1.0639
   39MPD2     N  603   3.679   1.161   1.580 -0.1722 -0.0948  0.7156
   39MPD2    H5  604   3.649   1.099   1.506  1.3663 -0.0617  0.0654
   39MPD2    N1  605   4.039   1.227   1.893 -0.5127 -0.1445  0.2449
   39MPD2    H7  606   4.118   1.174   1.930  1.2384  3.6664  1.9849
   40TCq2    C1  607   4.015   1.358   1.929 -0.1768  0.1925  0.2012
   40TCq2    O2  608   3.916   1.425   1.898 -0.0690 -0.2880 -0.4034
   40TCq2    C2  609   4.096   1.421   2.028 -0.0505  0.9931 -0.6519
   40TCq2    C3  610   4.056   1.539   2.088 -0.4330  1.2761 -0.0420
   40TCq2    C4  611   4.143   1.591   2.183 -0.2547  0.1475  0.1400
   40TCq2    C5  612   4.270   1.540   2.209  0.0830 -0.1180 -0.0693
   40TCq2    C6  613   4.306   1.429   2.134 -0.0804 -0.5807  1.2889
   40TCq2    C7  614   4.219   1.371   2.046 -0.8435 -0.6447  0.2116
   40TCq2    C8  615   4.448   1.388   2.119 -0.9991 -0.0812 -0.0829
   40TCq2    O4  616   4.483   1.308   2.033  0.4425 -0.3968  0.3053
   40TCq2    C9  617   4.103   1.717   2.250  0.0102 -0.0197  0.2322
   40TCq2    O5  618   4.193   1.775   2.314 -0.3105 -0.2130  0.2950
   40TCq2    O6  619   3.988   1.760   2.215 -0.8007 -0.2390 -0.3821
   40TCq2    H2  620   3.966   1.596   2.069 -1.4466 -0.0469  0.8464
   40TCq2    H3  621   4.344   1.585   2.275 -0.1667  1.2582 -0.7270
   40TCq2    H4  622   4.257   1.285   1.993 -0.9502  0.9073 -2.3593
   41TMC2    C1  623   3.131   3.743  13.756 -0.0948 -0.1345 -0.5193
   41TMC2    C2  624   3.253   3.691  13.783  0.8522 -0.2472 -0.4866
   41TMC2    C3  625   3.336   3.668  13.674 -0.2724 -0.1295 -0.3914
   41TMC2    C4  626   3.075   3.765  13.634 -0.2083  0.2150 -0.1944
   41TMC2    C5  627   3.155   3.736  13.525 -0.6072  0.4583 -0.5624
   41TMC2    C6  628   3.282   3.683  13.551 -0.0642 -0.6088 -0.0554
   41TMC2     C  629   3.056   3.796  13.868 -0.2046  0.2170 -0.0284
   41TMC2     O  630   2.934   3.802  13.865  0.4422 -0.6710 -0.0076
   41TMC2     H  631   3.291   3.650  13.876  1.4952  0.6322 -0.3535
   41TMC2    H1  632   2.979   3.816  13.629 -0.2672  0.1371  0.1314
   41TMC2    H2  633   3.343   3.643  13.470 -2.1122 -0.2241 -1.7985
   41TMC2    C7  634   3.114   3.759  13.391  0.3406  0.1157  0.1755
   41TMC2    C8  635   3.459   3.601  13.684  0.6942 -0.1248 -0.3222
   41TMC2    O1  636   2.999   3.780  13.363 -0.1310 -0.1770 -0.0652
   41TMC2    O2  637   3.483   3.512  13.763 -0.0495 -0.1667 -0.0297
   41TMC2    O5  638   3.561   3.674  13.619 -0.0353  0.4599 -0.1088
   41TMC2    H5  639   3.524   3.756  13.579  0.0513 -0.0940 -1.3382
   42MPD2     C  640   2.990   3.881  14.150  0.1018 -0.1960 -0.5418
   42MPD2    C1  641   3.122   3.869  14.096  0.0477  0.1440  0.5964
   42MPD2    C2  642   3.231   3.898  14.176 -0.0605 -0.2579  0.5517
   42MPD2    C3  643   3.215   3.957  14.301  0.1127  0.2693 -0.8543
   42MPD2    C4  644   3.088   3.962  14.357  0.3997  0.0796  0.6185
   42MPD2    C5  645   2.980   3.915  14.279 -0.1117 -0.4705  0.0602
   42MPD2     H  646   3.335   3.884  14.148  0.7342 -0.5277  3.6289
   42MPD2    H1  647   3.064   3.995  14.457  3.0052 -0.1196  1.2985
   42MPD2    H2  648   2.903   3.847  14.095 -0.2027 -2.5560  1.4413
   42MPD2    H3  649   2.881   3.942  14.315  0.0080 -0.3663  0.3140
   42MPD2     N  650   3.320   4.012  14.377 -0.0778  0.1278 -0.4024
   42MPD2    H5  651   3.303   4.045  14.471 -1.4664 -0.6616 -0.3746
   42MPD2    N1  652   3.146   3.822  13.968  0.2476  0.1288  0.1189
   42MPD2    H7  653   3.245   3.821  13.943  0.2944 -0.3385  0.3135
   43MPD2     C  654   0.905   3.017   1.782  0.2773 -0.2576  0.1099
   43MPD2    C1  655   0.886   2.901   1.849 -0.8334  0.1029  0.4782
   43MPD2    C2  656   0.832   2.906   1.978  0.1041  0.0214  0.5894
   43MPD2    C3  657   0.794   3.027   2.042  0.0970 -0.2838  0.3310
   43MPD2    C4  658   0.817   3.138   1.972 -0.1928 -1.0564 -0.1771
   43MPD2    C5  659   0.875   3.132   1.849  0.1450  0.0598 -0.3538
   43MPD2     H  660   0.827   2.813   2.033 -2.0986  0.4449  1.0729
   43MPD2    H1  661   0.805   3.234   2.020 -0.9872 -0.3808 -1.7134
   43MPD2    H2  662   0.949   3.022   1.683  0.8825 -0.8508  0.3457
   43MPD2    H3  663   0.924   3.217   1.802 -0.7961  0.4297 -0.6597
   43MPD2     N  664   0.750   3.050   2.174  0.6810 -0.4170 -1.2373
   43MPD2    H5  665   0.704   3.136   2.199  1.1343 -0.4668 -0.2248
   43MPD2    N1  666   0.908   2.774   1.798 -0.4723 -0.3651  0.8866
   43MPD2    H7  667   0.894   2.693   1.858  1.9783 -1.1251  0.4513
   44TCq2    C1  668   0.400   3.219   2.484 -0.0700 -0.3387  0.2169
   44TCq2    O2  669   0.392   3.279   2.592  0.2079  0.0572 -0.1419
   44TCq2    C2  670   0.496   3.105   2.484  0.4614  0.4913  0.3136
   44TCq2    C3  671   0.534   3.068   2.612  0.3096  0.1558  0.1516
   44TCq2    C4  672   0.641   2.980   2.613 -1.0021 -0.5852  0.3481
   44TCq2    C5  673   0.713   2.943   2.502 -0.8509 -0.2138  0.6217
   44TCq2    C6  674   0.669   2.983   2.380 -0.3697 -0.2878 -0.6714
   44TCq2    C7  675   0.559   3.065   2.363 -0.0778  0.1810 -0.0927
   44TCq2    C8  676   0.762   2.954   2.271  0.0918 -0.1585  0.1027
   44TCq2    O4  677   0.808   2.836   2.264  0.2401 -0.6821 -0.3438
   44TCq2    C9  678   0.697   2.942   2.739  0.0661  0.3662  0.7514
   44TCq2    O5  679   0.657   3.002   2.846  0.2265 -0.0075 -0.2222
   44TCq2    O6  680   0.798   2.863   2.739  0.2060 -0.1753 -0.0483
   44TCq2    H2  681   0.483   3.100   2.702  1.8147 -0.8347  1.3762
   44TCq2    H3  682   0.803   2.885   2.516 -0.3287 -0.0678 -2.0961
   44TCq2    H4  683   0.517   3.089   2.266 -1.4941 -1.8026  0.0381
   45TMC2    C1  684   1.281   4.059   9.295  0.2597  0.1189  1.4866
   45TMC2    C2  685   1.185   4.116   9.378 -0.1128 -0.0071  0.1508
   45TMC2    C3  686   1.224   4.222   9.460 -0.4981 -0.8789 -1.0274
   45TMC2    C4  687   1.409   4.109   9.298  0.1767  0.5807 -0.5108
   45TMC2    C5  688   1.434   4.209   9.379  0.4447  0.3199 -0.3155
   45TMC2    C6  689   1.354   4.268   9.459 -0.1031 -0.9356  0.1783
   45TMC2     C  690   1.268   3.935   9.231 -0.1771 -0.3376  0.0126
   45TMC2     O  691   1.370   3.875   9.198  0.6338  0.4491 -0.0591
   45TMC2     H  692   1.092   4.064   9.395  0.0399 -0.0793  0.7752
   45TMC2    H1  693   1.475   4.072   9.221 -1.4450 -1.6373 -0.8597
   45TMC2    H2  694   1.394   4.342   9.527  0.1761 -1.1116  0.2071
   45TMC2    C7  695   1.576   4.221   9.399  0.5570  0.0455  0.7914
   45TMC2    C8  696   1.137   4.269   9.567 -0.5187  0.6509 -0.0872
   45TMC2    O1  697   1.645   4.216   9.298 -0.4157  0.4034  0.5466
   45TMC2    O2  698   1.117   4.384   9.603 -0.2863  0.6878 -0.4080
   45TMC2    O5  699   1.079   4.163   9.616 -0.6050  0.2319  0.3658
   45TMC2    H5  700   1.125   4.078   9.603 -0.5571  0.2860  0.1828
   46MPD2     C  701   1.185   3.650   9.166  0.0282  0.2767 -0.2796
   46MPD2    C1  702   1.100   3.758   9.181  0.0334  0.2399  0.2211
   46MPD2    C2  703   0.964   3.738   9.160 -0.3180  0.8473  0.2661
   46MPD2    C3  704   0.913   3.614   9.119  0.9654 -0.1876 -0.1180
   46MPD2    C4  705   1.002   3.512   9.087  0.1173  0.3422 -0.1491
   46MPD2    C5  706   1.139   3.530   9.116  0.5668 -0.5055  0.1217
   46MPD2     H  707   0.899   3.821   9.184 -1.1431  0.1158  0.5625
   46MPD2    H1  708   0.975   3.415   9.048 -2.8188  0.4821  1.5970
   46MPD2    H2  709   1.291   3.656   9.188 -0.1632 -0.0265  0.7335
   46MPD2    H3  710   1.213   3.454   9.098  1.5548  0.3458  0.5881
   46MPD2     N  711   0.774   3.596   9.111  0.1471  0.2909 -0.8079
   46MPD2    H5  712   0.713   3.663   9.157 -0.4645  0.0182 -1.2135
   46MPD2    N1  713   1.142   3.887   9.218  0.2011  0.3191 -0.2720
   46MPD2    H7  714   1.070   3.955   9.237 -0.5634 -0.3264 -0.8870
   47TMC2    C1  715   3.928   4.563   9.509  0.3627  0.6738 -0.2518
   47TMC2    C2  716   3.805   4.612   9.540  0.2002 -0.2348  0.9029
   47TMC2    C3  717   3.703   4.590   9.461 -0.1224 -0.3808  0.6809
   47TMC2    C4  718   3.945   4.483   9.399 -0.0914  0.1419  0.1749
   47TMC2    C5  719   3.838   4.471   9.315 -0.0590  0.5899  0.3951
   47TMC2    C6  720   3.717   4.528   9.342  0.7567 -0.6063  0.0977
   47TMC2     C  721   4.026   4.561   9.609 -0.0051 -0.1716 -0.5157
   47TMC2     O  722   4.023   4.657   9.684 -0.4260 -0.8834 -0.1204
   47TMC2     H  723   3.794   4.652   9.640  0.1034 -0.8023  1.1172
   47TMC2    H1  724   4.041   4.441   9.371 -0.0160  1.3215 -1.3230
   47TMC2    H2  725   3.636   4.525   9.270  1.3278 -0.5023 -0.5513
   47TMC2    C7  726   3.846   4.367   9.223  0.0035 -1.1322 -0.0497
   47TMC2    C8  727   3.573   4.627   9.502 -0.1930  0.3251  0.2267
   47TMC2    O1  728   3.945   4.367   9.150 -0.2847  0.0410  0.2276
   47TMC2    O2  729   3.561   0.001   9.571 -0.1907 -0.3197  0.4921
   47TMC2    O5  730   3.477   4.543   9.459  0.2510  0.0103  0.3151
   47TMC2    H5  731   3.507   4.450   9.454  1.3935  0.4252 -0.7259
   48MPD2     C  732   4.227   4.482   9.817 -0.0976  0.1088  0.1567
   48MPD2    C1  733   4.201   4.408   9.704 -0.3239  0.0600 -0.1435
   48MPD2    C2  734   4.256   4.281   9.693  0.5702  0.1532 -0.0642
   48MPD2    C3  735   4.324   4.226   9.797 -0.0543  0.0278  0.7770
   48MPD2    C4  736   4.353   4.297   9.903 -0.1893 -0.7436  0.2939
   48MPD2    C5  737   4.303   4.426   9.912 -0.8325 -0.2393 -0.5117
   48MPD2     H  738   4.228   4.219   9.609 -1.2836  2.7067 -1.3470
   48MPD2    H1  739   4.405   4.258   9.989 -0.3141 -0.8482  0.3227
   48MPD2    H2  740   4.180   4.580   9.825 -1.2228 -0.4941  0.8236
   48MPD2    H3  741   4.339   4.482   9.997 -1.2746 -1.3877  0.4275
   48MPD2     N  742   4.345   4.086   9.790 -0.7354 -0.8966  0.0420
   48MPD2    H5  743   4.313   4.045   9.703  0.3257  0.4373 -0.9639
   48MPD2    N1  744   4.107   4.445   9.608  0.0064 -0.2032  0.6984
   48MPD2    H7  745   4.082   4.369   9.546  0.5400 -0.4590  0.7975
   49MPD2     C  746   1.652   1.862   9.959  0.0672  0.3571 -0.1737
   49MPD2    C1  747   1.564   1.782  10.026  0.6150  0.4602 -0.3050
   49MPD2    C2  748   1.510   1.825  10.147  0.1938  0.1011  0.3913
   49MPD2    C3  749   1.533   1.950  10.199 -0.2542 -0.4424 -0.8486
   49MPD2    C4  750   1.634   2.026  10.137  0.1797 -0.6717 -0.0914
   49MPD2    C5  751   1.690   1.984  10.019 -0.5203  0.2835 -0.5467
   49MPD2     H  752   1.422   1.770  10.179 -0.5827  0.6745 -0.7819
   49MPD2    H1  753   1.662   2.124  10.174 -1.0329 -0.7024  0.9090
   49MPD2    H2  754   1.710   1.840   9.870  0.3499  3.5266 -0.7752
   49MPD2    H3  755   1.762   2.042   9.962  0.7240 -0.0134  0.7106
   49MPD2     N  756   1.468   1.997  10.315  0.1086  0.0856 -0.2565
   49MPD2    H5  757   1.491   2.092  10.343 -1.0035  0.1055  0.6031
   49MPD2    N1  758   1.519   1.657   9.968 -0.2602 -0.6820 -0.7712
   49MPD2    H7  759   1.458   1.598  10.024 -0.5844 -1.1356 -1.5979
   50TCq2    C1  760   1.517   1.625   9.833 -0.0419  0.5878  0.1889
   50TCq2    O2  761   1.528   1.704   9.743  0.6816  0.2475  0.1191
   50TCq2    C2  762   1.477   1.492   9.803 -0.5067  0.6874  0.6318
   50TCq2    C3  763   1.542   1.389   9.873  0.2286  0.0951  0.3948
   50TCq2    C4  764   1.517   1.261   9.833  0.8866 -0.1143 -0.0196
   50TCq2    C5  765   1.439   1.235   9.721 -0.0926 -0.3189  0.5793
   50TCq2    C6  766   1.391   1.338   9.644 -0.5930 -0.6805 -0.6170
   50TCq2    C7  767   1.409   1.470   9.683 -0.3513  0.3368 -0.3452
   50TCq2    C8  768   1.343   1.311   9.510  0.6805 -1.3957  0.3254
   50TCq2    O4  769   1.301   1.401   9.436 -0.3774 -0.1764  0.3851
   50TCq2    C9  770   1.577   1.155   9.907 -0.2847  0.0802  0.1192
   50TCq2    O5  771   1.676   1.177   9.977 -0.5052 -0.6250 -0.0192
   50TCq2    O6  772   1.558   1.032   9.876  0.0765  0.3181  0.3723
   50TCq2    H2  773   1.603   1.409   9.960 -0.6165  0.3990  0.9190
   50TCq2    H3  774   1.422   1.133   9.690  0.9073 -0.5952  0.9514
   50TCq2    H4  775   1.387   1.556   9.621 -0.5088  0.8395  0.4154
   51MPD2     C  776   0.598   1.327   1.111 -0.3628 -0.3577  0.1566
   51MPD2    C1  777   0.670   1.211   1.109 -0.2210  0.7177 -0.1869
   51MPD2    C2  778   0.780   1.195   1.184  0.2567 -0.6683  1.0555
   51MPD2    C3  779   0.835   1.298   1.263 -0.3092 -0.7258 -0.5366
   51MPD2    C4  780   0.772   1.422   1.253 -0.4339  0.5903  0.3675
   51MPD2    C5  781   0.653   1.434   1.178 -0.6210 -0.5138 -0.0700
   51MPD2     H  782   0.830   1.099   1.187  1.7606  0.0858  0.3314
   51MPD2    H1  783   0.806   1.510   1.307 -1.1075  0.4398  1.0320
   51MPD2    H2  784   0.518   1.345   1.041  0.1807 -0.9717 -0.6285
   51MPD2    H3  785   0.596   1.525   1.168  0.9431  0.2902 -1.5852
   51MPD2     N  786   0.956   1.286   1.343  0.2250  0.4370  0.2884
   51MPD2    H5  787   0.986   1.365   1.399 -0.9026 -0.6951  2.4908
   51MPD2    N1  788   0.631   1.097   1.035  0.1380  0.3190  0.3177
   51MPD2    H7  789   0.690   1.014   1.035  1.0501  0.9746 -0.3359
   52TCq2    C1  790   1.027   1.165   1.364  0.3167 -0.3480  0.0268
   52TCq2    O2  791   1.011   1.060   1.308 -0.6012  0.2902  0.5221
   52TCq2    C2  792   1.124   1.169   1.477 -0.4177  0.3519 -0.0582
   52TCq2    C3  793   1.145   1.056   1.556 -0.1866 -0.2104 -1.1906
   52TCq2    C4  794   1.232   1.066   1.659 -0.4143  0.4755  0.2917
   52TCq2    C5  795   1.300   1.183   1.681 -0.3633  0.5393  0.7971
   52TCq2    C6  796   1.276   1.291   1.607 -0.4611  0.3761 -0.8180
   52TCq2    C7  797   1.196   1.292   1.496 -0.3335  0.2721 -0.2825
   52TCq2    C8  798   1.330   1.415   1.664 -0.0572  0.1821  0.5344
   52TCq2    O4  799   1.415   1.401   1.753  0.5406  0.7180 -0.1291
   52TCq2    C9  800   1.265   0.955   1.735 -0.0359  0.0009 -0.2278
   52TCq2    O5  801   1.343   0.965   1.837 -0.0730 -1.0798 -0.1408
   52TCq2    O6  802   1.202   0.847   1.712  0.2391 -0.2835  0.4797
   52TCq2    H2  803   1.098   0.960   1.535 -1.0745  0.0960 -0.6086
   52TCq2    H3  804   1.352   1.186   1.777 -1.0704  0.8532  1.1714
   52TCq2    H4  805   1.198   1.373   1.424 -0.0443 -0.1938 -0.7969
   53TMC2    C1  806   2.689   3.672  11.954  0.4791  0.4596  0.0491
   53TMC2    C2  807   2.806   3.653  12.033 -0.2944  0.5950  0.0678
   53TMC2    C3  808   2.796   3.662  12.174 -0.0555  0.6877 -0.1183
   53TMC2    C4  809   2.578   3.710  12.017  0.1371 -0.1427 -0.0290
   53TMC2    C5  810   2.580   3.729  12.150  0.3406 -0.9827  0.5286
   53TMC2    C6  811   2.679   3.693  12.240  0.4628  0.0007 -0.4718
   53TMC2     C  812   2.694   3.679  11.813 -0.2006  0.3048  0.2093
   53TMC2     O  813   2.805   3.669  11.764  0.2082  0.0749 -0.4394
   53TMC2     H  814   2.904   3.640  11.986 -0.7336  0.6600 -0.8740
   53TMC2    H1  815   2.482   3.720  11.968  0.1402 -3.3327 -0.6458
   53TMC2    H2  816   2.679   3.714  12.346  0.4733  0.5667 -0.5843
   53TMC2    C7  817   2.458   3.788  12.202 -0.0700  0.9103 -0.2090
   53TMC2    C8  818   2.914   3.688  12.248  0.4603  0.7862  0.0290
   53TMC2    O1  819   2.387   3.851  12.123  0.3346 -0.2442 -0.1633
   53TMC2    O2  820   2.924   3.628  12.352  0.2150  0.3154  0.1344
   53TMC2    O5  821   2.915   3.820  12.239  0.2811 -0.0697  0.0487
   53TMC2    H5  822   2.871   3.851  12.157 -1.7029  0.4349  1.3149
   54MPD2     C  823   2.641   3.772  11.540 -0.1734 -0.0059  0.1015
   54MPD2    C1  824   2.543   3.749  11.628  0.1260 -0.4660  0.2695
   54MPD2    C2  825   2.416   3.766  11.592  0.0860  0.3913 -0.8662
   54MPD2    C3  826   2.389   3.807  11.457 -0.0377 -0.1590  0.0057
   54MPD2    C4  827   2.480   3.849  11.372  0.0878 -0.0672 -0.4759
   54MPD2    C5  828   2.608   3.824  11.413 -0.1471  0.5043  0.5924
   54MPD2     H  829   2.339   3.732  11.661 -0.5846 -0.9219 -2.2710
   54MPD2    H1  830   2.467   3.901  11.278 -2.3008 -0.2434 -0.2506
   54MPD2    H2  831   2.747   3.753  11.550  0.0439  1.5244  0.5920
   54MPD2    H3  832   2.691   3.835  11.344 -1.1180  0.4583 -0.5721
   54MPD2     N  833   2.259   3.807  11.407 -0.0407 -0.6849 -0.1700
   54MPD2    H5  834   2.236   3.842  11.314 -0.7333  1.7634  0.9032
   54MPD2    N1  835   2.571   3.701  11.754  0.3577 -0.4355  0.0939
   54MPD2    H7  836   2.490   3.674  11.809  0.4465 -0.1962  0.3448
   55MPD2     C  837   2.359   1.573   1.071  0.4158 -0.6764  0.3675
   55MPD2    C1  838   2.284   1.464   1.096  0.9285 -0.0392  0.7446
   55MPD2    C2  839   2.149   1.486   1.122  0.2593 -0.0631 -0.2140
   55MPD2    C3  840   2.094   1.611   1.117 -0.1986 -0.6392  0.0845
   55MPD2    C4  841   2.166   1.715   1.091  0.2569 -0.0392 -0.5859
   55MPD2    C5  842   2.298   1.699   1.058  0.1037  0.0712 -0.2682
   55MPD2     H  843   2.079   1.403   1.130 -2.0083  1.6649 -2.2801
   55MPD2    H1  844   2.141   1.817   1.064 -1.0105 -0.5741 -1.4114
   55MPD2    H2  845   2.464   1.565   1.046  0.6962  2.6951  0.3967
   55MPD2    H3  846   2.349   1.789   1.026 -0.0921  0.4247  0.4007
   55MPD2     N  847   1.951   1.621   1.135 -0.5751 -0.4364 -0.0523
   55MPD2    H5  848   1.901   1.536   1.156  0.7588 -0.8687  1.3403
   55MPD2    N1  849   2.343   1.335   1.079  0.5589  0.8150  0.1757
   55MPD2    H7  850   2.440   1.337   1.049  0.9671  2.3590  1.5608
   56TCq2    C1  851   2.277   1.215   1.102 -0.8040  0.3163 -1.0685
   56TCq2    O2  852   2.179   1.193   1.172  0.1711 -1.0881  0.2139
   56TCq2    C2  853   2.338   1.104   1.037  1.7150  0.1563  0.4803
   56TCq2    C3  854   2.455   1.118   0.969 -0.2855 -0.0373 -0.2017
   56TCq2    C4  855   2.504   1.003   0.913  0.2311  0.6511  0.4068
   56TCq2    C5  856   2.441   0.882   0.932 -0.4457 -0.0415  0.5755
   56TCq2    C6  857   2.324   0.880   1.003  0.7677  0.7859 -0.2256
   56TCq2    C7  858   2.268   0.990   1.063  0.5387  0.1388 -0.5519
   56TCq2    C8  859   2.256   0.750   0.996 -0.0347 -0.2234 -0.2261
   56TCq2    O4  860   2.317   0.646   0.970  0.5538 -0.1140  0.1692
   56TCq2    C9  861   2.627   1.003   0.847  0.0665  0.0079 -0.0933
   56TCq2    O5  862   2.684   1.116   0.847  0.6441 -0.1323 -0.1741
   56TCq2    O6  863   2.672   0.906   0.776  0.2013 -0.2534  0.3142
   56TCq2    H2  864   2.509   1.212   0.971 -1.7865  0.8052  0.9889
   56TCq2    H3  865   2.475   0.792   0.884  2.4145  2.2643 -1.7376
   56TCq2    H4  866   2.180   0.982   1.125  0.4167 -3.8098 -1.2442
   57TMC2    C1  867   2.106   2.863  13.344  0.2090  0.0190  0.4875
   57TMC2    C2  868   2.109   2.997  13.359  0.1358 -0.0161  0.7123
   57TMC2    C3  869   2.218   3.061  13.310 -0.8500  0.6449  0.2300
   57TMC2    C4  870   2.218   2.801  13.305 -0.4099 -0.1249 -0.1666
   57TMC2    C5  871   2.334   2.862  13.267 -0.9370 -0.0466 -0.4835
   57TMC2    C6  872   2.338   3.001  13.279  0.1053  0.0327 -0.4559
   57TMC2     C  873   2.019   2.782  13.430 -0.7590 -0.2114  0.0953
   57TMC2     O  874   1.970   2.833  13.530  0.2645 -0.9225 -0.1545
   57TMC2     H  875   2.024   3.058  13.388  0.7860 -0.3866  3.4084
   57TMC2    H1  876   2.219   2.693  13.308 -1.4258 -0.1109  1.0774
   57TMC2    H2  877   2.412   3.073  13.247  0.3811  0.1932  0.5254
   57TMC2    C7  878   2.444   2.798  13.194 -0.1796  0.2742  0.3934
   57TMC2    C8  879   2.205   3.203  13.295  0.3553 -0.0020 -0.2683
   57TMC2    O1  880   2.538   2.869  13.166  0.5430  0.0611  0.5084
   57TMC2    O2  881   2.182   3.266  13.394 -0.6077  0.2343 -0.4498
   57TMC2    O5  882   2.272   3.243  13.182  0.0328  0.3625  0.7043
   57TMC2    H5  883   2.301   3.170  13.123  0.2315 -0.0677  1.3413
   58MPD2     C  884   1.691   2.400  13.470 -0.2589  0.3153  0.1464
   58MPD2    C1  885   1.699   2.517  13.543  0.1979  0.3248  0.8002
   58MPD2    C2  886   1.799   2.600  13.510 -0.3226  0.9166  0.2301
   58MPD2    C3  887   1.886   2.572  13.409 -0.2862 -0.3651  0.0812
   58MPD2    C4  888   1.883   2.451  13.344 -0.0236 -0.0636  0.0163
   58MPD2    C5  889   1.782   2.367  13.369 -0.1585 -0.0713 -0.2328
   58MPD2     H  890   1.796   2.693  13.565  0.5959  0.2364  1.4412
   58MPD2    H1  891   1.941   2.446  13.253  1.3672 -0.2993  0.9128
   58MPD2    H2  892   1.620   2.326  13.506  0.7619 -1.2314 -1.0212
   58MPD2    H3  893   1.780   2.267  13.328 -1.2086 -1.3994  3.0259
   58MPD2     N  894   1.992   2.659  13.373 -0.6881  0.1425 -0.4304
   58MPD2    H5  895   2.045   2.644  13.288  1.7940  1.5621  0.8669
   58MPD2    N1  896   1.602   2.556  13.640  0.0545 -0.3205 -0.3260
   58MPD2    H7  897   1.619   2.638  13.697  2.9646 -0.0361 -1.5989
   59MPD2     C  898   0.546   2.596  12.895 -0.4137 -0.5792 -0.2084
   59MPD2    C1  899   0.438   2.674  12.933 -0.2858 -0.0891 -0.3469
   59MPD2    C2  900   0.447   2.770  13.036 -0.0727 -0.3959  0.0220
   59MPD2    C3  901   0.568   2.788  13.095 -0.8156  0.6089 -0.8703
   59MPD2    C4  902   0.677   2.727  13.044 -0.7861  0.8393  0.8683
   59MPD2    C5  903   0.667   2.627  12.950 -0.3625  0.4019 -0.3261
   59MPD2     H  904   0.363   2.826  13.076  2.2315  2.1151  1.3212
   59MPD2    H1  905   0.773   2.751  13.089 -0.2677  4.7520 -2.3075
   59MPD2    H2  906   0.548   2.510  12.830  1.3827 -1.2834  0.7816
   59MPD2    H3  907   0.756   2.575  12.915  0.8223  1.0923  1.6530
   59MPD2     N  908   0.582   2.887  13.185  0.9913  0.2179  0.0779
   59MPD2    H5  909   0.673   2.929  13.201  2.1336 -1.8831 -0.9643
   59MPD2    N1  910   0.311   2.646  12.877 -0.4314  0.4850  0.1232
   59MPD2    H7  911   0.232   2.694  12.917  0.5449  0.8791  1.5716
   60TCq2    C1  912   0.285   2.543  12.785  0.3885  0.0936 -0.2319
   60TCq2    O2  913   0.362   2.474  12.719 -0.0679 -0.0913  0.3694
   60TCq2    C2  914   0.142   2.539  12.749  1.2138  0.2478  0.1101
   60TCq2    C3  915   0.051   2.603  12.829 -0.0009  0.1538 -1.0111
   60TCq2    C4  916   4.649   2.619  12.782  0.2880  0.0186  0.0170
   60TCq2    C5  917   4.623   2.599  12.648  0.2031  0.3521  0.1180
   60TCq2    C6  918   4.718   2.555  12.563 -0.1302  0.6463  0.5622
   60TCq2    C7  919   0.116   2.530  12.614  0.0920  0.1281  1.1250
   60TCq2    C8  920   4.695   2.562  12.419  0.7326 -0.1190 -0.5861
   60TCq2    O4  921   0.038   2.494  12.340 -0.5916  0.5807  0.1170
   60TCq2    C9  922   4.543   2.637  12.879  0.5777 -0.4150  0.1533
   60TCq2    O5  923   4.430   2.598  12.847 -0.4903  0.4363  0.3377
   60TCq2    O6  924   4.585   2.701  12.980  0.7208  0.1146  0.2451
   60TCq2    H2  925   0.070   2.594  12.935 -1.8848 -0.7982 -0.7533
   60TCq2    H3  926   4.522   2.594  12.609  0.3102 -3.2745  0.2717
   60TCq2    H4  927   0.189   2.504  12.539 -0.0237 -1.2504  1.4838
   61MPD2     C  928   4.448   4.715  15.577 -0.3313  0.3801 -0.1261
   61MPD2    C1  929   4.388   4.608  15.518 -0.7619  0.2194  0.1078
   61MPD2    C2  930   4.414   4.594  15.383  0.5418  0.1577 -0.2009
   61MPD2    C3  931   4.500   4.682  15.314  0.4122  0.2823  0.0756
   61MPD2    C4  932   4.558   0.060  15.377 -0.0069 -0.6108  0.4362
   61MPD2    C5  933   4.515   0.086  15.504 -1.2052  0.1193  0.1305
   61MPD2     H  934   4.373   4.505  15.337 -1.0452  1.8925 -2.1158
   61MPD2    H1  935   4.605   0.137  15.317 -1.3943  1.1068  1.5300
   61MPD2    H2  936   4.440   0.009  15.684 -0.5497 -0.2427 -0.0271
   61MPD2    H3  937   4.541   0.175  15.559 -2.2285  0.2587  0.3871
   61MPD2     N  938   4.518   4.665  15.173 -0.3421 -0.1905 -0.0107
   61MPD2    H5  939   4.573   0.010  15.125 -0.7746  0.5265  0.5561
   61MPD2    N1  940   4.294   4.534  15.594 -0.0689 -0.3102 -0.2184
   61MPD2    H7  941   4.276   4.569  15.688  2.4366  2.4590 -0.7900
   62TCq2    C1  942   4.218   4.429  15.550 -0.2118  0.5158  0.0390
   62TCq2    O2  943   4.230   4.365  15.446  0.5267  0.3662 -0.2558
   62TCq2    C2  944   4.098   4.409  15.633  0.3680  0.2640  0.0683
   62TCq2    C3  945   4.028   4.292  15.630  0.2286  0.3218  0.2522
   62TCq2    C4  946   3.903   4.290  15.681 -0.4060  0.4224 -0.4687
   62TCq2    C5  947   3.836   4.404  15.725  0.6547  0.1869 -0.4805
   62TCq2    C6  948   3.901   4.516  15.716  0.1257 -0.1815  0.1846
   62TCq2    C7  949   4.028   4.525  15.661  0.4364 -0.0396  0.0545
   62TCq2    C8  950   3.818   4.641  15.710 -0.0676  0.1528  0.1157
   62TCq2    O4  951   3.862   0.004  15.642  0.1310 -0.3485  0.2830
   62TCq2    C9  952   3.840   4.154  15.693  0.7019  0.1396  0.6006
   62TCq2    O5  953   3.918   4.057  15.677  0.4368 -0.4088  0.2058
   62TCq2    O6  954   3.726   4.148  15.741 -0.0827 -0.5380 -0.3619
   62TCq2    H2  955   4.080   4.201  15.600  0.6460  1.2448 -1.8014
   62TCq2    H3  956   3.734   4.390  15.757 -0.2307  2.7949 -2.1452
   62TCq2    H4  957   4.068   4.625  15.654 -0.8197  0.4163 -0.7869
   63TMC2    C1  958   3.886   3.922  11.202  0.7609 -0.0175 -0.5899
   63TMC2    C2  959   3.985   3.946  11.293  0.8426 -0.0685  0.4245
   63TMC2    C3  960   4.108   3.982  11.244 -0.6594 -0.4483  0.0086
   63TMC2    C4  961   3.900   3.955  11.072 -0.7324  0.7947 -0.0419
   63TMC2    C5  962   4.021   4.004  11.034  0.2851  0.1897  0.3321
   63TMC2    C6  963   4.128   4.022  11.119 -0.0629  0.2283 -0.5088
   63TMC2     C  964   3.765   3.863  11.251 -0.2214  0.1053 -0.5069
   63TMC2     O  965   3.773   3.834  11.370  0.2091  0.5059  0.0228
   63TMC2     H  966   3.979   3.921  11.399 -0.4762 -1.3333  0.0423
   63TMC2    H1  967   3.816   3.954  11.004 -0.6290  0.8723 -0.1707
   63TMC2    H2  968   4.228   4.042  11.082  0.0814 -0.3176 -0.4209
   63TMC2    C7  969   4.047   3.986  10.889 -0.2916 -0.2099 -0.4587
   63TMC2    C8  970   4.207   4.042  11.325 -0.0670 -0.0537  0.0103
   63TMC2    O1  971   3.977   3.909  10.828  0.2227  0.4067  0.0216
   63TMC2    O2  972   4.284   4.135  11.307 -0.2333  0.2764  0.0128
   63TMC2    O5  973   4.231   3.954  11.423 -0.3292 -0.0892  0.8737
   63TMC2    H5  974   4.177   3.872  11.422  0.7999 -0.8225 -0.1981
   64MPD2     C  975   3.488   3.439  11.160  0.6791 -0.4230 -0.2367
   64MPD2    C1  976   3.549   3.473  11.038  0.3619 -0.1709 -0.3674
   64MPD2    C2  977   3.621   3.592  11.041 -0.2106 -0.5244  0.2337
   64MPD2    C3  978   3.628   3.679  11.153 -0.3631  0.6084  0.4215
   64MPD2    C4  979   3.550   3.646  11.262 -0.2144 -0.6056 -0.2936
   64MPD2    C5  980   3.483   3.525  11.261  0.7048 -0.0003  0.0937
   64MPD2     H  981   3.672   3.628  10.952  2.1048  1.5350  2.4020
   64MPD2    H1  982   3.552   3.704  11.354  0.1732  1.7861 -1.8137
   64MPD2    H2  983   3.445   3.342  11.176 -0.6998 -0.0707 -1.7929
   64MPD2    H3  984   3.435   3.495  11.353 -0.8311  0.1007 -0.6741
   64MPD2     N  985   3.723   3.780  11.151  0.3343 -0.0157 -0.0339
   64MPD2    H5  986   3.771   3.789  11.061  0.3394 -0.3994 -0.0686
   64MPD2    N1  987   3.553   3.391  10.924 -0.7486 -0.2681  0.0985
   64MPD2    H7  988   3.599   3.426  10.839 -0.1048 -0.3522  0.4096
   65MPD2     C  989   4.573   4.048  15.699 -0.2485 -0.4951 -0.1020
   65MPD2    C1  990   4.441   4.035  15.737  0.1426 -0.4589 -0.6335
   65MPD2    C2  991   4.377   3.923  15.699 -0.3510  0.0578 -0.1469
   65MPD2    C3  992   4.439   3.814  15.639 -0.1334 -0.6828 -0.0601
   65MPD2    C4  993   4.576   3.820  15.613  0.4051 -0.1157 -0.8537
   65MPD2    C5  994   4.637   3.942  15.642 -0.1636 -0.3556  0.8083
   65MPD2     H  995   4.271   3.908  15.717 -0.1318 -1.2344  0.1151
   65MPD2    H1  996   4.627   3.739  15.563 -0.0197 -1.4207  0.8042
   65MPD2    H2  997   4.635   4.134  15.716 -0.9501 -0.1072  0.5017
   65MPD2    H3  998   0.011   3.962  15.606 -1.0838  3.0493  0.1348
   65MPD2     N  999   4.363   3.695  15.607  0.3974 -0.5477  0.2080
   65MPD2    H5 1000   4.268   3.686  15.642  0.5952  0.6588  1.0367
   65MPD2    N1 1001   4.369   4.125  15.823 -0.2742 -0.2031 -0.6717
   65MPD2    H7 1002   4.274   4.096  15.846  0.3378 -1.2964  0.4253
   66TCq2    C1 1003   4.415   4.248  15.869 -0.1151 -0.7474  0.2293
   66TCq2    O2 1004   4.514   4.305  15.835  0.0618  0.3884 -0.5981
   66TCq2    C2 1005   4.326   4.319  15.958  0.1086  0.3260 -0.2897
   66TCq2    C3 1006   4.216   4.252  16.005 -0.3488  0.3826  0.6011
   66TCq2    C4 1007   4.102   4.324  16.042  0.2674 -0.3511  0.0425
   66TCq2    C5 1008   4.098   4.461  16.027 -0.4333  0.2830  1.0535
   66TCq2    C6 1009   4.213   4.524  15.991 -0.3470  0.0730 -0.3273
   66TCq2    C7 1010   4.317   4.454  15.957 -0.1765  0.2730 -0.2883
   66TCq2    C8 1011   4.210   4.660  15.943  0.1407 -0.2718 -0.3088
   66TCq2    O4 1012   4.263   4.667  15.835 -0.1463  0.0554 -0.1350
   66TCq2    C9 1013   3.987   4.251  16.081 -0.6011 -0.4957  0.8184
   66TCq2    O5 1014   3.993   4.129  16.062  0.1277 -0.0532  0.8130
   66TCq2    O6 1015   3.892   4.310  16.136 -0.3084 -0.9202 -0.3290
   66TCq2    H2 1016   4.215   4.144  16.009  3.1276  0.3259 -0.2831
   66TCq2    H3 1017   3.999   4.503  16.045 -0.9013 -0.3217 -0.1257
   66TCq2    H4 1018   4.397   4.501  15.901 -2.6510  1.8277 -2.5005
   67MPD2     C 1019   4.413   2.756  14.142 -0.0077 -0.2216 -0.1907
   67MPD2    C1 1020   4.388   2.887  14.161  0.0541 -0.1374  0.0422
   67MPD2    C2 1021   4.300   2.947  14.071  0.3120  0.3955 -0.4613
   67MPD2    C3 1022   4.239   2.875  13.964  0.3052 -0.8332  0.1889
   67MPD2    C4 1023   4.287   2.752  13.940  0.4174  0.0644 -0.0686
   67MPD2    C5 1024   4.372   2.693  14.027 -0.6922  1.2156  0.0034
   67MPD2     H 1025   4.274   3.048  14.100 -1.4286 -0.0197 -0.6069
   67MPD2    H1 1026   4.247   2.698  13.855  3.1705 -1.6984 -0.2293
   67MPD2    H2 1027   4.471   2.694  14.210  1.5087  2.1398  0.6870
   67MPD2    H3 1028   4.397   2.590  14.005  1.4803  1.8843 -0.6172
   67MPD2     N 1029   4.125   2.923  13.898  0.2981 -0.1969  0.4173
   67MPD2    H5 1030   4.094   3.013  13.932  0.5204 -0.8305  2.3010
   67MPD2    N1 1031   4.429   2.965  14.271  0.1992  0.0440  0.1061
   67MPD2    H7 1032   4.406   3.064  14.272 -0.9157 -0.2583  2.8815
   68TCq2    C1 1033   4.532   2.927  14.354 -0.0783 -0.4877 -0.1277
   68TCq2    O2 1034   4.580   2.816  14.367  0.5895 -0.3075 -0.3415
   68TCq2    C2 1035   4.580   3.039  14.429 -0.4444 -0.0901  0.5694
   68TCq2    C3 1036   4.501   3.151  14.443  0.6489  0.2163 -0.3650
   68TCq2    C4 1037   4.554   3.265  14.492  0.3402  0.8513 -0.5255
   68TCq2    C5 1038   4.683   3.261  14.537 -0.0802  1.0291  0.2484
   68TCq2    C6 1039   0.030   3.150  14.529 -0.1212 -0.2548 -0.4636
   68TCq2    C7 1040   4.713   3.039  14.464  0.5573  0.6968  0.0130
   68TCq2    C8 1041   0.158   3.146  14.593 -0.6809 -0.0795 -0.4047
   68TCq2    O4 1042   0.239   3.068  14.551 -0.5408 -0.2574  0.3567
   68TCq2    C9 1043   4.479   3.388  14.503 -0.0452  0.2441 -0.2932
   68TCq2    O5 1044   4.374   3.405  14.431  0.4935 -0.5228 -0.2188
   68TCq2    O6 1045   4.503   3.456  14.609 -0.5471  0.3165 -0.5929
   68TCq2    H2 1046   4.395   3.142  14.427  0.4927  1.5781 -0.0991
   68TCq2    H3 1047   4.721   3.349  14.590 -1.7141  1.9552 -0.1246
   68TCq2    H4 1048   0.053   2.955  14.448  0.2345  0.1304  1.6277
   69TMC2    C1 1049   1.834   4.407  11.863  0.1010 -0.3668  0.3668
   69TMC2    C2 1050   1.732   4.359  11.788  0.8455 -0.1917  0.3217
   69TMC2    C3 1051   1.759   4.356  11.652  0.0762  0.2008 -0.0563
   69TMC2    C4 1052   1.954   4.446  11.808 -0.3044 -0.1402 -0.2395
   69TMC2    C5 1053   1.976   4.434  11.675 -0.5174 -0.2296 -0.0744
   69TMC2    C6 1054   1.882   4.380  11.591  0.3756  0.1048  0.1799
   69TMC2     C 1055   1.823   4.397  12.006 -0.5349  0.2747  0.2748
   69TMC2     O 1056   1.929   4.408  12.069  0.8185  0.3371  0.5602
   69TMC2     H 1057   1.637   4.318  11.819  0.7741 -0.1181  0.2001
   69TMC2    H1 1058   2.035   4.481  11.871 -1.4103  1.6573  0.1655
   69TMC2    H2 1059   1.900   4.339  11.492  0.9863 -0.9387  0.7308
   69TMC2    C7 1060   2.118   4.440  11.628 -0.7842 -0.4506 -0.1250
   69TMC2    C8 1061   1.643   4.314  11.560  0.0944 -0.0819  0.0392
   69TMC2    O1 1062   2.204   4.439  11.711 -0.2202 -0.2470  0.4896
   69TMC2    O2 1063   1.528   4.289  11.598  0.8734  0.3245 -0.0058
   69TMC2    O5 1064   1.672   4.366  11.433 -0.2748  0.1877 -0.3945
   69TMC2    H5 1065   1.764   4.384  11.405 -0.3452 -1.5652 -1.7389
   70MPD2     C 1066   1.538   4.403  12.224  0.1274 -0.1818 -0.6330
   70MPD2    C1 1067   1.669   4.371  12.186 -0.5130  0.1036 -0.2588
   70MPD2    C2 1068   1.748   4.314  12.280  0.0095  0.4836 -0.0430
   70MPD2    C3 1069   1.710   4.296  12.415  0.2362  0.6045 -0.2627
   70MPD2    C4 1070   1.580   4.332  12.447 -0.2181 -0.6553  0.4628
   70MPD2    C5 1071   1.499   4.382  12.352  0.2500 -0.4230 -0.1270
   70MPD2     H 1072   1.851   4.286  12.259 -0.0946  0.7919 -0.9977
   70MPD2    H1 1073   1.548   4.315  12.549  1.9320 -0.0614  1.2395
   70MPD2    H2 1074   1.457   4.444  12.165  0.7647  1.5493 -0.2990
   70MPD2    H3 1075   1.404   4.423  12.384 -0.5726 -1.6640 -0.9835
   70MPD2     N 1076   1.788   4.238  12.515 -0.6531  0.1521  0.2472
   70MPD2    H5 1077   1.754   4.248  12.610  1.1042 -0.3864  0.9409
   70MPD2    N1 1078   1.694   4.393  12.049  0.6263  0.1211 -0.1827
   70MPD2    H7 1079   1.619   4.424  11.989  1.2439 -0.8751 -1.4667
   71TMC2    C1 1080   3.673   4.521   2.116 -0.0510  0.3952  0.6734
   71TMC2    C2 1081   3.684   4.498   2.248 -0.1107  0.7194  0.6184
   71TMC2    C3 1082   3.567   4.447   2.304 -0.0326  0.2263 -0.0286
   71TMC2    C4 1083   3.560   4.485   2.041 -0.2515  0.3137  0.2396
   71TMC2    C5 1084   3.458   4.425   2.102  0.0790  0.4364  0.2835
   71TMC2    C6 1085   3.455   4.397   2.235  0.7464 -0.1089  0.1064
   71TMC2     C 1086   3.778   4.579   2.040  0.4128  0.4419 -0.0292
   71TMC2     O 1087   3.757   4.621   1.925  0.0986  0.2751 -0.0237
   71TMC2     H 1088   3.760   4.548   2.308  1.6737 -1.2087 -0.0506
   71TMC2    H1 1089   3.552   4.501   1.934  0.1798  1.2872  0.3502
   71TMC2    H2 1090   3.371   4.349   2.284  0.5119 -1.4547 -1.6291
   71TMC2    C7 1091   3.347   4.371   2.029  0.3719  0.3313  0.2397
   71TMC2    C8 1092   3.546   4.435   2.449 -0.2171  0.1486 -0.4262
   71TMC2    O1 1093   3.303   4.271   2.081 -0.4574 -0.5945  0.0034
   71TMC2    O2 1094   3.459   4.367   2.498  0.0870  0.2018 -0.4778
   71TMC2    O5 1095   3.599   4.539   2.513  0.0632  0.7034 -0.0555
   71TMC2    H5 1096   3.649   4.595   2.449  1.2340 -1.8505 -1.3830
   72MPD2     C 1097   4.251   0.013   1.976 -0.4016 -0.1737 -0.0282
   72MPD2    C1 1098   4.138   0.036   1.901 -0.6661 -0.0501 -0.1388
   72MPD2    C2 1099   4.021   4.701   1.943 -0.6310  0.0219 -0.1934
   72MPD2    C3 1100   4.009   4.633   2.064  0.9783  0.0735 -0.0614
   72MPD2    C4 1101   4.129   4.611   2.128  0.5705  0.7423 -0.2493
   72MPD2    C5 1102   4.248   4.672   2.092 -0.8358  0.4250  1.1422
   72MPD2     H 1103   3.941   4.715   1.871 -1.0487  1.1056  0.4838
   72MPD2    H1 1104   4.133   4.545   2.214  0.6745  0.2172 -0.6587
   72MPD2    H2 1105   4.345   0.058   1.944  1.2203 -2.3921  1.6352
   72MPD2    H3 1106   4.343   4.656   2.142 -0.3160  0.5949  0.2220
   72MPD2     N 1107   3.894   4.576   2.107 -0.2092  0.7084 -0.2038
   72MPD2    H5 1108   3.905   4.511   2.184  0.5756 -1.8730 -2.4822
   72MPD2    N1 1109   4.137   0.102   1.780  0.0262  0.5250  0.1663
   72MPD2    H7 1110   4.045   0.109   1.738  0.5877  0.9969 -1.0025
   73TMC2    C1 1111   3.382   1.580  14.195 -0.2680 -0.8059 -0.2183
   73TMC2    C2 1112   3.270   1.573  14.269  0.4002 -0.2969 -0.2562
   73TMC2    C3 1113   3.273   1.638  14.391  0.2795  0.3254 -0.3332
   73TMC2    C4 1114   3.496   1.641  14.236  0.3131 -0.2142 -0.0611
   73TMC2    C5 1115   3.485   1.719  14.351 -0.1945 -0.6218  0.4487
   73TMC2    C6 1116   3.379   1.718  14.432  0.0541  0.3078  0.4026
   73TMC2     C 1117   3.367   1.619  14.054 -0.0918 -0.3218  0.2425
   73TMC2     O 1118   3.446   1.704  14.015 -0.2256 -0.3843 -0.0922
   73TMC2     H 1119   3.174   1.537  14.233 -0.4602  0.8587  0.8435
   73TMC2    H1 1120   3.588   1.636  14.178  1.3702 -1.4886  1.7302
   73TMC2    H2 1121   3.366   1.789  14.513 -1.1072  1.5398 -0.8763
   73TMC2    C7 1122   3.546   1.850  14.340  0.1459 -0.3922 -0.5667
   73TMC2    C8 1123   3.161   1.616  14.483  0.0171 -0.3038 -0.2414
   73TMC2    O1 1124   3.571   1.930  14.432  0.4260 -0.0175 -0.5739
   73TMC2    O2 1125   3.141   1.683  14.582  0.0774 -0.3805 -0.2326
   73TMC2    O5 1126   3.131   1.482  14.476 -0.3953 -0.0711 -0.3260
   73TMC2    H5 1127   3.178   1.426  14.410 -0.3914  0.1165 -0.4824
   74MPD2     C 1128   3.197   1.595  13.570  0.6552 -0.0955 -0.1008
   74MPD2    C1 1129   3.255   1.698  13.638 -0.4617  0.3702 -0.3862
   74MPD2    C2 1130   3.287   1.676  13.771  0.3947 -0.0121  0.1830
   74MPD2    C3 1131   3.253   1.561  13.840  0.4545 -0.1900 -0.2291
   74MPD2    C4 1132   3.178   1.466  13.763  0.2436 -0.1229  0.3141
   74MPD2    C5 1133   3.158   1.487  13.633 -0.3657  0.1223  0.5709
   74MPD2     H 1134   3.340   1.751  13.827 -1.2795  0.2917  1.3656
   74MPD2    H1 1135   3.148   1.372  13.808 -1.6064  0.2236 -0.2107
   74MPD2    H2 1136   3.172   1.613  13.466 -2.1481 -2.3059  0.1568
   74MPD2    H3 1137   3.109   1.409  13.575 -1.5839  0.6570  0.8793
   74MPD2     N 1138   3.277   1.542  13.981 -0.8044  0.3364  0.2095
   74MPD2    H5 1139   3.243   1.454  14.020  0.2219  0.3350  1.1179
   74MPD2    N1 1140   3.281   1.820  13.570 -0.0579  0.0439  0.1599
   74MPD2    H7 1141   3.261   1.825  13.471  2.3718 -2.5297 -0.4716
   75TCq2    C1 1142   4.071   2.877  13.778 -0.0994 -0.1596 -0.0257
   75TCq2    O2 1143   4.114   2.799  13.694  0.7184  0.3238  0.3309
   75TCq2    C2 1144   3.969   2.971  13.743 -0.7134  0.2659  0.3050
   75TCq2    C3 1145   3.894   3.028  13.844 -0.1580  0.4058  0.2857
   75TCq2    C4 1146   3.799   3.111  13.807  0.0373 -0.2878 -0.2717
   75TCq2    C5 1147   3.768   3.147  13.677 -0.0992 -0.6284  0.8713
   75TCq2    C6 1148   3.841   3.087  13.580  0.4797 -0.0443  0.6363
   75TCq2    C7 1149   3.947   3.001  13.608  0.5381 -0.3286  0.4867
   75TCq2    C8 1150   3.823   3.115  13.437 -0.2044  0.5944 -0.1701
   75TCq2    O4 1151   3.898   3.078  13.346 -0.2496 -0.3024  0.4253
   75TCq2    C9 1152   3.730   3.168  13.915  1.0000 -0.0678  0.4422
   75TCq2    O5 1153   3.663   3.273  13.896 -0.4123 -0.3009 -0.0639
   75TCq2    O6 1154   3.733   3.103  14.024  0.3464  0.3917  0.8020
   75TCq2    H2 1155   3.903   2.992  13.946  1.2302  0.2494  0.1043
   75TCq2    H3 1156   3.682   3.214  13.677 -0.5666 -1.2347  1.2334
   75TCq2    H4 1157   4.003   2.954  13.528  1.8251  2.5053 -0.2555
   76MPD2     C 1158   3.131   3.835  11.982  0.7247 -0.6817 -0.0960
   76MPD2    C1 1159   3.101   3.781  11.858 -0.0581  0.3788 -0.4555
   76MPD2    C2 1160   3.154   3.650  11.831  0.2961 -0.0662  0.1604
   76MPD2    C3 1161   3.212   3.576  11.933 -0.2605 -0.0097  0.1402
   76MPD2    C4 1162   3.200   3.627  12.062 -0.0562 -0.1147  0.3692
   76MPD2    C5 1163   3.174   3.754  12.080  0.1258 -0.1174 -0.1530
   76MPD2     H 1164   3.139   3.611  11.731 -0.6544  1.1290 -0.1586
   76MPD2    H1 1165   3.236   3.571  12.148 -1.3337 -0.4532  0.6830
   76MPD2    H2 1166   3.099   3.936  12.005  0.3895 -0.5107 -1.3015
   76MPD2    H3 1167   3.175   3.809  12.174  0.8426  0.6756 -0.6267
   76MPD2     N 1168   3.270   3.447  11.913 -0.8071 -1.0653  0.0607
   76MPD2    H5 1169   3.280   3.404  12.004 -1.6588 -1.3328  0.0319
   76MPD2    N1 1170   3.026   3.841  11.750  0.6921  0.1795 -0.2045
   76MPD2    H7 1171   3.016   3.793  11.661 -0.7642  2.9629 -1.5425
   77TCq2    C1 1172   3.301   3.390  11.795  0.3062  1.0411  0.5072
   77TCq2    O2 1173   3.275   3.426  11.681  0.1725  0.5510 -0.5657
   77TCq2    C2 1174   3.355   3.257  11.813  0.9289 -0.0221  0.7380
   77TCq2    C3 1175   3.310   3.155  11.730 -0.1889  0.0559 -0.3041
   77TCq2    C4 1176   3.373   3.038  11.743  0.4542  0.7366  0.0660
   77TCq2    C5 1177   3.475   3.016  11.830  0.3271 -0.2389  0.7744
   77TCq2    C6 1178   3.520   3.113  11.909  0.9036  0.9000 -0.3186
   77TCq2    C7 1179   3.451   3.237  11.906 -0.6069  0.0677 -0.2277
   77TCq2    C8 1180   3.639   3.092  11.996 -0.3886  0.0493 -0.2880
   77TCq2    O4 1181   3.693   2.980  11.990 -0.3708  0.4773 -0.1666
   77TCq2    C9 1182   3.338   2.934  11.658 -0.0948  0.5721 -0.2012
   77TCq2    O5 1183   3.227   2.942  11.599 -0.3443 -0.3365 -0.2886
   77TCq2    O6 1184   3.399   2.826  11.664 -0.6066 -0.0307 -0.0454
   77TCq2    H2 1185   3.236   3.171  11.652 -0.7271  0.6581  0.3369
   77TCq2    H3 1186   3.533   2.924  11.823 -0.6366 -0.9120  1.6692
   77TCq2    H4 1187   3.486   3.327  11.955 -0.2402 -0.1374 -0.1154
   78MPD1     C 1188   2.818   3.691   1.492 -0.1061 -0.2313  0.9143
   78MPD1    C1 1189   2.887   3.569   1.482 -0.0044 -0.1626 -0.1214
   78MPD1    C2 1190   3.011   3.548   1.546  0.6702 -0.1087 -0.0053
   78MPD1    C3 1191   3.080   3.659   1.598 -0.2384  0.0497 -0.3587
   78MPD1    C4 1192   3.009   3.777   1.598  0.0822  0.6348  0.3625
   78MPD1    C5 1193   2.882   3.792   1.552 -0.1061  0.5936 -0.0603
   78MPD1     H 1194   3.052   3.450   1.568  0.4955 -0.7776 -2.6835
   78MPD1    H1 1195   3.052   3.868   1.639  0.4231  0.8020 -0.3606
   78MPD1    H2 1196   2.716   3.709   1.462  0.9686 -0.3533 -2.9342
   78MPD1    H3 1197   2.835   3.889   1.548  0.2875  0.7429 -0.9854
   78MPD1     N 1198   3.212   3.657   1.651  0.4580 -0.3744  0.0898
   78MPD1    H5 1199   3.254   3.746   1.678 -0.3999  0.0096  0.1860
   78MPD1    N1 1200   2.814   3.465   1.448  0.1642 -0.1147  0.2717
   78MPD1    H6 1201   2.744   3.489   1.378  0.3364 -0.1676  0.0800
   78MPD1    H7 1202   2.871   3.389   1.411 -1.4909 -1.6134  0.7820
   79TCq2    C1 1203   3.283   3.543   1.681 -0.1815  0.0896  0.4184
   79TCq2    O2 1204   3.241   3.432   1.695 -0.1413 -0.1531  0.2440
   79TCq2    C2 1205   3.417   3.572   1.740  0.7455 -0.6484  0.2787
   79TCq2    C3 1206   3.456   3.485   1.836  0.5509 -0.7243  0.4657
   79TCq2    C4 1207   3.573   3.504   1.902  0.6930  0.1353 -0.0455
   79TCq2    C5 1208   3.655   3.608   1.866  0.5743 -0.7858  0.4352
   79TCq2    C6 1209   3.601   3.703   1.773 -0.0219 -0.0253  0.1607
   79TCq2    C7 1210   3.483   3.691   1.715 -0.2366  0.0961  0.7808
   79TCq2    C8 1211   3.664   3.834   1.772  0.9315  0.4582  0.1633
   79TCq2    O4 1212   3.781   3.845   1.810  0.4002  0.3057  0.1031
   79TCq2    C9 1213   3.613   3.414   2.011  0.4243 -0.7908 -0.2131
   79TCq2    O5 1214   3.707   3.443   2.090  0.0598  0.0114  0.3086
   79TCq2    O6 1215   3.537   3.314   2.033 -0.1174 -0.1397  0.3711
   79TCq2    H2 1216   3.402   3.396   1.868 -1.1056 -0.0840 -0.5755
   79TCq2    H3 1217   3.749   3.628   1.918  0.6101 -2.2303  0.9272
   79TCq2    H4 1218   3.459   3.755   1.632  1.4196  0.9361  0.9608
   80MPD2     C 1219   2.247   3.455  12.107  0.1234  0.4659 -0.5248
   80MPD2    C1 1220   2.140   3.493  12.031 -0.6381 -0.6688  0.1584
   80MPD2    C2 1221   2.018   3.501  12.087  0.4786  0.3456 -0.1723
   80MPD2    C3 1222   2.004   3.485  12.227  0.2680 -0.5081  0.2826
   80MPD2    C4 1223   2.110   3.446  12.305 -0.1980  0.1864 -0.1858
   80MPD2    C5 1224   2.230   3.431  12.241 -0.2728  0.3445  0.3375
   80MPD2     H 1225   1.931   3.517  12.023  0.7996  0.8468 -0.4858
   80MPD2    H1 1226   2.097   3.422  12.410 -0.9956 -2.5525 -0.9307
   80MPD2    H2 1227   2.346   3.429  12.072  0.0543  2.3942 -2.1958
   80MPD2    H3 1228   2.315   3.407  12.304 -0.7942 -2.5882 -0.0553
   80MPD2     N 1229   1.886   3.503  12.291  0.2758 -0.3056 -0.1805
   80MPD2    H5 1230   1.883   3.467  12.386 -0.5473  1.0486  0.3044
   80MPD2    N1 1231   2.145   3.506  11.890 -0.2099 -0.6434  0.1586
   80MPD2    H7 1232   2.055   3.519  11.846 -0.7277  1.2026  1.7629
   81TCq2    C1 1233   2.257   3.492  11.809  0.6878 -0.0794 -0.5981
   81TCq2    O2 1234   2.373   3.520  11.829  0.3712  0.2177  0.6451
   81TCq2    C2 1235   2.219   3.449  11.667 -0.3672 -0.2642 -0.1112
   81TCq2    C3 1236   2.323   3.468  11.587 -0.3635  0.2902  0.0001
   81TCq2    C4 1237   2.295   3.472  11.453  0.0410  0.4167 -0.0600
   81TCq2    C5 1238   2.168   3.447  11.404  0.4430  0.3849 -0.0236
   81TCq2    C6 1239   2.076   3.405  11.496 -0.1411 -0.2331  0.6824
   81TCq2    C7 1240   2.096   3.403  11.628  0.1468 -0.3124 -0.0322
   81TCq2    C8 1241   1.956   3.351  11.445  0.9877 -0.3561 -0.3372
   81TCq2    O4 1242   1.929   3.381  11.327  0.0145 -0.6342  0.4295
   81TCq2    C9 1243   2.398   3.471  11.356 -0.2653 -0.0790  0.2265
   81TCq2    O5 1244   2.375   3.418  11.244 -0.1537 -0.5197  0.3105
   81TCq2    O6 1245   2.513   3.477  11.407 -0.0284  0.4943 -0.1425
   81TCq2    H2 1246   2.424   3.497  11.613 -0.3643 -0.4033  0.7937
   81TCq2    H3 1247   2.150   3.432  11.298 -0.2736  0.5325  0.0798
   81TCq2    H4 1248   2.014   3.388  11.697  0.1497 -4.0348 -0.8169
   82MPD2     C 1249   0.007   2.827  10.070 -0.4571 -0.5754 -0.4147
   82MPD2    C1 1250   0.093   2.931  10.100 -0.1636  0.1904 -0.0222
   82MPD2    C2 1251   0.193   2.903  10.195 -0.1167 -0.8111 -0.0989
   82MPD2    C3 1252   0.208   2.779  10.254 -0.7357 -0.7437 -0.0350
   82MPD2    C4 1253   0.115   2.677  10.226  0.1115  0.2779  0.1836
   82MPD2    C5 1254   0.011   2.705  10.137  0.0075 -0.6674 -0.2853
   82MPD2     H 1255   0.257   2.985  10.225 -2.2574  0.4990  0.8338
   82MPD2    H1 1256   0.119   2.578  10.270  1.2374  1.2539  2.2512
   82MPD2    H2 1257   4.654   2.846   9.998 -0.2544  0.2014 -0.4319
   82MPD2    H3 1258   4.663   2.627  10.125 -2.0424  1.2129  0.1815
   82MPD2     N 1259   0.316   2.748  10.347 -0.0886  0.9250  0.2335
   82MPD2    H5 1260   0.311   2.658  10.393  1.3207  0.5229 -0.4013
   82MPD2    N1 1261   0.067   3.059  10.043  0.2169  0.2289 -0.4494
   82MPD2    H7 1262   4.718   3.062   9.975  1.1348 -0.1974 -1.4732
   83TCq2    C1 1263   0.414   2.832  10.398  0.1299 -0.2235 -1.2483
   83TCq2    O2 1264   0.436   2.948  10.368  0.2086  0.2150  0.4889
   83TCq2    C2 1265   0.489   2.778  10.511 -0.4535  0.4570 -0.4252
   83TCq2    C3 1266   0.595   2.842  10.559  0.5767 -0.5882  0.1246
   83TCq2    C4 1267   0.666   2.796  10.665 -0.3560  0.2084  0.1784
   83TCq2    C5 1268   0.631   2.685  10.730  0.5681 -0.8408 -0.2217
   83TCq2    C6 1269   0.521   2.620  10.683 -0.2049 -0.0273 -0.0247
   83TCq2    C7 1270   0.454   2.656  10.570  0.5447  0.1269  0.2024
   83TCq2    C8 1271   0.486   2.498  10.751  0.2516  0.2296  0.0771
   83TCq2    O4 1272   0.508   2.500  10.875  0.1018  0.2753 -0.1387
   83TCq2    C9 1273   0.776   2.874  10.716  0.0078 -1.1018 -0.4161
   83TCq2    O5 1274   0.812   2.974  10.649  0.8922 -0.5821  0.8811
   83TCq2    O6 1275   0.833   2.833  10.824  0.1489  0.2998 -0.5408
   83TCq2    H2 1276   0.619   2.936  10.509 -1.0214 -0.7657 -0.9629
   83TCq2    H3 1277   0.678   2.640  10.817 -0.4510  2.4219  2.0405
   83TCq2    H4 1278   0.373   2.595  10.533  1.0216 -0.3790 -0.0013
   84TCq2    C1 1279   1.371   1.927  10.398 -0.1619  0.1460  0.3327
   84TCq2    O2 1280   1.318   1.819  10.386 -0.2483  0.2658  0.0418
   84TCq2    C2 1281   1.306   2.017  10.481 -0.2550  0.6317 -0.8437
   84TCq2    C3 1282   1.309   2.150  10.441  0.1576 -0.5368  0.6189
   84TCq2    C4 1283   1.274   2.241  10.532  1.2310  0.3855  0.7457
   84TCq2    C5 1284   1.207   2.207  10.644  0.5888  0.2134  0.0681
   84TCq2    C6 1285   1.192   2.080  10.679  0.6056  0.5570  0.1987
   84TCq2    C7 1286   1.247   1.983  10.605 -0.3012  0.4089  0.2265
   84TCq2    C8 1287   1.166   2.051  10.825 -0.0871  0.5767 -0.8605
   84TCq2    O4 1288   1.149   2.152  10.893  0.0283  0.3421 -0.1415
   84TCq2    C9 1289   1.291   2.378  10.497  0.3204 -0.1931 -0.5501
   84TCq2    O5 1290   1.376   2.398  10.401 -0.0180  0.4380 -0.2779
   84TCq2    O6 1291   1.262   2.464  10.582 -0.7572 -0.2095 -0.0015
   84TCq2    H2 1292   1.339   2.174  10.340 -1.8286  0.4990  0.2711
   84TCq2    H3 1293   1.180   2.286  10.712 -1.3889 -0.6536  0.2916
   84TCq2    H4 1294   1.258   1.881  10.640 -0.1677 -0.1633 -1.4957
   85MPD2     C 1295   1.945   0.250  16.487 -0.2971 -0.7126  0.6684
   85MPD2    C1 1296   1.816   0.263  16.444 -0.2047  0.4878 -0.3362
   85MPD2    C2 1297   1.759   0.392  16.440  0.2983 -0.0149 -0.4288
   85MPD2    C3 1298   1.835   0.506  16.467 -0.6250  0.9086 -0.6364
   85MPD2    C4 1299   1.969   0.489  16.496 -0.5970 -0.5340 -0.8024
   85MPD2    C5 1300   2.018   0.365  16.512 -0.8333 -0.1064  0.1617
   85MPD2     H 1301   1.658   0.390  16.400  0.5961  0.8748 -1.2451
   85MPD2    H1 1302   2.037   0.572  16.509  0.2021 -1.4894  1.2052
   85MPD2    H2 1303   1.996   0.155  16.503 -2.4404 -1.8085  1.0233
   85MPD2    H3 1304   2.114   0.344  16.557  0.3294 -1.2349 -2.8446
   85MPD2     N 1305   1.788   0.633  16.456  0.6744 -0.2532  0.8091
   85MPD2    H5 1306   1.852   0.712  16.459 -0.6757  0.9463 -1.6094
   85MPD2    N1 1307   1.735   0.152  16.414 -0.4194 -0.4016 -0.1194
   85MPD2    H7 1308   1.634   0.169  16.415 -0.3445  0.0465 -0.4869
   86TCq2    C1 1309   1.663   0.670  16.415 -0.2341 -0.2179  0.4398
   86TCq2    O2 1310   1.573   0.602  16.360  0.0848 -0.1321 -0.1746
   86TCq2    C2 1311   1.657   0.810  16.431 -0.5200 -0.0697  0.3008
   86TCq2    C3 1312   1.718   0.874  16.541 -0.4767  0.1041  0.5363
   86TCq2    C4 1313   1.666   0.995  16.576  0.7524 -0.4454 -0.6958
   86TCq2    C5 1314   1.577   1.058  16.502  0.1521 -0.1310 -0.1095
   86TCq2    C6 1315   1.532   1.001  16.386  0.0095  0.1120 -0.0901
   86TCq2    C7 1316   1.559   0.867  16.356 -0.6258 -0.3838  0.1011
   86TCq2    C8 1317   1.530   1.089  16.273 -0.1401  0.5670  0.2698
   86TCq2    O4 1318   1.496   1.205  16.300 -0.0311  0.2091 -0.0120
   86TCq2    C9 1319   1.716   1.072  16.690 -0.9777 -0.0321 -0.0929
   86TCq2    O5 1320   1.835   1.045  16.735  0.3222  0.2797  0.1467
   86TCq2    O6 1321   1.647   1.168  16.733 -0.3135  0.2873  0.4295
   86TCq2    H2 1322   1.784   0.815  16.603  0.5077 -0.0952 -0.6799
   86TCq2    H3 1323   1.534   1.153  16.532  0.7080 -0.2566  1.0678
   86TCq2    H4 1324   1.518   0.828  16.263 -1.9873  1.2530  0.0056
   87MPD2     C 1325   3.086   3.944   0.895  0.3642 -1.0751  0.2876
   87MPD2    C1 1326   3.137   4.069   0.912 -0.1441 -0.4718  0.4208
   87MPD2    C2 1327   3.045   4.174   0.901  0.4005  0.0940 -0.0350
   87MPD2    C3 1328   2.907   4.148   0.881  0.1381 -0.8914  0.2248
   87MPD2    C4 1329   2.866   4.017   0.878 -0.5461  0.5142 -0.4757
   87MPD2    C5 1330   2.956   3.920   0.880 -0.4890  0.7153  0.3407
   87MPD2     H 1331   3.079   4.277   0.904  1.2575 -0.2448  1.6401
   87MPD2    H1 1332   2.761   3.990   0.869 -0.6477  0.9805 -0.6628
   87MPD2    H2 1333   3.145   3.855   0.913 -1.2653 -2.2207 -0.1046
   87MPD2    H3 1334   2.917   3.819   0.871  0.0538  0.6876 -1.6460
   87MPD2     N 1335   2.806   4.251   0.873 -0.1609 -0.0541 -0.3981
   87MPD2    H5 1336   2.710   4.220   0.860  0.4366 -1.3420 -1.6304
   87MPD2    N1 1337   3.275   4.087   0.926  1.3568 -0.2056  0.2865
   87MPD2    H7 1338   3.331   4.003   0.923 -1.6960 -2.2534  1.1561
   88TCq2    C1 1339   3.345   4.208   0.927  0.2165 -0.5072 -0.2060
   88TCq2    O2 1340   3.298   4.318   0.919 -0.5204  0.1776  0.5950
   88TCq2    C2 1341   3.486   4.208   0.923 -0.3455  0.4926  0.2445
   88TCq2    C3 1342   3.547   4.325   0.875 -0.0574  0.1295 -0.2935
   88TCq2    C4 1343   3.677   4.346   0.896  0.0572  0.0275 -0.4416
   88TCq2    C5 1344   3.760   4.249   0.948  0.3067  0.0917  0.0887
   88TCq2    C6 1345   3.700   4.130   0.979  0.6856  0.0802 -0.2251
   88TCq2    C7 1346   3.561   4.105   0.973 -0.0060 -0.3554 -0.0705
   88TCq2    C8 1347   3.798   4.022   1.013  0.5402  0.3044 -0.8534
   88TCq2    O4 1348   3.915   4.055   1.002 -0.4864  0.1922  0.0387
   88TCq2    C9 1349   3.730   4.474   0.862  0.0058 -0.3102  0.2828
   88TCq2    O5 1350   3.841   4.511   0.901 -0.4414 -0.3024 -0.1135
   88TCq2    O6 1351   3.676   4.531   0.764 -0.3765  0.0371  0.6593
   88TCq2    H2 1352   3.490   4.405   0.829 -0.8962 -0.3719 -0.1371
   88TCq2    H3 1353   3.866   4.265   0.966  0.7432 -0.9651 -1.5289
   88TCq2    H4 1354   3.511   4.017   1.013 -1.7961  0.6790 -0.0127
   89MPD2     C 1355   0.014   1.356   2.168  0.0319  0.0308 -0.3084
   89MPD2    C1 1356   4.676   1.472   2.185 -0.1943 -0.1513 -0.2180
   89MPD2    C2 1357   0.015   1.586   2.225  0.1009 -0.1720  0.3221
   89MPD2    C3 1358   0.156   1.588   2.232  0.3494 -0.5287 -0.4618
   89MPD2    C4 1359   0.223   1.474   2.196  0.6728  0.2559 -0.6126
   89MPD2    C5 1360   0.148   1.361   2.167  0.0039  0.6510  0.2047
   89MPD2     H 1361   4.686   1.674   2.257  1.7654  1.4433 -1.2449
   89MPD2    H1 1362   0.331   1.470   2.187  0.5895  0.3772 -1.6812
   89MPD2    H2 1363   4.684   1.267   2.142  0.6805 -0.3407 -0.4341
   89MPD2    H3 1364   0.201   1.271   2.138  0.3615  1.4273 -1.5346
   89MPD2     N 1365   0.217   1.713   2.258  0.0396 -0.3970  0.1405
   89MPD2    H5 1366   0.151   1.790   2.258  0.0793 -0.3622  2.2252
   89MPD2    N1 1367   4.534   1.477   2.184  0.2161  0.4176 -0.8745
   89MPD2    H7 1368   4.489   1.564   2.212  0.2819  0.6912 -1.6122
   90TCq2    C1 1369   0.353   1.737   2.270  0.3289 -0.3051  0.8188
   90TCq2    O2 1370   0.441   1.653   2.293 -0.3535 -0.4651  0.5306
   90TCq2    C2 1371   0.405   1.879   2.262  0.1934  0.3065 -0.4815
   90TCq2    C3 1372   0.321   1.985   2.231  0.2173  0.0325  0.1584
   90TCq2    C4 1373   0.370   2.113   2.229 -0.0862  0.1183  0.8318
   90TCq2    C5 1374   0.498   2.140   2.264 -0.8055  0.0931 -0.3856
   90TCq2    C6 1375   0.582   2.031   2.283 -0.0886  0.0714 -0.0619
   90TCq2    C7 1376   0.540   1.903   2.275  0.3361  0.3871 -0.3695
   90TCq2    C8 1377   0.714   2.053   2.337  0.2298 -0.2832 -0.2694
   90TCq2    O4 1378   0.775   1.961   2.393  0.6014  0.1877 -0.3320
   90TCq2    C9 1379   0.289   2.230   2.212  0.3045 -0.2951  0.5869
   90TCq2    O5 1380   0.343   2.347   2.217  0.4953  0.0559 -0.4506
   90TCq2    O6 1381   0.172   2.203   2.175  0.4203 -0.5124  0.0073
   90TCq2    H2 1382   0.213   1.972   2.229  0.1095  1.0593 -1.6982
   90TCq2    H3 1383   0.541   2.239   2.254 -0.0251 -0.1475  0.5943
   90TCq2    H4 1384   0.605   1.828   2.320 -0.1047 -1.6117 -3.1028
   91TMC2    C1 1385   0.991   2.252  16.649 -0.6212  0.3372  0.4269
   91TMC2    C2 1386   0.981   2.336  16.755 -0.6198 -0.2630  0.7812
   91TMC2    C3 1387   0.919   2.286  16.866 -0.4416  0.4374 -0.8705
   91TMC2    C4 1388   0.946   2.128  16.642  0.4794  0.1857 -0.4338
   91TMC2    C5 1389   0.883   2.079  16.756  0.8736  0.9173 -0.1923
   91TMC2    C6 1390   0.881   2.152  16.874 -0.2264 -0.2170  0.0450
   91TMC2     C 1391   1.047   2.298  16.523 -0.7485  0.1100 -0.4801
   91TMC2     O 1392   1.027   2.416  16.505  0.0931 -0.1917 -0.6939
   91TMC2     H 1393   1.024   2.435  16.752 -3.3558  0.9677  1.9172
   91TMC2    H1 1394   0.985   2.072  16.558  2.0159  1.2085 -0.3953
   91TMC2    H2 1395   0.822   2.123  16.960 -1.6328  0.8000 -0.5695
   91TMC2    C7 1396   0.886   1.939  16.781  0.1108 -0.1918  0.6388
   91TMC2    C8 1397   0.898   2.364  16.994  0.6494 -0.0556 -0.0435
   91TMC2    O1 1398   0.900   1.904  16.896 -0.1057 -0.0430  0.4166
   91TMC2    O2 1399   0.868   2.480  16.983 -0.1272 -0.4957 -0.4853
   91TMC2    O5 1400   0.990   2.317  17.078  0.0077 -0.2521 -0.0277
   91TMC2    H5 1401   1.002   2.223  17.053 -2.7939 -1.2286  2.3957
   92MPD2     C 1402   1.113   2.335  16.228  0.6832  0.8338 -1.4979
   92MPD2    C1 1403   1.148   2.224  16.301  0.6173 -0.2981  0.1859
   92MPD2    C2 1404   1.205   2.124  16.247 -0.3819 -0.3653  0.4100
   92MPD2    C3 1405   1.225   2.121  16.115  0.1646  0.4979  0.4095
   92MPD2    C4 1406   1.184   2.221  16.033  0.5334 -0.7701 -0.5280
   92MPD2    C5 1407   1.126   2.332  16.091  0.1910  0.3092  0.3810
   92MPD2     H 1408   1.234   2.040  16.309 -1.1500 -0.1953  1.0020
   92MPD2    H1 1409   1.205   2.207  15.928 -0.1466  1.4294 -0.9416
   92MPD2    H2 1410   1.092   2.429  16.277  0.8853  1.3556 -2.3918
   92MPD2    H3 1411   1.111   2.426  16.041 -0.7833 -0.2404 -0.3546
   92MPD2     N 1412   1.282   2.005  16.068  0.0151 -0.3386  0.1130
   92MPD2    H5 1413   1.321   1.946  16.141 -2.4272  0.4887  2.0662
   92MPD2    N1 1414   1.122   2.208  16.443 -0.0443  0.0702 -0.2679
   92MPD2    H7 1415   1.160   2.127  16.491  0.2795  0.3434 -0.0658
   93MPD2     C 1416   3.266   1.075  13.676 -0.3303  0.4920  0.2360
   93MPD2    C1 1417   3.227   1.064  13.807  0.6278 -0.1150 -0.1765
   93MPD2    C2 1418   3.099   1.020  13.832  0.0492  0.1235  0.3322
   93MPD2    C3 1419   3.011   0.975  13.736  0.1640  0.1053  0.6574
   93MPD2    C4 1420   3.062   0.978  13.602 -0.1093  0.1950  0.1612
   93MPD2    C5 1421   3.187   1.025  13.572 -0.3154 -0.3798 -0.1168
   93MPD2     H 1422   3.056   1.004  13.931 -1.9850  1.9582 -0.2406
   93MPD2    H1 1423   2.998   0.947  13.521  0.8982 -0.9539 -0.1927
   93MPD2    H2 1424   3.364   1.111  13.644 -0.3377 -0.4750 -0.8757
   93MPD2    H3 1425   3.213   1.018  13.467 -3.5245  0.7255 -1.0065
   93MPD2     N 1426   2.881   0.920  13.746  0.0557  0.1406 -0.9613
   93MPD2    H5 1427   2.843   0.895  13.655 -1.4194  0.3611 -0.4062
   93MPD2    N1 1428   3.308   1.087  13.919 -0.6160  0.3441 -0.2148
   93MPD2    H7 1429   3.269   1.069  14.011  1.8655  2.2303  1.2231
   94TCq2    C1 1430   3.439   1.130  13.913 -0.4033 -0.3549 -0.3639
   94TCq2    O2 1431   3.513   1.164  13.823  0.2504  0.2578  0.0896
   94TCq2    C2 1432   3.492   1.157  14.047  0.0990 -0.3493  0.3890
   94TCq2    C3 1433   3.408   1.191  14.142 -0.8873  0.4402  0.0864
   94TCq2    C4 1434   3.465   1.232  14.257  0.1866 -0.0966 -0.1631
   94TCq2    C5 1435   3.599   1.263  14.270 -0.2219  0.4171  0.7741
   94TCq2    C6 1436   3.678   1.241  14.160  0.0653 -0.5219  0.4632
   94TCq2    C7 1437   3.631   1.186  14.046  0.7667 -0.8871  0.1626
   94TCq2    C8 1438   3.823   1.236  14.181  0.2694 -0.1720  0.0428
   94TCq2    O4 1439   3.896   1.174  14.109 -0.4415  0.2691  0.3126
   94TCq2    C9 1440   3.375   1.263  14.371  0.4025 -0.1431 -0.0108
   94TCq2    O5 1441   3.256   1.288  14.346  0.2737  0.1362  0.4617
   94TCq2    O6 1442   3.427   1.266  14.491  0.1822  0.2043 -0.6046
   94TCq2    H2 1443   3.305   1.157  14.153 -0.9038  0.3017 -0.4846
   94TCq2    H3 1444   3.632   1.289  14.370 -0.2471  0.4291  0.7791
   94TCq2    H4 1445   3.701   1.152  13.971 -0.2930 -1.5860 -0.5169
   95TMC2    C1 1446   3.689   3.426  16.277  0.5085  0.0317  0.2163
   95TMC2    C2 1447   3.760   3.509  16.354  0.2813  0.0435 -0.3452
   95TMC2    C3 1448   3.779   3.481  16.487 -0.3399  0.6420 -0.2778
   95TMC2    C4 1449   3.630   3.316  16.328 -0.8876  0.1537  0.2988
   95TMC2    C5 1450   3.649   3.284  16.462 -0.0846  0.1422  0.3485
   95TMC2    C6 1451   3.725   3.369  16.539 -0.7249  0.8529 -0.1082
   95TMC2     C 1452   3.706   3.445  16.130  0.1674  0.3932 -0.4946
   95TMC2     O 1453   3.793   3.525  16.101  0.4038  0.4294  0.2192
   95TMC2     H 1454   3.799   3.599  16.308 -2.0122 -0.0303 -2.4237
   95TMC2    H1 1455   3.585   3.235  16.271  0.3814  0.0821 -0.5843
   95TMC2    H2 1456   3.734   3.348  16.645  1.7297 -0.8678 -0.6539
   95TMC2    C7 1457   3.573   3.168  16.510 -0.5900  0.3306  0.9729
   95TMC2    C8 1458   3.799   3.603  16.568 -0.3990  0.1977 -0.0004
   95TMC2    O1 1459   3.470   3.140  16.448 -0.2284  0.7538 -0.4226
   95TMC2    O2 1460   3.875   3.695  16.540 -0.0198 -0.5206  0.1604
   95TMC2    O5 1461   3.705   3.603  16.662 -0.3148 -0.2203  0.3389
   95TMC2    H5 1462   3.629   3.545  16.640 -0.1952  0.0397 -0.7520
   96MPD2     C 1463   3.615   3.362  15.631  0.4728 -0.3927 -0.2871
   96MPD2    C1 1464   3.732   3.402  15.696  0.0023  0.8021  0.8432
   96MPD2    C2 1465   3.738   3.411  15.836  0.6997  0.6282  0.0418
   96MPD2    C3 1466   3.628   3.378  15.910 -0.1955  0.0286 -0.0560
   96MPD2    C4 1467   3.513   3.343  15.842 -0.2039 -0.1611 -0.0664
   96MPD2    C5 1468   3.507   3.333  15.705  0.1225  0.4310  0.5180
   96MPD2     H 1469   3.822   3.450  15.892  0.3313  1.2556  0.1582
   96MPD2    H1 1470   3.425   3.328  15.903  1.2141  0.6817  2.2031
   96MPD2    H2 1471   3.607   3.362  15.523 -0.2766  0.2264 -0.2360
   96MPD2    H3 1472   3.415   3.305  15.654  1.6075  1.0397 -2.4736
   96MPD2     N 1473   3.616   3.381  16.052 -0.1119  0.1103 -0.1751
   96MPD2    H5 1474   3.536   3.341  16.101  0.1127  0.0660  0.1524
   96MPD2    N1 1475   3.841   3.428  15.612 -0.5308 -0.2127 -0.1424
   96MPD2    H7 1476   3.824   3.415  15.512  0.1271 -1.1732 -0.1351
   97MPD2     C 1477   4.521   0.482   1.283  0.1809  0.5537 -0.1604
   97MPD2    C1 1478   4.624   0.576   1.274  0.1711 -0.2427 -0.1687
   97MPD2    C2 1479   4.628   0.659   1.161  0.2206  0.2500  0.4502
   97MPD2    C3 1480   4.547   0.633   1.051 -0.6218 -0.2856  0.0861
   97MPD2    C4 1481   4.449   0.541   1.059 -0.6312  0.1234  0.9508
   97MPD2    C5 1482   4.431   0.473   1.179  0.4609  0.2506  0.6118
   97MPD2     H 1483   4.695   0.743   1.156  1.0623 -0.4030  0.7825
   97MPD2    H1 1484   4.388   0.521   0.972  0.2072  1.1284  0.1381
   97MPD2    H2 1485   4.507   0.404   1.357  3.6314 -0.1022 -0.2104
   97MPD2    H3 1486   4.356   0.396   1.174 -0.4927  1.1505  1.0013
   97MPD2     N 1487   4.570   0.688   0.920  0.1013  0.4725  0.1962
   97MPD2    H5 1488   4.506   0.658   0.847 -0.7220 -0.0992  1.1547
   97MPD2    N1 1489   4.714   0.580   1.378 -0.0270 -0.3484 -0.4557
   97MPD2    H7 1490   4.714   0.503   1.444  2.2639 -0.5493 -0.6886
   98TCq2    C1 1491   4.668   0.776   0.882 -0.2986 -0.8183 -0.5434
   98TCq2    O2 1492   0.005   0.853   0.956 -0.3143 -0.0334 -0.1181
   98TCq2    C2 1493   4.682   0.812   0.746  0.3356 -0.4866 -0.2460
   98TCq2    C3 1494   4.637   0.721   0.655 -0.7066 -0.1864 -0.5127
   98TCq2    C4 1495   4.687   0.733   0.527 -0.7357  0.3959 -0.5566
   98TCq2    C5 1496   0.044   0.834   0.491  0.4819 -0.1295 -0.0894
   98TCq2    C6 1497   0.078   0.929   0.587  0.0389 -0.2840  0.2929
   98TCq2    C7 1498   0.037   0.922   0.720  0.5543 -1.0110  0.0781
   98TCq2    C8 1499   0.205   1.000   0.564  0.0929 -0.0773 -0.0251
   98TCq2    O4 1500   0.264   0.972   0.462 -0.0349  0.0661  0.3529
   98TCq2    C9 1501   4.665   0.629   0.428  0.5907 -0.8313  0.8583
   98TCq2    O5 1502   4.595   0.527   0.462  0.3650 -0.5187 -0.4760
   98TCq2    O6 1503   4.720   0.636   0.316  0.7402 -0.1026 -0.2866
   98TCq2    H2 1504   4.585   0.631   0.685 -1.1442  0.4550  0.6259
   98TCq2    H3 1505   0.082   0.844   0.390 -0.0232  2.0755 -0.0666
   98TCq2    H4 1506   0.069   0.988   0.799  0.2862 -2.7058  1.5952
   99MPD2     C 1507   4.697   3.457   2.317 -0.7144  0.2148 -0.0194
   99MPD2    C1 1508   4.716   3.342   2.239  0.4432 -0.2994  0.2107
   99MPD2    C2 1509   0.103   3.268   2.259 -0.1939  0.3510 -0.1088
   99MPD2    C3 1510   0.198   3.299   2.355 -0.1147  0.1116  0.4029
   99MPD2    C4 1511   0.167   3.408   2.439 -0.0055  0.4301  0.0719
   99MPD2    C5 1512   0.059   3.490   2.415 -0.4390  0.4503 -0.9368
   99MPD2     H 1513   0.100   3.179   2.198 -3.4992 -1.0557  2.0865
   99MPD2    H1 1514   0.236   3.440   2.516 -0.4175 -1.4012  1.2172
   99MPD2    H2 1515   4.602   3.510   2.311 -0.1886  1.1515 -0.1993
   99MPD2    H3 1516   0.038   3.577   2.476 -1.0669 -0.3734  0.0238
   99MPD2     N 1517   0.313   3.217   2.372  0.0542 -0.3064  0.0855
   99MPD2    H5 1518   0.334   3.143   2.306  0.2161 -0.1176 -0.0714
   99MPD2    N1 1519   4.624   3.304   2.142  0.1859 -0.3568  0.3651
   99MPD2    H7 1520   4.644   3.215   2.097 -0.5434 -0.0165 -0.6187
  100TCq2    C1 1521   4.511   3.370   2.102 -0.1910 -0.4203 -0.4939
  100TCq2    O2 1522   4.438   3.451   2.162 -0.2128 -0.0739  0.0045
  100TCq2    C2 1523   4.447   3.301   1.993 -0.1076  0.1083  0.3411
  100TCq2    C3 1524   4.496   3.179   1.953 -0.2033 -0.3376 -0.4071
  100TCq2    C4 1525   4.411   3.105   1.875 -0.4842 -0.7905  0.1414
  100TCq2    C5 1526   4.281   3.138   1.843  0.5574  0.7506 -0.3786
  100TCq2    C6 1527   4.238   3.263   1.891 -0.4343  0.1063  0.4583
  100TCq2    C7 1528   4.320   3.343   1.967 -0.4432  0.4502  0.0751
  100TCq2    C8 1529   4.111   3.322   1.861  0.0255 -0.2583 -0.2278
  100TCq2    O4 1530   4.066   3.416   1.926 -0.1293  0.7094  0.4810
  100TCq2    C9 1531   4.464   2.985   1.817  0.4189 -0.2995 -0.1536
  100TCq2    O5 1532   4.576   2.942   1.866  0.5753 -0.2467  0.3770
  100TCq2    O6 1533   4.411   2.945   1.713 -0.2521 -0.0758 -0.1263
  100TCq2    H2 1534   4.600   3.149   1.950  0.7022  2.6331  2.1275
  100TCq2    H3 1535   4.236   3.090   1.758  0.3497  0.8834 -0.3438
  100TCq2    H4 1536   4.286   3.443   1.992 -1.0743  0.7754 -2.0703
  101MPD2     C 1537   1.051   3.662  12.929 -0.4738  0.5082 -0.2855
  101MPD2    C1 1538   0.922   3.715  12.934  0.7077 -0.0554  0.3575
  101MPD2    C2 1539   0.823   3.650  13.013 -0.1026 -0.0044 -0.3069
  101MPD2    C3 1540   0.847   3.536  13.088 -0.3344  0.2159  0.3685
  101MPD2    C4 1541   0.981   3.489  13.076  0.3245  0.4391 -0.1134
  101MPD2    C5 1542   1.073   3.554  13.003  0.3131  0.8588 -0.4470
  101MPD2     H 1543   0.723   3.691  13.011  0.6239  1.7138 -1.4248
  101MPD2    H1 1544   1.000   3.389  13.114 -0.9993  0.0135 -0.5503
  101MPD2    H2 1545   1.131   3.705  12.871 -0.4547  1.3778  0.3740
  101MPD2    H3 1546   1.178   3.527  13.006  0.1437  0.3889  1.3576
  101MPD2     N 1547   0.740   3.472  13.157 -0.2206  0.5957 -1.1321
  101MPD2    H5 1548   0.648   3.517  13.154 -0.3186  0.5587  1.2440
  101MPD2    N1 1549   0.897   3.828  12.849  0.9461 -0.3816 -0.2682
  101MPD2    H7 1550   0.982   3.864  12.808  0.4940 -1.4543 -2.1290
  102TCq2    C1 1551   0.943   4.055  12.402  0.2421 -0.4075  0.1838
  102TCq2    O2 1552   1.048   4.000  12.432 -0.5681  0.3272  0.0231
  102TCq2    C2 1553   0.846   4.051  12.509  0.1587 -0.9524  0.8518
  102TCq2    C3 1554   0.739   4.140  12.499 -0.4783  0.2000  0.1598
  102TCq2    C4 1555   0.656   4.161  12.603 -0.0685 -0.2260 -0.0797
  102TCq2    C5 1556   0.675   4.090  12.717  0.1690 -0.1771  0.4111
  102TCq2    C6 1557   0.783   3.999  12.727  0.3892  0.0025 -1.4428
  102TCq2    C7 1558   0.876   3.982  12.625 -0.5856 -0.0861 -0.0861
  102TCq2    C8 1559   0.778   3.898  12.835  1.0103 -0.1648 -0.0014
  102TCq2    O4 1560   0.672   3.872  12.892  0.0064 -0.2752 -0.2091
  102TCq2    C9 1561   0.553   4.262  12.605  0.2818  0.4083 -0.6841
  102TCq2    O5 1562   0.529   4.311  12.493  0.1522 -0.1621  0.6689
  102TCq2    O6 1563   0.489   4.278  12.714  0.0055  0.0200 -0.5603
  102TCq2    H2 1564   0.730   4.213  12.419  1.8378  1.1962  0.8130
  102TCq2    H3 1565   0.600   4.087  12.796  0.5048 -1.2684  0.6847
  102TCq2    H4 1566   0.963   3.917  12.623 -0.5006  0.0561 -1.2060
  103TMC2    C1 1567   3.688   3.595  12.623 -0.3237  0.0485  0.4138
  103TMC2    C2 1568   3.812   3.628  12.671  0.2766 -0.4181 -1.0690
  103TMC2    C3 1569   3.830   3.747  12.737  0.3423  0.1936 -0.7173
  103TMC2    C4 1570   3.583   3.667  12.665 -0.3184 -0.0402 -0.4816
  103TMC2    C5 1571   3.605   3.777  12.748 -0.0312 -0.3148 -0.3383
  103TMC2    C6 1572   3.727   3.815  12.785 -0.5000 -0.0045  0.5796
  103TMC2     C 1573   3.671   3.491  12.514  0.0964  0.2600 -0.0790
  103TMC2     O 1574   3.560   3.478  12.464  0.0666 -0.1492  0.6544
  103TMC2     H 1575   3.906   3.584  12.638  0.7816 -0.2206  0.0844
  103TMC2    H1 1576   3.485   3.633  12.636  0.1242 -2.1571  0.5424
  103TMC2    H2 1577   3.739   3.906  12.842  1.4861 -0.8078  1.4609
  103TMC2    C7 1578   3.529   3.772  12.873 -0.1458  0.5626  0.4589
  103TMC2    C8 1579   3.959   3.777  12.782 -0.3580  0.3749 -0.4576
  103TMC2    O1 1580   3.548   3.856  12.958 -0.6186  0.4835  0.5586
  103TMC2    O2 1581   4.034   3.686  12.813  0.2659  0.2126 -0.3234
  103TMC2    O5 1582   3.980   3.903  12.827  0.1846 -0.7459 -0.2260
  103TMC2    H5 1583   3.909   3.966  12.801  0.8638  0.0776 -0.0572
  104MPD2     C 1584   3.919   3.248  12.396  0.8250  0.1369  0.1200
  104MPD2    C1 1585   3.802   3.315  12.401 -0.0968 -0.1598 -0.3503
  104MPD2    C2 1586   3.710   3.288  12.298 -0.5819 -0.0221  0.1721
  104MPD2    C3 1587   3.744   3.197  12.198  0.6480 -0.1610  0.0561
  104MPD2    C4 1588   3.852   3.116  12.208 -0.7899 -0.4283 -0.4756
  104MPD2    C5 1589   3.939   3.138  12.311  0.1436  0.3216 -0.2669
  104MPD2     H 1590   3.611   3.332  12.300 -0.2958  0.7645 -3.0177
  104MPD2    H1 1591   3.872   3.028  12.148  0.0441 -0.8100  0.3610
  104MPD2    H2 1592   3.992   3.267  12.474  0.2498 -0.1680  0.7284
  104MPD2    H3 1593   4.023   3.071  12.324  0.2501  0.7475  1.2070
  104MPD2     N 1594   3.648   3.191  12.091 -0.5258 -0.0496 -0.0116
  104MPD2    H5 1595   3.587   3.272  12.085  0.4184  0.7087  0.8252
  104MPD2    N1 1596   3.785   3.413  12.498  0.0670  0.1737  0.0715
  104MPD2    H7 1597   3.843   3.419  12.581 -2.1695  0.1096  1.6461
  105MPD2     C 1598   0.060   3.264   0.065  0.1556  0.8647  0.1041
  105MPD2    C1 1599   4.709   3.365   0.023 -0.2877 -0.1169 -0.0906
  105MPD2    C2 1600   4.647   3.441   0.113  0.3801  0.0167 -0.2459
  105MPD2    C3 1601   4.668   3.429   0.252  0.3600 -0.0606 -0.7582
  105MPD2    C4 1602   0.029   3.331   0.299 -0.3477  1.0450 -0.7976
  105MPD2    C5 1603   0.083   3.248   0.200 -0.3811  0.4485 -0.1763
  105MPD2     H 1604   4.590   3.523   0.069 -0.1962 -1.3726 -2.0999
  105MPD2    H1 1605   0.044   3.311   0.404  0.6381 -0.9328 -1.3055
  105MPD2    H2 1606   0.103   3.186   0.003 -0.4980  1.3807 -0.9795
  105MPD2    H3 1607   0.138   3.159   0.226 -1.5961 -0.5324 -0.9859
  105MPD2     N 1608   4.589   3.500   0.340  0.2523  0.6688 -0.0640
  105MPD2    H5 1609   4.531   3.573   0.299 -1.5357 -0.9444 -0.3723
  105MPD2    N1 1610   4.686   3.395  17.594  0.0858 -0.0967  0.5258
  105MPD2    H7 1611   4.611   3.459  17.570 -0.1924 -0.8292 -0.5545
  106TCq2    C1 1612   4.577   3.473   0.475  0.4581  0.5828  0.3605
  106TCq2    O2 1613   4.597   3.374   0.541 -0.4143 -0.3439 -0.4197
  106TCq2    C2 1614   4.487   3.570   0.533 -0.3140 -0.1664 -0.4408
  106TCq2    C3 1615   4.483   3.696   0.487  0.1452 -0.1021 -0.0048
  106TCq2    C4 1616   4.415   3.796   0.559 -0.2641 -0.8104 -0.3589
  106TCq2    C5 1617   4.351   3.759   0.677  0.1871  0.1227  0.3132
  106TCq2    C6 1618   4.350   3.633   0.723 -0.3253  0.0528 -0.3350
  106TCq2    C7 1619   4.423   3.541   0.649  0.4510  0.0231  0.3580
  106TCq2    C8 1620   4.245   3.588   0.811 -0.0211  0.5678 -0.0558
  106TCq2    O4 1621   4.240   3.469   0.834 -0.4601 -0.0698 -0.0446
  106TCq2    C9 1622   4.400   3.924   0.503  0.1600  0.4652 -0.1477
  106TCq2    O5 1623   4.299   3.986   0.538  0.2026  0.3339  0.1551
  106TCq2    O6 1624   4.449   3.938   0.391 -0.2105  0.0205 -0.1659
  106TCq2    H2 1625   4.549   3.719   0.405 -0.0502 -2.3046 -0.7799
  106TCq2    H3 1626   4.310   3.843   0.733 -2.0180 -0.0344 -1.0413
  106TCq2    H4 1627   4.420   3.435   0.674  0.1306 -0.2272 -0.7729
  107TMC2    C1 1628   0.857   2.181  11.726  0.0454 -0.4763  0.3524
  107TMC2    C2 1629   0.894   2.300  11.678 -0.6659  0.2856  0.6824
  107TMC2    C3 1630   0.931   2.311  11.550  0.1995 -0.2114  1.1256
  107TMC2    C4 1631   0.859   2.072  11.639 -0.8204  0.1992 -0.4294
  107TMC2    C5 1632   0.898   2.083  11.505 -0.3875  0.2067  0.8957
  107TMC2    C6 1633   0.934   2.209  11.464 -0.4935  0.1344  0.2879
  107TMC2     C 1634   0.814   2.155  11.864 -0.1888  0.1698 -0.2039
  107TMC2     O 1635   0.755   2.047  11.880 -0.1122  0.0404  0.0530
  107TMC2     H 1636   0.888   2.379  11.752  0.6440 -0.8526  1.9931
  107TMC2    H1 1637   0.838   1.973  11.677  2.4153  0.0987  1.1325
  107TMC2    H2 1638   0.972   2.236  11.366  0.0766  0.1839  0.5229
  107TMC2    C7 1639   0.937   1.966  11.430 -0.7346  0.7215 -0.1160
  107TMC2    C8 1640   0.988   2.436  11.504 -0.0573 -0.1831 -0.2418
  107TMC2    O1 1641   0.939   1.855  11.487  0.0291  0.4826 -0.4437
  107TMC2    O2 1642   1.033   2.457  11.391 -0.3087  0.1743  0.1470
  107TMC2    O5 1643   0.915   2.535  11.565 -0.2257 -0.3719 -0.0380
  107TMC2    H5 1644   0.866   2.512  11.647  1.6216  1.1806  1.5188
  108MPD2     C 1645   0.889   2.321  12.175 -0.8463  0.0253 -0.5100
  108MPD2    C1 1646   0.811   2.253  12.086  0.3310  0.0621 -0.0850
  108MPD2    C2 1647   0.704   2.187  12.131  1.1311  0.0737 -0.1686
  108MPD2    C3 1648   0.673   2.196  12.268  0.7172 -0.2146 -0.0331
  108MPD2    C4 1649   0.760   2.256  12.355  0.8847  0.5835  0.0608
  108MPD2    C5 1650   0.873   2.317  12.305 -0.1653 -0.0832  0.2588
  108MPD2     H 1651   0.646   2.121  12.068  1.3727  0.2052 -0.5259
  108MPD2    H1 1652   0.737   2.261  12.461 -0.0267 -1.8379 -0.0149
  108MPD2    H2 1653   0.979   2.372  12.141 -0.9229 -0.5272 -1.5574
  108MPD2    H3 1654   0.947   2.365  12.368  1.6880 -0.3288 -1.7309
  108MPD2     N 1655   0.554   2.146  12.327 -0.4010  0.3999  0.2756
  108MPD2    H5 1656   0.549   2.173  12.425 -1.6729  2.0835 -0.2492
  108MPD2    N1 1657   0.856   2.250  11.950 -0.1303  0.3715 -0.5540
  108MPD2    H7 1658   0.917   2.326  11.919  0.9361 -0.2206  0.1001
  109MPD2     C 1659   4.529   4.096   2.052 -0.3390  0.2288 -0.0357
  109MPD2    C1 1660   4.540   4.226   2.008  0.5337 -0.0405 -0.0898
  109MPD2    C2 1661   4.661   4.290   2.000 -0.2839 -0.1567  0.0733
  109MPD2    C3 1662   0.049   4.233   2.057  0.0634  0.7381 -0.2443
  109MPD2    C4 1663   0.035   4.107   2.114 -0.4857 -0.3970 -0.0376
  109MPD2    C5 1664   4.642   4.032   2.095  0.5984  0.7292 -0.3690
  109MPD2     H 1665   4.669   4.391   1.963 -1.3579 -0.4061 -0.8227
  109MPD2    H1 1666   0.121   4.057   2.158  2.0887  1.8671 -2.5151
  109MPD2    H2 1667   4.439   4.037   2.036  0.7628 -1.4875  0.1048
  109MPD2    H3 1668   4.633   3.929   2.128  2.6457  1.4892  2.5368
  109MPD2     N 1669   0.167   4.310   2.061 -0.3355 -0.8202 -0.4358
  109MPD2    H5 1670   0.169   4.396   2.006 -0.7173 -0.8518 -0.5021
  109MPD2    N1 1671   4.420   4.291   1.958 -0.1965 -0.4538  0.0560
  109MPD2    H7 1672   4.330   4.244   1.954 -0.6591  0.5269 -1.3292
  110TCq2    C1 1673   0.279   4.297   2.134 -0.9334 -0.1777 -0.2916
  110TCq2    O2 1674   0.304   4.220   2.226  0.0124  0.1352 -0.2100
  110TCq2    C2 1675   0.391   4.387   2.100  0.0351  0.3875  0.5957
  110TCq2    C3 1676   0.514   4.350   2.155  1.1495 -0.1112  0.4446
  110TCq2    C4 1677   0.628   4.429   2.130  0.4229  0.3346 -0.6973
  110TCq2    C5 1678   0.620   4.539   2.045  0.0838 -0.1437  0.1581
  110TCq2    C6 1679   0.498   4.565   1.999  0.1943 -0.1869 -0.3193
  110TCq2    C7 1680   0.379   4.503   2.027 -0.1017  0.7107  0.0431
  110TCq2    C8 1681   0.490   4.677   1.910  0.1457 -0.6225  0.3357
  110TCq2    O4 1682   0.382   4.724   1.885 -0.2022  0.5787 -0.1002
  110TCq2    C9 1683   0.756   4.382   2.170 -0.5410 -0.7271 -0.5625
  110TCq2    O5 1684   0.859   4.444   2.135 -0.0179  0.5885 -0.1194
  110TCq2    O6 1685   0.764   4.274   2.231  0.1056  0.3302 -0.6522
  110TCq2    H2 1686   0.526   4.259   2.213 -0.3282 -1.2449 -1.0472
  110TCq2    H3 1687   0.713   4.588   2.019 -0.2191  0.5539  0.4001
  110TCq2    H4 1688   0.291   4.558   1.994  0.1417 -0.1229 -2.0369
  111TMC2    C1 1689   1.733   4.273  11.047 -0.2514  0.3533  0.1939
  111TMC2    C2 1690   1.841   4.305  10.964  0.5408  0.0997  0.1279
  111TMC2    C3 1691   1.964   4.283  11.002 -0.2501  0.3892  0.2154
  111TMC2    C4 1692   1.756   4.192  11.157 -0.2499 -0.2417 -0.4078
  111TMC2    C5 1693   1.886   4.178  11.197 -0.2570 -0.6252  0.7311
  111TMC2    C6 1694   1.993   4.229  11.123  0.0944 -0.6366 -0.3513
  111TMC2     C 1695   1.612   4.345  11.041  0.1497  0.1540  0.4333
  111TMC2     O 1696   1.579   4.391  10.935 -0.0972  0.1177 -0.0357
  111TMC2     H 1697   1.826   4.361  10.873  2.2557  0.7292  0.2270
  111TMC2    H1 1698   1.675   4.153  11.218  0.0580  1.2455  0.9622
  111TMC2    H2 1699   2.098   4.214  11.143 -0.1439 -1.0122  0.6084
  111TMC2    C7 1700   1.903   4.125  11.335  0.1596  0.2288 -0.0353
  111TMC2    C8 1701   2.065   4.353  10.944 -0.9591  0.2592  0.4289
  111TMC2    O1 1702   1.803   4.118  11.407 -0.6030 -0.2618 -0.0543
  111TMC2    O2 1703   2.179   4.312  10.946  0.5878 -0.6810  0.1402
  111TMC2    O5 1704   2.031   4.481  10.963  0.5090  0.0956  0.1544
  111TMC2    H5 1705   1.944   4.490  11.008 -0.5498 -0.7118 -1.7420
  112MPD2     C 1706   1.145   4.485  11.157 -0.7462  0.1681 -0.6162
  112MPD2    C1 1707   1.204   4.443  11.043  0.5848 -0.3464 -0.2082
  112MPD2    C2 1708   1.332   4.399  11.050 -0.4567  0.4984  0.0911
  112MPD2    C3 1709   1.405   4.400  11.163 -0.2574  0.8326 -0.1695
  112MPD2    C4 1710   1.340   4.430  11.282 -0.1188 -0.7861  0.4423
  112MPD2    C5 1711   1.213   4.473  11.280  0.3259 -0.3849  0.8896
  112MPD2     H 1712   1.362   4.356  10.956 -1.6828 -1.8849  0.7576
  112MPD2    H1 1713   1.379   4.415  11.383  1.9726 -2.5278 -0.6277
  112MPD2    H2 1714   1.038   4.504  11.154 -0.8257 -0.4713 -1.9769
  112MPD2    H3 1715   1.170   4.497  11.376 -0.2684 -0.4227  0.6360
  112MPD2     N 1716   1.540   4.356  11.159  0.2602 -0.1327  0.2007
  112MPD2    H5 1717   1.586   4.346  11.249  0.6319  1.2382  0.1569
  112MPD2    N1 1718   1.136   4.446  10.916 -0.2032 -0.5291  0.4996
  112MPD2    H7 1719   1.179   4.399  10.837  2.8284 -0.3903  2.0747
  113MPD2     C 1720   3.151   3.229   1.177 -0.9167 -0.5778  1.4011
  113MPD2    C1 1721   3.075   3.306   1.092  0.4257  0.3672 -0.3474
  113MPD2    C2 1722   3.008   3.248   0.989 -0.9274 -0.1620  0.9368
  113MPD2    C3 1723   3.020   3.113   0.969 -0.0172 -0.1247  0.2706
  113MPD2    C4 1724   3.106   3.041   1.042  0.0905  0.2614 -0.9147
  113MPD2    C5 1725   3.175   3.104   1.142 -0.1932 -0.4016  0.4279
  113MPD2     H 1726   2.969   3.311   0.910 -0.7123 -2.7431 -1.2586
  113MPD2    H1 1727   3.137   2.941   1.012 -0.5840 -0.0411 -0.6108
  113MPD2    H2 1728   3.199   3.270   1.265 -0.8599  0.1785  1.0188
  113MPD2    H3 1729   3.251   3.048   1.196  0.8526  1.8191  1.2328
  113MPD2     N 1730   2.952   3.046   0.867 -0.5761  0.0328 -0.8369
  113MPD2    H5 1731   2.973   2.949   0.846 -0.8594 -0.2487  0.1603
  113MPD2    N1 1732   3.059   3.452   1.106  0.1240 -0.2228  0.0613
  113MPD2    H7 1733   3.007   3.500   1.034 -0.1699  0.2636  0.5925
  114TCq2    C1 1734   2.859   3.102   0.778 -0.1480  0.0544 -1.1314
  114TCq2    O2 1735   2.804   3.211   0.777 -0.0713 -0.1787  0.0854
  114TCq2    C2 1736   2.807   3.006   0.682  0.1013 -0.0232  0.2157
  114TCq2    C3 1737   2.692   3.037   0.613  0.0737 -0.4219 -1.0560
  114TCq2    C4 1738   2.634   2.936   0.532 -0.1259  0.2843 -0.0964
  114TCq2    C5 1739   2.716   2.837   0.478  0.1489  0.0154 -0.0399
  114TCq2    C6 1740   2.843   2.818   0.542  0.4950  0.2370  0.0610
  114TCq2    C7 1741   2.894   2.904   0.639  0.3091 -0.0722  0.0984
  114TCq2    C8 1742   2.902   2.689   0.521  0.4595 -0.1198  0.7857
  114TCq2    O4 1743   2.928   2.655   0.407  0.2672 -0.0082 -0.8178
  114TCq2    C9 1744   2.505   2.954   0.472  0.1635 -0.0482 -0.3629
  114TCq2    O5 1745   2.425   3.036   0.528  0.2658  0.6168  0.0367
  114TCq2    O6 1746   2.472   2.867   0.385  0.0896  0.1940  0.1363
  114TCq2    H2 1747   2.624   3.115   0.647 -1.2478 -1.6149 -0.9281
  114TCq2    H3 1748   2.686   2.781   0.390  2.6397 -1.0054 -0.2212
  114TCq2    H4 1749   2.995   2.890   0.676  0.0908  0.3465  0.8620
  115TMC2    C1 1750   4.170   1.196   0.016 -0.2698  0.3165  0.3642
  115TMC2    C2 1751   4.144   1.277  17.614  0.6245 -0.0063  0.9890
  115TMC2    C3 1752   4.184   1.410  17.623 -0.4372  0.2032  0.1093
  115TMC2    C4 1753   4.233   1.236   0.127 -0.4641 -0.6498 -0.4145
  115TMC2    C5 1754   4.282   1.367   0.128  0.3461 -0.0647 -1.3363
  115TMC2    C6 1755   4.253   1.459   0.024 -0.2385  0.6240 -0.3795
  115TMC2     C 1756   4.108   1.069   0.010  0.4561 -0.1794  0.0375
  115TMC2     O 1757   4.040   1.049  17.617  0.0734 -0.4081  0.2074
  115TMC2     H 1758   4.088   1.244  17.528  0.4417  0.3782  0.9607
  115TMC2    H1 1759   4.267   1.167   0.204  0.4422  1.4743  1.1022
  115TMC2    H2 1760   4.281   1.563   0.035 -2.3775  1.1013  0.4823
  115TMC2    C7 1761   4.357   1.414   0.245 -0.6621  0.0254  0.8675
  115TMC2    C8 1762   4.180   1.493  17.497  0.3190  0.1206 -0.0114
  115TMC2    O1 1763   4.329   1.356   0.351 -0.2825  0.0838 -0.4180
  115TMC2    O2 1764   4.089   1.470  17.417  0.2049  0.3512  0.6579
  115TMC2    O5 1765   4.312   1.490  17.469 -0.4780 -0.4359 -0.0686
  115TMC2    H5 1766   4.387   1.500  17.532 -1.0347  0.9123  0.3914
  116MPD2     C 1767   4.057   0.584   0.175  0.3955 -0.1963 -0.7816
  116MPD2    C1 1768   4.027   0.636   0.049 -0.0547 -0.2805 -0.0724
  116MPD2    C2 1769   4.043   0.774   0.026  0.2529 -0.6094  0.4788
  116MPD2    C3 1770   4.081   0.857   0.136  0.5320  0.3716 -0.3605
  116MPD2    C4 1771   4.090   0.800   0.263  0.4906 -0.3911  0.2340
  116MPD2    C5 1772   4.077   0.666   0.281 -0.1679  0.1842 -0.0628
  116MPD2     H 1773   4.023   0.823  17.635 -1.7962  0.9130  1.6941
  116MPD2    H1 1774   4.112   0.857   0.352  1.2825  0.0603 -0.2620
  116MPD2    H2 1775   4.046   0.480   0.201 -1.2298  0.1972  0.0880
  116MPD2    H3 1776   4.081   0.625   0.381 -0.3085 -2.2157 -1.0368
  116MPD2     N 1777   4.114   0.993   0.125  0.0849 -0.2717  0.1730
  116MPD2    H5 1778   4.141   1.040   0.211 -1.2933  0.0727  0.4109
  116MPD2    N1 1779   3.987   0.555  17.647 -0.1731  0.4027 -0.2048
  116MPD2    H7 1780   3.986   0.598  17.555  2.2220  0.6803 -0.1054
  117TMC2    C1 1781   2.507   1.204  13.697 -0.0732  0.6285  0.3347
  117TMC2    C2 1782   2.572   1.147  13.592  0.6867 -0.0799 -0.7002
  117TMC2    C3 1783   2.705   1.163  13.580  0.2571  0.2143 -0.5224
  117TMC2    C4 1784   2.575   1.269  13.798  0.3751  0.1760  0.3418
  117TMC2    C5 1785   2.712   1.281  13.783 -0.3820 -0.8192  0.6375
  117TMC2    C6 1786   2.777   1.225  13.678 -1.1801 -0.4710 -0.0038
  117TMC2     C 1787   2.374   1.236  13.673 -0.0244 -0.2394 -0.2821
  117TMC2     O 1788   2.309   1.152  13.610  0.2697 -0.0057  0.7969
  117TMC2     H 1789   2.511   1.097  13.518  0.7832 -1.9989  0.5258
  117TMC2    H1 1790   2.514   1.327  13.866 -1.1180  1.2285 -1.9164
  117TMC2    H2 1791   2.884   1.244  13.672 -1.2767  0.7749  2.1879
  117TMC2    C7 1792   2.776   1.392  13.852  0.0195  0.6883 -0.3484
  117TMC2    C8 1793   2.759   1.095  13.467 -0.1044  0.8093 -0.7712
  117TMC2    O1 1794   2.835   1.462  13.778 -0.5774 -0.4447 -0.0773
  117TMC2    O2 1795   2.771   0.974  13.471 -0.2171  0.1770  0.1281
  117TMC2    O5 1796   2.704   1.161  13.370  0.0852 -0.4065  0.7840
  117TMC2    H5 1797   2.703   1.256  13.392  0.1970 -0.1181 -0.4456
  118MPD2     C 1798   2.743   1.481  14.209 -0.6483  0.5725 -0.0617
  118MPD2    C1 1799   2.796   1.487  14.080 -0.1540  0.5246  0.4515
  118MPD2    C2 1800   2.899   1.575  14.054  0.1532 -0.4590  0.3768
  118MPD2    C3 1801   2.938   1.669  14.151  0.5150 -0.1522 -0.8228
  118MPD2    C4 1802   2.876   1.667  14.273 -0.0588  0.1913 -0.1885
  118MPD2    C5 1803   2.786   1.570  14.302 -0.3014 -0.5855 -0.2331
  118MPD2     H 1804   2.952   1.569  13.960 -0.4117 -0.2182  0.0378
  118MPD2    H1 1805   2.908   1.741  14.346  1.1227 -2.7617  2.3013
  118MPD2    H2 1806   2.669   1.417  14.254 -1.0949 -0.0398 -1.6738
  118MPD2    H3 1807   2.735   1.577  14.398  0.1338  4.0398 -0.3584
  118MPD2     N 1808   3.020   1.763  14.097  0.1590 -0.2028  0.3656
  118MPD2    H5 1809   3.032   1.758  13.996 -2.8961 -1.0905  0.0457
  118MPD2    N1 1810   2.746   1.397  13.987 -0.0096 -0.2429 -0.4906
  118MPD2    H7 1811   2.689   1.327  14.034 -0.7145 -1.4969 -3.1944
  119MPD2     C 1812   1.617   2.991  13.644 -0.0681  0.6114 -0.6851
  119MPD2    C1 1813   1.493   2.946  13.679  0.0335 -0.0971  0.1222
  119MPD2    C2 1814   1.424   2.865  13.587  0.0050 -0.9418 -0.5014
  119MPD2    C3 1815   1.479   2.836  13.464  0.7611  0.7796  0.0199
  119MPD2    C4 1816   1.610   2.877  13.436  0.5316 -0.2221 -0.0197
  119MPD2    C5 1817   1.676   2.954  13.526  0.5090 -0.7872  0.2258
  119MPD2     H 1818   1.318   2.844  13.600 -0.0271 -1.8077 -2.2286
  119MPD2    H1 1819   1.646   2.869  13.334  3.1707 -1.3440  0.9870
  119MPD2    H2 1820   1.674   3.050  13.715  0.3534 -0.5456 -0.0602
  119MPD2    H3 1821   1.775   2.985  13.496 -0.4102  2.8267  1.0090
  119MPD2     N 1822   1.414   2.750  13.365 -0.0834  0.2081  0.3669
  119MPD2    H5 1823   1.461   2.720  13.281 -1.2935  0.1010 -0.2586
  119MPD2    N1 1824   1.446   2.976  13.816 -0.1936 -0.6581 -0.1652
  119MPD2    H7 1825   1.490   3.044  13.878  1.9399 -1.8905 -0.3409
  120TCq2    C1 1826   1.287   2.697  13.375  0.1580  0.4838 -0.2636
  120TCq2    O2 1827   1.201   2.729  13.457  0.2782 -0.1095  0.0702
  120TCq2    C2 1828   1.275   2.580  13.292  0.2685  0.2750  0.3718
  120TCq2    C3 1829   1.363   2.557  13.187 -0.2900  0.5770  0.3328
  120TCq2    C4 1830   1.307   2.476  13.092  0.3795 -0.0543 -0.5714
  120TCq2    C5 1831   1.177   2.431  13.090  0.4226 -0.0505  0.1548
  120TCq2    C6 1832   1.097   2.450  13.198 -0.5819  0.5118 -0.5745
  120TCq2    C7 1833   1.149   2.525  13.306 -0.1146  0.7210 -0.1176
  120TCq2    C8 1834   0.957   2.411  13.190 -0.6064  1.2973  0.0980
  120TCq2    O4 1835   0.925   2.370  13.076 -0.1221  0.2678 -0.5449
  120TCq2    C9 1836   1.398   2.454  12.979  0.6917 -0.0963  0.7049
  120TCq2    O5 1837   1.510   2.500  12.987  0.0784 -0.3415 -0.5151
  120TCq2    O6 1838   1.370   2.354  12.906  0.0126 -0.0920  0.1552
  120TCq2    H2 1839   1.465   2.591  13.174  0.7089 -3.2906 -1.6823
  120TCq2    H3 1840   1.137   2.385  13.001 -0.5092 -2.8834  2.0416
  120TCq2    H4 1841   1.088   2.543  13.394 -1.0025  1.1682 -0.8215
  121TMC2    C1 1842   2.496   0.103  14.168 -0.2267 -0.5402 -0.2538
  121TMC2    C2 1843   2.504   0.024  14.281  0.0735  0.2572 -0.2607
  121TMC2    C3 1844   2.391   4.682  14.308  0.0117  0.5120 -0.2152
  121TMC2    C4 1845   2.403   0.085  14.073  0.8828  0.3174 -0.1987
  121TMC2    C5 1846   2.291   0.007  14.101  0.0146  0.4393 -0.0892
  121TMC2    C6 1847   2.284   4.672  14.223  0.3985 -0.4340 -0.2941
  121TMC2     C 1848   2.616   0.171  14.137 -0.3786 -0.1442 -0.4672
  121TMC2     O 1849   2.698   0.188  14.227 -0.2047 -0.0596 -0.2372
  121TMC2     H 1850   2.592   0.031  14.344  1.1465 -1.2605 -1.5757
  121TMC2    H1 1851   2.399   0.150  13.986 -2.8983 -0.5212 -0.6433
  121TMC2    H2 1852   2.197   4.621  14.264  0.4032 -1.2577 -1.3019
  121TMC2    C7 1853   2.186   4.718  14.002  0.1717  0.2333  0.5839
  121TMC2    C8 1854   2.373   4.622  14.442 -0.0537 -0.5463  0.1960
  121TMC2    O1 1855   2.189   0.059  13.902  0.0343 -0.0540 -0.0005
  121TMC2    O2 1856   2.265   4.616  14.493 -0.0978 -0.1855 -0.1738
  121TMC2    O5 1857   2.490   4.577  14.492 -0.1036 -0.7084  0.1672
  121TMC2    H5 1858   2.555   4.566  14.419 -0.2876  0.0217 -0.0990
  122MPD2     C 1859   2.848   0.326  14.021  0.3576 -1.4200  0.5245
  122MPD2    C1 1860   2.757   0.250  13.947 -0.3332  0.8132  0.3834
  122MPD2    C2 1861   2.781   0.240  13.811  0.1110 -0.4378  0.9365
  122MPD2    C3 1862   2.896   0.296  13.756 -0.7173 -0.0399 -0.4485
  122MPD2    C4 1863   2.986   0.363  13.836  0.2114  0.3708 -0.4413
  122MPD2    C5 1864   2.969   0.380  13.969 -0.1625  0.0338  0.1864
  122MPD2     H 1865   2.715   0.182  13.747 -2.5442  0.8121  2.5491
  122MPD2    H1 1866   3.076   0.415  13.804  0.5552 -0.5026 -0.8977
  122MPD2    H2 1867   2.824   0.346  14.125  0.0491  0.0061  0.1841
  122MPD2    H3 1868   3.042   0.436  14.027 -0.3606 -0.1842  0.6359
  122MPD2     N 1869   2.928   0.291  13.618  0.3209 -0.1562  0.1669
  122MPD2    H5 1870   3.015   0.333  13.586  0.8971 -0.6059  1.1614
  122MPD2    N1 1871   2.637   0.185  14.001  0.7483 -0.0918 -0.1365
  122MPD2    H7 1872   2.566   0.151  13.937  0.0148  0.2697  0.4784
  123MPD2     C 1873   1.628   2.444   9.849 -0.3210  0.4499 -0.0744
  123MPD2    C1 1874   1.576   2.529   9.759  0.0273 -0.1515 -0.3035
  123MPD2    C2 1875   1.646   2.645   9.727  0.8100  0.0260  0.0204
  123MPD2    C3 1876   1.773   2.665   9.778 -0.5896 -0.0889 -0.6792
  123MPD2    C4 1877   1.824   2.581   9.875 -0.0762 -0.3879 -0.5521
  123MPD2    C5 1878   1.748   2.470   9.906  0.0467  0.4499 -0.6407
  123MPD2     H 1879   1.609   2.718   9.657 -0.5919 -1.0861 -0.3937
  123MPD2    H1 1880   1.920   2.586   9.926 -1.0216  0.8416  1.1047
  123MPD2    H2 1881   1.566   2.362   9.882 -1.5199  1.2344 -0.3767
  123MPD2    H3 1882   1.783   2.400   9.980  0.6290  2.7393  1.2501
  123MPD2     N 1883   1.833   2.784   9.738 -0.3822  0.3163 -0.3722
  123MPD2    H5 1884   1.775   2.842   9.678 -0.8931 -0.1002 -0.2822
  123MPD2    N1 1885   1.443   2.501   9.713 -0.0505  0.8492 -0.2772
  123MPD2    H7 1886   1.384   2.438   9.766  0.7172  0.6319  0.3198
  124TCq2    C1 1887   1.956   2.829   9.776 -0.0982 -0.0345  0.6452
  124TCq2    O2 1888   2.017   2.799   9.875  0.4494  0.3095 -0.6802
  124TCq2    C2 1889   2.000   2.944   9.695 -0.1542  0.6870 -0.2755
  124TCq2    C3 1890   2.021   3.060   9.760 -0.4582  0.2337 -0.3822
  124TCq2    C4 1891   1.973   3.170   9.701 -0.0090  0.1004  0.8659
  124TCq2    C5 1892   1.902   3.175   9.586 -0.3996  0.7130  0.7467
  124TCq2    C6 1893   1.881   3.056   9.524 -0.2589  0.1113 -0.2273
  124TCq2    C7 1894   1.929   2.944   9.578  0.0914  0.4258  0.6233
  124TCq2    C8 1895   1.764   3.037   9.448  0.1590 -0.4940 -0.0132
  124TCq2    O4 1896   1.698   2.935   9.463 -0.3273  0.5811  0.1758
  124TCq2    C9 1897   1.975   3.299   9.767 -0.2196 -0.3042 -0.2245
  124TCq2    O5 1898   2.052   3.315   9.867 -0.0173 -0.4614  0.8752
  124TCq2    O6 1899   1.892   3.385   9.736  0.3208 -0.1183  0.2612
  124TCq2    H2 1900   2.057   3.064   9.862 -0.3194 -1.4700 -0.3658
  124TCq2    H3 1901   1.850   3.263   9.548  0.4141 -0.6652 -3.4816
  124TCq2    H4 1902   1.909   2.851   9.525 -2.7806  1.2364  0.2457
  125TMC2    C1 1903   4.172   3.998   8.590  0.5738 -1.7564  0.2610
  125TMC2    C2 1904   4.166   3.962   8.461  0.7408  0.3315  0.4517
  125TMC2    C3 1905   4.048   3.916   8.424  0.1991  0.1894  0.3244
  125TMC2    C4 1906   4.069   3.998   8.671  1.3138 -0.2231  0.5013
  125TMC2    C5 1907   3.944   3.973   8.612  0.5589  0.1333  0.1968
  125TMC2    C6 1908   3.930   3.939   8.481 -0.3554 -0.1685  0.3682
  125TMC2     C 1909   4.299   4.048   8.638  0.0709  0.3041  0.4912
  125TMC2     O 1910   4.312   4.068   8.759 -0.3471 -0.4697  0.0391
  125TMC2     H 1911   4.253   3.936   8.402 -0.3615 -0.3706 -0.8772
  125TMC2    H1 1912   4.084   4.029   8.774  0.8401  0.0886  0.4770
  125TMC2    H2 1913   3.830   3.934   8.440  0.0670  0.9485 -0.7490
  125TMC2    C7 1914   3.824   3.971   8.696  0.4842  0.1010 -0.0134
  125TMC2    C8 1915   4.052   3.881   8.282  0.1973  0.4076  0.3849
  125TMC2    O1 1916   3.734   3.897   8.658  0.2482 -0.2952 -0.1338
  125TMC2    O2 1917   4.142   3.918   8.210 -0.3267  0.2220 -0.2703
  125TMC2    O5 1918   3.926   3.834   8.251 -0.2621  0.3370  0.0919
  125TMC2    H5 1919   3.887   3.809   8.337  0.1599 -0.0260  0.1769
  126MPD1     C 1920   0.077   4.143   8.586  1.3175 -0.0248  0.3225
  126MPD1    C1 1921   0.023   4.143   8.462 -0.7179  0.8062 -0.3904
  126MPD1    C2 1922   4.611   4.123   8.457  0.1157  0.1713 -0.5639
  126MPD1    C3 1923   4.530   4.093   8.564  0.2240 -0.1547  0.5699
  126MPD1    C4 1924   4.591   4.088   8.688  0.7598 -0.0631 -0.1130
  126MPD1    C5 1925   4.724   4.112   8.690  0.1551  0.1123 -0.8823
  126MPD1     H 1926   4.555   4.151   8.368 -1.3744 -1.7101 -0.2115
  126MPD1    H1 1927   4.542   4.057   8.779 -0.8267  1.0711 -0.5746
  126MPD1    H2 1928   0.180   4.169   8.609  1.4117  0.8453 -1.1418
  126MPD1    H3 1929   0.041   4.123   8.789 -1.4948 -1.8027  0.0283
  126MPD1     N 1930   4.394   4.067   8.542  0.2114  0.5608 -0.2978
  126MPD1    H5 1931   4.356   4.049   8.449 -1.9465 -0.0260  0.6810
  126MPD1    N1 1932   0.110   4.154   8.347 -0.0138  0.0582  0.5643
  126MPD1    H6 1933   0.194   4.212   8.353  0.2376 -0.5375  2.7479
  126MPD1    H7 1934   0.056   4.162   8.261  3.1709  0.5487 -1.3963
  127MPD2     C 1935   4.306   3.313   9.206  0.0204  0.1946  0.3364
  127MPD2    C1 1936   4.256   3.247   9.312 -0.5101  0.0690 -0.0344
  127MPD2    C2 1937   4.268   3.300   9.436 -0.0900  0.0240  0.3559
  127MPD2    C3 1938   4.323   3.427   9.455 -0.8047 -0.2356 -0.5877
  127MPD2    C4 1939   4.369   3.494   9.346  0.0250 -0.6115 -1.0395
  127MPD2    C5 1940   4.357   3.442   9.220  0.1858 -1.1073 -0.3806
  127MPD2     H 1941   4.232   3.251   9.525  1.3447  0.6155  1.2713
  127MPD2    H1 1942   4.422   3.588   9.347 -3.1350  1.1563  0.0931
  127MPD2    H2 1943   4.310   3.261   9.111  2.2808  1.9321 -0.5051
  127MPD2    H3 1944   4.386   3.498   9.132 -1.2465  0.7917  0.3750
  127MPD2     N 1945   4.331   3.489   9.581  0.5412 -0.2033  0.1744
  127MPD2    H5 1946   4.317   3.434   9.665 -1.4820 -0.9151 -0.6385
  127MPD2    N1 1947   4.207   3.119   9.286  0.2342 -0.4693  0.2689
  127MPD2    H7 1948   4.203   3.100   9.186 -2.2975 -2.6204  0.7709
  128TCq2    C1 1949   4.160   3.028   9.372 -0.1603 -0.8062  0.0898
  128TCq2    O2 1950   4.157   3.036   9.494 -0.9934  0.0404 -0.2520
  128TCq2    C2 1951   4.102   2.919   9.304  0.7774  0.0165  0.2915
  128TCq2    C3 1952   4.132   2.900   9.166 -0.7468  0.5074  0.9458
  128TCq2    C4 1953   4.041   2.830   9.092 -0.2326  0.3332 -0.0037
  128TCq2    C5 1954   3.917   2.805   9.140 -0.2180  0.0304  0.3737
  128TCq2    C6 1955   3.887   2.823   9.273  0.2233  1.2982 -0.2747
  128TCq2    C7 1956   3.985   2.875   9.356 -0.0745  0.2561 -0.6129
  128TCq2    C8 1957   3.751   2.834   9.305  1.0712 -0.2127 -0.1722
  128TCq2    O4 1958   3.673   2.853   9.210  0.1077  0.1089 -0.3138
  128TCq2    C9 1959   4.071   2.793   8.956  0.4133  0.4002 -0.0875
  128TCq2    O5 1960   4.178   2.840   8.914 -0.2254  0.2963  0.3621
  128TCq2    O6 1961   3.986   2.743   8.882 -0.3844 -0.3079  0.4378
  128TCq2    H2 1962   4.231   2.911   9.126 -0.1009  2.1489  2.9963
  128TCq2    H3 1963   3.843   2.749   9.083 -1.7304 -0.8704  3.2223
  128TCq2    H4 1964   3.952   2.911   9.452  1.2335  0.1493 -0.1230
  129MPD2     C 1965   0.146   0.333   1.159  0.1223 -0.1058  0.6348
  129MPD2    C1 1966   0.258   0.387   1.210  0.9605  0.1700  1.1251
  129MPD2    C2 1967   0.300   0.507   1.151  0.6720  0.4145 -0.9964
  129MPD2    C3 1968   0.249   0.547   1.028 -0.1026 -0.0193 -0.6079
  129MPD2    C4 1969   0.145   0.482   0.976  0.2695 -0.5306  0.6675
  129MPD2    C5 1970   0.086   0.381   1.045 -0.2242  0.3229  0.5082
  129MPD2     H 1971   0.381   0.565   1.193  0.9726  1.1330 -2.5776
  129MPD2    H1 1972   0.089   0.508   0.887  2.2731  0.6172 -0.2662
  129MPD2    H2 1973   0.104   0.241   1.197  0.5359  0.2664  1.9930
  129MPD2    H3 1974   4.722   0.342   0.998 -0.6497  1.1323  0.6569
  129MPD2     N 1975   0.307   0.656   0.957  0.0296  0.6683 -0.2729
  129MPD2    H5 1976   0.379   0.709   1.005  1.5173 -0.6792 -0.9945
  129MPD2    N1 1977   0.347   0.318   1.302  0.3467  0.6598  0.2201
  129MPD2    H7 1978   0.439   0.355   1.322  1.0961 -0.3934 -1.3004
  130TCq2    C1 1979   0.314   0.206   1.378 -0.0338  0.3390  0.3676
  130TCq2    O2 1980   0.209   0.144   1.372 -0.6818  0.2227 -0.0023
  130TCq2    C2 1981   0.435   0.145   1.435  0.4740  0.6168  0.3873
  130TCq2    C3 1982   0.556   0.156   1.376 -0.6007  0.1632  0.4049
  130TCq2    C4 1983   0.646   0.051   1.381  0.0172  0.2559  0.1143
  130TCq2    C5 1984   0.610   4.664   1.442 -0.4343 -0.0599 -0.2362
  130TCq2    C6 1985   0.487   4.654   1.505 -0.5018 -0.0478 -0.3432
  130TCq2    C7 1986   0.398   0.039   1.509  0.0679  0.6108 -0.1062
  130TCq2    C8 1987   0.459   4.537   1.588  0.4607 -0.0993  0.0746
  130TCq2    O4 1988   0.342   4.520   1.611 -0.1611 -0.3097 -0.1610
  130TCq2    C9 1989   0.776   0.064   1.317  0.2403  0.1565  0.2015
  130TCq2    O5 1990   0.800   0.155   1.233 -0.4351 -0.1334 -0.2636
  130TCq2    O6 1991   0.867   4.707   1.354 -0.3638  0.4311  0.1799
  130TCq2    H2 1992   0.584   0.245   1.321 -0.4009  0.8002  1.5200
  130TCq2    H3 1993   0.681   4.583   1.429 -2.0253 -0.9119 -3.9564
  130TCq2    H4 1994   0.302   0.034   1.558  1.1263  2.0043  2.0711
  131MPD2     C 1995   0.893   3.227   9.297 -0.4845 -0.1481 -0.3713
  131MPD2    C1 1996   0.999   3.228   9.384 -0.5965 -0.2820  0.4298
  131MPD2    C2 1997   1.041   3.114   9.456 -0.1496 -0.3032 -0.5839
  131MPD2    C3 1998   0.976   2.995   9.443 -1.2071 -0.2775  0.2518
  131MPD2    C4 1999   0.866   2.996   9.356  0.1106  0.3741  0.1252
  131MPD2    C5 2000   0.820   3.109   9.296  0.1321 -0.2851 -0.2958
  131MPD2     H 2001   1.128   3.115   9.520  0.3702  3.0548 -1.3713
  131MPD2    H1 2002   0.800   2.911   9.343 -2.5066  2.4375 -0.0253
  131MPD2    H2 2003   0.845   3.321   9.272 -0.1507  0.2241  0.3891
  131MPD2    H3 2004   0.726   3.103   9.242 -0.2925 -0.8190  0.5092
  131MPD2     N 2005   1.013   2.871   9.510 -0.1115 -0.0724 -0.2197
  131MPD2    H5 2006   1.095   2.881   9.568 -0.4902 -1.1878  0.5172
  131MPD2    N1 2007   1.061   3.352   9.401  0.0047  0.7982  0.5060
  131MPD2    H7 2008   1.026   3.429   9.346  0.8506 -1.6935 -3.5766
  132TCq2    C1 2009   1.543   3.685   9.385  1.0560  0.6099  0.4773
  132TCq2    O2 2010   1.578   3.611   9.293  0.4561  0.3141  0.2389
  132TCq2    C2 2011   1.413   3.659   9.442  0.1734 -0.9201 -0.2957
  132TCq2    C3 2012   1.334   3.762   9.485 -0.5471 -0.0726  0.2384
  132TCq2    C4 2013   1.208   3.730   9.522 -0.0181 -0.8576  0.6937
  132TCq2    C5 2014   1.148   3.607   9.508 -0.3032 -0.2645  0.2839
  132TCq2    C6 2015   1.233   3.508   9.460 -0.1436 -0.7443 -0.2305
  132TCq2    C7 2016   1.361   3.530   9.439 -0.0808  0.0688 -0.9073
  132TCq2    C8 2017   1.182   3.371   9.465  0.4939  0.1757 -0.4028
  132TCq2    O4 2018   1.247   3.300   9.536  0.0589  0.2155 -0.1918
  132TCq2    C9 2019   1.131   3.836   9.582  0.5357  0.4048  0.0807
  132TCq2    O5 2020   1.185   3.946   9.619  0.4550  0.0430 -0.0886
  132TCq2    O6 2021   1.006   3.823   9.589 -0.5082  0.2525  0.4451
  132TCq2    H2 2022   1.361   3.866   9.496 -0.4124 -0.1365  0.5105
  132TCq2    H3 2023   1.044   3.585   9.530 -0.7343 -0.4243 -1.9316
  132TCq2    H4 2024   1.428   3.454   9.401  0.9324  1.0809 -1.1514
  133MPD2     C 2025   0.152   2.835   9.532  0.1235 -0.6135 -0.1565
  133MPD2    C1 2026   0.168   2.842   9.395  0.4962 -0.4538  0.9175
  133MPD2    C2 2027   0.224   2.957   9.336 -0.1694  0.0655 -0.3609
  133MPD2    C3 2028   0.263   3.066   9.414 -0.4908 -0.0531  0.6309
  133MPD2    C4 2029   0.224   3.072   9.546 -0.4114 -0.7721 -0.8228
  133MPD2    C5 2030   0.171   2.960   9.603 -0.2193 -0.4762 -0.0154
  133MPD2     H 2031   0.243   2.955   9.229  2.5157 -2.1116  0.1575
  133MPD2    H1 2032   0.246   3.162   9.603  0.8215 -1.0421 -0.8802
  133MPD2    H2 2033   0.103   2.755   9.586 -0.7768 -1.1892 -1.8270
  133MPD2    H3 2034   0.151   2.956   9.709 -1.8607  0.3625 -0.2977
  133MPD2     N 2035   0.311   3.183   9.354 -0.2385  0.7833  0.1903
  133MPD2    H5 2036   0.313   3.267   9.410  0.5155  0.9428 -0.0740
  133MPD2    N1 2037   0.130   2.726   9.317 -0.1401  0.0874 -0.2408
  133MPD2    H7 2038   0.085   2.654   9.371  1.5986 -0.0996  0.9523
  134TCq2    C1 2039   0.132   2.714   9.182 -0.6372 -0.0102 -0.4560
  134TCq2    O2 2040   0.178   2.791   9.100  0.2067 -0.7481 -0.8418
  134TCq2    C2 2041   0.053   2.599   9.131  0.1565  0.6042  0.3051
  134TCq2    C3 2042   0.093   2.545   9.011  0.4620 -0.4440  0.2048
  134TCq2    C4 2043   0.015   2.443   8.962  0.2185  0.0791  0.3135
  134TCq2    C5 2044   4.647   2.378   9.036 -0.5930  0.4552  0.8292
  134TCq2    C6 2045   4.623   2.422   9.164 -0.2706 -0.1659  0.6474
  134TCq2    C7 2046   4.683   2.536   9.209 -0.1422 -0.6609 -0.2086
  134TCq2    C8 2047   4.537   2.356   9.256  0.0684  0.2307 -0.4504
  134TCq2    O4 2048   4.562   2.354   9.373  0.1356 -0.3867 -0.4440
  134TCq2    C9 2049   0.047   2.385   8.832  0.0261  0.9029 -0.4924
  134TCq2    O5 2050   4.716   2.277   8.792  0.4088  0.4073 -0.4304
  134TCq2    O6 2051   0.151   2.436   8.784 -0.1770  0.2283  0.2264
  134TCq2    H2 2052   0.165   2.589   8.943  2.5060 -0.2560  2.4914
  134TCq2    H3 2053   4.599   2.287   9.000 -2.0210  2.3702 -2.0860
  134TCq2    H4 2054   4.637   2.586   9.293  1.7146  1.7636 -0.6466
  135MPD2     C 2055   3.110   0.230   9.435  0.8338 -0.6016 -0.5238
  135MPD2    C1 2056   3.181   0.112   9.445 -0.0353 -0.6003  0.4429
  135MPD2    C2 2057   3.242   0.056   9.339 -0.5894  0.7339  0.3597
  135MPD2    C3 2058   3.216   0.112   9.211  1.3268  0.2577  0.0039
  135MPD2    C4 2059   3.127   0.214   9.195 -0.1222 -0.3789  0.6535
  135MPD2    C5 2060   3.079   0.275   9.312  0.3847 -0.5577 -0.2613
  135MPD2     H 2061   3.296   4.689   9.350 -1.4111 -0.0523 -2.1954
  135MPD2    H1 2062   3.095   0.254   9.099 -1.7837 -2.7643  0.2081
  135MPD2    H2 2063   3.084   0.298   9.516 -1.6016 -1.1882 -0.8191
  135MPD2    H3 2064   3.024   0.368   9.316  0.2874 -0.7126  1.7934
  135MPD2     N 2065   3.259   0.046   9.094 -0.2624 -0.0483  0.1721
  135MPD2    H5 2066   3.229   0.082   9.004 -0.3866 -0.1194  0.1860
  135MPD2    N1 2067   3.205   0.046   9.567 -0.2639 -0.0694 -0.1994
  135MPD2    H7 2068   3.278   4.701   9.571 -1.3611 -1.1966 -0.0051
  136TCq2    C1 2069   3.143   0.083   9.680  0.4982 -0.1341 -0.1583
  136TCq2    O2 2070   3.053   0.163   9.703  0.0613 -0.2620  0.2434
  136TCq2    C2 2071   3.210   0.027   9.793 -1.0180 -0.3564 -0.2555
  136TCq2    C3 2072   3.165   0.061   9.917 -0.3325  0.8141 -0.1898
  136TCq2    C4 2073   3.212   4.719  10.027  0.1096  1.2144 -0.0122
  136TCq2    C5 2074   3.298   4.615  10.013 -0.3558  0.3755  0.0350
  136TCq2    C6 2075   3.344   4.584   9.892 -0.1093 -0.3720  0.5597
  136TCq2    C7 2076   3.304   4.658   9.779  0.3135  0.0693 -0.2999
  136TCq2    C8 2077   3.418   4.464   9.872  0.2046 -0.0634 -0.2886
  136TCq2    O4 2078   3.501   4.461   9.784 -0.4173 -1.1284 -0.4527
  136TCq2    C9 2079   3.168   0.031  10.159  0.7853  0.2204  0.6807
  136TCq2    O5 2080   3.076   0.117  10.164 -0.0973  0.0503 -0.1738
  136TCq2    O6 2081   3.185   4.676  10.256 -0.2714 -0.3821  0.9704
  136TCq2    H2 2082   3.094   0.141   9.935 -0.5699  0.6897 -0.5727
  136TCq2    H3 2083   3.342   4.563  10.097 -0.8472  0.4153  0.3136
  136TCq2    H4 2084   3.363   4.641   9.690  0.2035  1.1579 -0.5796
  137MPD2     C 2085   2.900   3.824   9.874 -0.0500 -0.0223  0.7377
  137MPD2    C1 2086   3.026   3.808   9.829  0.1965 -0.9379 -0.7318
  137MPD2    C2 2087   3.097   3.687   9.845  0.4551  0.6729  0.0957
  137MPD2    C3 2088   3.031   3.584   9.916  0.5103 -0.4657  0.3767
  137MPD2    C4 2089   2.905   3.608   9.963 -0.7736 -0.2702 -0.3370
  137MPD2    C5 2090   2.836   3.721   9.942 -0.2627  0.3534  0.2728
  137MPD2     H 2091   3.201   3.673   9.817  1.4556  0.4884  4.0009
  137MPD2    H1 2092   2.860   3.528  10.020  0.3856  0.6909  1.9648
  137MPD2    H2 2093   2.845   3.914   9.851  0.6149  0.8607  2.5709
  137MPD2    H3 2094   2.733   3.737   9.973 -0.5958 -0.8668 -0.2438
  137MPD2     N 2095   3.104   3.464   9.945 -0.9582  0.2015  0.1818
  137MPD2    H5 2096   3.205   3.468   9.931 -1.0462 -2.4318 -1.0892
  137MPD2    N1 2097   3.085   3.922   9.770  0.1650 -0.3615 -0.4512
  137MPD2    H7 2098   3.046   4.015   9.776 -0.6435 -0.7225 -0.1903
  138TCq2    C1 2099   3.213   3.925   9.717  0.2946  0.1921 -0.1032
  138TCq2    O2 2100   3.299   3.838   9.704  0.1826 -0.3886 -0.6270
  138TCq2    C2 2101   3.244   4.046   9.646  0.3782 -0.5771  0.5337
  138TCq2    C3 2102   3.370   4.058   9.593  0.0789  0.2865 -0.0639
  138TCq2    C4 2103   3.397   4.171   9.521 -0.2056 -0.1700 -0.4633
  138TCq2    C5 2104   3.305   4.275   9.506  0.2483  0.2329 -0.5572
  138TCq2    C6 2105   3.179   4.261   9.570 -0.3637  0.5257 -0.2179
  138TCq2    C7 2106   3.148   4.144   9.634 -0.1147  0.4221 -0.2276
  138TCq2    C8 2107   3.087   4.373   9.545 -1.0638 -0.4938  0.3875
  138TCq2    O4 2108   3.144   4.478   9.508 -0.3759  0.3491 -0.4675
  138TCq2    C9 2109   3.527   4.190   9.465  0.3888 -0.1425 -0.0535
  138TCq2    O5 2110   3.546   4.310   9.418  0.2553 -0.5524 -0.0591
  138TCq2    O6 2111   3.601   4.091   9.456  0.7226 -0.1325  0.0169
  138TCq2    H2 2112   3.444   3.979   9.591  1.0369  1.2218 -1.2763
  138TCq2    H3 2113   3.328   4.364   9.448  1.4017  1.0404  1.1717
  138TCq2    H4 2114   3.051   4.131   9.681  0.5414  0.4655  1.1606
  139TMC2    C1 2115   2.664   2.190  13.278  0.6442 -0.4093 -0.1729
  139TMC2    C2 2116   2.797   2.174  13.274 -0.3273  0.4099 -0.0118
  139TMC2    C3 2117   2.875   2.245  13.363 -0.4142  0.0932 -0.0318
  139TMC2    C4 2118   2.605   2.275  13.374  0.1448  0.0132  0.7979
  139TMC2    C5 2119   2.691   2.358  13.434 -0.0829 -0.1161  0.5313
  139TMC2    C6 2120   2.829   2.350  13.430  0.1836  0.7741 -0.5489
  139TMC2     C 2121   2.595   2.072  13.226  0.2507 -0.5327 -0.2132
  139TMC2     O 2122   2.618   2.042  13.108  0.3462  0.4124  0.2633
  139TMC2     H 2123   2.838   2.088  13.222 -1.7373 -0.7909  0.8430
  139TMC2    H1 2124   2.497   2.283  13.382  0.0904  0.7509 -0.6121
  139TMC2    H2 2125   2.892   2.398  13.504  1.2676 -1.8675  0.2384
  139TMC2    C7 2126   2.641   2.483  13.502 -1.0684 -0.5911 -0.3010
  139TMC2    C8 2127   3.018   2.220  13.376 -0.0529 -0.4740  0.5129
  139TMC2    O1 2128   2.719   2.575  13.510  0.2334 -0.1165 -0.2614
  139TMC2    O2 2129   3.061   2.101  13.365 -0.0821 -0.0670  0.1776
  139TMC2    O5 2130   3.081   2.333  13.407  0.2599 -0.0114  0.1418
  139TMC2    H5 2131   3.036   2.419  13.411  0.4100  0.0868 -0.2781
  140MPD2     C 2132   2.375   1.843  13.431  0.0434  0.5342 -0.0365
  140MPD2    C1 2133   2.465   1.885  13.326 -0.0689 -0.0071  0.7941
  140MPD2    C2 2134   2.506   1.798  13.230 -0.2541  0.6528  0.0228
  140MPD2    C3 2135   2.471   1.665  13.240  0.3011  0.2893 -0.6409
  140MPD2    C4 2136   2.373   1.630  13.325 -0.0051 -0.0217 -0.8505
  140MPD2    C5 2137   2.320   1.721  13.412  0.0344  0.0723  0.0856
  140MPD2     H 2138   2.584   1.819  13.158  0.1441  0.0810  0.2879
  140MPD2    H1 2139   2.337   1.528  13.337  0.9742 -0.1618  0.9618
  140MPD2    H2 2140   2.346   1.911  13.510 -1.2359  1.1400 -1.0258
  140MPD2    H3 2141   2.245   1.681  13.479 -0.6507 -0.8781 -1.2434
  140MPD2     N 2142   2.535   1.569  13.154  0.6583  0.5846  0.2291
  140MPD2    H5 2143   2.590   1.606  13.077  0.2875  1.6087  0.4482
  140MPD2    N1 2144   2.518   2.017  13.329  0.6998  0.5028 -0.2120
  140MPD2    H7 2145   2.495   2.065  13.415  1.0909 -1.2603  0.8898
  141TCq2    C1 2146   3.450   4.025  14.337  0.0088  0.5158  0.1818
  141TCq2    O2 2147   3.497   4.016  14.225 -0.0116 -0.2549 -0.5615
  141TCq2    C2 2148   3.529   4.099  14.434 -0.3353 -1.0932  0.0734
  141TCq2    C3 2149   3.509   4.068  14.568 -0.4321  0.1965  0.1807
  141TCq2    C4 2150   3.608   4.105  14.653 -0.6891  0.5277 -0.3980
  141TCq2    C5 2151   3.721   4.163  14.603  0.3002  0.0250  0.1655
  141TCq2    C6 2152   3.741   4.182  14.467  0.0650  0.0882 -0.5024
  141TCq2    C7 2153   3.640   4.155  14.380  0.0953  0.1770 -0.2611
  141TCq2    C8 2154   3.869   4.213  14.407  0.4800  0.4929  0.1758
  141TCq2    O4 2155   3.865   4.207  14.282 -0.4135  0.3825  0.1509
  141TCq2    C9 2156   3.607   4.078  14.798  0.4789 -0.3422  0.6240
  141TCq2    O5 2157   3.500   4.043  14.852 -0.2825  0.1939  0.0203
  141TCq2    O6 2158   3.721   4.066  14.853 -0.3660 -0.1951  0.1651
  141TCq2    H2 2159   3.424   4.015  14.609 -1.6648 -0.1862 -2.8299
  141TCq2    H3 2160   3.794   4.194  14.677 -0.3026  1.6245  0.0771
  141TCq2    H4 2161   3.638   4.187  14.276  0.0495 -0.8546 -0.5748
  142MPD2     C 2162   1.375   2.122   9.541  0.0295  0.5366 -0.2211
  142MPD2    C1 2163   1.253   2.108   9.485 -0.0208 -0.8636 -0.4096
  142MPD2    C2 2164   1.213   2.208   9.406  0.1700 -0.2706  0.2889
  142MPD2    C3 2165   1.301   2.317   9.371  0.9460  0.8624 -0.0471
  142MPD2    C4 2166   1.432   2.314   9.420 -0.0903  0.0213 -0.2141
  142MPD2    C5 2167   1.465   2.221   9.510  0.1599  0.6592  0.5671
  142MPD2     H 2168   1.108   2.215   9.381  0.1925  0.0454  0.2798
  142MPD2    H1 2169   1.503   2.390   9.388 -0.1666  0.2596  0.1847
  142MPD2    H2 2170   1.407   2.041   9.606 -0.6204 -0.2118 -0.8350
  142MPD2    H3 2171   1.568   2.209   9.543  0.2186 -0.8714 -0.1527
  142MPD2     N 2172   1.256   2.429   9.290 -0.3331  0.1775 -0.4393
  142MPD2    H5 2173   1.331   2.488   9.258  0.3406 -0.5798 -0.2532
  142MPD2    N1 2174   1.170   1.995   9.534  0.3637 -0.5902 -0.3274
  142MPD2    H7 2175   1.206   1.933   9.606  0.5087 -2.4126 -1.9912
  143TCq2    C1 2176   1.128   2.470   9.256  0.3426 -0.4622 -0.2797
  143TCq2    O2 2177   1.028   2.399   9.269 -0.5403  0.0698  0.1949
  143TCq2    C2 2178   1.125   2.594   9.195  0.0301 -0.6272 -0.5428
  143TCq2    C3 2179   1.004   2.625   9.132 -0.8523  0.5126  0.2000
  143TCq2    C4 2180   0.988   2.752   9.082 -0.7939  0.1809  0.0522
  143TCq2    C5 2181   1.080   2.854   9.120 -0.4604 -0.0067  0.7528
  143TCq2    C6 2182   1.188   2.823   9.201  0.2094  0.6788 -0.2440
  143TCq2    C7 2183   1.218   2.692   9.231 -0.3171  0.2269 -0.4344
  143TCq2    C8 2184   1.272   2.926   9.269  0.1813 -0.0857 -0.4274
  143TCq2    O4 2185   1.333   2.889   9.373 -0.0057 -0.2803 -0.0141
  143TCq2    C9 2186   0.878   2.790   9.007 -0.2187  0.2399 -0.8425
  143TCq2    O5 2187   0.782   2.705   8.995  0.3758 -0.2092 -0.8149
  143TCq2    O6 2188   0.884   2.901   8.949  0.2092 -0.4007 -0.3976
  143TCq2    H2 2189   0.921   2.557   9.117  2.0011 -2.8987 -0.1070
  143TCq2    H3 2190   1.053   2.954   9.088  1.3787  0.0219 -0.6884
  143TCq2    H4 2191   1.293   2.677   9.307 -1.8849  1.2091  1.3055
  144MPD2     C 2192   3.355   2.190   0.615 -1.0518 -0.3281  0.3561
  144MPD2    C1 2193   3.385   2.055   0.585 -0.0429  0.5365 -0.1082
  144MPD2    C2 2194   3.473   1.991   0.667  0.4170  0.3199 -0.3326
  144MPD2    C3 2195   3.531   2.057   0.771 -0.1238  0.0431  0.1977
  144MPD2    C4 2196   3.504   2.190   0.799  0.1145 -0.7381 -0.3541
  144MPD2    C5 2197   3.414   2.253   0.717 -0.3066 -0.3030  0.2820
  144MPD2     H 2198   3.484   1.883   0.657  0.3790  0.2789  0.0526
  144MPD2    H1 2199   3.543   2.233   0.890  0.9290  2.9462 -2.4615
  144MPD2    H2 2200   3.287   2.242   0.547 -0.1066 -1.0216 -1.1167
  144MPD2    H3 2201   3.381   2.355   0.735  1.5580  0.6740 -1.7865
  144MPD2     N 2202   3.637   1.992   0.852  0.3039  0.8582  0.4357
  144MPD2    H5 2203   3.677   2.060   0.915  2.4327 -0.8352  0.8859
  144MPD2    N1 2204   3.322   1.979   0.478 -0.5135  0.1116 -0.0677
  144MPD2    H7 2205   3.336   1.878   0.473  1.2199  0.3842 -0.6415
  145TCq2    C1 2206   3.684   1.864   0.843  0.2987 -0.7219 -0.4827
  145TCq2    O2 2207   3.658   1.774   0.769 -0.1667  0.0358  0.0640
  145TCq2    C2 2208   3.793   1.840   0.928  0.5771  0.2467 -0.0346
  145TCq2    C3 2209   3.876   1.737   0.899  0.8016  0.1921 -0.4990
  145TCq2    C4 2210   3.969   1.708   0.987  0.1086  0.4798 -0.6303
  145TCq2    C5 2211   3.989   1.785   1.097 -0.4555  0.9841  0.8909
  145TCq2    C6 2212   3.912   1.891   1.118  0.1005  0.2253 -0.3113
  145TCq2    C7 2213   3.809   1.925   1.031 -0.1927 -0.7530 -0.8950
  145TCq2    C8 2214   3.952   1.980   1.226  0.3717 -0.5910  0.5059
  145TCq2    O4 2215   4.047   1.933   1.290 -0.2253 -0.3450 -0.0122
  145TCq2    C9 2216   4.061   1.602   0.961 -0.3602  0.2358  0.7934
  145TCq2    O5 2217   4.135   1.563   1.053  0.0648 -0.2419  0.0665
  145TCq2    O6 2218   4.055   1.547   0.853  0.0622 -0.0301  0.3474
  145TCq2    H2 2219   3.873   1.688   0.802 -1.2139 -2.0532  0.7321
  145TCq2    H3 2220   4.066   1.753   1.167  0.4069  2.4688  0.6158
  145TCq2    H4 2221   3.728   1.992   1.059  0.7876  0.2786 -0.5153
  146TMC2    C1 2222   0.725   4.661  12.710 -0.2908 -0.1825 -0.1215
  146TMC2    C2 2223   0.654   4.690  12.595 -0.6723 -0.2129  0.8348
  146TMC2    C3 2224   0.692   4.620  12.489  0.7178  0.4671 -0.3796
  146TMC2    C4 2225   0.822   4.565  12.708 -0.6592 -0.5618 -0.8445
  146TMC2    C5 2226   0.849   4.496  12.593 -0.2107  0.1232 -0.1299
  146TMC2    C6 2227   0.785   4.524  12.478  0.5977  0.1006  0.2231
  146TMC2     C 2228   0.690   0.001  12.835  1.2062  0.4696 -0.0536
  146TMC2     O 2229   0.644   0.114  12.833 -0.2438 -0.9809 -0.5533
  146TMC2     H 2230   0.583   0.045  12.591  0.1896  0.5015 -0.1676
  146TMC2    H1 2231   0.888   4.556  12.794 -0.7300 -1.0623 -0.8433
  146TMC2    H2 2232   0.802   4.489  12.377  1.3330  1.3405 -0.0931
  146TMC2    C7 2233   0.951   4.394  12.595 -0.3857 -0.8460  0.4863
  146TMC2    C8 2234   0.609   4.637  12.372  0.2525 -0.1165  0.0418
  146TMC2    O1 2235   0.988   4.369  12.481 -0.1202  0.1671 -0.2647
  146TMC2    O2 2236   0.563   0.020  12.340  0.3291  0.0636  0.6095
  146TMC2    O5 2237   0.546   4.521  12.348 -0.1200 -0.2275  0.1364
  146TMC2    H5 2238   0.569   4.450  12.412  1.5060 -0.9518 -1.2741
  147MPD2     C 2239   1.283   4.065  12.773  0.6009  0.3449  0.0631
  147MPD2    C1 2240   1.189   4.088  12.870 -0.4948  0.9496 -0.2535
  147MPD2    C2 2241   1.095   4.181  12.846 -0.4884  0.3512 -0.4561
  147MPD2    C3 2242   1.090   4.243  12.727  0.3896  0.0027  0.4828
  147MPD2    C4 2243   1.187   4.218  12.630  0.5585  0.0709  0.9119
  147MPD2    C5 2244   1.281   4.123  12.653 -0.0883  0.4599  0.0445
  147MPD2     H 2245   1.012   4.192  12.916 -1.3663  0.6872 -1.5462
  147MPD2    H1 2246   1.178   4.243  12.525 -0.5993  1.5243  1.3595
  147MPD2    H2 2247   1.367   3.997  12.779  0.6830  0.5388  0.9788
  147MPD2    H3 2248   1.366   4.112  12.587  0.7181  0.3877  1.1115
  147MPD2     N 2249   0.985   4.338  12.705 -0.2938 -0.2590  0.7764
  147MPD2    H5 2250   0.936   4.375  12.786  0.4476 -2.4105  2.1969
  147MPD2    N1 2251   1.199   4.005  12.988  0.2353 -0.5428  0.0620
  147MPD2    H7 2252   1.267   3.931  12.984  0.3036 -0.3851 -1.7277
  148MPD2     C 2253   0.999   3.577  10.491  0.8781 -0.3633  0.2401
  148MPD2    C1 2254   1.052   3.454  10.458 -0.2238  0.1422  0.0268
  148MPD2    C2 2255   0.980   3.378  10.374 -0.1514 -0.6774 -0.2833
  148MPD2    C3 2256   0.855   3.407  10.324 -0.1457  0.3599  0.1167
  148MPD2    C4 2257   0.805   3.530  10.347 -0.2670  0.3966 -0.0932
  148MPD2    C5 2258   0.884   3.618  10.425  1.2750 -0.8875 -0.2223
  148MPD2     H 2259   1.019   3.278  10.364  0.8232 -0.2025 -1.1469
  148MPD2    H1 2260   0.717   3.565  10.293 -1.7419 -1.7601  0.9064
  148MPD2    H2 2261   1.048   3.656  10.546 -0.4798  1.0001 -0.4852
  148MPD2    H3 2262   0.877   3.726  10.426  1.3882 -0.8750 -0.7078
  148MPD2     N 2263   0.788   3.318  10.243 -0.0013 -0.6595 -0.2556
  148MPD2    H5 2264   0.697   3.348  10.208  0.8962  0.7599 -1.3723
  148MPD2    N1 2265   1.167   3.404  10.522 -0.4150 -0.2514 -0.2439
  148MPD2    H7 2266   1.202   3.318  10.480 -0.3697  0.2717 -1.2832
  149TCq2    C1 2267   1.230   3.466  10.628  0.1454  0.7993  0.2834
  149TCq2    O2 2268   1.194   3.569  10.688  0.3921 -0.1771  0.4385
  149TCq2    C2 2269   1.346   3.394  10.674  0.4596 -0.1052 -0.9527
  149TCq2    C3 2270   1.458   3.473  10.673  0.4190 -0.6108  0.1518
  149TCq2    C4 2271   1.575   3.418  10.628 -0.1837  0.7428  0.3657
  149TCq2    C5 2272   1.569   3.303  10.549 -0.1527 -0.1079  0.7201
  149TCq2    C6 2273   1.461   3.217  10.565  0.0567 -1.0043 -0.6411
  149TCq2    C7 2274   1.348   3.262  10.628  0.1062 -0.1840 -0.1048
  149TCq2    C8 2275   1.454   3.099  10.479  0.6705 -0.5944 -0.0558
  149TCq2    O4 2276   1.353   3.035  10.504 -0.5256  0.7234  0.2894
  149TCq2    C9 2277   1.678   3.508  10.598  0.0329  0.4240 -0.4600
  149TCq2    O5 2278   1.775   3.461  10.538  0.0370  0.6113 -0.3486
  149TCq2    O6 2279   1.668   3.631  10.621  0.1282 -0.6035  0.2844
  149TCq2    H2 2280   1.453   3.575  10.710  0.6132 -1.2867  2.0230
  149TCq2    H3 2281   1.660   3.270  10.500 -0.4865  0.5325 -0.3290
  149TCq2    H4 2282   1.279   3.185  10.660  0.1846 -0.6588 -1.0763
  150MPD2     C 2283   2.119   2.985  11.846 -0.2452  0.0223  0.0521
  150MPD2    C1 2284   2.162   3.013  11.718  0.5349 -0.5720 -0.3200
  150MPD2    C2 2285   2.266   3.094  11.705  0.3182  0.5338  0.4280
  150MPD2    C3 2286   2.334   3.152  11.816 -0.5527 -0.1484  0.0907
  150MPD2    C4 2287   2.295   3.122  11.943  0.1189 -0.2306  1.6267
  150MPD2    C5 2288   2.186   3.042  11.955  0.4054  0.1450 -0.4395
  150MPD2     H 2289   2.310   3.123  11.610 -3.3583 -0.3568 -1.5258
  150MPD2    H1 2290   2.334   3.165  12.034 -2.3215  2.9504  1.1826
  150MPD2    H2 2291   2.028   2.931  11.871  0.5005 -0.6782  1.2255
  150MPD2    H3 2292   2.158   3.017  12.057  1.0004  2.6960  0.3636
  150MPD2     N 2293   2.440   3.230  11.787 -0.2160  0.5751  0.1339
  150MPD2    H5 2294   2.456   3.243  11.687 -1.0300  1.7166  0.1422
  150MPD2    N1 2295   2.086   2.967  11.611  0.2492 -0.0721 -0.3273
  150MPD2    H7 2296   2.012   2.901  11.632  1.4746 -0.8355  1.5726
  151TCq2    C1 2297   2.530   3.288  11.874 -0.1022  0.4803 -0.0158
  151TCq2    O2 2298   2.536   3.283  11.997 -0.2247  0.6849  0.2944
  151TCq2    C2 2299   2.651   3.332  11.803 -0.2255 -1.7072 -0.0800
  151TCq2    C3 2300   2.686   3.278  11.674  0.2228  0.3544  0.1780
  151TCq2    C4 2301   2.813   3.247  11.648 -0.4931 -0.7836  0.4834
  151TCq2    C5 2302   2.915   3.281  11.727 -0.5469  0.1943  0.1114
  151TCq2    C6 2303   2.881   3.332  11.851  0.2305  0.2402  0.4277
  151TCq2    C7 2304   2.753   3.362  11.887  0.2834 -0.9614 -0.2121
  151TCq2    C8 2305   2.972   3.310  11.962  0.7153  0.4249  0.2238
  151TCq2    O4 2306   2.958   3.388  12.058  0.3429  0.1878 -0.1216
  151TCq2    C9 2307   2.841   3.192  11.514 -0.0764 -0.0543  0.5479
  151TCq2    O5 2308   2.761   3.207  11.422  0.0264 -0.0230  0.0393
  151TCq2    O6 2309   2.949   3.123  11.504  0.0463 -0.2916  0.5310
  151TCq2    H2 2310   2.611   3.255  11.600  0.0774 -2.6507  1.2458
  151TCq2    H3 2311   3.019   3.275  11.699 -0.6657  1.5038 -0.6281
  151TCq2    H4 2312   2.731   3.378  11.991  0.8868  2.2737 -0.5666
  152MPD2     C 2313   2.321   2.544  12.213  0.2182 -0.1604 -0.0385
  152MPD2    C1 2314   2.307   2.634  12.111  0.3626 -0.0169 -0.2162
  152MPD2    C2 2315   2.190   2.634  12.038 -0.1893  0.4733  0.4369
  152MPD2    C3 2316   2.089   2.548  12.078  0.4679 -0.1239  0.2821
  152MPD2    C4 2317   2.105   2.454  12.176  0.1622 -0.1649 -0.3480
  152MPD2    C5 2318   2.225   2.453  12.243 -0.3295  0.1303  0.8834
  152MPD2     H 2319   2.184   2.710  11.961 -0.7505  0.8118  0.8105
  152MPD2    H1 2320   2.038   2.378  12.214 -0.4085 -0.7505 -2.5027
  152MPD2    H2 2321   2.407   2.543  12.279  1.8394 -2.2229 -2.1766
  152MPD2    H3 2322   2.228   2.386  12.328 -0.5028  0.5041  1.1801
  152MPD2     N 2323   1.965   2.556  12.009 -0.1902  0.3998  0.1399
  152MPD2    H5 2324   1.968   2.622  11.932  1.4584  1.8586  1.4462
  152MPD2    N1 2325   2.412   2.726  12.090  0.1560 -0.7050 -0.0231
  152MPD2    H7 2326   2.482   2.737  12.163  0.0541 -1.2542  0.1580
  153TCq2    C1 2327   2.434   2.803  11.974  0.0859 -0.0429 -0.1594
  153TCq2    O2 2328   2.386   2.792  11.863 -0.3164  0.4060  0.0507
  153TCq2    C2 2329   2.531   2.907  11.991  0.7014 -0.0365 -0.2972
  153TCq2    C3 2330   2.609   2.911  11.887  0.0196  0.4645 -0.1778
  153TCq2    C4 2331   2.743   2.950  11.905 -0.0150 -0.4252  0.0821
  153TCq2    C5 2332   2.797   2.960  12.029  0.2328  0.0304  1.0074
  153TCq2    C6 2333   2.714   2.952  12.144  0.0002 -0.2038 -0.1995
  153TCq2    C7 2334   2.583   2.921  12.120  0.6886 -0.6378 -0.6689
  153TCq2    C8 2335   2.769   2.911  12.276 -0.4176  0.2708  0.0545
  153TCq2    O4 2336   2.698   2.839  12.338  0.1050 -0.4578 -0.8294
  153TCq2    C9 2337   2.829   2.941  11.793 -0.1451  0.1656  0.8388
  153TCq2    O5 2338   2.782   2.901  11.683 -0.6585  0.1959  0.5382
  153TCq2    O6 2339   2.947   2.979  11.813 -0.0065  0.4131  0.0653
  153TCq2    H2 2340   2.564   2.913  11.788 -1.2397  2.3802  0.4377
  153TCq2    H3 2341   2.904   2.973  12.044  0.2231 -0.4820  1.5133
  153TCq2    H4 2342   2.502   2.935  12.191  1.8774  1.7356  0.2153
  154MPD2     C 2343   3.084   3.179   0.465  0.2051 -0.3378 -0.1418
  154MPD2    C1 2344   3.052   3.293   0.536 -0.8039 -0.1967 -0.0125
  154MPD2    C2 2345   2.924   3.349   0.529  0.8037  0.0833  0.7910
  154MPD2    C3 2346   2.837   3.292   0.447 -0.0285  0.2842  0.2426
  154MPD2    C4 2347   2.860   3.178   0.380  0.0981  0.6991 -0.5909
  154MPD2    C5 2348   2.986   3.129   0.389 -0.0851  0.7157 -0.1041
  154MPD2     H 2349   2.895   3.440   0.579 -0.1026  0.5296 -0.5378
  154MPD2    H1 2350   2.791   3.118   0.322 -0.1530  0.0141  0.4221
  154MPD2    H2 2351   3.183   3.136   0.472  0.2897  0.1328  1.7213
  154MPD2    H3 2352   3.002   3.040   0.329 -1.0233 -0.0543  0.7918
  154MPD2     N 2353   2.709   3.356   0.447 -0.5499  0.1043  0.2911
  154MPD2    H5 2354   2.691   3.422   0.522 -0.0784  2.4972 -1.6767
  154MPD2    N1 2355   3.152   3.347   0.617  0.4904 -0.3535 -0.0901
  154MPD2    H7 2356   3.228   3.290   0.653  1.0469 -0.8810 -2.1313
  155TCq2    C1 2357   3.145   3.471   0.680  0.6087 -0.1498 -0.0489
  155TCq2    O2 2358   3.087   3.575   0.651 -0.1477  0.1697 -0.7188
  155TCq2    C2 2359   3.249   3.490   0.781 -0.0231 -0.2915  0.7994
  155TCq2    C3 2360   3.293   3.612   0.816 -0.6293 -0.2205  0.6150
  155TCq2    C4 2361   3.385   3.625   0.916  0.1036  0.0529 -0.1617
  155TCq2    C5 2362   3.433   3.513   0.983  0.0560  0.9443 -0.6177
  155TCq2    C6 2363   3.388   3.389   0.938 -0.5716 -0.6776  0.0518
  155TCq2    C7 2364   3.294   3.379   0.842 -0.3996 -0.7039 -0.0237
  155TCq2    C8 2365   3.485   3.282   0.966 -0.9525  0.5027 -0.1058
  155TCq2    O4 2366   3.488   3.190   0.886 -0.0486 -0.0187 -0.2555
  155TCq2    C9 2367   3.426   3.754   0.964 -0.1662  0.6072 -0.2638
  155TCq2    O5 2368   3.490   3.762   1.071 -0.1451 -0.1639  0.0393
  155TCq2    O6 2369   3.399   3.844   0.883  0.0523 -0.2670 -0.5124
  155TCq2    H2 2370   3.251   3.696   0.761 -0.4823  0.9803  2.3303
  155TCq2    H3 2371   3.499   3.529   1.067 -0.4318  0.7149 -0.1926
  155TCq2    H4 2372   3.252   3.280   0.824 -1.8560 -0.1811  0.5119
  156MPD2     C 2373   1.773   0.007  11.870 -1.0252 -0.5299  0.2067
  156MPD2    C1 2374   1.890   0.065  11.819 -0.4931 -0.1099  0.0910
  156MPD2    C2 2375   1.974   0.118  11.915  1.0210 -0.3996  0.2637
  156MPD2    C3 2376   1.945   0.113  12.049  0.0155 -0.6028 -0.1484
  156MPD2    C4 2377   1.820   0.081  12.093 -0.4115  0.4670 -0.3283
  156MPD2    C5 2378   1.733   0.023  11.998  0.2302  0.1173 -0.4467
  156MPD2     H 2379   2.073   0.151  11.888  2.1884 -1.8723  2.6966
  156MPD2    H1 2380   1.799   0.110  12.195 -2.3424  0.2724 -0.6591
  156MPD2    H2 2381   1.697   4.691  11.805  1.6367 -0.5909 -2.8697
  156MPD2    H3 2382   1.635   4.714  12.028  1.5093 -1.0481  2.4395
  156MPD2     N 2383   2.042   0.175  12.125  0.0163 -0.3296 -0.0735
  156MPD2    H5 2384   2.108   0.221  12.063 -0.3505 -1.8011 -1.5541
  156MPD2    N1 2385   1.917   0.059  11.680 -0.1884 -0.1101  0.4638
  156MPD2    H7 2386   1.841   0.021  11.624 -0.1210  1.1691 -0.4989
  157TCq2    C1 2387   2.018   0.126  11.618 -0.6696  0.8225  0.3917
  157TCq2    O2 2388   2.084   0.216  11.663 -0.2855  0.2910 -0.2248
  157TCq2    C2 2389   2.025   0.089  11.475  0.3961 -0.2132 -0.0462
  157TCq2    C3 2390   1.962   4.707  11.426 -0.9557 -0.1386  0.3475
  157TCq2    C4 2391   1.973   4.681  11.295  0.0362  0.0376 -0.1448
  157TCq2    C5 2392   2.063   0.023  11.220 -0.2084 -0.5032 -0.5745
  157TCq2    C6 2393   2.134   0.125  11.274 -0.2526 -0.3503  0.0334
  157TCq2    C7 2394   2.120   0.158  11.404 -0.2566 -0.2221  0.0224
  157TCq2    C8 2395   2.195   0.218  11.189  0.8999 -0.1821 -0.5341
  157TCq2    O4 2396   2.290   0.281  11.232 -0.4672 -0.3165 -0.3736
  157TCq2    C9 2397   1.885   4.576  11.244 -0.0849 -0.4223  0.2552
  157TCq2    O5 2398   1.877   4.477  11.321  0.5923 -0.2281 -0.7861
  157TCq2    O6 2399   1.862   4.569  11.122 -0.0442  0.5665  0.8237
  157TCq2    H2 2400   1.882   4.657  11.480 -1.6503  0.6917  0.1032
  157TCq2    H3 2401   2.069   4.719  11.116 -2.9521 -0.1114 -0.8262
  157TCq2    H4 2402   2.156   0.253  11.442 -0.2015 -0.9721  1.8296
  158TMC2    C1 2403   3.173   4.063  13.181 -0.5719  0.0390  0.9190
  158TMC2    C2 2404   3.269   4.086  13.085  0.9739 -0.1334 -0.4156
  158TMC2    C3 2405   3.223   4.074  12.958  0.3976  0.4290 -0.0072
  158TMC2    C4 2406   3.045   4.029  13.156 -0.1972  0.4334 -1.0396
  158TMC2    C5 2407   3.003   4.018  13.029 -0.0241 -0.5690 -0.0102
  158TMC2    C6 2408   3.096   4.040  12.930 -0.1929  0.3972  0.2581
  158TMC2     C 2409   3.221   4.084  13.323 -0.3011 -0.2812 -0.2917
  158TMC2     O 2410   3.343   4.066  13.334 -0.3034  0.2235 -0.0845
  158TMC2     H 2411   3.370   4.111  13.113  1.2197  0.3535 -1.7638
  158TMC2    H1 2412   2.967   4.021  13.231  0.6370  2.8435  0.0919
  158TMC2    H2 2413   3.053   4.037  12.830  0.3170 -1.0561  0.0902
  158TMC2    C7 2414   2.901   3.931  12.978 -1.1421  0.6323 -0.5164
  158TMC2    C8 2415   3.331   4.100  12.857 -0.0843  0.0659  0.3081
  158TMC2    O1 2416   2.871   3.938  12.859 -0.0768  0.5671 -0.0772
  158TMC2    O2 2417   3.422   4.177  12.882 -0.2844 -0.4426 -0.2754
  158TMC2    O5 2418   3.284   4.063  12.735 -0.5907 -0.1024 -0.1554
  158TMC2    H5 2419   3.210   3.999  12.736  0.6376 -1.5252  1.0457
  159MPD2     C 2420   3.140   4.131  13.835  0.4476 -0.3985 -0.4906
  159MPD2    C1 2421   3.014   4.137  13.772 -0.0287  0.4285  0.0836
  159MPD2    C2 2422   3.008   4.127  13.631  0.3152 -0.1492 -0.0611
  159MPD2    C3 2423   3.128   4.118  13.558 -0.5860  0.1490  0.4528
  159MPD2    C4 2424   3.253   4.117  13.619 -0.1672  0.7416 -0.4009
  159MPD2    C5 2425   3.256   4.106  13.758 -0.3822  0.7256 -0.9457
  159MPD2     H 2426   2.913   4.121  13.579 -1.1323  1.6075  2.3566
  159MPD2    H1 2427   3.347   4.113  13.566 -0.7926 -3.6568 -1.1118
  159MPD2    H2 2428   3.150   4.146  13.941 -0.1481 -1.1449 -0.3251
  159MPD2    H3 2429   3.351   4.091  13.807 -1.2694 -0.5899  0.3818
  159MPD2     N 2430   3.116   4.101  13.415 -0.2336  0.3453 -0.4164
  159MPD2    H5 2431   3.029   4.130  13.370 -0.1639 -0.1129 -0.8472
  159MPD2    N1 2432   2.895   4.153  13.846  0.7009  0.1809  0.0261
  159MPD2    H7 2433   2.899   4.150  13.947 -0.9142 -1.8414  0.0385
  160TMC2    C1 2434   1.969   2.191   1.360 -0.0249 -0.9936 -0.1740
  160TMC2    C2 2435   1.976   2.075   1.431 -0.4746 -0.1568 -0.0149
  160TMC2    C3 2436   2.070   1.985   1.395 -0.2333  0.7071 -0.2497
  160TMC2    C4 2437   2.062   2.226   1.259 -0.2920  0.1409 -0.7978
  160TMC2    C5 2438   2.151   2.131   1.222 -0.0792 -0.6407 -0.3087
  160TMC2    C6 2439   2.153   2.010   1.287 -0.2251 -0.3957 -0.0026
  160TMC2     C 2440   1.902   2.298   1.434 -0.1533 -0.0247 -0.6549
  160TMC2     O 2441   1.846   2.268   1.536  0.4195  0.1926  0.6623
  160TMC2     H 2442   1.936   2.053   1.530 -0.4492  0.5151  0.1412
  160TMC2    H1 2443   2.065   2.328   1.222 -0.1571  0.1136 -0.8598
  160TMC2    H2 2444   2.207   1.924   1.249  0.8513 -0.1456  0.9704
  160TMC2    C7 2445   2.270   2.160   1.137  0.1739 -0.3297 -0.2093
  160TMC2    C8 2446   2.020   1.851   1.419  0.0397 -0.1339  0.1217
  160TMC2    O1 2447   2.345   2.066   1.107  0.1274  0.6859  0.2843
  160TMC2    O2 2448   1.904   1.833   1.452  0.3816 -0.1379 -0.0946
  160TMC2    O5 2449   2.119   1.786   1.476  0.0595  0.7498 -0.3949
  160TMC2    H5 2450   2.203   1.837   1.479 -0.6159  1.9081 -1.0210
  161MPD2     C 2451   1.808   2.562   1.533 -0.5065  0.4730 -0.1941
  161MPD2    C1 2452   1.831   2.531   1.397 -0.0671  0.3094 -1.2145
  161MPD2    C2 2453   1.787   2.626   1.306  0.1837 -0.2177  0.5505
  161MPD2    C3 2454   1.723   2.742   1.349  0.4558  0.2950  0.2833
  161MPD2    C4 2455   1.709   2.775   1.485  0.1976  0.3248 -0.6582
  161MPD2    C5 2456   1.749   2.678   1.572  0.0519 -0.0090  0.3467
  161MPD2     H 2457   1.793   2.595   1.202 -2.4848  0.5119  0.1768
  161MPD2    H1 2458   1.674   2.871   1.519 -1.5035 -0.5095 -0.0395
  161MPD2    H2 2459   1.845   2.497   1.612 -1.0366  1.4287  0.8422
  161MPD2    H3 2460   1.732   2.700   1.676 -0.9236  0.0019  0.1869
  161MPD2     N 2461   1.677   2.845   1.260 -0.1865  0.0658  0.3045
  161MPD2    H5 2462   1.645   2.928   1.309  0.8281  0.1292  0.8637
  161MPD2    N1 2463   1.889   2.411   1.355 -0.9751 -0.5099  0.1144
  161MPD2    H7 2464   1.904   2.397   1.255 -1.4253 -0.3273  0.0239
  162TMC2    C1 2465   4.389   4.461   1.026 -0.6222 -0.4441 -0.2220
  162TMC2    C2 2466   4.309   4.551   0.965 -0.5758 -0.5455 -0.2297
  162TMC2    C3 2467   4.181   4.576   1.009  0.1249 -0.0351  0.1780
  162TMC2    C4 2468   4.344   4.377   1.117  0.4150  0.2799 -0.5151
  162TMC2    C5 2469   4.217   4.400   1.165  0.1847  0.0499 -0.2851
  162TMC2    C6 2470   4.131   4.497   1.115 -0.0188  0.3490 -0.5526
  162TMC2     C 2471   4.525   4.455   0.979 -0.0402 -0.4835  0.0363
  162TMC2     O 2472   4.551   4.524   0.884 -0.3255  0.0106  0.1876
  162TMC2     H 2473   4.348   4.618   0.889 -0.0714 -1.0972 -0.4570
  162TMC2    H1 2474   4.406   4.294   1.151  0.9580 -0.6674 -3.8960
  162TMC2    H2 2475   4.037   4.516   1.165  0.4163 -1.2327  0.8333
  162TMC2    C7 2476   4.161   4.320   1.277 -0.1972 -0.2777 -0.8819
  162TMC2    C8 2477   4.109   4.685   0.954  0.0807 -0.0747  0.0544
  162TMC2    O1 2478   4.038   4.308   1.282  0.1381  0.3200 -0.0781
  162TMC2    O2 2479   4.164   0.069   0.939 -0.0097  0.2276  0.4008
  162TMC2    O5 2480   3.986   4.687   0.998 -0.2246 -0.2110 -0.3578
  162TMC2    H5 2481   3.942   4.606   0.964  2.9189 -0.7520 -3.1490
  163MPD2     C 2482   0.286   4.308   0.989 -0.6668 -0.5837  0.6847
  163MPD2    C1 2483   0.229   4.397   0.897  0.0816 -0.3360  0.0444
  163MPD2    C2 2484   0.093   4.425   0.913 -0.3699  0.5035 -0.2060
  163MPD2    C3 2485   0.024   4.358   1.021 -0.3524  0.2492  0.2709
  163MPD2    C4 2486   0.084   4.268   1.104  0.2239  0.6734  0.7174
  163MPD2    C5 2487   0.219   4.241   1.079  0.1869  0.2771  0.9714
  163MPD2     H 2488   0.040   4.494   0.847 -1.9740 -1.1120 -0.5983
  163MPD2    H1 2489   0.049   4.221   1.195  0.7657  1.0398  1.1117
  163MPD2    H2 2490   0.392   4.290   0.981 -0.7696 -0.1652 -1.6858
  163MPD2    H3 2491   0.267   4.175   1.150 -0.1153 -0.5613  0.3925
  163MPD2     N 2492   4.606   4.377   1.050  0.7744  0.4995  0.3548
  163MPD2    H5 2493   4.570   4.334   1.135  0.2887 -0.7744 -0.5028
  163MPD2    N1 2494   0.302   4.446   0.785 -0.4323 -0.5792  0.4940
  163MPD2    H7 2495   0.384   4.392   0.762  0.1748  0.3640  0.4372
  164TCq2    C1 2496   1.437   3.672  11.146 -0.1832  0.6154 -0.4417
  164TCq2    O2 2497   1.332   3.642  11.194 -0.2821 -0.5508 -0.8212
  164TCq2    C2 2498   1.479   3.810  11.158  0.0705  0.1809  0.2433
  164TCq2    C3 2499   1.498   3.873  11.036 -0.5267 -0.1304  0.0840
  164TCq2    C4 2500   1.451   3.997  11.028  0.7583  0.2504  0.1466
  164TCq2    C5 2501   1.385   4.059  11.130  0.2991  1.5975  0.0327
  164TCq2    C6 2502   1.374   3.998  11.250  0.6530  0.1352 -0.8248
  164TCq2    C7 2503   1.426   3.872  11.272 -0.0638 -0.0990  0.7085
  164TCq2    C8 2504   1.268   4.028  11.344 -0.2747  1.0259  0.2374
  164TCq2    O4 2505   1.273   3.976  11.454  0.1766 -0.1595 -1.3151
  164TCq2    C9 2506   1.439   4.058  10.897  0.0481  0.8028  0.8151
  164TCq2    O5 2507   1.328   4.100  10.864 -0.0995 -0.0926 -0.0684
  164TCq2    O6 2508   1.544   4.060  10.834  0.6637 -0.1850 -0.0005
  164TCq2    H2 2509   1.522   3.819  10.945  0.9545  1.1979 -0.3202
  164TCq2    H3 2510   1.348   4.159  11.112 -0.4488  1.1970 -0.7117
  164TCq2    H4 2511   1.400   3.817  11.362 -1.7692  1.1732  1.0052
  165MPD2     C 2512   1.189   1.744   1.665  0.6409 -0.0693 -0.3495
  165MPD2    C1 2513   1.300   1.662   1.672  0.1157 -0.3727  0.1941
  165MPD2    C2 2514   1.416   1.692   1.734  0.0922  0.3892 -0.7892
  165MPD2    C3 2515   1.429   1.815   1.802 -0.5705  0.0593  0.7283
  165MPD2    C4 2516   1.322   1.907   1.791  0.9531 -0.3461 -0.6873
  165MPD2    C5 2517   1.208   1.871   1.719 -0.3782  0.4868  0.0649
  165MPD2     H 2518   1.501   1.624   1.736 -0.6881 -0.5641  0.4280
  165MPD2    H1 2519   1.324   2.000   1.846 -0.6271 -0.8308  0.2070
  165MPD2    H2 2520   1.097   1.716   1.614 -0.5124 -1.0677  2.2253
  165MPD2    H3 2521   1.134   1.949   1.705 -0.3851  0.2001 -1.5615
  165MPD2     N 2522   1.547   1.847   1.872  0.3310  0.1561  0.2159
  165MPD2    H5 2523   1.548   1.927   1.934  1.6317  0.1432  0.2067
  165MPD2    N1 2524   1.275   1.533   1.615 -0.7786  1.0735  0.5154
  165MPD2    H7 2525   1.193   1.518   1.556  1.8936  1.7598 -3.3663
  166TCq2    C1 2526   1.673   1.801   1.847 -0.8027  0.3016  0.2392
  166TCq2    O2 2527   1.712   1.710   1.775  0.2050 -0.4934 -0.4420
  166TCq2    C2 2528   1.766   1.879   1.916  0.0429 -0.4489  0.9491
  166TCq2    C3 2529   1.729   1.950   2.025  0.3191 -0.5238 -0.5111
  166TCq2    C4 2530   1.800   2.054   2.065 -0.1239  0.3433 -0.3423
  166TCq2    C5 2531   1.913   2.093   1.994 -0.3940  0.7251 -0.4687
  166TCq2    C6 2532   1.948   2.011   1.885 -0.3917  0.4322 -0.4145
  166TCq2    C7 2533   1.879   1.902   1.847 -0.0450  1.0536  0.4590
  166TCq2    C8 2534   2.062   2.044   1.807  0.3859  0.4508  0.3233
  166TCq2    O4 2535   2.145   1.958   1.777  0.0169  0.2355 -0.0421
  166TCq2    C9 2536   1.764   2.132   2.184 -0.3984  0.5234  0.1644
  166TCq2    O5 2537   1.671   2.092   2.256  0.0774  0.4164 -0.4754
  166TCq2    O6 2538   1.812   2.249   2.196 -0.5874 -0.6976 -0.1287
  166TCq2    H2 2539   1.653   1.912   2.092  0.7715  0.0733  0.3477
  166TCq2    H3 2540   1.961   2.185   2.027 -1.2418  0.9829  0.0489
  166TCq2    H4 2541   1.906   1.850   1.756 -0.6511  1.5449 -0.0044
  167TMC2    C1 2542   0.040   3.387  12.041 -0.2512  0.2768  0.0823
  167TMC2    C2 2543   0.009   3.520  12.045 -0.7698  0.0251  0.0005
  167TMC2    C3 2544   0.083   3.590  12.132  0.1199 -0.5348  0.7227
  167TMC2    C4 2545   0.139   3.333  12.114 -0.0586  0.0744 -0.0610
  167TMC2    C5 2546   0.216   3.416  12.195 -0.1398 -0.2605 -0.0535
  167TMC2    C6 2547   0.182   3.547  12.221  0.3770  0.1506 -1.0410
  167TMC2     C 2548   4.695   3.307  11.944 -0.5865 -0.3764 -0.3072
  167TMC2     O 2549   4.631   3.365  11.864 -0.3467 -0.4731  0.1530
  167TMC2     H 2550   4.660   3.575  11.988  0.6769  2.1454  0.1475
  167TMC2    H1 2551   0.163   3.228  12.107  1.3832  0.2403  2.6387
  167TMC2    H2 2552   0.234   3.618  12.285 -2.2278  1.4294 -0.3284
  167TMC2    C7 2553   0.332   3.369  12.257 -0.3484  0.8640 -0.8969
  167TMC2    C8 2554   0.056   3.734  12.109  0.1598 -0.2879 -0.5608
  167TMC2    O1 2555   0.369   3.416  12.364  0.4710  0.6193 -0.3867
  167TMC2    O2 2556   0.036   3.809  12.204  0.2323  0.3025  0.3579
  167TMC2    O5 2557   0.129   3.765  11.996  0.6472  0.2749 -0.1552
  167TMC2    H5 2558   0.155   3.686  11.944 -1.1453 -2.0750  2.5912
  168MPD2     C 2559   4.591   3.090  11.771 -0.1697  0.2352  0.5316
  168MPD2    C1 2560   4.687   3.073  11.870  0.2940  0.4002 -0.2341
  168MPD2    C2 2561   0.018   2.951  11.887 -0.1769  0.1100 -0.2101
  168MPD2    C3 2562   4.725   2.850  11.797  0.4080 -0.6665  0.0282
  168MPD2    C4 2563   4.645   2.871  11.688  0.1052  0.3625  0.0047
  168MPD2    C5 2564   4.578   2.989  11.675 -0.9718 -0.0496 -0.5391
  168MPD2     H 2565   0.089   2.924  11.964 -0.7665  1.3326  0.7672
  168MPD2    H1 2566   4.609   2.790  11.625  0.7379  0.6136 -0.6742
  168MPD2    H2 2567   4.540   3.185  11.763  0.3226  0.4609  0.1042
  168MPD2    H3 2568   4.503   2.988  11.597  2.4316 -2.3495 -3.7752
  168MPD2     N 2569   0.068   2.729  11.813 -0.4925  0.2237 -0.1632
  168MPD2    H5 2570   0.068   2.664  11.735  1.8340 -0.6742  0.5906
  168MPD2    N1 2571   0.003   3.172  11.949 -0.0035  0.7911  0.1550
  168MPD2    H7 2572   0.073   3.146  12.018 -0.1626 -0.6748 -0.2480
  169MPD1     C 2573   2.581   3.113   9.274  0.3095  0.1546  0.1151
  169MPD1    C1 2574   2.586   3.000   9.188  0.1450 -0.2142  0.4414
  169MPD1    C2 2575   2.685   2.907   9.214  0.3129  0.1340  0.2088
  169MPD1    C3 2576   2.762   2.907   9.328  0.0304  0.2267  0.4190
  169MPD1    C4 2577   2.750   3.017   9.412 -0.4315  0.0252 -0.1726
  169MPD1    C5 2578   2.655   3.114   9.387  0.9875 -0.2169  0.1816
  169MPD1     H 2579   2.691   2.840   9.129  2.2417 -0.1621  0.5824
  169MPD1    H1 2580   2.808   3.020   9.503 -0.5393  0.6563 -0.1229
  169MPD1    H2 2581   2.512   3.194   9.256 -1.0274 -0.6818  1.5510
  169MPD1    H3 2582   2.653   3.195   9.460 -1.3818  0.3123 -0.4666
  169MPD1     N 2583   2.860   2.801   9.340 -0.4180  0.6762 -0.4008
  169MPD1    H5 2584   2.855   2.727   9.271  0.3430  0.1460  0.1138
  169MPD1    N1 2585   2.521   3.007   9.061  0.2550  0.1871  0.2769
  169MPD1    H6 2586   2.495   2.923   9.010  0.6512 -0.3247  0.9198
  169MPD1    H7 2587   2.436   3.062   9.050  0.1795  0.5067  2.5296
  170MPD1     C 2588   1.079   1.203  12.869 -0.6085  0.2073  0.5344
  170MPD1    C1 2589   1.089   1.335  12.883 -0.0819 -0.7113 -0.3804
  170MPD1    C2 2590   1.102   1.390  13.007 -0.1671 -0.6759 -0.2501
  170MPD1    C3 2591   1.102   1.319  13.124  0.1482  0.1513 -0.3187
  170MPD1    C4 2592   1.089   1.184  13.105 -0.1851  0.2098 -0.4485
  170MPD1    C5 2593   1.074   1.127  12.983  0.6241  0.6331 -0.0763
  170MPD1     H 2594   1.118   1.497  13.009  0.7505 -0.7813 -1.5375
  170MPD1    H1 2595   1.072   1.131  13.198  1.0328 -2.3178 -1.6751
  170MPD1    H2 2596   1.069   1.158  12.770  0.5639 -1.6102  1.2484
  170MPD1    H3 2597   1.062   1.020  12.976  0.0191  0.8510 -2.3484
  170MPD1     N 2598   1.115   1.380  13.249  0.1365  0.2536  0.5069
  170MPD1    H5 2599   1.087   1.476  13.238  0.3976  0.0105 -2.3501
  170MPD1    N1 2600   1.117   1.417  12.767  0.0553  0.0608  0.4778
  170MPD1    H6 2601   1.064   1.504  12.766  1.7743  1.1473  2.6631
  170MPD1    H7 2602   1.097   1.384  12.673 -0.1631  0.6276  0.3252
  171MPD1     C 2603   0.425   2.582  15.306 -0.2566 -0.1313 -0.3928
  171MPD1    C1 2604   0.361   2.473  15.248  0.3079  0.7699 -0.0563
  171MPD1    C2 2605   0.358   2.355  15.321  0.3459  0.1067  0.1295
  171MPD1    C3 2606   0.417   2.338  15.446 -1.1650  0.0673 -0.1874
  171MPD1    C4 2607   0.491   2.445  15.490 -0.3381 -0.3080  0.0350
  171MPD1    C5 2608   0.491   2.568  15.424 -0.2063 -0.0528  0.5576
  171MPD1     H 2609   0.306   2.271  15.276 -0.8601  0.7176  0.3837
  171MPD1    H1 2610   0.546   2.420  15.579  0.1197  2.4661  0.5143
  171MPD1    H2 2611   0.428   2.676  15.251 -1.6246  0.7249  0.9772
  171MPD1    H3 2612   0.553   2.646  15.467 -0.8589  0.3846  0.6956
  171MPD1     N 2613   0.419   2.220  15.523  0.8409  0.5402 -0.1602
  171MPD1    H5 2614   0.437   2.229  15.622 -1.9354  2.4954  0.1986
  171MPD1    N1 2615   0.279   2.487  15.136 -0.2696  0.5204 -0.4328
  171MPD1    H6 2616   0.275   2.397  15.089 -2.3518  0.1211  0.5080
  171MPD1    H7 2617   0.329   2.543  15.068  1.9043 -0.3158  0.4848
  172MPD1     C 2618   3.536   1.590   0.084 -0.0173 -0.0127 -1.4543
  172MPD1    C1 2619   3.510   1.716   0.025 -0.1376 -0.2572 -0.2416
  172MPD1    C2 2620   3.532   1.827   0.103 -0.6508  0.2739  0.0553
  172MPD1    C3 2621   3.577   1.818   0.237 -0.4737 -0.4332  0.9411
  172MPD1    C4 2622   3.595   1.689   0.287 -0.7662 -0.1385  0.1679
  172MPD1    C5 2623   3.565   1.578   0.216 -0.0315  0.4451  0.8108
  172MPD1     H 2624   3.525   1.922   0.052 -0.2766  0.4466  0.3220
  172MPD1    H1 2625   3.617   1.672   0.392  1.1865 -2.2437 -0.5802
  172MPD1    H2 2626   3.527   1.495   0.032  1.4072 -0.5110 -0.7773
  172MPD1    H3 2627   3.584   1.480   0.257 -1.7999  0.0543  0.6938
  172MPD1     N 2628   3.615   1.925   0.316 -0.7615  0.3294 -0.0767
  172MPD1    H5 2629   3.652   1.908   0.408  1.3148  1.5411 -0.6908
  172MPD1    N1 2630   3.510   1.724  17.593  1.2167  0.4523 -0.0993
  172MPD1    H6 2631   3.468   1.641  17.551  0.6384  0.3260  0.7321
  172MPD1    H7 2632   3.461   1.809  17.569  1.4105  0.5446 -0.1684
  173MPD1     C 2633   0.700   1.319  13.071  0.0113  0.3972 -0.3349
  173MPD1    C1 2634   0.733   1.192  13.103  0.0783 -0.5066 -0.0163
  173MPD1    C2 2635   0.727   1.163  13.237 -0.1677 -0.1203 -1.0986
  173MPD1    C3 2636   0.714   1.255  13.339  0.2709 -0.0111  0.3105
  173MPD1    C4 2637   0.699   1.387  13.302 -0.3046  0.6674  0.1922
  173MPD1    C5 2638   0.686   1.416  13.168 -0.6475  0.1635  0.7610
  173MPD1     H 2639   0.744   1.061  13.267 -1.2153 -0.1565 -0.6195
  173MPD1    H1 2640   0.687   1.469  13.373  0.8938 -0.1490  1.3308
  173MPD1    H2 2641   0.695   1.352  12.968  0.9059  1.7285  0.0407
  173MPD1    H3 2642   0.647   1.512  13.138 -0.1834  0.5081  1.2684
  173MPD1     N 2643   0.735   1.209  13.472 -0.1403 -0.5706 -0.2157
  173MPD1    H5 2644   0.735   1.108  13.478 -0.8309 -0.6012 -0.7603
  173MPD1    N1 2645   0.736   1.083  13.013  0.1681  0.8300  0.0311
  173MPD1    H6 2646   0.769   1.105  12.919  3.2909 -1.4687  0.5515
  173MPD1    H7 2647   0.788   1.002  13.048  0.1779 -0.3665 -2.7607
  174MPD1     C 2648   1.233   0.630  14.149  0.1022  0.4658 -0.4342
  174MPD1    C1 2649   1.262   0.701  14.032 -1.4460  0.4364 -0.4779
  174MPD1    C2 2650   1.172   0.780  13.965  0.8465 -0.5135  0.0157
  174MPD1    C3 2651   1.047   0.803  14.024  0.2503  0.3232 -0.2918
  174MPD1    C4 2652   1.014   0.729  14.136 -0.1232  0.2605  0.0439
  174MPD1    C5 2653   1.107   0.656  14.209  0.1354 -0.4161  0.2630
  174MPD1     H 2654   1.204   0.823  13.871 -0.6428 -0.0861 -0.3037
  174MPD1    H1 2655   0.919   0.741  14.186  1.3474  1.6607  2.4629
  174MPD1    H2 2656   1.308   0.570  14.199 -1.9919 -0.4590  1.5821
  174MPD1    H3 2657   1.089   0.617  14.308 -0.3256 -3.2988 -0.9395
  174MPD1     N 2658   0.947   0.884  13.966  0.2644 -0.1446 -0.7533
  174MPD1    H5 2659   0.863   0.890  14.023  0.8869  0.5370  0.0950
  174MPD1    N1 2660   1.386   0.687  13.965  0.1801  0.2267 -0.1679
  174MPD1    H6 2661   1.461   0.663  14.029  0.3490 -0.4576 -0.6129
  174MPD1    H7 2662   1.426   0.776  13.936 -0.1237  0.9977  1.7849
  175MPD1     C 2663   2.955   2.240  15.059  0.3603 -0.3305  0.7592
  175MPD1    C1 2664   2.973   2.375  15.067  0.2286 -0.2070 -0.6220
  175MPD1    C2 2665   3.026   2.438  15.178  0.9681 -0.0797 -0.6919
  175MPD1    C3 2666   3.060   2.361  15.291  0.5384 -0.7850 -0.4716
  175MPD1    C4 2667   3.056   2.227  15.275  0.2938  0.2225 -0.6805
  175MPD1    C5 2668   3.000   2.169  15.164  0.2445 -0.3633  0.5010
  175MPD1     H 2669   3.025   2.546  15.182  3.5139 -0.0745 -0.5939
  175MPD1    H1 2670   3.101   2.168  15.354  0.7268 -0.5793 -1.5157
  175MPD1    H2 2671   2.920   2.182  14.975 -0.6392 -0.6896  1.4374
  175MPD1    H3 2672   2.998   2.061  15.151 -1.5737 -0.2836  0.1459
  175MPD1     N 2673   3.099   2.408  15.415 -0.8482 -0.3086  0.1671
  175MPD1    H5 2674   3.115   2.336  15.485 -0.3067  1.2506  1.6513
  175MPD1    N1 2675   2.934   2.440  14.949 -0.0292 -0.7100  0.3264
  175MPD1    H6 2676   2.842   2.410  14.919 -0.1992 -1.0839  1.2390
  175MPD1    H7 2677   2.947   2.541  14.947 -1.3711 -0.5736 -1.1113
  176MPD1     C 2678   1.095   4.552  16.716  0.2171  0.2364  0.1600
  176MPD1    C1 2679   0.982   4.476  16.724 -0.2737  0.4548  0.4607
  176MPD1    C2 2680   0.892   4.522  16.812  0.3935 -0.1175  0.2434
  176MPD1    C3 2681   0.912   4.633  16.895 -0.6582 -0.1377 -0.3239
  176MPD1    C4 2682   1.037   4.692  16.908  0.2056 -0.1514 -0.1110
  176MPD1    C5 2683   1.119   4.661  16.801  0.1855 -0.6609 -0.4588
  176MPD1     H 2684   0.795   4.476  16.805  1.5054 -2.8290  2.6604
  176MPD1    H1 2685   1.065   0.043  16.978 -1.5510  0.5405 -0.1593
  176MPD1    H2 2686   1.174   4.528  16.646  0.0939  1.5981 -0.4402
  176MPD1    H3 2687   1.205   4.726  16.785  0.7045 -1.0461  0.7424
  176MPD1     N 2688   0.802   4.675  16.968 -0.0930  0.3060 -0.5351
  176MPD1    H5 2689   0.715   4.626  16.949 -0.4740  1.1946 -1.1154
  176MPD1    N1 2690   0.944   4.379  16.626  0.3396  0.4198 -0.1457
  176MPD1    H6 2691   0.896   4.305  16.676  1.5160 -1.7448 -2.2655
  176MPD1    H7 2692   1.028   4.337  16.587 -0.7904 -1.2191 -0.7889
  177MPD1     C 2693   4.550   3.136  10.288 -0.7070 -0.0631 -0.3041
  177MPD1    C1 2694   4.447   3.127  10.203 -0.4977 -0.2608  0.2657
  177MPD1    C2 2695   4.403   3.237  10.130  0.5779  0.3720  0.1695
  177MPD1    C3 2696   4.458   3.359  10.158 -0.2037 -0.3003 -0.3060
  177MPD1    C4 2697   4.556   3.369  10.258 -0.5695  0.3071  0.4036
  177MPD1    C5 2698   4.607   3.251  10.316  0.3409  0.2068  0.2307
  177MPD1     H 2699   4.333   3.223  10.049  1.6987 -1.1868 -0.5239
  177MPD1    H1 2700   4.593   3.467  10.287  0.2921  1.3582 -4.1690
  177MPD1    H2 2701   4.595   3.049  10.335 -2.5716 -0.3045  1.0001
  177MPD1    H3 2702   4.684   3.259  10.392 -1.2694 -1.9870  2.0934
  177MPD1     N 2703   4.416   3.463  10.073  0.4423  0.5521  0.2391
  177MPD1    H5 2704   4.349   3.434  10.002  0.0087 -0.1333  0.9398
  177MPD1    N1 2705   4.405   3.004  10.156  0.2176  0.0828 -0.3195
  177MPD1    H6 2706   4.303   3.010  10.158  0.1970 -0.4595  0.0443
  177MPD1    H7 2707   4.427   2.942  10.233  2.3501  0.2318 -0.8312
  178MPD1     C 2708   0.632   0.707   0.009 -0.4653  0.0619 -0.3812
  178MPD1    C1 2709   0.674   0.829   0.055  0.1699 -0.1896  0.6618
  178MPD1    C2 2710   0.805   0.873   0.035 -0.1550 -0.0198  0.2167
  178MPD1    C3 2711   0.888   0.786  17.681  0.5296 -0.5765  0.1807
  178MPD1    C4 2712   0.853   0.666  17.638  0.6175  0.0609  0.1610
  178MPD1    C5 2713   0.726   0.622  17.655  0.4816 -0.9157  0.0937
  178MPD1     H 2714   0.838   0.974   0.057  1.3759  0.1472 -2.8954
  178MPD1    H1 2715   0.921   0.614  17.572 -1.5171  0.3290 -2.2359
  178MPD1    H2 2716   0.530   0.672   0.021  0.1589 -1.8970 -0.7601
  178MPD1    H3 2717   0.694   0.528  17.614  0.8168 -0.8561 -0.3103
  178MPD1     N 2718   1.018   0.828  17.631  0.3129 -0.3664  0.0876
  178MPD1    H5 2719   1.069   0.760  17.575 -0.6788  0.1207 -1.3967
  178MPD1    N1 2720   0.573   0.928   0.093 -0.2013 -0.1741 -1.2203
  178MPD1    H6 2721   0.489   0.875   0.117  0.5426 -0.1864  1.3774
  178MPD1    H7 2722   0.610   0.997   0.157 -0.1879 -0.8015 -0.5499
  179MPD1     C 2723   0.732   3.596  14.960 -0.0242 -0.2076  0.5976
  179MPD1    C1 2724   0.845   3.508  14.973 -0.4305  0.3225  0.4305
  179MPD1    C2 2725   0.842   3.405  15.065 -0.1189  0.1299 -1.0778
  179MPD1    C3 2726   0.741   3.393  15.158  0.5743 -0.0380  0.5552
  179MPD1    C4 2727   0.636   3.484  15.143  0.3327  0.5443 -0.6419
  179MPD1    C5 2728   0.626   3.583  15.046  0.6157  0.1232  0.4521
  179MPD1     H 2729   0.927   3.337  15.072  1.0584  1.7144  0.1379
  179MPD1    H1 2730   0.549   3.468  15.206  0.1920 -1.4447 -1.3654
  179MPD1    H2 2731   0.734   3.679  14.890  2.0892 -0.9240 -0.1665
  179MPD1    H3 2732   0.539   3.647  15.040  0.8318  0.3427 -0.3023
  179MPD1     N 2733   0.732   3.288  15.247  0.1759  0.1688 -0.0591
  179MPD1    H5 2734   0.638   3.276  15.284 -0.1454  1.1144 -0.5829
  179MPD1    N1 2735   0.947   3.513  14.880 -0.1349  0.3180 -0.3930
  179MPD1    H6 2736   1.034   3.486  14.924 -0.6682 -0.4957  0.1671
  179MPD1    H7 2737   0.967   3.605  14.842  0.1545  1.2201  1.9210
  180MPD1     C 2738   0.981   4.506  15.363  0.8516 -0.7494 -0.0709
  180MPD1    C1 2739   0.852   4.532  15.330 -0.4026 -0.2089 -0.0629
  180MPD1    C2 2740   0.815   4.509  15.202 -0.0770  0.3389  0.3129
  180MPD1    C3 2741   0.895   4.441  15.110 -0.6493  1.0120  0.3650
  180MPD1    C4 2742   1.016   4.400  15.154 -0.0906  0.3561 -0.3766
  180MPD1    C5 2743   1.058   4.436  15.276 -0.7846  0.0922 -0.6913
  180MPD1     H 2744   0.712   4.530  15.176 -0.4343 -0.6535  0.9207
  180MPD1    H1 2745   1.074   4.323  15.104 -1.1514 -0.4742 -0.3406
  180MPD1    H2 2746   1.013   4.524  15.465 -2.0414  1.1910  0.4701
  180MPD1    H3 2747   1.160   4.408  15.301 -1.2487  0.2942  1.3989
  180MPD1     N 2748   0.847   4.403  14.985  0.1239  0.0550  0.0638
  180MPD1    H5 2749   0.756   4.442  14.965 -0.4514 -0.3847  1.8145
  180MPD1    N1 2750   0.767   4.613  15.412  0.5128  0.7232 -0.5472
  180MPD1    H6 2751   0.778   4.602  15.513  0.9831  0.0021 -0.6730
  180MPD1    H7 2752   0.668   4.602  15.394  0.4005  1.0446 -0.1274
  181MPD1     C 2753   2.627   1.052  10.527  0.1494 -0.4252 -0.6674
  181MPD1    C1 2754   2.641   0.938  10.454  0.0240  1.0039  0.5018
  181MPD1    C2 2755   2.764   0.905  10.398  0.4920  0.2889 -0.4025
  181MPD1    C3 2756   2.868   0.992  10.397  0.4773  0.3058 -0.4294
  181MPD1    C4 2757   2.851   1.115  10.465 -0.2041 -0.1309  0.2386
  181MPD1    C5 2758   2.735   1.135  10.533 -0.3729  0.8074 -0.7851
  181MPD1     H 2759   2.768   0.806  10.353 -0.4074  0.0258  0.0819
  181MPD1    H1 2760   2.935   1.183  10.469  1.2271 -2.0276  2.0881
  181MPD1    H2 2761   2.534   1.083  10.575 -0.9294 -1.3054 -2.1896
  181MPD1    H3 2762   2.725   1.216  10.605  2.3002  0.1882  0.2833
  181MPD1     N 2763   2.990   0.969  10.330 -0.1934  0.2602 -0.2876
  181MPD1    H5 2764   3.067   1.035  10.330 -0.5435  0.6726  0.0102
  181MPD1    N1 2765   2.541   0.835  10.459  0.7687  0.3750 -0.0755
  181MPD1    H6 2766   2.537   0.771  10.380 -1.3260 -0.8877  1.0335
  181MPD1    H7 2767   2.449   0.871  10.483  1.3781  1.1938  1.0543
  182MPD1     C 2768   3.166   1.360   1.762 -0.0858  0.0894 -0.7778
  182MPD1    C1 2769   3.066   1.414   1.680  0.2275  0.5819  0.2592
  182MPD1    C2 2770   3.034   1.352   1.565 -0.4689  0.6358  0.0290
  182MPD1    C3 2771   3.112   1.249   1.512 -0.0095  0.0183  0.3680
  182MPD1    C4 2772   3.209   1.197   1.591  0.4797  0.4036  0.7307
  182MPD1    C5 2773   3.239   1.253   1.715 -0.2951  0.7534 -0.7948
  182MPD1     H 2774   2.953   1.390   1.504  0.0185  2.0131  0.2563
  182MPD1    H1 2775   3.268   1.114   1.555  1.4627  0.9699  1.0245
  182MPD1    H2 2776   3.194   1.396   1.860  2.2891  0.5851 -1.6553
  182MPD1    H3 2777   3.325   1.213   1.767 -0.2941  1.7317 -0.0328
  182MPD1     N 2778   3.068   1.193   1.390  0.3886 -0.4797 -0.4338
  182MPD1    H5 2779   2.981   1.226   1.349  0.3451 -0.2482 -0.1501
  182MPD1    N1 2780   2.980   1.499   1.751 -0.0533  0.7522 -0.4206
  182MPD1    H6 2781   2.902   1.541   1.701 -0.2883  2.6079  1.4862
  182MPD1    H7 2782   3.028   1.579   1.793 -0.0956 -0.0175  1.0868
  183MPD1     C 2783   0.339   1.615   9.000 -0.0801  0.4736 -0.5156
  183MPD1    C1 2784   0.334   1.477   9.000 -0.6939  0.0007  0.4752
  183MPD1    C2 2785   0.225   1.408   9.055  0.1530 -1.0648 -0.2518
  183MPD1    C3 2786   0.122   1.487   9.112  0.3086 -0.2353  0.2631
  183MPD1    C4 2787   0.124   1.627   9.100  0.4585  0.1950 -0.4002
  183MPD1    C5 2788   0.236   1.688   9.060 -0.3803  0.6436  0.0947
  183MPD1     H 2789   0.229   1.300   9.051 -0.6940 -1.0179 -2.3873
  183MPD1    H1 2790   0.037   1.686   9.128 -0.2168 -0.4454 -1.1125
  183MPD1    H2 2791   0.419   1.669   8.952 -1.3699  1.8250 -1.1541
  183MPD1    H3 2792   0.243   1.796   9.058 -0.0715  0.6292  0.4265
  183MPD1     N 2793   0.011   1.420   9.164 -0.2204  0.3546 -0.9470
  183MPD1    H5 2794   0.024   1.319   9.171 -0.9611  0.3349  0.1768
  183MPD1    N1 2795   0.432   1.409   8.924  0.1959 -0.4258  0.2349
  183MPD1    H6 2796   0.522   1.453   8.908  0.9294 -1.5286  1.3190
  183MPD1    H7 2797   0.443   1.310   8.946  0.2996 -0.0751  1.7771
  184MPD1     C 2798   3.648   2.906  10.154 -0.1668 -0.2719 -0.2449
  184MPD1    C1 2799   3.706   2.845  10.050  0.1878  0.1756 -0.0088
  184MPD1    C2 2800   3.755   2.913   9.938  0.5630  0.2961  0.2717
  184MPD1    C3 2801   3.729   3.045   9.925 -0.2887  0.1364 -0.8263
  184MPD1    C4 2802   3.663   3.108  10.030 -0.1056 -0.1041 -0.5106
  184MPD1    C5 2803   3.636   3.042  10.151 -0.8463 -0.2357 -0.2312
  184MPD1     H 2804   3.810   2.862   9.860 -1.8470 -1.3341 -0.3913
  184MPD1    H1 2805   3.633   3.212  10.027 -0.2939 -0.2850 -4.1818
  184MPD1    H2 2806   3.613   2.852  10.241  2.0780 -1.4449 -0.0560
  184MPD1    H3 2807   3.594   3.086  10.241  1.9807 -0.7466  1.3682
  184MPD1     N 2808   3.775   3.140   9.827  0.6871 -0.0250 -1.1183
  184MPD1    H5 2809   3.752   3.237   9.847  0.5284 -0.5951  1.4528
  184MPD1    N1 2810   3.723   2.707  10.063  0.8662 -0.1477  0.0608
  184MPD1    H6 2811   3.658   2.664  10.128  1.0506 -0.6681 -0.1019
  184MPD1    H7 2812   3.717   2.654   9.976  0.0697  0.7795 -0.4552
  185MPD1     C 2813   4.026   3.258   8.762  0.0491 -0.1069 -0.3032
  185MPD1    C1 2814   3.975   3.144   8.831  0.5333 -0.4446 -0.2584
  185MPD1    C2 2815   3.940   3.163   8.965  1.1298  0.4619 -0.7877
  185MPD1    C3 2816   3.964   3.285   9.025 -0.0842 -0.0168 -0.3988
  185MPD1    C4 2817   4.017   3.390   8.953  0.0949 -0.4808  0.1867
  185MPD1    C5 2818   4.053   3.376   8.822  0.0785  0.1052  0.6151
  185MPD1     H 2819   3.900   3.080   9.021  0.3255  0.4348 -1.3993
  185MPD1    H1 2820   4.046   3.482   9.002  1.8724 -1.7383  1.5058
  185MPD1    H2 2821   4.054   3.244   8.658  0.0185 -0.4998 -0.2581
  185MPD1    H3 2822   4.104   3.454   8.767 -0.1112 -0.1715  0.0408
  185MPD1     N 2823   3.940   3.314   9.166  0.1875  0.3709 -0.0004
  185MPD1    H5 2824   3.991   3.394   9.203  0.4398 -0.2130  0.8939
  185MPD1    N1 2825   3.949   3.022   8.773  0.2419 -0.0091 -0.1342
  185MPD1    H6 2826   4.018   2.981   8.710  0.0112 -0.7714  0.1070
  185MPD1    H7 2827   3.913   2.953   8.838 -1.0014 -2.0150 -2.9423
  186MPD1     C 2828   1.230   3.120  16.433  0.7035 -0.3226 -0.3291
  186MPD1    C1 2829   1.286   3.202  16.335 -0.0187 -0.4098 -0.4819
  186MPD1    C2 2830   1.306   3.331  16.372  0.3414 -0.5152 -0.1881
  186MPD1    C3 2831   1.291   3.375  16.504 -0.0600 -0.3130  0.1639
  186MPD1    C4 2832   1.247   3.286  16.599 -0.1157  0.7534  0.0154
  186MPD1    C5 2833   1.215   3.162  16.563 -0.0370 -0.3566 -0.8929
  186MPD1     H 2834   1.345   3.397  16.295 -0.3202 -1.2101 -1.1295
  186MPD1    H1 2835   1.239   3.314  16.704 -0.8819 -0.0085  0.1658
  186MPD1    H2 2836   1.202   3.023  16.394 -1.0577 -0.6266  1.6887
  186MPD1    H3 2837   1.188   3.096  16.645 -1.3408  2.7708  1.2059
  186MPD1     N 2838   1.299   3.511  16.551 -0.2912 -0.6711  0.1809
  186MPD1    H5 2839   1.283   3.513  16.651  2.0910  0.5031  0.5404
  186MPD1    N1 2840   1.293   3.161  16.203  0.1748  0.1178 -0.2769
  186MPD1    H6 2841   1.318   3.063  16.196  1.7510  0.6883 -3.0669
  186MPD1    H7 2842   1.366   3.209  16.151  0.8796  1.0204  1.5345
  187MPD1     C 2843   4.253   0.871   0.908  0.0407  0.4019 -0.2751
  187MPD1    C1 2844   4.217   0.849   0.774 -0.3842  0.2855  0.4410
  187MPD1    C2 2845   4.291   0.926   0.682  0.0717 -0.5318  0.3183
  187MPD1    C3 2846   4.382   1.021   0.715  0.4119  0.2551 -0.6351
  187MPD1    C4 2847   4.409   1.042   0.843  0.1684 -1.0626  0.7191
  187MPD1    C5 2848   4.354   0.960   0.936 -0.2209 -0.7235 -0.1512
  187MPD1     H 2849   4.270   0.905   0.577 -0.9129 -2.0313  0.8218
  187MPD1    H1 2850   4.478   1.116   0.883 -0.8847 -0.6340  1.7271
  187MPD1    H2 2851   4.208   0.827   0.997 -0.6139  2.1693  0.2695
  187MPD1    H3 2852   4.368   0.981   1.042  0.2402  3.5141 -1.0504
  187MPD1     N 2853   4.458   1.090   0.618 -0.1923 -0.4297 -0.0250
  187MPD1    H5 2854   4.525   1.155   0.656  0.1312 -1.2876  0.8639
  187MPD1    N1 2855   4.126   0.753   0.737  0.0782  0.1792 -0.6339
  187MPD1    H6 2856   4.064   0.780   0.660 -1.9710 -1.0728  0.5725
  187MPD1    H7 2857   4.071   0.708   0.810  1.0243 -1.5714 -0.9854
  188MPD1     C 2858   1.498   0.314   9.924 -0.8159 -0.6093 -0.3600
  188MPD1    C1 2859   1.382   0.367   9.871  1.3170  0.2976 -0.6914
  188MPD1    C2 2860   1.275   0.282   9.842  0.0222 -0.1448  0.1183
  188MPD1    C3 2861   1.291   0.146   9.850  0.5672 -0.3736  0.1018
  188MPD1    C4 2862   1.414   0.095   9.885  0.4609 -0.2122  0.1019
  188MPD1    C5 2863   1.521   0.177   9.921  0.5125  0.0567  0.5405
  188MPD1     H 2864   1.179   0.318   9.808 -0.5886 -0.9995  0.9406
  188MPD1    H1 2865   1.432   4.717   9.861  1.2106 -0.2666  0.9094
  188MPD1    H2 2866   1.584   0.372   9.952  0.2390 -2.5285  0.3577
  188MPD1    H3 2867   1.619   0.136   9.941 -0.2321 -2.0277 -0.1025
  188MPD1     N 2868   1.192   0.046   9.824 -0.4088 -0.1308 -0.3515
  188MPD1    H5 2869   1.230   4.680   9.842 -0.0470  0.0292 -0.3102
  188MPD1    N1 2870   1.358   0.506   9.881 -0.2656 -0.3691  0.0716
  188MPD1    H6 2871   1.284   0.541   9.820  0.8524  1.9254  0.0278
  188MPD1    H7 2872   1.436   0.571   9.874 -2.1515  1.5479 -3.1417
  189MPD1     C 2873   1.474   0.596   0.171 -0.5750  0.1931 -0.1577
  189MPD1    C1 2874   1.366   0.619   0.091 -0.8051  0.4650  0.1509
  189MPD1    C2 2875   1.260   0.695   0.139 -0.0686  0.5884  0.4087
  189MPD1    C3 2876   1.277   0.776   0.250 -0.6780  0.3010 -0.0568
  189MPD1    C4 2877   1.398   0.760   0.321  0.2129 -0.3567  0.5529
  189MPD1    C5 2878   1.499   0.674   0.282  0.8390  0.2295  0.1658
  189MPD1     H 2879   1.166   0.700   0.084 -0.4851  0.8321  1.1499
  189MPD1    H1 2880   1.401   0.812   0.416  1.1273 -1.1233  0.9423
  189MPD1    H2 2881   1.547   0.519   0.146 -0.1380  0.3331  0.6739
  189MPD1    H3 2882   1.591   0.664   0.338  0.6898 -0.5394  0.2769
  189MPD1     N 2883   1.163   0.849   0.297 -0.2317 -0.6831 -0.2810
  189MPD1    H5 2884   1.085   0.855   0.233 -0.5843 -1.7870  0.0484
  189MPD1    N1 2885   1.357   0.537  17.680 -0.1374 -0.5739 -0.0817
  189MPD1    H6 2886   1.283   0.560  17.614 -2.8228 -1.2106  2.6794
  189MPD1    H7 2887   1.444   0.513  17.634  0.4003  0.9768  0.1480
  190MPD1     C 2888   0.692   0.697  15.908  0.1219  0.1148 -0.5509
  190MPD1    C1 2889   0.681   0.619  16.020 -0.3705  1.0050 -0.0224
  190MPD1    C2 2890   0.793   0.554  16.064 -0.6921 -0.0387  0.3099
  190MPD1    C3 2891   0.915   0.565  16.004 -0.2584 -0.3653 -0.1758
  190MPD1    C4 2892   0.927   0.647  15.897 -0.3315  0.4706  0.3026
  190MPD1    C5 2893   0.820   0.721  15.856  0.0987  0.0738 -0.5048
  190MPD1     H 2894   0.795   0.486  16.148  1.0553 -1.3035 -0.7433
  190MPD1    H1 2895   1.020   0.677  15.850  0.4359 -1.6514  0.4885
  190MPD1    H2 2896   0.609   0.740  15.853  0.2199  0.0343 -0.7659
  190MPD1    H3 2897   0.831   0.798  15.780 -2.2874  1.9564  1.0528
  190MPD1     N 2898   1.023   0.481  16.047 -0.1437 -1.0575  0.0167
  190MPD1    H5 2899   1.002   0.421  16.126 -1.1007 -1.5145 -0.5784
  190MPD1    N1 2900   0.554   0.587  16.069 -0.5202  0.1484  0.3098
  190MPD1    H6 2901   0.487   0.660  16.049  0.9228  1.4402  0.2296
  190MPD1    H7 2902   0.562   0.588  16.170  0.7847 -0.4321  0.2100
  191MPD1     C 2903   0.295   1.266  13.547 -0.2050 -0.0659 -0.4372
  191MPD1    C1 2904   0.165   1.295  13.527  0.2764  0.3981  0.1240
  191MPD1    C2 2905   0.133   1.381  13.420 -0.2328 -0.2999  0.6162
  191MPD1    C3 2906   0.230   1.442  13.351  0.1476  0.9324 -0.2258
  191MPD1    C4 2907   0.357   1.430  13.389  0.4985 -0.2662 -0.5707
  191MPD1    C5 2908   0.387   1.337  13.482  0.1220 -0.1769  0.1452
  191MPD1     H 2909   0.027   1.389  13.395 -0.4140  1.1581  1.8906
  191MPD1    H1 2910   0.443   1.477  13.342 -1.0856  1.6598 -1.5279
  191MPD1    H2 2911   0.331   1.186  13.611  0.6592  0.0445 -0.7839
  191MPD1    H3 2912   0.490   1.316  13.506  0.0229  0.7718  1.3819
  191MPD1     N 2913   0.187   1.510  13.231  0.5539 -0.5612  0.3899
  191MPD1    H5 2914   0.087   1.511  13.219  0.7695  1.2013 -1.2152
  191MPD1    N1 2915   0.065   1.215  13.583 -0.0680  0.6364 -0.5841
  191MPD1    H6 2916   4.713   1.280  13.589 -0.2536  0.4770 -1.3263
  191MPD1    H7 2917   0.095   1.189  13.677 -1.2044 -0.2357 -0.4579
  192MPD1     C 2918   4.101   1.561  12.980  0.3278  0.3480 -0.5994
  192MPD1    C1 2919   4.162   1.578  12.857  0.5771 -0.1248  0.1950
  192MPD1    C2 2920   4.302   1.588  12.855 -0.1420  0.3191  0.0865
  192MPD1    C3 2921   4.376   1.596  12.971  0.2574  0.7044 -0.6612
  192MPD1    C4 2922   4.314   1.595  13.089  0.3883 -0.5766  0.4652
  192MPD1    C5 2923   4.179   1.582  13.094  0.0525  0.1700 -0.5039
  192MPD1     H 2924   4.357   1.594  12.762  0.1141  1.7459  0.3310
  192MPD1    H1 2925   4.367   1.589  13.183  1.5933  0.1907 -0.1715
  192MPD1    H2 2926   3.996   1.552  13.002  0.2669  2.1189 -0.1410
  192MPD1    H3 2927   4.124   1.570  13.187 -0.1469  0.9662 -0.5207
  192MPD1     N 2928   4.519   1.604  12.968 -0.8472 -0.2338 -0.4134
  192MPD1    H5 2929   4.567   1.597  13.057 -0.9545  1.2882 -0.2320
  192MPD1    N1 2930   4.084   1.544  12.749  0.3780  0.4516  0.4939
  192MPD1    H6 2931   3.987   1.572  12.763 -0.0114 -0.5845 -0.0739
  192MPD1    H7 2932   4.129   1.579  12.665 -1.1049 -1.7449 -1.2197
  193MPD1     C 2933   4.362   2.153  16.550 -0.3223  0.4043 -0.6101
  193MPD1    C1 2934   4.298   2.216  16.651  0.2503 -1.4833 -0.1073
  193MPD1    C2 2935   4.360   2.262  16.764 -0.8179  0.1477 -0.5486
  193MPD1    C3 2936   4.498   2.257  16.770 -0.3707 -0.4283  0.6874
  193MPD1    C4 2937   4.564   2.192  16.658 -0.0924 -0.5119  0.2334
  193MPD1    C5 2938   4.503   2.148  16.546 -0.2441 -1.1051 -0.1907
  193MPD1     H 2939   4.307   2.313  16.843  2.4223  0.5839  1.3125
  193MPD1    H1 2940   4.672   2.182  16.661 -0.1423 -0.7295  1.3482
  193MPD1    H2 2941   4.303   2.106  16.472  1.7008 -0.0355 -1.8645
  193MPD1    H3 2942   4.563   2.113  16.463  0.3639 -0.1957 -0.1261
  193MPD1     N 2943   4.576   2.311  16.874 -0.1897 -0.5073  0.6233
  193MPD1    H5 2944   4.675   2.294  16.862  0.1299  2.0883 -0.5996
  193MPD1    N1 2945   4.159   2.208  16.654 -0.5759 -0.2740 -0.1046
  193MPD1    H6 2946   4.122   2.291  16.701 -1.5456 -1.4548  1.2095
  193MPD1    H7 2947   4.123   2.206  16.558 -0.5926 -0.5139 -0.0935
  194MPD1     C 2948   2.757   0.077  16.678  0.4129  0.1103 -0.5321
  194MPD1    C1 2949   2.656   0.023  16.609  0.7369 -0.0493  0.0835
  194MPD1    C2 2950   2.618   4.621  16.640  0.3812  0.1866  0.2208
  194MPD1    C3 2951   2.646   4.559  16.758 -0.4485  0.6661  0.2217
  194MPD1    C4 2952   2.733   4.629  16.842 -0.2120 -0.1627 -0.3968
  194MPD1    C5 2953   2.798   0.020  16.796 -0.1382  0.9900  0.1786
  194MPD1     H 2954   2.549   4.580  16.568  1.2148  1.5807 -1.3492
  194MPD1    H1 2955   2.768   4.592  16.938 -0.2537  1.3858  0.2156
  194MPD1    H2 2956   2.810   0.167  16.649  1.8728 -0.4075  0.5288
  194MPD1    H3 2957   2.876   0.059  16.860  2.3629 -0.0532 -2.2454
  194MPD1     N 2958   2.609   4.433  16.801  0.2410  0.1903  0.1680
  194MPD1    H5 2959   2.610   4.412  16.900 -0.6431  0.5540  0.2534
  194MPD1    N1 2960   2.615   0.081  16.494 -0.2167  0.1550 -0.0781
  194MPD1    H6 2961   2.623   0.182  16.491  2.4651 -0.0717 -0.3595
  194MPD1    H7 2962   2.519   0.058  16.466 -0.1128 -3.0106  2.1606
  195MPD1     C 2963   4.327   0.779  17.455  0.2689  0.1207  0.6997
  195MPD1    C1 2964   4.306   0.681  17.360  0.7194 -0.0864 -0.2561
  195MPD1    C2 2965   4.308   0.549  17.396  0.1187 -0.1228  0.2881
  195MPD1    C3 2966   4.325   0.514  17.526  0.6280 -0.0108 -0.0701
  195MPD1    C4 2967   4.343   0.609  17.619 -0.5140  0.0289  0.1687
  195MPD1    C5 2968   4.336   0.737  17.582 -0.4066 -0.1556  0.5591
  195MPD1     H 2969   4.300   0.468  17.324  0.1783 -0.1435  0.3051
  195MPD1    H1 2970   4.357   0.587   0.020  1.0635  2.0531  0.3946
  195MPD1    H2 2971   4.329   0.886  17.440  1.2436 -0.0748 -0.5385
  195MPD1    H3 2972   4.363   0.821  17.645 -0.3129  0.1407  0.1323
  195MPD1     N 2973   4.307   0.380  17.577 -0.2027  0.3636 -0.4831
  195MPD1    H5 2974   4.313   0.358  17.676  0.3856 -0.5453 -0.7211
  195MPD1    N1 2975   4.299   0.710  17.228 -0.6397 -0.3594  0.2793
  195MPD1    H6 2976   4.268   0.807  17.219  0.9546  0.3804  3.0286
  195MPD1    H7 2977   4.226   0.656  17.180  2.7974 -4.2138 -0.6193
  196MPD1     C 2978   3.640   4.564   1.174  0.3588 -0.4958 -0.4131
  196MPD1    C1 2979   3.624   4.700   1.156 -0.5737  0.0777 -0.4828
  196MPD1    C2 2980   3.708   0.056   1.230 -0.4568  0.0637 -0.1231
  196MPD1    C3 2981   3.817   0.009   1.307  0.3772 -0.2736 -0.1718
  196MPD1    C4 2982   3.832   4.599   1.323 -0.3741 -0.4810 -0.1418
  196MPD1    C5 2983   3.749   4.514   1.250 -0.2618  0.0834  0.1905
  196MPD1     H 2984   3.693   0.163   1.232 -2.1711 -0.1646 -1.2456
  196MPD1    H1 2985   3.892   4.544   1.395  0.8916 -1.9796 -2.3511
  196MPD1    H2 2986   3.567   4.492   1.139 -0.7854 -0.4798  1.9151
  196MPD1    H3 2987   3.768   4.408   1.267 -0.3076  0.0585  0.0915
  196MPD1     N 2988   3.918   0.089   1.361 -0.1039 -0.3796 -0.4481
  196MPD1    H5 2989   3.992   0.043   1.414  0.6934  0.7058 -0.6140
  196MPD1    N1 2990   3.515   0.035   1.093  0.4908  0.7232  0.6485
  196MPD1    H6 2991   3.484   4.696   1.020  0.2011  2.3291 -0.6438
  196MPD1    H7 2992   3.548   0.115   1.039  3.0513 -0.4504  0.4771
  197MPD1     C 2993   3.089   2.230  16.497 -0.9759  0.0033 -0.2074
  197MPD1    C1 2994   3.067   2.281  16.625  0.4392 -0.2678 -0.0175
  197MPD1    C2 2995   3.046   2.415  16.647 -0.2068  0.6458  0.1263
  197MPD1    C3 2996   3.049   2.502  16.535  0.4306  0.4295 -0.9694
  197MPD1    C4 2997   3.054   2.447  16.407 -0.2354 -0.3568  0.3174
  197MPD1    C5 2998   3.079   2.313  16.391  0.6006  0.1353  0.1488
  197MPD1     H 2999   3.042   2.450  16.749  1.6005  0.7635  0.1561
  197MPD1    H1 3000   3.049   2.505  16.315  0.6800  0.1484  0.5813
  197MPD1    H2 3001   3.120   2.127  16.484  1.9801  0.6689  1.5666
  197MPD1    H3 3002   3.109   2.283  16.291  0.1465 -1.3515  0.4599
  197MPD1     N 3003   3.041   2.646  16.545 -0.3443 -0.1249  0.1144
  197MPD1    H5 3004   3.023   2.689  16.454  1.3567 -0.9613 -0.6260
  197MPD1    N1 3005   3.098   2.200  16.736 -0.0254 -0.3921  0.1718
  197MPD1    H6 3006   3.066   2.105  16.720  0.1190 -0.4840  0.4392
  197MPD1    H7 3007   3.074   2.236  16.828 -0.8084  0.6634 -0.4477
  198MPD1     C 3008   4.689   1.587  16.105 -0.4418  0.2330 -0.0967
  198MPD1    C1 3009   4.701   1.455  16.069  0.1000  0.7206 -0.1104
  198MPD1    C2 3010   0.101   1.405  16.056  0.2216 -0.2130 -0.3247
  198MPD1    C3 3011   0.210   1.487  16.075  0.0577 -0.6287  0.1577
  198MPD1    C4 3012   0.190   1.616  16.106 -0.9098 -0.1973 -0.5073
  198MPD1    C5 3013   0.070   1.665  16.134  0.0309  0.6612 -0.0535
  198MPD1     H 3014   0.105   1.301  16.025 -2.4468 -1.2013  2.6987
  198MPD1    H1 3015   0.274   1.684  16.111 -1.5661  0.6544 -1.1496
  198MPD1    H2 3016   4.593   1.637  16.117  0.0234  0.5336  2.4678
  198MPD1    H3 3017   0.063   1.772  16.151  0.8464  0.4272  1.6949
  198MPD1     N 3018   0.338   1.423  16.076  0.1568 -0.2281 -0.2142
  198MPD1    H5 3019   0.353   1.335  16.028 -0.7949 -0.8381  0.6066
  198MPD1    N1 3020   4.591   1.370  16.057  0.3543  0.6491  0.1971
  198MPD1    H6 3021   4.614   1.293  15.994  0.3774  1.9157 -1.3579
  198MPD1    H7 3022   4.508   1.421  16.024 -1.2366 -3.3992 -2.0853
  199MPD1     C 3023   4.478   1.644   9.543 -0.7842 -0.6518  0.3065
  199MPD1    C1 3024   4.395   1.751   9.508 -0.8049 -0.3311 -0.4876
  199MPD1    C2 3025   4.270   1.758   9.568 -0.6649  0.2412 -0.1408
  199MPD1    C3 3026   4.216   1.659   9.644 -0.2852  0.4623 -0.2488
  199MPD1    C4 3027   4.300   1.558   9.676 -0.0453  0.1875  0.6602
  199MPD1    C5 3028   4.428   1.543   9.623  0.3502  0.2954  0.2654
  199MPD1     H 3029   4.211   1.846   9.544 -0.9224 -0.7079 -3.0130
  199MPD1    H1 3030   4.258   1.474   9.730 -0.2660 -0.8114 -1.0756
  199MPD1    H2 3031   4.584   1.639   9.521 -0.6858 -0.9089  0.8381
  199MPD1    H3 3032   4.479   1.447   9.632  0.4974  0.4176  0.7336
  199MPD1     N 3033   4.082   1.654   9.687 -0.4981 -0.1971  0.2446
  199MPD1    H5 3034   4.046   1.575   9.740 -1.1929  0.0344  0.1208
  199MPD1    N1 3035   4.454   1.861   9.447 -0.1811 -0.4364 -0.3672
  199MPD1    H6 3036   4.532   1.845   9.384 -0.8110 -1.4670 -0.8802
  199MPD1    H7 3037   4.399   1.935   9.403  0.6882  2.0475  2.6581
  200MPD1     C 3038   1.079   2.312  15.038 -0.0234 -0.6940  0.3273
  200MPD1    C1 3039   1.160   2.233  15.115  0.3410 -0.3919  0.7447
  200MPD1    C2 3040   1.287   2.202  15.061 -0.4427 -0.7887 -0.8056
  200MPD1    C3 3041   1.320   2.221  14.928  0.1507  0.4642  0.0121
  200MPD1    C4 3042   1.219   2.274  14.844  0.3155  0.4261 -0.7312
  200MPD1    C5 3043   1.112   2.322  14.908  0.0699 -0.6894 -0.5104
  200MPD1     H 3044   1.363   2.158  15.124  0.5249  1.2720 -0.5381
  200MPD1    H1 3045   1.227   2.295  14.739 -0.4038  1.2789 -0.6101
  200MPD1    H2 3046   0.993   2.362  15.080  0.5387  0.5255  0.0172
  200MPD1    H3 3047   1.042   2.377  14.846  2.7680  1.2577 -1.8195
  200MPD1     N 3048   1.449   2.179  14.876 -0.0555  0.5805  0.5347
  200MPD1    H5 3049   1.513   2.142  14.946  0.8747 -0.4952 -0.8945
  200MPD1    N1 3050   1.137   2.213  15.253  0.0873 -1.1564 -0.5254
  200MPD1    H6 3051   1.163   2.119  15.281 -1.1798 -0.4073  3.1264
  200MPD1    H7 3052   1.040   2.233  15.274  0.1687 -1.9714  0.6025
  201MPD1     C 3053   4.202   1.187  13.055 -0.2380  0.3802 -0.1664
  201MPD1    C1 3054   4.183   1.146  13.183  0.6132 -0.4979  0.3753
  201MPD1    C2 3055   4.219   1.017  13.215  0.5985  0.0319  0.2367
  201MPD1    C3 3056   4.252   0.925  13.123 -0.9017 -0.0625 -0.7693
  201MPD1    C4 3057   4.262   0.967  12.986  0.3790 -0.3056 -0.6167
  201MPD1    C5 3058   4.250   1.103  12.957 -0.9670  0.1503  0.4293
  201MPD1     H 3059   4.208   0.983  13.317 -0.1870  1.4201  0.6125
  201MPD1    H1 3060   4.279   0.901  12.902  1.9769  0.0447 -0.5533
  201MPD1    H2 3061   4.179   1.289  13.028 -2.3858  0.2659  1.2534
  201MPD1    H3 3062   4.271   1.143  12.858 -0.7196 -1.2443 -0.0846
  201MPD1     N 3063   4.274   0.790  13.168 -0.3591  0.1724  0.0903
  201MPD1    H5 3064   4.273   0.779  13.269 -2.6307  1.8319  0.2512
  201MPD1    N1 3065   4.150   1.242  13.282  0.4928 -0.1410 -0.1686
  201MPD1    H6 3066   4.129   1.186  13.365  0.1378 -2.0353 -1.5365
  201MPD1    H7 3067   4.072   1.296  13.245 -0.6007 -0.0326  2.2731
  202MPD1     C 3068   0.929   1.085   9.461 -0.5380  0.2831  0.0687
  202MPD1    C1 3069   0.964   1.007   9.570 -0.0531 -0.2690  0.6743
  202MPD1    C2 3070   0.876   0.906   9.604  0.3123 -0.1969  0.4430
  202MPD1    C3 3071   0.744   0.906   9.566  0.0970  0.4871  0.2289
  202MPD1    C4 3072   0.718   0.982   9.452  0.2383 -0.4235 -0.4199
  202MPD1    C5 3073   0.809   1.070   9.400 -0.1454  0.5893  0.2546
  202MPD1     H 3074   0.910   0.838   9.682  1.3854 -0.0468  0.1042
  202MPD1    H1 3075   0.617   0.978   9.412  0.3031 -0.4027 -0.5852
  202MPD1    H2 3076   1.008   1.153   9.429  0.1402  0.4208  2.0442
  202MPD1    H3 3077   0.786   1.134   9.315  2.0683  0.7574 -0.2131
  202MPD1     N 3078   0.642   0.821   9.619 -0.3033 -0.0003 -0.2118
  202MPD1    H5 3079   0.549   0.818   9.580 -0.2244  2.4689 -0.5652
  202MPD1    N1 3080   1.106   0.995   9.597 -0.0606  0.8770 -0.2842
  202MPD1    H6 3081   1.128   0.960   9.690 -0.9777  3.3766  0.8615
  202MPD1    H7 3082   1.156   1.084   9.587 -0.3367  1.2152  1.3066
  203MPD1     C 3083   2.644   1.668  12.486 -0.1121 -0.5918 -0.1503
  203MPD1    C1 3084   2.732   1.642  12.380 -0.2152  0.0843  0.2657
  203MPD1    C2 3085   2.798   1.515  12.382 -0.5565 -0.0324  0.1694
  203MPD1    C3 3086   2.763   1.417  12.461  0.1460  0.8777  0.2423
  203MPD1    C4 3087   2.649   1.434  12.543 -0.0038 -0.1082  0.0155
  203MPD1    C5 3088   2.605   1.562  12.562  0.2906  0.0272 -0.5159
  203MPD1     H 3089   2.883   1.501  12.316 -0.5564  3.8266 -0.6727
  203MPD1    H1 3090   2.614   1.346  12.594 -0.6380  0.1536  0.0226
  203MPD1    H2 3091   2.596   1.763  12.509 -0.4348 -0.7370 -0.2307
  203MPD1    H3 3092   2.531   1.583  12.638  0.6814 -0.5322  0.0147
  203MPD1     N 3093   2.821   1.286  12.455 -0.0472 -0.9479  0.5445
  203MPD1    H5 3094   2.786   1.214  12.517  0.6888 -1.6310  0.1702
  203MPD1    N1 3095   2.777   1.747  12.301 -0.0357  0.1312  0.1439
  203MPD1    H6 3096   2.826   1.719  12.216 -0.8120  0.0471 -0.2770
  203MPD1    H7 3097   2.707   1.819  12.282 -2.0560 -2.0145 -0.5936
  204MPD1     C 3098   3.319   3.049   0.250  0.5682 -0.5025  0.3121
  204MPD1    C1 3099   3.272   2.924   0.285  0.0767  1.2495 -0.7449
  204MPD1    C2 3100   3.164   2.862   0.220 -0.0453  0.1104  1.2732
  204MPD1    C3 3101   3.107   2.918   0.108 -0.5813 -0.5172  0.0950
  204MPD1    C4 3102   3.156   3.036   0.067 -0.2100 -0.3828  0.6757
  204MPD1    C5 3103   3.263   3.102   0.137  0.6394 -0.3539  0.4498
  204MPD1     H 3104   3.126   2.765   0.251 -1.3510  0.5759  1.1368
  204MPD1    H1 3105   3.129   3.079  17.676  0.7086  1.6667  1.3382
  204MPD1    H2 3106   3.382   3.109   0.314  0.1726  0.7479 -0.4789
  204MPD1    H3 3107   3.291   3.201   0.101 -0.6122 -0.1542  0.0355
  204MPD1     N 3108   3.003   2.854   0.046  0.7482 -0.3521  0.2780
  204MPD1    H5 3109   2.987   2.757   0.071 -0.0997 -0.8131 -2.0962
  204MPD1    N1 3110   3.312   2.873   0.411 -0.0285 -0.2446  0.0716
  204MPD1    H6 3111   3.409   2.895   0.430 -1.1460  3.6381  1.3323
  204MPD1    H7 3112   3.296   2.773   0.410 -0.8325 -0.1040 -1.8370
  205MPD1     C 3113   3.236   1.570   0.920  0.1521  0.7736  0.0730
  205MPD1    C1 3114   3.130   1.650   0.939  0.2170 -0.3891  0.5796
  205MPD1    C2 3115   3.065   1.700   0.828 -0.2335  1.0239  0.4312
  205MPD1    C3 3116   3.103   1.657   0.700  0.1719 -0.1047 -0.4770
  205MPD1    C4 3117   3.208   1.569   0.687  0.3150  0.8749 -0.4573
  205MPD1    C5 3118   3.275   1.525   0.800  0.1284 -0.3368 -0.7080
  205MPD1     H 3119   2.984   1.771   0.832 -1.3993 -0.3259  0.5238
  205MPD1    H1 3120   3.250   1.526   0.597 -0.6877  1.2545 -1.1069
  205MPD1    H2 3121   3.299   1.548   1.005  1.6678  0.5200 -1.1189
  205MPD1    H3 3122   3.358   1.455   0.800  0.2810 -0.1548  0.6781
  205MPD1     N 3123   3.027   1.682   0.582 -0.1853  0.9211  1.0567
  205MPD1    H5 3124   3.049   1.621   0.504 -3.6022  0.6212  0.3035
  205MPD1    N1 3125   3.112   1.724   1.056 -0.0100  0.1498 -1.0121
  205MPD1    H6 3126   3.139   1.672   1.140 -2.7481  0.0447 -0.1709
  205MPD1    H7 3127   3.017   1.758   1.074 -0.3621 -2.0290  1.3333
  206MPD1     C 3128   3.190   0.072  16.428 -0.1248  0.4378  0.0146
  206MPD1    C1 3129   3.191   4.664  16.394  0.3570 -0.1764  0.1004
  206MPD1    C2 3130   3.070   4.609  16.360  0.1063  0.1533  0.0392
  206MPD1    C3 3131   2.951   4.671  16.397  0.5101  0.3836 -0.5919
  206MPD1    C4 3132   2.958   0.078  16.429  0.0304 -0.1049 -0.6468
  206MPD1    C5 3133   3.078   0.143  16.434 -0.0629  0.1496  0.4190
  206MPD1     H 3134   3.070   4.506  16.326  0.0960  0.1417  0.0736
  206MPD1    H1 3135   2.867   0.133  16.450  0.1767  0.5668 -1.7326
  206MPD1    H2 3136   3.283   0.121  16.453  1.8868 -3.5366  0.2616
  206MPD1    H3 3137   3.085   0.250  16.453  1.5699 -0.4372  3.0709
  206MPD1     N 3138   2.821   4.618  16.386 -1.0318 -0.3301  0.2605
  206MPD1    H5 3139   2.750   4.689  16.399 -1.0373 -0.1414 -0.8286
  206MPD1    N1 3140   3.313   4.604  16.358 -0.7379 -0.0285 -0.5959
  206MPD1    H6 3141   3.382   4.631  16.427 -0.3023 -0.9039 -0.6830
  206MPD1    H7 3142   3.312   4.502  16.370  0.5970 -0.3803 -3.5247
  207MPD1     C 3143   0.242   1.802   9.964 -0.1349 -0.4070 -0.2588
  207MPD1    C1 3144   0.285   1.900   9.880  1.1341 -0.3083 -0.1979
  207MPD1    C2 3145   0.397   1.877   9.796 -0.0934 -0.9518 -0.2585
  207MPD1    C3 3146   0.474   1.766   9.821  0.0290 -0.4084 -0.1479
  207MPD1    C4 3147   0.433   1.681   9.916  1.0077  0.3724  0.4039
  207MPD1    C5 3148   0.317   1.692   9.991  0.1615 -0.3195 -0.4742
  207MPD1     H 3149   0.435   1.951   9.727 -0.2460  0.3487  1.0476
  207MPD1    H1 3150   0.490   1.590   9.935  0.6421  0.0186 -0.1904
  207MPD1    H2 3151   0.160   1.826  10.031 -1.2377  2.7456 -2.7185
  207MPD1    H3 3152   0.287   1.610  10.055  0.6119 -0.0343  0.0966
  207MPD1     N 3153   0.595   1.730   9.753 -0.0764 -0.0051  0.3174
  207MPD1    H5 3154   0.653   1.656   9.792  2.1278  0.9585 -1.1982
  207MPD1    N1 3155   0.199   2.008   9.854 -0.3041 -0.3727  0.1958
  207MPD1    H6 3156   0.143   2.035   9.935  0.1872  0.9279  0.1004
  207MPD1    H7 3157   0.251   2.087   9.818 -2.0342 -0.2928 -2.0944
  208MPD1     C 3158   3.948   1.463   0.274 -0.0758 -0.3814 -0.4728
  208MPD1    C1 3159   3.880   1.426   0.382  0.0330  0.7784 -0.3339
  208MPD1    C2 3160   3.779   1.337   0.372  0.2677  0.2343  0.2429
  208MPD1    C3 3161   3.745   1.274   0.257  0.9577 -0.6967 -0.8676
  208MPD1    C4 3162   3.813   1.317   0.145  0.3766  0.2433 -0.4918
  208MPD1    C5 3163   3.913   1.410   0.152 -0.0448 -0.4872  0.2208
  208MPD1     H 3164   3.735   1.313   0.468  2.8211  1.1671  1.6185
  208MPD1    H1 3165   3.778   1.289   0.046 -0.8074  0.8083 -0.2261
  208MPD1    H2 3166   4.026   1.538   0.283  0.8217 -1.0737 -2.4455
  208MPD1    H3 3167   3.966   1.445   0.063  1.8750  2.1913  2.4200
  208MPD1     N 3168   3.634   1.185   0.253 -0.0249 -0.3308 -0.0223
  208MPD1    H5 3169   3.580   1.166   0.338 -1.1553 -0.1069 -0.6838
  208MPD1    N1 3170   3.905   1.499   0.500 -0.4434 -0.2807 -0.1200
  208MPD1    H6 3171   3.884   1.446   0.584  0.0434 -0.7329 -0.2881
  208MPD1    H7 3172   4.003   1.527   0.503 -0.5053 -0.0656 -0.0637
  209MPD1     C 3173   1.602   0.627  10.653 -0.2550  0.1104 -0.2480
  209MPD1    C1 3174   1.568   0.645  10.519 -0.0220 -0.3145  0.3909
  209MPD1    C2 3175   1.541   0.775  10.475  0.2910  0.5139  0.1673
  209MPD1    C3 3176   1.544   0.883  10.562 -0.2508 -0.5946 -0.1050
  209MPD1    C4 3177   1.553   0.863  10.694  0.2770  0.0874  0.3994
  209MPD1    C5 3178   1.585   0.734  10.737 -0.0768 -0.1562  0.1398
  209MPD1     H 3179   1.517   0.786  10.370 -0.9256  0.4959  0.4389
  209MPD1    H1 3180   1.533   0.940  10.768 -0.3622  1.9275 -1.6645
  209MPD1    H2 3181   1.640   0.536  10.698 -0.7710 -0.6854 -1.4471
  209MPD1    H3 3182   1.604   0.714  10.842  0.5956  1.5914  0.3452
  209MPD1     N 3183   1.514   1.014  10.511  0.0710 -0.2415 -0.0035
  209MPD1    H5 3184   1.513   1.023  10.410  0.8062  1.0612  0.0998
  209MPD1    N1 3185   1.576   0.541  10.425 -0.5482  0.1392  0.8040
  209MPD1    H6 3186   1.544   0.451  10.459 -0.0865 -0.9736 -1.6651
  209MPD1    H7 3187   1.516   0.559  10.345  0.6192  2.5341  0.4601
  210MPD1     C 3188   1.877   2.026  10.575 -0.7566  0.0413  0.6904
  210MPD1    C1 3189   1.849   1.932  10.673 -0.2179 -0.0096 -0.8209
  210MPD1    C2 3190   1.772   1.824  10.644  0.5333  0.1949  0.3130
  210MPD1    C3 3191   1.741   1.794  10.507 -0.4985 -0.1521  0.1475
  210MPD1    C4 3192   1.790   1.872  10.410  1.5503  0.4170  0.4886
  210MPD1    C5 3193   1.844   1.991  10.443  0.0190  0.0157  0.4986
  210MPD1     H 3194   1.736   1.761  10.724 -1.7350  2.2324  0.9002
  210MPD1    H1 3195   1.783   1.840  10.307  0.3976 -0.0147  0.7001
  210MPD1    H2 3196   1.926   2.120  10.594 -0.0648 -0.2522  0.3531
  210MPD1    H3 3197   1.883   2.052  10.363  1.7805 -1.5340  0.1884
  210MPD1     N 3198   1.667   1.681  10.468 -0.1890 -0.1035 -0.0821
  210MPD1    H5 3199   1.630   1.680  10.373 -3.5557  1.1805  1.2262
  210MPD1    N1 3200   1.887   1.959  10.803  0.4486 -0.3104  0.2543
  210MPD1    H6 3201   1.950   2.038  10.815 -0.4496  0.5127 -0.5061
  210MPD1    H7 3202   1.893   1.879  10.866 -0.5607 -0.4182  0.2168
  211MPD1     C 3203   1.722   1.182  15.490  0.6700  0.7117  0.3397
  211MPD1    C1 3204   1.654   1.136  15.603 -0.2080 -0.8209 -0.2278
  211MPD1    C2 3205   1.574   1.229  15.667  0.1866 -0.6304 -1.0201
  211MPD1    C3 3206   1.569   1.366  15.636  0.4739 -0.5042  0.4182
  211MPD1    C4 3207   1.642   1.409  15.528 -0.3900 -0.7753 -0.9842
  211MPD1    C5 3208   1.716   1.318  15.453 -0.4253 -0.2728  0.0516
  211MPD1     H 3209   1.521   1.203  15.758 -1.8164  0.5748 -1.8313
  211MPD1    H1 3210   1.638   1.516  15.511 -0.9219 -0.5224  0.7197
  211MPD1    H2 3211   1.769   1.108  15.426 -2.2591  0.0021 -0.9769
  211MPD1    H3 3212   1.777   1.349  15.369 -2.0585  1.6907 -0.3960
  211MPD1     N 3213   1.496   1.444  15.718 -0.7379  0.3965 -0.7800
  211MPD1    H5 3214   1.456   1.397  15.799  0.6968 -0.0477 -0.3384
  211MPD1    N1 3215   1.640   1.002  15.628  0.4446 -0.0374 -0.2505
  211MPD1    H6 3216   1.726   0.948  15.620  0.9523  0.6220  0.7586
  211MPD1    H7 3217   1.589   0.994  15.716 -0.9130 -1.1293 -1.1487
  212MPD1     C 3218   2.248   4.634  16.670  0.3746 -0.0106 -0.2857
  212MPD1    C1 3219   2.209   4.717  16.765  0.0075 -0.1788 -0.2068
  212MPD1    C2 3220   2.149   4.665  16.881 -0.8062 -0.0277 -0.0512
  212MPD1    C3 3221   2.127   4.524  16.900  0.1374 -0.2210 -0.0573
  212MPD1    C4 3222   2.168   4.443  16.796  0.2585  1.0055 -0.1108
  212MPD1    C5 3223   2.218   4.505  16.680  0.7780  0.7270 -0.1534
  212MPD1     H 3224   2.105   0.005  16.955  3.2914  1.7833  0.7833
  212MPD1    H1 3225   2.169   4.335  16.790 -2.1843  1.0102 -0.5995
  212MPD1    H2 3226   2.305   4.661  16.582 -0.4862 -2.5058 -1.5723
  212MPD1    H3 3227   2.245   4.434  16.603  1.2931  0.9954 -0.2226
  212MPD1     N 3228   2.085   4.462  17.015 -0.2223  0.0159  0.1794
  212MPD1    H5 3229   2.072   4.362  17.000  2.4478 -0.4749  1.0871
  212MPD1    N1 3230   2.257   0.127  16.760 -0.1421  0.6504  0.0477
  212MPD1    H6 3231   2.183   0.185  16.799  0.9501  1.7993  0.4196
  212MPD1    H7 3232   2.272   0.168  16.668 -1.3650 -1.5511 -1.1288
  213MPD1     C 3233   4.473   1.103  15.881 -0.9321  0.7455 -0.2529
  213MPD1    C1 3234   4.427   0.974  15.898 -0.1685  0.0381  0.2580
  213MPD1    C2 3235   4.505   0.871  15.838 -0.0897  0.0303  0.2343
  213MPD1    C3 3236   4.598   0.895  15.745  0.2412  0.5488  0.8787
  213MPD1    C4 3237   4.628   1.023  15.711 -0.2164  0.6771 -0.1052
  213MPD1    C5 3238   4.571   1.130  15.781  0.5043  0.2638 -0.0768
  213MPD1     H 3239   4.469   0.771  15.859  1.0928 -0.9538 -2.4062
  213MPD1    H1 3240   4.706   1.051  15.641  0.1153  1.0168  0.4082
  213MPD1    H2 3241   4.427   1.187  15.933 -0.9519  1.2582 -1.1078
  213MPD1    H3 3242   4.585   1.232  15.746  0.1742  0.2756 -0.1731
  213MPD1     N 3243   4.666   0.781  15.701 -0.5015  0.5417 -1.0724
  213MPD1    H5 3244   4.637   0.691  15.737 -1.8731  0.7049 -1.7634
  213MPD1    N1 3245   4.365   0.946  16.020  0.7677 -0.3309  0.3857
  213MPD1    H6 3246   4.309   0.862  16.014  0.9164 -0.5051  1.3437
  213MPD1    H7 3247   4.303   1.025  16.036 -0.3122 -0.9904 -0.5321
  214MPD1     C 3248   4.571   0.011  16.042 -0.7158 -0.0639 -0.2022
  214MPD1    C1 3249   4.680   4.715  15.963 -0.3801 -0.8455  0.8526
  214MPD1    C2 3250   4.722   0.081  15.872  0.5709  0.3845 -0.0380
  214MPD1    C3 3251   4.650   0.200  15.849  0.0672  0.0663 -0.0313
  214MPD1    C4 3252   4.546   0.224  15.926  0.5862 -0.5658  0.1312
  214MPD1    C5 3253   4.506   0.131  16.018  0.8449 -0.1773  0.0050
  214MPD1     H 3254   0.079   0.048  15.810 -1.3680  0.6224 -2.7523
  214MPD1    H1 3255   4.493   0.317  15.909 -0.4339 -1.1415  0.1853
  214MPD1    H2 3256   4.539   4.659  16.110 -0.3828 -0.2978 -0.3140
  214MPD1    H3 3257   4.411   0.159  16.062  0.4856  1.2345 -1.6896
  214MPD1     N 3258   4.688   0.295  15.750  0.7567 -0.0683  0.2872
  214MPD1    H5 3259   4.647   0.388  15.755 -0.0756 -0.4721  1.1165
  214MPD1    N1 3260   0.035   4.603  16.001 -0.2494  0.0770 -0.0737
  214MPD1    H6 3261   0.095   4.560  15.931 -1.3543  0.5920 -1.3434
  214MPD1    H7 3262   4.695   4.535  16.037 -0.4778  0.3251 -0.0204
  215MPD1     C 3263   1.393   0.279  10.575 -0.0616  0.8372 -0.2223
  215MPD1    C1 3264   1.316   0.379  10.513  0.1408 -0.7117 -0.1472
  215MPD1    C2 3265   1.262   0.480  10.589 -0.0024 -0.3467  0.2107
  215MPD1    C3 3266   1.288   0.494  10.724  0.0195  0.1929  0.2855
  215MPD1    C4 3267   1.380   0.407  10.781 -0.8484  0.6886 -0.0148
  215MPD1    C5 3268   1.429   0.298  10.710 -0.1844  0.4253  0.2889
  215MPD1     H 3269   1.206   0.558  10.539  0.3208 -2.0994 -2.8714
  215MPD1    H1 3270   1.404   0.415  10.887 -0.3911 -1.3972  0.0350
  215MPD1    H2 3271   1.413   0.190  10.516 -0.1692  0.4499  0.3326
  215MPD1    H3 3272   1.486   0.223  10.764 -0.9409 -0.2095  0.1964
  215MPD1     N 3273   1.229   0.601  10.792  0.2243 -0.5521  0.3664
  215MPD1    H5 3274   1.178   0.673  10.742 -1.8375 -0.8890  1.9851
  215MPD1    N1 3275   1.260   0.362  10.384 -0.0068 -0.2058  0.2991
  215MPD1    H6 3276   1.235   0.446  10.333  0.4434 -0.6895 -0.7307
  215MPD1    H7 3277   1.300   0.298  10.316 -0.4473  0.4937 -0.6167
  216MPD1     C 3278   2.080   1.932  17.065  0.0841  0.3271  0.2932
  216MPD1    C1 3279   2.075   2.065  17.044  0.6164  0.5361 -0.3014
  216MPD1    C2 3280   2.084   2.147  17.158 -0.7296  0.4272 -0.9204
  216MPD1    C3 3281   2.099   2.098  17.288 -0.4289 -0.6971 -0.1187
  216MPD1    C4 3282   2.086   1.964  17.298  0.1284 -0.3071 -1.0101
  216MPD1    C5 3283   2.078   1.883  17.189  1.1783  0.0843 -0.1282
  216MPD1     H 3284   2.072   2.254  17.143  0.9446  0.7285 -0.1191
  216MPD1    H1 3285   2.080   1.908  17.391 -0.2181 -0.8914 -1.3869
  216MPD1    H2 3286   2.073   1.869  16.977 -2.2593 -0.2130  0.8862
  216MPD1    H3 3287   2.056   1.777  17.203 -2.7999  1.0409  0.7973
  216MPD1     N 3288   2.103   2.190  17.395  0.8818  0.1591 -0.1718
  216MPD1    H5 3289   2.118   2.287  17.368 -0.8136  1.0960  2.2733
  216MPD1    N1 3290   2.063   2.115  16.914 -0.1138  0.1040 -0.0132
  216MPD1    H6 3291   2.106   2.207  16.903 -0.9164  0.5442  0.4967
  216MPD1    H7 3292   2.105   2.052  16.847 -0.0457  0.7992 -0.6328
  217MPD1     C 3293   2.747   0.015   8.435  0.4708 -0.0622  0.4719
  217MPD1    C1 3294   2.794   4.620   8.421  0.3574 -0.2886  0.3134
  217MPD1    C2 3295   2.896   4.584   8.509 -0.6487 -0.0277  0.4161
  217MPD1    C3 3296   2.958   4.681   8.590  0.2306  0.4696 -0.6306
  217MPD1    C4 3297   2.903   0.082   8.597  0.4247  0.7827 -0.5935
  217MPD1    C5 3298   2.802   0.115   8.512 -0.4005 -0.0033  0.2796
  217MPD1     H 3299   2.931   4.482   8.499  1.6834  0.6911  1.1520
  217MPD1    H1 3300   2.952   0.163   8.648  2.2018 -0.4856 -0.2725
  217MPD1    H2 3301   2.671   0.043   8.363  1.5500 -1.2461 -1.1101
  217MPD1    H3 3302   2.787   0.222   8.500 -1.8679 -0.2598 -0.0864
  217MPD1     N 3303   3.070   4.651   8.669 -0.2930 -0.3353 -0.1711
  217MPD1    H5 3304   3.097   4.718   8.740 -0.5330 -0.7684  0.3376
  217MPD1    N1 3305   2.732   4.537   8.332 -0.4223  0.3460  0.1997
  217MPD1    H6 3306   2.717   4.574   8.239  2.1103  2.9461  0.8348
  217MPD1    H7 3307   2.796   4.463   8.305 -0.4946  0.4471 -0.2498
  218MPD1     C 3308   4.538   1.204  13.158 -0.3559 -0.4491 -0.3655
  218MPD1    C1 3309   4.649   1.165  13.227 -0.4776 -1.3453 -0.0055
  218MPD1    C2 3310   0.044   1.174  13.159  0.0402  0.9387 -0.0503
  218MPD1    C3 3311   0.051   1.232  13.038  0.1243  0.1972 -0.3569
  218MPD1    C4 3312   4.663   1.269  12.975  0.5207  0.0544  0.3255
  218MPD1    C5 3313   4.545   1.254  13.031  0.1181  0.9358  0.2992
  218MPD1     H 3314   0.136   1.136  13.200 -0.2122 -1.0403 -1.2781
  218MPD1    H1 3315   4.657   1.311  12.875 -0.7301  0.0948  0.4186
  218MPD1    H2 3316   4.440   1.201  13.205 -1.0388  0.6768 -1.6959
  218MPD1    H3 3317   4.457   1.289  12.978 -0.4963 -0.4496  0.3909
  218MPD1     N 3318   0.172   1.251  12.974  0.1342 -0.6025  0.3190
  218MPD1    H5 3319   0.248   1.207  13.025  0.2536 -1.2911 -0.4494
  218MPD1    N1 3320   4.627   1.093  13.350  0.3430  0.5171 -0.1112
  218MPD1    H6 3321   4.560   1.147  13.404 -1.4818  1.9096 -3.7401
  218MPD1    H7 3322   4.713   1.090  13.404  1.5431 -1.7887 -2.1348
  219MPD1     C 3323   1.052   1.753  12.734  0.2952  0.5447  0.5090
  219MPD1    C1 3324   0.962   1.742  12.833  0.0254  0.6068 -0.1901
  219MPD1    C2 3325   0.854   1.660  12.814  0.9169  0.4472  0.1156
  219MPD1    C3 3326   0.835   1.590  12.695 -0.6765 -1.2486  0.0085
  219MPD1    C4 3327   0.924   1.600  12.595 -0.3846 -0.0443 -0.0711
  219MPD1    C5 3328   1.031   1.682  12.615  0.5540 -0.4210 -0.1493
  219MPD1     H 3329   0.779   1.658  12.892  0.3830 -0.8110 -0.4340
  219MPD1    H1 3330   0.916   1.556  12.496 -2.5080 -1.0320  0.5387
  219MPD1    H2 3331   1.145   1.807  12.748  0.8311 -0.1920 -0.2348
  219MPD1    H3 3332   1.101   1.698  12.533 -2.1996 -0.7941 -2.5671
  219MPD1     N 3333   0.725   1.509  12.669  0.4156 -0.0976  1.0712
  219MPD1    H5 3334   0.726   1.465  12.578 -0.9312 -1.1946  1.5902
  219MPD1    N1 3335   0.985   1.798  12.959 -0.2116  0.1883 -0.3204
  219MPD1    H6 3336   1.038   1.885  12.953 -0.4735  0.1914 -2.5661
  219MPD1    H7 3337   0.900   1.830  13.005 -0.2201  0.2100 -0.3508
  220MPD1     C 3338   0.383   1.537   9.365 -0.5458  0.5238 -0.0905
  220MPD1    C1 3339   0.288   1.476   9.446  0.3737  0.6898 -0.7068
  220MPD1    C2 3340   0.338   1.419   9.567 -0.1466 -0.4536 -0.0339
  220MPD1    C3 3341   0.473   1.406   9.590 -0.6106 -0.3926 -0.5286
  220MPD1    C4 3342   0.560   1.469   9.507  0.1788 -0.8971  0.6207
  220MPD1    C5 3343   0.517   1.537   9.398  0.1590 -0.3708 -0.0058
  220MPD1     H 3344   0.267   1.393   9.645  1.0829 -0.4912  1.0610
  220MPD1    H1 3345   0.667   1.481   9.520  0.2049 -2.3028  1.6159
  220MPD1    H2 3346   0.358   1.604   9.283  0.1578 -0.1093 -0.8217
  220MPD1    H3 3347   0.589   1.590   9.337 -1.0507  1.5956  0.2789
  220MPD1     N 3348   0.517   1.343   9.705  0.1993 -0.4285  0.0943
  220MPD1    H5 3349   0.442   1.307   9.763 -1.1557 -0.9842 -2.0038
  220MPD1    N1 3350   0.159   1.525   9.436  0.5115 -0.3180 -0.4917
  220MPD1    H6 3351   0.099   1.461   9.487  1.3384 -0.2938  0.5091
  220MPD1    H7 3352   0.143   1.520   9.335  2.5532 -0.6566 -0.8069
  221MPD1     C 3353   2.633   1.518  17.433 -0.2678 -0.3627  0.3632
  221MPD1    C1 3354   2.761   1.506  17.386 -0.3218  0.7188 -0.5958
  221MPD1    C2 3355   2.788   1.471  17.254 -0.3283 -0.2697 -0.7528
  221MPD1    C3 3356   2.686   1.414  17.172 -1.0706 -0.3933 -0.5687
  221MPD1    C4 3357   2.553   1.421  17.226  0.2593  0.5764 -0.1638
  221MPD1    C5 3358   2.529   1.475  17.353  0.2423  0.4686  0.2671
  221MPD1     H 3359   2.891   1.488  17.225  0.3339 -0.7285  1.3352
  221MPD1    H1 3360   2.473   1.398  17.156 -0.2795  0.7390  0.3962
  221MPD1    H2 3361   2.605   1.562  17.528  0.5293 -0.1570  0.5010
  221MPD1    H3 3362   2.429   1.492  17.392  1.2375  1.0270  2.5717
  221MPD1     N 3363   2.702   1.371  17.037 -0.2981  0.5523 -0.2142
  221MPD1    H5 3364   2.616   1.344  16.992  1.2895  0.9394 -3.4471
  221MPD1    N1 3365   2.870   1.559  17.461  0.1099 -0.5993 -0.0434
  221MPD1    H6 3366   2.856   1.557  17.562 -2.4143  0.4534 -0.3616
  221MPD1    H7 3367   2.945   1.491  17.454  1.5271  0.7793  2.0299
  222MPD1     C 3368   2.661   4.358  17.513 -0.2091 -0.3978  0.5818
  222MPD1    C1 3369   2.567   4.358  17.411  0.3754 -0.1271 -0.5980
  222MPD1    C2 3370   2.450   4.428  17.424 -0.5397  0.2165  0.3219
  222MPD1    C3 3371   2.422   4.490  17.544  0.4149  0.2584  0.9720
  222MPD1    C4 3372   2.504   4.478  17.648  0.0162  0.5198 -0.6726
  222MPD1    C5 3373   2.621   4.407  17.630 -0.7459 -0.0024 -0.3159
  222MPD1     H 3374   2.389   4.433  17.334  0.1770  2.4394 -0.0522
  222MPD1    H1 3375   2.480   4.521   0.040  0.4364 -1.3998  0.2826
  222MPD1    H2 3376   2.761   4.319  17.503 -0.2363 -0.3045 -0.1009
  222MPD1    H3 3377   2.690   4.415   0.008 -0.0593  3.0024 -1.1687
  222MPD1     N 3378   2.318   4.579  17.568 -0.1113 -0.3775  0.4090
  222MPD1    H5 3379   2.327   4.614  17.663  0.4847  1.3472 -0.2856
  222MPD1    N1 3380   2.604   4.300  17.285  0.2292  0.8366 -0.0531
  222MPD1    H6 3381   2.513   4.265  17.255 -0.5196  0.1597  2.9946
  222MPD1    H7 3382   2.662   4.217  17.301 -0.1252  0.3922 -1.0782
  223MPD1     C 3383   1.761   0.284  16.824  0.2799  0.4759  0.2209
  223MPD1    C1 3384   1.797   0.151  16.850  0.1889 -0.0690  0.2689
  223MPD1    C2 3385   1.839   0.116  16.975  0.4700  0.1863 -0.3195
  223MPD1    C3 3386   1.849   0.206  17.076  0.0475  0.2747 -0.1960
  223MPD1    C4 3387   1.810   0.334  17.052 -0.7653  0.2012  0.3889
  223MPD1    C5 3388   1.757   0.372  16.933 -0.4631 -0.0184 -0.0511
  223MPD1     H 3389   1.867   0.014  16.999  1.1098  0.2293 -0.8849
  223MPD1    H1 3390   1.827   0.418  17.118 -1.1939  1.4852 -1.1208
  223MPD1    H2 3391   1.722   0.319  16.729 -0.7151  0.0906  0.4857
  223MPD1    H3 3392   1.731   0.477  16.923  1.9163  0.1925 -4.2353
  223MPD1     N 3393   1.905   0.157  17.196 -0.5870 -0.3733  0.1312
  223MPD1    H5 3394   1.938   0.061  17.194 -1.1720 -0.5685 -0.1243
  223MPD1    N1 3395   1.774   0.060  16.746 -0.1624  0.2292 -0.6883
  223MPD1    H6 3396   1.814   4.693  16.759 -0.8789  0.0369  0.1679
  223MPD1    H7 3397   1.773   0.091  16.649  0.5236  1.8373 -0.1799
  224MPD1     C 3398   3.122   0.667   8.772 -0.1046 -0.1035  0.3013
  224MPD1    C1 3399   3.216   0.577   8.727 -0.2505  0.3428  0.5022
  224MPD1    C2 3400   3.277   0.497   8.817  0.0894 -0.4722 -0.7811
  224MPD1    C3 3401   3.269   0.532   8.955  0.5938  0.5317 -0.1363
  224MPD1    C4 3402   3.191   0.637   8.997 -0.0446  0.4686 -0.1067
  224MPD1    C5 3403   3.117   0.692   8.905  0.1951 -0.1402  0.2951
  224MPD1     H 3404   3.336   0.416   8.774  0.7179 -0.7123  0.5306
  224MPD1    H1 3405   3.191   0.664   9.101 -0.0241 -4.4633  1.1925
  224MPD1    H2 3406   3.054   0.730   8.715  0.2035  0.6877  0.7968
  224MPD1    H3 3407   3.040   0.760   8.941  1.0699  0.8791  0.2251
  224MPD1     N 3408   3.340   0.467   9.059  0.5342 -0.0656 -0.0056
  224MPD1    H5 3409   3.318   0.493   9.155  1.1814  1.5321 -0.2873
  224MPD1    N1 3410   3.216   0.549   8.589  0.1862  0.4130 -0.0797
  224MPD1    H6 3411   3.302   0.502   8.561 -0.6298 -0.0742 -1.7816
  224MPD1    H7 3412   3.208   0.631   8.529 -0.3424  0.2349 -0.2566
  225MPD1     C 3413   3.703   1.421  11.927  0.1530 -0.0277 -0.0232
  225MPD1    C1 3414   3.703   1.488  12.049 -0.3787 -0.0995 -0.4229
  225MPD1    C2 3415   3.785   1.595  12.058  0.3854  0.2944 -0.1410
  225MPD1    C3 3416   3.846   1.653  11.945 -0.7980  0.7123 -0.0643
  225MPD1    C4 3417   3.837   1.584  11.821  0.0297 -0.2958 -0.1156
  225MPD1    C5 3418   3.771   1.465  11.815  0.1775 -0.0501 -0.3518
  225MPD1     H 3419   3.793   1.652  12.149  1.5324  0.4473 -0.3377
  225MPD1    H1 3420   3.893   1.621  11.736 -0.9711  0.9368 -0.2381
  225MPD1    H2 3421   3.649   1.329  11.909  3.0901 -1.2959 -2.3475
  225MPD1    H3 3422   3.771   1.402  11.727 -0.0586 -0.0489 -0.3519
  225MPD1     N 3423   3.939   1.765  11.949  0.5170 -0.3185  0.2217
  225MPD1    H5 3424   4.002   1.774  11.869  0.3814 -0.6795  0.0716
  225MPD1    N1 3425   3.649   1.433  12.168 -0.5474  0.0436 -0.4442
  225MPD1    H6 3426   3.619   1.500  12.239 -0.1532  0.5368 -0.7459
  225MPD1    H7 3427   3.579   1.361  12.153  0.3547 -1.1748  1.2733
  226MPD1     C 3428   2.623   1.185   9.643 -0.6203 -0.5680 -0.6261
  226MPD1    C1 3429   2.702   1.070   9.609  1.0132  0.4634 -0.0348
  226MPD1    C2 3430   2.833   1.094   9.569  0.7111 -0.6105 -0.6705
  226MPD1    C3 3431   2.892   1.221   9.567  0.3059  0.0555 -0.4949
  226MPD1    C4 3432   2.817   1.332   9.613  0.3768  0.1880 -0.8408
  226MPD1    C5 3433   2.681   1.313   9.645  0.1843  0.0847  0.2541
  226MPD1     H 3434   2.887   1.008   9.530  2.5727 -0.1193  0.8300
  226MPD1    H1 3435   2.846   1.436   9.620  2.2995 -0.4102  0.1887
  226MPD1    H2 3436   2.520   1.172   9.673 -1.1907  0.3613 -2.1775
  226MPD1    H3 3437   2.623   1.392   9.692 -1.7012 -0.1923 -1.5973
  226MPD1     N 3438   3.026   1.227   9.521  0.2288 -0.0233  0.2481
  226MPD1    H5 3439   3.069   1.138   9.500 -0.1114 -0.1300  0.0157
  226MPD1    N1 3440   2.638   0.944   9.599 -0.4226 -0.1641  0.3381
  226MPD1    H6 3441   2.580   0.932   9.681 -0.0254 -1.6289  0.3944
  226MPD1    H7 3442   2.712   0.874   9.599  0.6211  0.9239 -0.3931
  227MPD1     C 3443   3.667   0.724   9.008  0.4356 -0.1106  0.5395
  227MPD1    C1 3444   3.724   0.784   9.111 -0.2017 -0.6118  0.1486
  227MPD1    C2 3445   3.680   0.902   9.155 -0.6309 -0.6967 -0.0077
  227MPD1    C3 3446   3.562   0.952   9.117  0.0013 -0.1922  0.0020
  227MPD1    C4 3447   3.483   0.879   9.030  0.1174 -0.2735 -0.8692
  227MPD1    C5 3448   3.540   0.763   8.978  0.0148  0.1760  0.4014
  227MPD1     H 3449   3.722   0.956   9.239 -0.9215 -0.9567  0.3123
  227MPD1    H1 3450   3.382   0.903   8.997  0.1316  2.6095  1.1584
  227MPD1    H2 3451   3.713   0.638   8.960 -0.0537 -0.1729  0.1748
  227MPD1    H3 3452   3.491   0.703   8.903 -0.9846  0.6421  0.6723
  227MPD1     N 3453   3.509   1.057   9.196 -0.1697  0.5640  0.3740
  227MPD1    H5 3454   3.581   1.112   9.244 -0.7737  1.5413  0.1648
  227MPD1    N1 3455   3.843   0.735   9.164  0.0601  0.0851  0.2157
  227MPD1    H6 3456   3.847   0.755   9.263  1.9856  1.6301 -0.1876
  227MPD1    H7 3457   3.856   0.635   9.150 -5.0742 -0.7839  1.3315
  228MPD1     C 3458   1.900   3.647  13.306 -0.0716 -0.7463  0.0905
  228MPD1    C1 3459   1.865   3.680  13.176 -0.8074 -0.3150  1.0023
  228MPD1    C2 3460   1.733   3.714  13.154  0.4608  0.6291  0.1337
  228MPD1    C3 3461   1.630   3.687  13.244  0.0236 -0.1471  0.2308
  228MPD1    C4 3462   1.669   3.632  13.367  0.3704 -0.0330  0.2297
  228MPD1    C5 3463   1.803   3.619  13.397  0.1111 -0.7470  0.3137
  228MPD1     H 3464   1.707   3.767  13.063  0.7860 -0.9393 -0.8616
  228MPD1    H1 3465   1.597   3.607  13.444 -0.7488  0.7857 -0.5444
  228MPD1    H2 3466   2.005   3.630  13.328  0.3671 -0.2294 -1.6666
  228MPD1    H3 3467   1.833   3.580  13.493 -0.2275  1.6141  1.3520
  228MPD1     N 3468   1.493   3.719  13.216 -0.1328 -0.0889  0.0953
  228MPD1    H5 3469   1.463   3.772  13.134 -0.3181 -0.4593 -0.0747
  228MPD1    N1 3470   1.967   3.724  13.086  0.1122  0.2951  0.3914
  228MPD1    H6 3471   1.926   3.729  12.993  1.1379 -0.0919 -0.0878
  228MPD1    H7 3472   2.040   3.653  13.086 -1.7181 -1.6008  0.3171
  229MPD1     C 3473   0.703   3.315  14.142 -0.4040 -0.6055 -0.2731
  229MPD1    C1 3474   0.743   3.419  14.223  0.2037  0.6944 -0.2210
  229MPD1    C2 3475   0.853   3.405  14.304  0.0123 -0.1847  0.2218
  229MPD1    C3 3476   0.916   3.281  14.316  0.1353  0.2108  0.0473
  229MPD1    C4 3477   0.872   3.178  14.237 -0.5947 -0.2118  0.0422
  229MPD1    C5 3478   0.771   3.193  14.147  0.3083 -0.3065  0.3097
  229MPD1     H 3479   0.900   3.485  14.361 -1.6291  0.2661  0.9295
  229MPD1    H1 3480   0.917   3.080  14.245  1.6002  0.6634 -1.7411
  229MPD1    H2 3481   0.617   3.326  14.078 -1.1790  1.2075  1.0905
  229MPD1    H3 3482   0.735   3.107  14.092 -2.6805  2.8175 -2.5959
  229MPD1     N 3483   1.038   3.257  14.387  0.4316 -0.2231  0.0071
  229MPD1    H5 3484   1.083   3.167  14.383  0.6166 -0.1790  1.0875
  229MPD1    N1 3485   0.685   3.545  14.211  0.4386  0.9600 -0.0934
  229MPD1    H6 3486   0.625   3.549  14.129 -0.1526 -2.2061  0.1655
  229MPD1    H7 3487   0.758   3.616  14.200  2.3067 -0.8769  0.3633
  230MPD1     C 3488   1.331   3.207  15.415  0.4903  0.5618 -0.9018
  230MPD1    C1 3489   1.424   3.130  15.347 -0.7398 -0.8559 -0.4124
  230MPD1    C2 3490   1.432   3.141  15.211  0.5267  0.3617  0.3987
  230MPD1    C3 3491   1.349   3.228  15.141 -0.1408 -0.0726 -0.9746
  230MPD1    C4 3492   1.256   3.305  15.211 -0.9719 -0.0346  0.2054
  230MPD1    C5 3493   1.251   3.296  15.349 -0.5015 -0.3925  0.2124
  230MPD1     H 3494   1.508   3.080  15.162 -1.6484 -2.4420  0.5314
  230MPD1    H1 3495   1.209   3.394  15.171  0.6270  1.0020  0.6072
  230MPD1    H2 3496   1.315   3.209  15.523 -0.1591  0.5163 -0.9966
  230MPD1    H3 3497   1.185   3.360  15.407  2.5161  1.5631  1.4862
  230MPD1     N 3498   1.354   3.238  14.999  0.2176 -0.3126  0.9250
  230MPD1    H5 3499   1.415   3.168  14.958  0.1024 -0.4381  0.9697
  230MPD1    N1 3500   1.492   3.033  15.425  0.6262  0.1995  0.2908
  230MPD1    H6 3501   1.588   3.019  15.393  0.2722 -0.8593 -0.3396
  230MPD1    H7 3502   1.498   3.056  15.524  0.5928  1.5364 -0.0160
  231MPD1     C 3503   4.524   0.654  15.352 -0.1178 -0.0764  0.4663
  231MPD1    C1 3504   4.580   0.539  15.299 -0.2686 -0.1777 -0.5748
  231MPD1    C2 3505   4.675   0.568  15.202 -0.5519  0.5453 -0.0691
  231MPD1    C3 3506   4.709   0.697  15.159  0.3468 -0.2238 -0.6731
  231MPD1    C4 3507   4.644   0.805  15.210 -0.1305 -1.1891  0.2268
  231MPD1    C5 3508   4.552   0.779  15.311 -0.2730  0.7782 -0.3579
  231MPD1     H 3509   0.020   0.493  15.169 -2.5120 -1.2191 -0.3048
  231MPD1    H1 3510   4.657   0.906  15.174 -0.2709 -1.9723 -2.0020
  231MPD1    H2 3511   4.470   0.650  15.446 -1.0117  0.5175 -0.0235
  231MPD1    H3 3512   4.516   0.860  15.373  1.5943  0.4526  1.1767
  231MPD1     N 3513   0.086   0.708  15.061  0.8310 -0.1353  1.0008
  231MPD1    H5 3514   0.133   0.620  15.040  0.8182  0.0875  0.0780
  231MPD1    N1 3515   4.573   0.410  15.355 -0.2199 -0.3031  0.2771
  231MPD1    H6 3516   4.483   0.380  15.390  0.3314 -0.8327  1.2189
  231MPD1    H7 3517   4.606   0.355  15.275  0.6636 -0.0575  0.4680
  232MPD1     C 3518   1.267   2.751   0.862  0.1506  0.1896  0.4883
  232MPD1    C1 3519   1.292   2.743   0.995 -0.3865  0.2053 -0.4593
  232MPD1    C2 3520   1.261   2.852   1.072  0.2467  0.2249  0.6292
  232MPD1    C3 3521   1.210   2.968   1.018  0.1940  0.1036  0.6504
  232MPD1    C4 3522   1.187   2.978   0.882 -0.0492  0.2578 -0.4452
  232MPD1    C5 3523   1.215   2.867   0.809  0.2785  0.6418 -0.5049
  232MPD1     H 3524   1.279   2.846   1.179 -1.2872 -0.0234  0.8691
  232MPD1    H1 3525   1.134   3.055   0.827 -0.8467 -0.4618 -0.6976
  232MPD1    H2 3526   1.280   2.665   0.798 -3.2577  0.3226 -0.4052
  232MPD1    H3 3527   1.197   2.877   0.702 -0.4789  2.8065 -0.1838
  232MPD1     N 3528   1.180   3.069   1.110 -0.2603 -0.1093 -0.4768
  232MPD1    H5 3529   1.200   3.054   1.209  0.3666  1.4679 -0.3544
  232MPD1    N1 3530   1.336   2.616   1.063 -0.2140 -0.3980 -0.1900
  232MPD1    H6 3531   1.402   2.575   0.996  1.5576 -0.1618  1.4235
  232MPD1    H7 3532   1.396   2.649   1.138  1.7383 -1.6882 -1.1645
  233MPD1     C 3533   1.290   0.303   1.307 -0.4230 -0.0321 -0.3149
  233MPD1    C1 3534   1.365   0.225   1.235  0.2301 -0.0548 -0.4294
  233MPD1    C2 3535   1.503   0.239   1.236 -0.0347 -0.6516 -0.5645
  233MPD1    C3 3536   1.563   0.336   1.312  0.0783  0.2601  0.2243
  233MPD1    C4 3537   1.484   0.418   1.393 -0.7669 -0.1258  0.4253
  233MPD1    C5 3538   1.346   0.400   1.391 -0.2271 -0.4965 -0.0919
  233MPD1     H 3539   1.558   0.174   1.168 -0.6046 -0.5941 -1.0792
  233MPD1    H1 3540   1.518   0.492   1.465 -0.2456 -1.3572  1.4568
  233MPD1    H2 3541   1.184   0.288   1.327 -0.3880  0.4849  0.2644
  233MPD1    H3 3542   1.288   0.467   1.454 -1.9231  1.6468 -3.9548
  233MPD1     N 3543   1.706   0.347   1.314  0.3701  0.2012 -0.3200
  233MPD1    H5 3544   1.758   0.290   1.249  0.4764 -0.1567  0.0790
  233MPD1    N1 3545   1.308   0.116   1.160 -0.6968 -0.0669 -0.2285
  233MPD1    H6 3546   1.353   0.114   1.069 -0.4053 -0.1137 -0.0825
  233MPD1    H7 3547   1.211   0.136   1.135 -1.3395 -0.5008  1.8846
  234MPD1     C 3548   0.086   4.553   8.210  0.5222  0.6200  0.6584
  234MPD1    C1 3549   4.688   4.503   8.186 -0.7930  0.1114  0.1324
  234MPD1    C2 3550   4.607   4.478   8.297 -0.6716 -0.2288  0.8854
  234MPD1    C3 3551   4.642   4.498   8.427 -0.0341 -0.2910 -0.3689
  234MPD1    C4 3552   0.046   4.540   8.449 -0.3166 -0.1061  0.0615
  234MPD1    C5 3553   0.128   4.549   8.340 -0.1654 -0.4024 -0.0431
  234MPD1     H 3554   4.508   4.441   8.271  0.2119 -1.1721 -1.1341
  234MPD1    H1 3555   0.086   4.556   8.549 -0.0952 -0.7329  0.0753
  234MPD1    H2 3556   0.150   4.569   8.125  0.8334  1.6492  1.0831
  234MPD1    H3 3557   0.232   4.577   8.357 -0.2484  0.1258 -0.4070
  234MPD1     N 3558   4.544   4.468   8.531  0.0135  0.3279 -0.1640
  234MPD1    H5 3559   4.450   4.438   8.507 -0.3840 -0.8299  2.8580
  234MPD1    N1 3560   4.641   4.509   8.054  0.0332 -0.6423 -0.1787
  234MPD1    H6 3561   4.577   4.432   8.036  2.3260 -2.0204 -2.3380
  234MPD1    H7 3562   0.002   4.500   8.001 -0.6057 -2.1810 -0.9288
  235MPD1     C 3563   0.872   1.918   9.982 -0.4735 -0.6204  0.1339
  235MPD1    C1 3564   1.003   1.941  10.001 -0.4994 -0.4774  0.5865
  235MPD1    C2 3565   1.060   2.041   9.924  0.1691 -0.0584 -0.0430
  235MPD1    C3 3566   0.995   2.107   9.826 -0.2288 -0.1019 -0.2854
  235MPD1    C4 3567   0.868   2.063   9.798  0.1184 -0.1887  0.1806
  235MPD1    C5 3568   0.807   1.981   9.883 -0.2363 -0.4399 -0.0560
  235MPD1     H 3569   1.160   2.077   9.945 -0.3774  1.5291 -0.1806
  235MPD1    H1 3570   0.809   2.097   9.713  0.3647 -0.9835 -0.3108
  235MPD1    H2 3571   0.808   1.853  10.040 -0.2519 -0.7283  0.2579
  235MPD1    H3 3572   0.708   1.951   9.848  0.8137 -1.9189 -1.7642
  235MPD1     N 3573   1.051   2.223   9.763 -0.3664 -0.0885 -0.3371
  235MPD1    H5 3574   1.147   2.247   9.789 -0.1661 -0.7736 -0.4533
  235MPD1    N1 3575   1.074   1.892  10.112  0.1665 -0.3692 -1.0389
  235MPD1    H6 3576   1.174   1.906  10.098  0.1876 -0.5366 -1.0517
  235MPD1    H7 3577   1.059   1.792  10.123  1.5169 -0.2948  1.3183
  236MPD1     C 3578   0.330   3.667   9.641 -0.8990  0.1633 -0.2473
  236MPD1    C1 3579   0.308   3.537   9.607  0.0886 -0.0356  0.5658
  236MPD1    C2 3580   0.345   3.434   9.693  0.4465 -0.0785 -0.3314
  236MPD1    C3 3581   0.420   3.470   9.806  1.1472 -0.3122  0.3818
  236MPD1    C4 3582   0.454   3.599   9.833 -0.1040  0.4121  0.3426
  236MPD1    C5 3583   0.408   3.698   9.751  0.3018  0.3495 -0.2709
  236MPD1     H 3584   0.329   3.328   9.675  0.6903 -0.1864  0.0900
  236MPD1    H1 3585   0.514   3.628   9.918  0.2684 -0.4716  0.3745
  236MPD1    H2 3586   0.292   3.747   9.579 -1.4805  0.3315  0.3303
  236MPD1    H3 3587   0.426   3.802   9.775  1.1753 -0.0305  0.6911
  236MPD1     N 3588   0.466   3.375   9.908  0.0698  0.3636 -0.2028
  236MPD1    H5 3589   0.507   3.404   9.996 -0.2754  1.1514 -0.3001
  236MPD1    N1 3590   0.226   3.507   9.493  0.4107 -0.3965 -1.0831
  236MPD1    H6 3591   0.196   3.595   9.450 -2.0871 -0.1087  1.3064
  236MPD1    H7 3592   0.146   3.449   9.514  0.2668  1.0059  2.2055
  237MPD1     C 3593   0.287   1.349  15.632  0.3822 -0.2461  0.1145
  237MPD1    C1 3594   0.236   1.308  15.505 -0.1823 -0.0819 -0.3190
  237MPD1    C2 3595   0.107   1.350  15.482 -0.5401 -0.5075 -0.3832
  237MPD1    C3 3596   0.026   1.413  15.581 -0.2590  0.7455 -0.9039
  237MPD1    C4 3597   0.080   1.440  15.704  0.5635 -0.6534 -0.0826
  237MPD1    C5 3598   0.215   1.424  15.725 -0.4225  0.5028  0.4403
  237MPD1     H 3599   0.070   1.326  15.383  0.1842 -2.6380 -0.1386
  237MPD1    H1 3600   0.019   1.477  15.785 -0.8893 -0.9140 -1.0519
  237MPD1    H2 3601   0.392   1.330  15.654  0.9966  0.5476 -2.0455
  237MPD1    H3 3602   0.263   1.457  15.816 -0.5795 -1.7558  1.3331
  237MPD1     N 3603   4.616   1.443  15.559 -0.6901 -0.0093 -0.3730
  237MPD1    H5 3604   4.577   1.505  15.630 -2.1093 -1.3710  0.0294
  237MPD1    N1 3605   0.303   1.221  15.417  0.0202 -0.4386 -0.0148
  237MPD1    H6 3606   0.402   1.244  15.412 -0.0321  0.0667  1.3504
  237MPD1    H7 3607   0.267   1.235  15.323 -1.2269 -0.3916  0.4729
  238MPD1     C 3608   1.479   0.291  15.474  0.3671 -0.4954 -0.3412
  238MPD1    C1 3609   1.517   0.198  15.379 -0.0078  0.1426 -0.7554
  238MPD1    C2 3610   1.424   0.166  15.286 -1.0093 -0.1013 -0.1870
  238MPD1    C3 3611   1.288   0.195  15.304 -0.5562  0.2646  0.4047
  238MPD1    C4 3612   1.255   0.267  15.414  0.5479 -0.7480  0.1875
  238MPD1    C5 3613   1.343   0.309  15.500 -0.7632  0.1806 -0.4480
  238MPD1     H 3614   1.456   0.080  15.229  0.9426  1.1403 -0.9803
  238MPD1    H1 3615   1.152   0.282  15.442  0.6202 -0.0941  0.1003
  238MPD1    H2 3616   1.546   0.342  15.542 -0.6355 -0.6767  0.7852
  238MPD1    H3 3617   1.312   0.369  15.585  0.9318 -3.1164  2.5011
  238MPD1     N 3618   1.186   0.143  15.219 -0.4125 -0.0631 -0.2053
  238MPD1    H5 3619   1.092   0.182  15.226  0.1550  1.5133 -1.1970
  238MPD1    N1 3620   1.650   0.166  15.357 -0.0082  0.8392 -0.6986
  238MPD1    H6 3621   1.713   0.165  15.437 -0.7795 -0.1870 -0.1014
  238MPD1    H7 3622   1.649   0.071  15.321  0.0815  0.9375 -0.9655
  239MPD1     C 3623   1.692   1.114  14.805  0.0469 -0.0873 -0.1310
  239MPD1    C1 3624   1.727   1.058  14.689 -0.6877  0.1970  0.7021
  239MPD1    C2 3625   1.679   1.119  14.574 -0.1393  0.4437 -0.1215
  239MPD1    C3 3626   1.607   1.237  14.569  0.5319  0.9060 -0.9603
  239MPD1    C4 3627   1.559   1.277  14.697  0.4797 -0.4802  0.9446
  239MPD1    C5 3628   1.604   1.222  14.810 -0.8287 -0.9180  0.3076
  239MPD1     H 3629   1.723   1.077  14.484  1.9076 -1.1333  1.6060
  239MPD1    H1 3630   1.488   1.359  14.699 -1.5751 -2.2424  0.1472
  239MPD1    H2 3631   1.718   1.071  14.901  4.5456  1.9827 -0.4279
  239MPD1    H3 3632   1.563   1.263  14.901  0.3964  1.2521 -0.1310
  239MPD1     N 3633   1.557   1.298  14.450 -0.6083 -0.4774  0.2199
  239MPD1    H5 3634   1.487   1.370  14.461  1.7872  1.8388  0.1957
  239MPD1    N1 3635   1.804   0.944  14.694  0.0363 -0.5066  0.2890
  239MPD1    H6 3636   1.874   0.926  14.622  0.2160  1.0727  0.0597
  239MPD1    H7 3637   1.846   0.932  14.786  2.7902 -1.1557 -1.0587
  240MPD1     C 3638   0.160   0.852  13.413  0.7494  0.5551  0.2587
  240MPD1    C1 3639   0.152   0.795  13.541 -0.1788 -0.0282 -0.0854
  240MPD1    C2 3640   0.281   0.790  13.599  0.0932 -0.1242  0.4624
  240MPD1    C3 3641   0.405   0.827  13.538 -0.2251 -0.0863  0.7781
  240MPD1    C4 3642   0.401   0.872  13.411  0.4310  0.1463  0.2722
  240MPD1    C5 3643   0.277   0.879  13.351  0.6861 -1.2257 -0.1225
  240MPD1     H 3644   0.290   0.745  13.697  0.7842  0.8245  0.8242
  240MPD1    H1 3645   0.493   0.887  13.357  0.9388 -0.3021  1.0104
  240MPD1    H2 3646   0.065   0.874  13.365 -0.4530  2.5918  3.6184
  240MPD1    H3 3647   0.269   0.944  13.265  0.6492 -0.7812  0.2148
  240MPD1     N 3648   0.522   0.810  13.615 -0.2285 -0.5870 -1.1850
  240MPD1    H5 3649   0.519   0.758  13.701 -0.1037 -0.5394 -1.1522
  240MPD1    N1 3650   0.027   0.774  13.601 -0.8836 -0.5173  0.2013
  240MPD1    H6 3651   0.032   0.700  13.671  1.2726 -0.8511 -0.2839
  240MPD1    H7 3652   4.675   0.767  13.536 -0.7039 -2.3900  0.1659
  241MPD1     C 3653   1.253   0.665  12.991  0.6143  1.0500  0.2255
  241MPD1    C1 3654   1.246   0.548  13.069  0.7727 -0.5684  0.3935
  241MPD1    C2 3655   1.181   0.561  13.192 -0.2520  0.8401  0.0556
  241MPD1    C3 3656   1.142   0.687  13.249  0.9185 -0.8991 -0.0359
  241MPD1    C4 3657   1.154   0.798  13.169 -0.2578  0.6977 -0.5490
  241MPD1    C5 3658   1.206   0.779  13.041 -0.3693  0.1496  1.0097
  241MPD1     H 3659   1.172   0.476  13.260  0.0464  1.2065  0.5531
  241MPD1    H1 3660   1.120   0.896  13.199  1.3770  1.1091 -0.0552
  241MPD1    H2 3661   1.291   0.661  12.890  2.6633 -0.6846  1.0691
  241MPD1    H3 3662   1.221   0.855  12.965  0.2101  0.2761  1.2551
  241MPD1     N 3663   1.084   0.708  13.378 -0.1404  0.5190  0.1270
  241MPD1    H5 3664   1.058   0.804  13.396 -1.2578  0.6852 -2.2891
  241MPD1    N1 3665   1.282   0.427  13.010  0.2253 -0.5710 -0.4150
  241MPD1    H6 3666   1.282   0.359  13.086 -2.3739 -0.5205 -0.3918
  241MPD1    H7 3667   1.373   0.423  12.965  2.0435 -0.1359  3.2037
  242MPD1     C 3668   0.442   4.436  15.753 -0.0815  0.6290 -0.4970
  242MPD1    C1 3669   0.479   4.301  15.766  0.0680 -0.7127 -0.3910
  242MPD1    C2 3670   0.543   4.249  15.658  0.3096  0.5208 -0.3889
  242MPD1    C3 3671   0.546   4.312  15.534  0.2713 -0.2346  0.0003
  242MPD1    C4 3672   0.501   4.442  15.514  0.1046 -0.2581 -0.0916
  242MPD1    C5 3673   0.460   4.507  15.631  0.2570 -0.2637  0.1586
  242MPD1     H 3674   0.585   4.149  15.663 -0.1665  0.4336  1.5188
  242MPD1    H1 3675   0.507   4.494  15.419  1.7231  0.8165  0.6030
  242MPD1    H2 3676   0.399   4.491  15.836 -1.8398 -0.2338 -0.8429
  242MPD1    H3 3677   0.426   4.609  15.613 -1.5028 -1.3153 -2.4292
  242MPD1     N 3678   0.594   4.238  15.423 -0.0667  0.2841 -0.3980
  242MPD1    H5 3679   0.639   4.148  15.440 -1.0132  0.3935  2.7372
  242MPD1    N1 3680   0.487   4.243  15.895  0.1309  0.2103 -0.3292
  242MPD1    H6 3681   0.411   4.280  15.952 -0.9556  1.3713 -2.5514
  242MPD1    H7 3682   0.475   4.142  15.898  0.8340  0.1239 -0.5150
  243MPD1     C 3683   1.841   1.459   0.262 -0.2094 -0.1173 -0.0878
  243MPD1    C1 3684   1.757   1.458   0.146  0.4263 -0.0657  0.5224
  243MPD1    C2 3685   1.752   1.585   0.076 -0.0134  0.2536 -0.4531
  243MPD1    C3 3686   1.799   1.703   0.132 -0.3818  0.2605  0.5919
  243MPD1    C4 3687   1.872   1.690   0.254 -0.0191 -0.1830 -0.7568
  243MPD1    C5 3688   1.894   1.570   0.318  0.1229 -0.2445  0.3028
  243MPD1     H 3689   1.684   1.595  17.697 -0.3008 -0.6470 -0.3275
  243MPD1    H1 3690   1.924   1.777   0.293 -0.1530 -0.5611  0.2656
  243MPD1    H2 3691   1.858   1.365   0.314  0.4391  0.6141  1.0237
  243MPD1    H3 3692   1.951   1.568   0.411  1.4016 -0.0719 -0.4706
  243MPD1     N 3693   1.771   1.828   0.073 -0.2413 -0.6031  0.1954
  243MPD1    H5 3694   1.708   1.825  17.698  0.1431  3.5153 -0.2634
  243MPD1    N1 3695   1.694   1.341   0.099  0.1985  0.2994  0.5727
  243MPD1    H6 3696   1.703   1.260   0.161  1.5075  0.2167  0.2783
  243MPD1    H7 3697   1.616   1.333   0.035  0.1978  3.4559  0.1905
  244MPD1     C 3698   1.315   2.627   0.448  0.1983  1.2950 -0.5458
  244MPD1    C1 3699   1.359   2.509   0.502  0.0206  0.1558  0.5694
  244MPD1    C2 3700   1.463   2.437   0.437 -0.3484 -0.3125 -0.4700
  244MPD1    C3 3701   1.486   2.461   0.301  0.1808  0.5827  0.5136
  244MPD1    C4 3702   1.423   2.574   0.246  0.1020  0.4979  0.0737
  244MPD1    C5 3703   1.345   2.658   0.318  0.0927 -0.6637 -0.8192
  244MPD1     H 3704   1.512   2.346   0.470 -0.5062  0.2191  1.2477
  244MPD1    H1 3705   1.451   2.601   0.145 -1.8480  1.7768 -0.1238
  244MPD1    H2 3706   1.251   2.694   0.505  0.0290  1.5276 -1.0110
  244MPD1    H3 3707   1.313   2.751   0.272  0.2926  0.6150  1.6197
  244MPD1     N 3708   1.569   2.372   0.228 -0.4610  0.6679  0.0657
  244MPD1    H5 3709   1.612   2.295   0.280  0.1096  0.9477  0.0093
  244MPD1    N1 3710   1.328   2.484   0.637  0.2339  0.4102  0.0431
  244MPD1    H6 3711   1.230   2.499   0.661 -0.4381 -1.6133 -1.4671
  244MPD1    H7 3712   1.345   2.387   0.664 -1.1340  0.7276  2.0532
  245MPD1     C 3713   4.265   3.408  12.483 -0.1234 -0.0921 -0.1675
  245MPD1    C1 3714   4.285   3.543  12.506 -0.0201  0.4664 -0.1585
  245MPD1    C2 3715   4.268   3.584  12.646  0.6154  0.1674 -0.0879
  245MPD1    C3 3716   4.283   3.490  12.744  0.1926  0.2135  1.0513
  245MPD1    C4 3717   4.287   3.358  12.711 -0.4508 -0.5092 -0.0279
  245MPD1    C5 3718   4.272   3.311  12.583  0.4460 -0.3477  0.3105
  245MPD1     H 3719   4.273   3.690  12.666  1.8852  0.2446 -0.8304
  245MPD1    H1 3720   4.288   3.280  12.786  0.7055 -0.1484  0.3283
  245MPD1    H2 3721   4.257   3.361  12.386  0.3944 -0.2347 -0.1389
  245MPD1    H3 3722   4.271   3.206  12.557  0.6883 -0.1966 -0.3177
  245MPD1     N 3723   4.286   3.544  12.868 -0.2711 -0.3864  0.3815
  245MPD1    H5 3724   4.270   3.644  12.866 -1.4528 -0.5733  0.3662
  245MPD1    N1 3725   4.255   3.636  12.406  0.1000  0.0596 -0.2231
  245MPD1    H6 3726   4.296   3.624  12.313 -3.0574 -1.0027 -1.4667
  245MPD1    H7 3727   4.294   3.724  12.441  1.4848 -0.6361 -0.0325
  246MPD1     C 3728   4.128   2.056   9.333 -0.7371  0.4724 -0.1010
  246MPD1    C1 3729   4.213   2.107   9.428 -0.3249  0.4935 -0.6857
  246MPD1    C2 3730   4.317   2.187   9.381 -0.2901  0.2846  0.0300
  246MPD1    C3 3731   4.332   2.213   9.242 -0.4483  0.0072  0.0762
  246MPD1    C4 3732   4.242   2.160   9.158  0.0557 -0.7594 -0.1900
  246MPD1    C5 3733   4.146   2.073   9.198  0.0253  0.4338 -0.1091
  246MPD1     H 3734   4.372   2.246   9.453  2.1830 -0.8011 -0.9450
  246MPD1    H1 3735   4.257   2.164   9.051  0.0167 -0.0709 -0.1737
  246MPD1    H2 3736   4.045   1.991   9.361 -0.3122  0.3320  0.8074
  246MPD1    H3 3737   4.064   2.041   9.134 -2.3019  2.2812  1.9383
  246MPD1     N 3738   4.431   2.293   9.187 -0.2091  0.2554  0.3245
  246MPD1    H5 3739   4.432   2.292   9.086  1.1914  2.3398  0.3098
  246MPD1    N1 3740   4.170   2.124   9.557 -0.3473  0.2605 -0.0427
  246MPD1    H6 3741   4.248   2.159   9.612 -2.6969  2.6512  1.8464
  246MPD1    H7 3742   4.126   2.041   9.595 -0.3792 -0.7955 -2.4034
  247MPD1     C 3743   3.593   2.663  16.626 -0.0682  0.7912  0.3888
  247MPD1    C1 3744   3.495   2.731  16.558  0.6218 -0.3785  0.1756
  247MPD1    C2 3745   3.509   2.869  16.541  0.0628  0.5650  0.0611
  247MPD1    C3 3746   3.624   2.937  16.585 -0.4176 -0.1338 -0.4474
  247MPD1    C4 3747   3.723   2.867  16.646 -0.6598 -0.5618  0.0092
  247MPD1    C5 3748   3.703   2.730  16.665  0.0349 -0.1956  0.6930
  247MPD1     H 3749   3.431   2.927  16.493  0.7186  1.0791 -0.3897
  247MPD1    H1 3750   3.816   2.919  16.667 -0.6243  0.1265 -1.8179
  247MPD1    H2 3751   3.591   2.557  16.650  0.0606  1.0106  1.3424
  247MPD1    H3 3752   3.779   2.668  16.713  2.1245  0.8481 -1.2988
  247MPD1     N 3753   3.647   3.077  16.583 -0.4161 -0.2158  0.3743
  247MPD1    H5 3754   3.737   3.114  16.610 -1.0418  0.1277  1.9921
  247MPD1    N1 3755   3.376   2.668  16.516 -0.5849 -0.1085 -0.1217
  247MPD1    H6 3756   3.333   2.704  16.430 -0.5494 -1.3650 -0.6592
  247MPD1    H7 3757   3.364   2.567  16.523  0.0712 -0.0544  1.5451
  248MPD1     C 3758   3.925   3.129   1.182  0.2257 -0.2165 -0.2302
  248MPD1    C1 3759   3.853   3.212   1.267  0.4628 -0.2148  0.0635
  248MPD1    C2 3760   3.725   3.258   1.236  0.1441 -0.1446  0.1995
  248MPD1    C3 3761   3.664   3.221   1.113 -0.0882 -0.4524 -0.6875
  248MPD1    C4 3762   3.723   3.116   1.046  0.2862 -0.1591 -0.3820
  248MPD1    C5 3763   3.847   3.070   1.083  0.5461  0.5817  0.3143
  248MPD1     H 3764   3.681   3.335   1.298 -2.3744 -1.3524 -0.0671
  248MPD1    H1 3765   3.687   3.078   0.951 -0.5736 -1.0589  0.2996
  248MPD1    H2 3766   4.019   3.085   1.210 -1.4530 -3.4189  0.3166
  248MPD1    H3 3767   3.883   2.988   1.021 -0.7130  0.4466 -0.2475
  248MPD1     N 3768   3.548   3.297   1.084  0.3316 -0.5468 -0.3111
  248MPD1    H5 3769   3.531   3.373   1.149  2.9638 -1.1889  1.1373
  248MPD1    N1 3770   3.911   3.256   1.390  0.3713 -0.5327 -0.5897
  248MPD1    H6 3771   3.974   3.182   1.421 -0.9787 -0.4520  2.2834
  248MPD1    H7 3772   3.843   3.280   1.461 -0.6275 -1.0376 -1.3792
  249MPD1     C 3773   1.229   0.979   9.136  0.4080 -0.1681 -0.0210
  249MPD1    C1 3774   1.325   0.923   9.213 -0.5681  0.7688 -0.6535
  249MPD1    C2 3775   1.380   0.999   9.317  0.4326  0.5892 -0.1995
  249MPD1    C3 3776   1.317   1.122   9.344 -0.6613 -0.0569  0.7774
  249MPD1    C4 3777   1.214   1.176   9.264 -0.0934  0.3321  0.5910
  249MPD1    C5 3778   1.174   1.102   9.160 -0.2123  0.8632 -0.5364
  249MPD1     H 3779   1.457   0.952   9.377 -1.6526 -1.5736  0.7648
  249MPD1    H1 3780   1.164   1.269   9.285 -0.3931  0.7407 -2.0173
  249MPD1    H2 3781   1.194   0.932   9.045  1.6397  1.0969 -1.1359
  249MPD1    H3 3782   1.099   1.136   9.091 -2.3943 -2.4596  0.2087
  249MPD1     N 3783   1.367   1.188   9.463 -0.0970 -0.1622  0.0781
  249MPD1    H5 3784   1.441   1.139   9.512  1.7501  2.5168  0.0229
  249MPD1    N1 3785   1.380   0.807   9.168  0.0175  0.5407  0.0032
  249MPD1    H6 3786   1.432   0.761   9.243 -2.6918  0.2572  1.6992
  249MPD1    H7 3787   1.306   0.749   9.128 -0.1262  0.2249  0.7203
  250MPD2     C 3788   2.005   1.706  13.246 -0.5215 -0.0223 -0.7868
  250MPD2    C1 3789   2.015   1.733  13.106 -0.5111  0.2319 -0.3164
  250MPD2    C2 3790   1.930   1.688  13.011  0.1037 -0.0639  0.5097
  250MPD2    C3 3791   1.843   1.587  13.051 -0.5329 -0.6714 -0.6583
  250MPD2    C4 3792   1.827   1.555  13.187  0.1217  0.6266 -0.1527
  250MPD2    C5 3793   1.900   1.616  13.286  0.0811 -0.0240  0.9943
  250MPD2     H 3794   1.951   1.711  12.907 -3.4479 -0.2779 -0.2473
  250MPD2    H1 3795   1.759   1.478  13.221  3.1522 -1.5067  1.0549
  250MPD2    H2 3796   2.057   1.745  13.332  0.8763 -1.8848 -0.7936
  250MPD2    H3 3797   1.884   1.596  13.392  0.1282 -1.9250  0.6330
  250MPD2     N 3798   1.777   1.505  12.953 -0.1991  0.1140 -0.7220
  250MPD2    H5 3799   1.715   1.431  12.985  1.1998 -0.5149  0.5287
  250MPD2    N1 3800   2.127   1.811  13.063  0.2645 -0.8122 -0.2623
  250MPD2    H7 3801   2.204   1.820  13.129 -0.3404  0.7911  0.2146
  251TMC3    C1 3802   2.271   1.938  12.922 -0.3555  0.1363 -1.0247
  251TMC3    C2 3803   2.278   2.051  12.842  0.8935  0.5216 -0.0059
  251TMC3    C3 3804   2.399   2.103  12.800 -0.4722 -0.2420  0.7085
  251TMC3    C4 3805   2.380   1.859  12.937 -0.0473 -0.2202 -0.4331
  251TMC3    C5 3806   2.492   1.897  12.873  0.1716  0.0611  0.4613
  251TMC3    C6 3807   2.512   2.020  12.815 -0.1130  0.0648 -0.2430
  251TMC3     C 3808   2.137   1.876  12.942 -0.0552  0.9032  0.6637
  251TMC3     O 3809   2.056   1.909  12.856  0.1099  0.4539  0.4884
  251TMC3     H 3810   2.186   2.107  12.833  0.9451  0.5881 -0.1202
  251TMC3    H1 3811   2.379   1.765  12.990 -0.7754  0.6871  1.1626
  251TMC3    H2 3812   2.592   2.046  12.746  1.0875  1.8030  1.7883
  251TMC3    C7 3813   2.597   1.798  12.871 -0.7626 -0.3044 -0.4527
  251TMC3    C8 3814   2.414   2.238  12.848 -0.2112  0.5462  0.3148
  251TMC3    O1 3815   2.568   1.680  12.886  0.1716 -0.3822 -0.1978
  251TMC3    O2 3816   2.326   2.321  12.825 -0.3366 -0.1278  0.1048
  252TMC3    C1 3817   3.017   2.662   9.457  0.6423 -0.4892 -0.0828
  252TMC3    C2 3818   3.085   2.633   9.342 -0.6799  0.3610 -0.4473
  252TMC3    C3 3819   3.177   2.527   9.345  0.4321  0.3362  0.0143
  252TMC3    C4 3820   3.030   2.593   9.571 -0.0185 -0.2165  0.5642
  252TMC3    C5 3821   3.119   2.487   9.573  0.1431  1.7263  0.1468
  252TMC3    C6 3822   3.195   2.462   9.462 -0.3714  0.3904  0.2540
  252TMC3     C 3823   2.938   2.780   9.455  0.3720 -1.1570 -0.0936
  252TMC3     O 3824   2.894   2.812   9.563 -0.5456 -0.9612 -0.4473
  252TMC3     H 3825   3.088   2.705   9.262 -0.4502  1.3013  0.4063
  252TMC3    H1 3826   2.962   2.612   9.653 -0.6685  0.8736 -0.2366
  252TMC3    H2 3827   3.234   2.362   9.447  1.6685  0.9955  1.5875
  252TMC3    C7 3828   3.103   2.381   9.671  0.4211  0.1921  0.2493
  252TMC3    C8 3829   3.286   2.536   9.250  0.1431 -0.2210  0.3685
  252TMC3    O1 3830   3.000   2.391   9.734  0.2840 -0.0948 -0.0598
  252TMC3    O2 3831   3.282   2.601   9.145  0.3741  0.3119  0.1462
  253MPD2     C 3832   3.715   1.735  15.164 -0.8781  0.3114 -0.2461
  253MPD2    C1 3833   3.580   1.727  15.173 -0.2203 -0.6196 -0.1503
  253MPD2    C2 3834   3.525   1.762  15.293  0.3875  0.5585 -0.1433
  253MPD2    C3 3835   3.604   1.787  15.404  0.3050  0.4985  0.0218
  253MPD2    C4 3836   3.742   1.793  15.394  0.3048  0.2701  0.0477
  253MPD2    C5 3837   3.792   1.768  15.272  0.5199  0.0973  0.0740
  253MPD2     H 3838   3.417   1.761  15.294  0.3707  0.2933 -1.7236
  253MPD2    H1 3839   3.807   1.828  15.474 -0.2569  1.6388 -0.1002
  253MPD2    H2 3840   3.761   1.741  15.067 -0.4675  1.4778  0.0247
  253MPD2    H3 3841   3.892   1.805  15.251 -0.7146  2.0318 -2.3337
  253MPD2     N 3842   3.544   1.827  15.528 -0.5597 -0.6420  0.7608
  253MPD2    H5 3843   3.604   1.868  15.599  0.7958 -1.3516  0.0366
  253MPD2    N1 3844   3.488   1.718  15.062 -0.1228 -0.2571  0.3558
  253MPD2    H7 3845   3.391   1.696  15.079 -0.2128  0.9259  1.3822
  254TMC3    C1 3846   3.382   1.922  15.663 -0.7419 -0.1238  0.1878
  254TMC3    C2 3847   3.279   2.003  15.633 -0.0675  0.0470  0.1601
  254TMC3    C3 3848   3.200   2.045  15.741 -0.0857  0.1186 -0.0920
  254TMC3    C4 3849   3.427   1.895  15.790  0.2613 -0.2540  0.1820
  254TMC3    C5 3850   3.347   1.941  15.896  0.0809 -0.0470  0.2667
  254TMC3    C6 3851   3.236   2.024  15.874 -0.1193  0.8768  0.1258
  254TMC3     C 3852   3.413   1.841  15.549  0.0862  0.2660  0.6053
  254TMC3     O 3853   3.315   1.799  15.490 -0.1064  0.1428  0.3280
  254TMC3     H 3854   3.238   2.005  15.533  0.7635 -1.7778 -0.2219
  254TMC3    H1 3855   3.507   1.826  15.814  0.7193  0.2476  0.0992
  254TMC3    H2 3856   3.181   2.054  15.962 -1.6221  1.9157 -1.1871
  254TMC3    C7 3857   3.412   1.974  16.015  0.2582  0.0111 -0.1608
  254TMC3    C8 3858   3.105   2.155  15.712  1.0115 -0.7003 -0.3273
  254TMC3    O1 3859   3.454   1.878  16.084  0.0493  0.3970 -0.1552
  254TMC3    O2 3860   3.120   2.229  15.617  0.7358  0.0714  0.8070
  255MPD2     C 3861   2.704   3.264  10.378  0.5920  0.7329  0.2840
  255MPD2    C1 3862   2.840   3.290  10.371 -0.0995 -0.6421  0.3582
  255MPD2    C2 3863   2.933   3.189  10.336  0.3973 -0.2450 -0.2264
  255MPD2    C3 3864   2.885   3.064  10.300 -0.8771  0.2277  0.1405
  255MPD2    C4 3865   2.747   3.044  10.312 -0.7829  0.1155 -0.8455
  255MPD2    C5 3866   2.658   3.141  10.359  0.8685  0.2279 -0.2739
  255MPD2     H 3867   3.040   3.205  10.337  0.5152 -0.8723 -3.1657
  255MPD2    H1 3868   2.719   2.944  10.283  0.9038 -0.8341  0.8625
  255MPD2    H2 3869   2.633   3.346  10.389 -1.4070 -1.2108  2.0548
  255MPD2    H3 3870   2.554   3.110  10.363  1.3020 -1.2868 -0.4236
  255MPD2     N 3871   2.965   2.959  10.268  0.1240  0.1587 -0.5358
  255MPD2    H5 3872   2.911   2.873  10.259 -1.8374  1.5477 -2.2059
  255MPD2    N1 3873   2.878   3.423  10.388 -0.1646 -0.0476 -0.8336
  255MPD2    H7 3874   2.808   3.493  10.411  2.2383  1.5710  1.4888
  256TMC3    C1 3875   3.005   3.617  10.367  0.7305  0.6348  0.6250
  256TMC3    C2 3876   3.122   3.659  10.302 -0.0973  0.2279 -0.6185
  256TMC3    C3 3877   3.127   3.779  10.237  0.0981  0.3764  0.4869
  256TMC3    C4 3878   2.888   3.685  10.347  0.1772  0.8449 -0.3788
  256TMC3    C5 3879   2.893   3.799  10.258 -0.7185  0.5432  0.2578
  256TMC3    C6 3880   3.010   3.847  10.201 -0.7001  0.6912  0.5038
  256TMC3     C 3881   3.007   3.471  10.390  0.3878  0.1974  0.3024
  256TMC3     O 3882   3.114   3.414  10.398 -0.1628  0.1364 -0.6974
  256TMC3     H 3883   3.208   3.592  10.297 -0.5275 -0.2507 -1.5189
  256TMC3    H1 3884   2.799   3.666  10.405  1.1379  0.0511  0.8172
  256TMC3    H2 3885   3.017   3.934  10.137  0.0682 -2.0877 -3.2076
  256TMC3    C7 3886   2.778   3.878  10.237  0.0990  0.0122  0.1143
  256TMC3    C8 3887   3.240   3.810  10.147 -1.2005  0.1732 -0.4074
  256TMC3    O1 3888   2.671   3.815  10.232 -0.2234 -0.5611  0.1794
  256TMC3    O2 3889   3.319   3.725  10.105  0.1025 -0.0353  0.4653
  257MPD2     C 3890   1.440   2.119  13.227  0.1129 -0.2823 -0.6129
  257MPD2    C1 3891   1.320   2.072  13.172 -0.3768  0.1952 -0.3423
  257MPD2    C2 3892   1.245   1.971  13.232  0.2767 -0.7318 -0.7170
  257MPD2    C3 3893   1.294   1.925  13.361 -0.0414  0.0251  0.3278
  257MPD2    C4 3894   1.409   1.974  13.414 -0.3879 -0.1215  0.0692
  257MPD2    C5 3895   1.477   2.067  13.350 -0.2395 -0.6685  0.4115
  257MPD2     H 3896   1.159   1.920  13.190 -0.7304  1.3332 -1.1389
  257MPD2    H1 3897   1.446   1.942  13.510 -0.1808  0.1332  0.0754
  257MPD2    H2 3898   1.505   2.188  13.175  0.5538 -0.2233  0.0332
  257MPD2    H3 3899   1.570   2.098  13.397  0.6807 -1.0222 -1.1470
  257MPD2     N 3900   1.218   1.823  13.417  0.1057  0.1527 -0.1235
  257MPD2    H5 3901   1.144   1.783  13.360 -1.2806  0.7323  1.2976
  257MPD2    N1 3902   1.284   2.131  13.053  0.0234 -0.1535  0.6379
  257MPD2    H7 3903   1.348   2.197  13.011 -0.5760  1.2976  1.9978
  258TMC3    C1 3904   1.161   1.643  13.553  0.1268 -0.6605  0.0538
  258TMC3    C2 3905   1.163   1.551  13.451 -0.2901  0.5573 -0.1038
  258TMC3    C3 3906   1.134   1.419  13.473  0.0467 -0.1557  0.6637
  258TMC3    C4 3907   1.117   1.605  13.679 -0.1499  0.2397  0.7199
  258TMC3    C5 3908   1.074   1.474  13.689 -0.0876  0.2935 -0.0625
  258TMC3    C6 3909   1.089   1.378  13.591 -0.1549 -0.4119  0.5497
  258TMC3     C 3910   1.241   1.767  13.544 -0.1210 -0.0975 -0.1949
  258TMC3     O 3911   1.326   1.791  13.630 -1.0559 -0.5279  0.0177
  258TMC3     H 3912   1.218   1.579  13.362  0.7122 -2.3560 -0.4066
  258TMC3    H1 3913   1.129   1.673  13.763 -2.5298 -0.6277  1.7672
  258TMC3    H2 3914   1.065   1.273  13.599  1.0229 -0.8239 -1.1623
  258TMC3    C7 3915   1.038   1.441  13.828  0.0942  0.4467 -0.0623
  258TMC3    C8 3916   1.147   1.322  13.367  0.1295 -0.0635 -0.2195
  258TMC3    O1 3917   0.952   1.509  13.887  0.4657 -0.3790 -0.2033
  258TMC3    O2 3918   1.164   1.209  13.398  0.2761 -0.0297  0.3672
  259MPD2     C 3919   4.244   4.064   0.918 -0.1083 -0.4505 -0.2826
  259MPD2    C1 3920   4.293   3.991   1.018  0.0117 -0.1115 -0.2882
  259MPD2    C2 3921   4.433   3.969   1.032 -0.4917 -0.2422  0.0872
  259MPD2    C3 3922   4.507   4.019   0.926 -0.6633  0.2558  0.7899
  259MPD2    C4 3923   4.454   4.092   0.821 -0.7040  0.6921  0.2201
  259MPD2    C5 3924   4.322   4.127   0.826 -0.2618 -0.2147  0.3570
  259MPD2     H 3925   4.477   3.914   1.114  0.3815  0.1306 -0.1432
  259MPD2    H1 3926   4.508   4.136   0.738 -0.4111  0.4047  0.2565
  259MPD2    H2 3927   4.136   4.076   0.915  0.1798  2.0408 -0.3687
  259MPD2    H3 3928   4.276   4.164   0.735 -0.5790 -0.4050  0.4377
  259MPD2     N 3929   4.640   3.973   0.915 -0.6946  0.1624 -0.5595
  259MPD2    H5 3930   4.667   3.898   0.978 -3.6158  0.1580  0.7122
  259MPD2    N1 3931   4.196   3.931   1.104 -0.3462  0.9265 -0.0800
  259MPD2    H7 3932   4.100   3.950   1.081 -0.3054  0.0967 -0.9462
  260TMC3    C1 3933   0.115   3.905   0.823 -0.0324  0.2891 -0.2804
  260TMC3    C2 3934   0.240   3.955   0.797 -0.4585  0.2264 -0.6542
  260TMC3    C3 3935   0.347   3.868   0.786  0.3656 -0.1442  0.0539
  260TMC3    C4 3936   0.082   3.773   0.832 -0.1151  0.0357  0.4834
  260TMC3    C5 3937   0.190   3.693   0.824  0.5383  0.2102  0.1097
  260TMC3    C6 3938   0.323   3.737   0.816 -0.3228 -0.1062 -0.3822
  260TMC3     C 3939   0.002   4.000   0.815 -0.1022  0.5727  0.4333
  260TMC3     O 3940   0.010   4.098   0.741 -0.5155 -0.2257  0.1896
  260TMC3     H 3941   0.250   4.063   0.789 -1.7983  0.4264  0.4586
  260TMC3    H1 3942   4.705   3.742   0.823 -0.1246  0.5278 -1.2476
  260TMC3    H2 3943   0.396   3.662   0.788  0.8939  1.2682 -0.8818
  260TMC3    C7 3944   0.176   3.548   0.835  0.0711  0.6733 -0.6482
  260TMC3    C8 3945   0.479   3.928   0.819  0.1916  0.0742  0.4786
  260TMC3    O1 3946   0.271   3.481   0.797  0.7291  0.2940  0.1773
  260TMC3    O2 3947   0.474   4.053   0.826 -0.2285 -0.0956  0.0679
  261MPD2     C 3948   2.014   1.190  12.204  0.0429 -0.1131 -0.1661
  261MPD2    C1 3949   1.957   1.304  12.248  0.2826 -0.1333 -0.5531
  261MPD2    C2 3950   1.970   1.419  12.165 -0.7705  0.6804 -0.2264
  261MPD2    C3 3951   2.042   1.416  12.046  0.3130  0.8554 -0.3286
  261MPD2    C4 3952   2.111   1.301  12.018 -0.0346  0.0342 -0.9639
  261MPD2    C5 3953   2.096   1.187  12.097 -0.1379 -0.2488 -0.0750
  261MPD2     H 3954   1.917   1.511  12.187 -0.3902  1.7782 -3.8928
  261MPD2    H1 3955   2.172   1.284  11.930  1.2299 -0.5335  0.0121
  261MPD2    H2 3956   1.989   1.096  12.251  1.7905 -0.7795 -0.5462
  261MPD2    H3 3957   2.142   1.095  12.062 -0.9390 -1.1053  1.1402
  261MPD2     N 3958   2.061   1.535  11.973 -0.4377  0.0321 -0.1294
  261MPD2    H5 3959   2.000   1.611  12.000 -1.1965 -1.2307  1.7571
  261MPD2    N1 3960   1.870   1.313  12.362 -0.5069  0.3150 -0.2972
  261MPD2    H7 3961   1.819   1.401  12.359 -0.0785  0.5195 -1.2765
  262TMC3    C1 3962   2.171   1.684  11.833 -0.5278  0.0717  0.4623
  262TMC3    C2 3963   2.067   1.764  11.830  0.0210 -0.0809  0.1160
  262TMC3    C3 3964   2.079   1.876  11.753 -0.0724 -0.3083 -0.4238
  262TMC3    C4 3965   2.288   1.711  11.756 -0.3466 -0.8030 -0.3619
  262TMC3    C5 3966   2.288   1.824  11.675 -0.0323 -0.2916 -0.5285
  262TMC3    C6 3967   2.185   1.905  11.678  0.3764  0.1859 -0.1798
  262TMC3     C 3968   2.152   1.551  11.869 -0.6154  0.5366  0.0835
  262TMC3     O 3969   2.230   1.469  11.818  0.3177  0.0997 -0.4515
  262TMC3     H 3970   1.977   1.733  11.882 -0.0163  0.3493  0.3024
  262TMC3    H1 3971   2.365   1.636  11.740  0.7363  0.1108  0.5841
  262TMC3    H2 3972   2.172   1.976  11.597 -0.3981  0.2967  0.0458
  262TMC3    C7 3973   2.394   1.834  11.575 -0.3301  0.2857  0.0741
  262TMC3    C8 3974   1.966   1.964  11.757 -0.0268  0.4422  0.6902
  262TMC3    O1 3975   2.460   1.738  11.548  0.0891  0.0444 -0.7014
  262TMC3    O2 3976   1.871   1.932  11.833 -0.6878  0.0359  0.7425
  263MPD2     C 3977   3.398   0.142  11.141  0.2704  0.1042 -0.0238
  263MPD2    C1 3978   3.397   0.274  11.190  0.7108  0.3019 -0.1865
  263MPD2    C2 3979   3.426   0.379  11.111  0.3325  0.6479  0.0584
  263MPD2    C3 3980   3.473   0.360  10.985 -0.0575 -1.2068 -0.2939
  263MPD2    C4 3981   3.480   0.229  10.926  0.7133  0.8944 -0.3396
  263MPD2    C5 3982   3.432   0.127  11.007 -0.1113 -0.0526  0.1883
  263MPD2     H 3983   3.417   0.474  11.162 -1.6919  1.1400 -1.2359
  263MPD2    H1 3984   3.503   0.208  10.822 -4.7632 -0.5019 -1.2828
  263MPD2    H2 3985   3.359   0.054  11.189 -1.6793  1.9593  1.7811
  263MPD2    H3 3986   3.432   0.023  10.975 -2.4463 -0.4359  1.4254
  263MPD2     N 3987   3.516   0.470  10.913  0.1670 -0.1439  0.2390
  263MPD2    H5 3988   3.518   0.556  10.967  0.7954 -0.0503  0.0688
  263MPD2    N1 3989   3.365   0.278  11.328  0.3292 -0.6831 -0.0957
  263MPD2    H7 3990   3.350   0.188  11.373  0.9621 -0.7029  0.0731
  264TMC3    C1 3991   3.624   0.596  10.741 -0.1168 -0.3539 -0.0573
  264TMC3    C2 3992   3.559   0.713  10.777  0.3710  0.1718  0.2882
  264TMC3    C3 3993   3.594   0.824  10.708  0.3243 -0.4557 -0.0996
  264TMC3    C4 3994   3.720   0.586  10.637 -0.5342 -0.3548 -0.1045
  264TMC3    C5 3995   3.760   0.706  10.583 -0.1212 -0.1727  0.3135
  264TMC3    C6 3996   3.697   0.825  10.617 -0.2394  0.3622  0.7077
  264TMC3     C 3997   3.585   0.468  10.793 -0.0977  0.4322 -0.7449
  264TMC3     O 3998   3.624   0.376  10.721 -0.5462  0.5028  0.3822
  264TMC3     H 3999   3.474   0.711  10.844 -0.2243 -0.4688 -0.4963
  264TMC3    H1 4000   3.777   0.498  10.611 -0.4247 -0.9639  2.1837
  264TMC3    H2 4001   3.732   0.921  10.580  1.6822  0.1115  1.8560
  264TMC3    C7 4002   3.895   0.704  10.524 -0.2415  0.4601  0.7981
  264TMC3    C8 4003   3.554   0.954  10.756 -0.3686  0.3905  0.3739
  264TMC3    O1 4004   3.920   0.602  10.457  0.0484 -0.1632 -0.3637
  264TMC3    O2 4005   3.567   1.058  10.690  0.6867 -0.4205 -0.0687
  265MPD2     C 4006   0.661   1.455  15.617  0.1728  0.0054  0.0710
  265MPD2    C1 4007   0.576   1.511  15.519  0.0115 -0.0624 -0.2413
  265MPD2    C2 4008   0.604   1.467  15.388  1.7086  0.2006  0.0071
  265MPD2    C3 4009   0.693   1.362  15.364 -0.5587  0.3391  0.4279
  265MPD2    C4 4010   0.762   1.305  15.469 -0.2028 -0.0415  0.0891
  265MPD2    C5 4011   0.749   1.364  15.588 -0.6040 -0.4379  0.2106
  265MPD2     H 4012   0.547   1.511  15.306  0.4893 -1.6154 -0.1074
  265MPD2    H1 4013   0.833   1.224  15.455  1.5425  1.5071 -0.0591
  265MPD2    H2 4014   0.638   1.483  15.719 -1.6953 -1.1331 -0.0285
  265MPD2    H3 4015   0.806   1.326  15.672  1.1053  0.3588 -0.5951
  265MPD2     N 4016   0.710   1.314  15.232 -0.9236 -0.1521  0.3367
  265MPD2    H5 4017   0.781   1.242  15.222 -0.5521  0.6249 -2.5441
  265MPD2    N1 4018   0.487   1.614  15.546  0.2776 -0.0760  0.2948
  265MPD2    H7 4019   0.421   1.628  15.471  1.8709 -0.3085 -1.1581
  266TMC3    C1 4020   0.363   1.775  15.654 -0.6670  0.4745  0.4159
  266TMC3    C2 4021   0.293   1.814  15.761  0.2370 -0.3906  0.1069
  266TMC3    C3 4022   0.258   1.945  15.783  0.0915 -0.3975 -0.0019
  266TMC3    C4 4023   0.409   1.873  15.565 -0.1284 -0.3371  0.3178
  266TMC3    C5 4024   0.358   2.004  15.579 -0.0496  0.6558  0.5012
  266TMC3    C6 4025   0.278   2.043  15.688  0.5689  0.6704 -0.1883
  266TMC3     C 4026   0.445   1.662  15.669 -0.3716 -0.6620 -0.4355
  266TMC3     O 4027   0.468   1.619  15.782  0.7369  0.3184  0.3818
  266TMC3     H 4028   0.272   1.742  15.839 -0.8588 -0.3205 -0.1211
  266TMC3    H1 4029   0.460   1.864  15.469  1.6198  2.1870  1.0121
  266TMC3    H2 4030   0.252   2.147  15.703 -0.7434  0.2137  0.8082
  266TMC3    C7 4031   0.395   2.098  15.474  0.1660  0.5076  0.8486
  266TMC3    C8 4032   0.139   1.961  15.865 -0.3322  0.4651  0.4591
  266TMC3    O1 4033   0.400   2.065  15.357  0.8170  0.5248 -0.6269
  266TMC3    O2 4034   0.046   1.884  15.842 -0.5181 -1.0242  0.3604
  267MPD2     C 4035   2.355   2.989  17.280  1.1051 -1.2961  0.2328
  267MPD2    C1 4036   2.366   2.982  17.417 -0.0737  0.5035 -0.4252
  267MPD2    C2 4037   2.365   2.864  17.484 -0.6797 -0.1838 -0.3570
  267MPD2    C3 4038   2.351   2.747  17.413  0.1202 -0.6417  0.1223
  267MPD2    C4 4039   2.349   2.751  17.272  0.4984  0.5747 -1.3517
  267MPD2    C5 4040   2.357   2.875  17.208 -0.9654  0.6215  0.0892
  267MPD2     H 4041   2.375   2.869  17.592 -1.6225  0.4917 -0.3010
  267MPD2    H1 4042   2.343   2.668  17.203 -2.3914 -1.1183  0.9453
  267MPD2    H2 4043   2.353   3.082  17.224 -3.4457 -1.0750  0.7428
  267MPD2    H3 4044   2.352   2.876  17.100  1.0183 -1.7565 -0.0194
  267MPD2     N 4045   2.318   2.622  17.470  0.4987 -0.2371 -0.0846
  267MPD2    H5 4046   2.296   2.544  17.409 -0.1425 -0.6978  0.7414
  267MPD2    N1 4047   2.356   3.094  17.504  0.1642 -0.6267  0.2382
  267MPD2    H7 4048   2.360   3.073  17.603 -0.5917  1.0694  0.6277
  268TMC3    C1 4049   2.262   3.295  17.559 -0.2509  0.3559  0.0730
  268TMC3    C2 4050   2.261   3.426  17.543 -1.1903 -0.1271  0.0371
  268TMC3    C3 4051   2.208   3.503  17.641  0.3179 -0.0543 -0.3735
  268TMC3    C4 4052   2.229   3.240  17.683 -0.4149  0.0974  0.4507
  268TMC3    C5 4053   2.193   3.315   0.081  0.1222 -0.2766  0.2198
  268TMC3    C6 4054   2.185   3.452   0.067  0.4514 -0.9003  0.7203
  268TMC3     C 4055   2.338   3.217  17.465  0.2229  0.3241 -0.1705
  268TMC3     O 4056   2.379   3.269  17.363 -0.3125 -0.1648 -0.2973
  268TMC3     H 4057   2.279   3.466  17.444  2.4720  1.4275  1.3548
  268TMC3    H1 4058   2.216   3.133  17.676 -1.0372  0.2820 -1.2533
  268TMC3    H2 4059   2.159   3.518   0.149  0.4101  0.7607 -0.6205
  268TMC3    C7 4060   2.183   3.259   0.218  0.9975 -0.0682 -0.1824
  268TMC3    C8 4061   2.192   3.646  17.627 -0.1802  0.3940 -0.3984
  268TMC3    O1 4062   2.234   3.149   0.248 -0.1663  0.2279  0.1608
  268TMC3    O2 4063   2.111   3.687   0.005 -0.5891  0.0557 -0.4658
  269MPD2     C 4064   2.683   2.231  15.607 -0.0343  0.1759 -0.2013
  269MPD2    C1 4065   2.592   2.259  15.694 -0.2437 -0.1617 -0.2508
  269MPD2    C2 4066   2.538   2.383  15.692  0.1914 -0.9054  0.4064
  269MPD2    C3 4067   2.568   2.474  15.598 -0.3380 -0.1771  0.2684
  269MPD2    C4 4068   2.672   2.447  15.509  0.0089  0.4673  0.0400
  269MPD2    C5 4069   2.719   2.322  15.515 -1.0285  0.1414 -0.3716
  269MPD2     H 4070   2.452   2.414  15.749 -0.9275 -1.7070 -0.8354
  269MPD2    H1 4071   2.700   2.517  15.431  0.7553  2.2743  1.9139
  269MPD2    H2 4072   2.708   2.127  15.591 -2.0783  0.3953 -4.8170
  269MPD2    H3 4073   2.803   2.287  15.455 -1.4996  0.2181 -1.0826
  269MPD2     N 4074   2.516   2.602  15.606 -0.7493  0.7446  0.2092
  269MPD2    H5 4075   2.456   2.617  15.687  1.4128  3.7155  1.2458
  269MPD2    N1 4076   2.556   2.160  15.789 -0.7314 -0.7901 -0.2927
  269MPD2    H7 4077   2.610   2.076  15.778  1.2562  0.4441  0.1417
  270TMC3    C1 4078   2.409   2.037  15.922 -0.1090  0.2402  0.9540
  270TMC3    C2 4079   2.292   1.980  15.874  0.1140 -0.3827 -0.2068
  270TMC3    C3 4080   2.273   1.848  15.882  0.2121  0.0548 -0.1417
  270TMC3    C4 4081   2.512   1.958  15.975 -1.0858 -0.1710 -0.7876
  270TMC3    C5 4082   2.492   1.823  15.983  0.0945  0.3364  0.0072
  270TMC3    C6 4083   2.372   1.771  15.944 -0.0577 -0.0572 -0.0002
  270TMC3     C 4084   2.440   2.163  15.864  0.9280 -0.0225  0.8698
  270TMC3     O 4085   2.354   2.252  15.878 -0.5515 -0.0128  0.1645
  270TMC3     H 4086   2.207   2.045  15.857  0.5970  0.0484 -0.9423
  270TMC3    H1 4087   2.602   2.007  16.007 -1.2278  0.3443 -1.1752
  270TMC3    H2 4088   2.346   1.666  15.954 -0.3551 -0.0775 -1.0003
  270TMC3    C7 4089   2.608   1.741  16.006 -0.2972  0.1947 -0.4505
  270TMC3    C8 4090   2.239   1.776  15.766  0.4078  0.0636  0.0935
  270TMC3    O1 4091   2.721   1.790  16.026 -0.2077 -0.3566  0.0037
  270TMC3    O2 4092   2.322   1.692  15.724  0.1852 -0.6343  0.2657
  271MPD2     C 4093   1.753   1.667  13.940 -0.7787  0.1795  0.3330
  271MPD2    C1 4094   1.688   1.674  14.064  0.3309 -0.1858  0.2242
  271MPD2    C2 4095   1.567   1.737  14.061 -0.7168  0.1046  0.5044
  271MPD2    C3 4096   1.516   1.796  13.947 -0.3320 -0.7771 -0.0164
  271MPD2    C4 4097   1.586   1.801  13.830 -0.4579  0.3793 -0.1503
  271MPD2    C5 4098   1.700   1.729  13.832  0.2632  0.0932  0.2533
  271MPD2     H 4099   1.511   1.730  14.154  1.8169  0.7751  2.0776
  271MPD2    H1 4100   1.550   1.857  13.744  0.0431  0.2263 -0.4623
  271MPD2    H2 4101   1.841   1.607  13.918  0.7552  0.8614  4.4774
  271MPD2    H3 4102   1.764   1.741  13.746 -2.8105  2.3915 -1.7055
  271MPD2     N 4103   1.380   1.845  13.944 -0.0373  0.2246  0.1602
  271MPD2    H5 4104   1.348   1.874  13.852 -1.0440  0.4867  0.5904
  271MPD2    N1 4105   1.730   1.620  14.181  0.4559  0.3935 -0.0975
  271MPD2    H7 4106   1.657   1.628  14.250  0.9162  1.4238  0.2770
  272TMC3    C1 4107   1.853   1.486  14.343  0.5181  0.1504  0.3271
  272TMC3    C2 4108   1.938   1.381  14.366  0.3196  0.3682  0.3288
  272TMC3    C3 4109   1.980   1.352  14.493  0.0741 -0.0124 -0.1508
  272TMC3    C4 4110   1.803   1.557  14.452  0.1760  0.0527  0.3350
  272TMC3    C5 4111   1.848   1.521  14.579  0.3749 -0.2697  0.3291
  272TMC3    C6 4112   1.942   1.426  14.599 -1.0128 -0.0892  0.0113
  272TMC3     C 4113   1.836   1.535  14.206 -0.1885 -0.1891  0.3703
  272TMC3     O 4114   1.915   1.493  14.121 -0.3832 -0.6007  0.7796
  272TMC3     H 4115   1.986   1.334  14.281  0.6376  0.5808  0.3903
  272TMC3    H1 4116   1.729   1.634  14.435  1.1025  1.1380  1.1534
  272TMC3    H2 4117   1.978   1.407  14.700 -0.5938 -2.2055 -0.5295
  272TMC3    C7 4118   1.802   1.602  14.685 -0.1055  0.9504  0.8706
  272TMC3    C8 4119   2.090   1.264  14.508 -0.7301  0.4808  0.4194
  272TMC3    O1 4120   1.690   1.644  14.663  0.3547  0.1662 -0.1167
  272TMC3    O2 4121   2.138   1.228  14.401  0.4578 -0.0541  0.0101
  273MPD2     C 4122   3.917   4.649  11.985 -0.1531  0.7045  0.4259
  273MPD2    C1 4123   4.030   4.687  11.919 -0.2358  0.6627 -0.1007
  273MPD2    C2 4124   4.072   4.607  11.812  0.2209 -0.4158 -0.8980
  273MPD2    C3 4125   3.995   4.498  11.769  0.9043  0.2637  0.4422
  273MPD2    C4 4126   3.881   4.467  11.833 -0.2194  0.6372 -0.1516
  273MPD2    C5 4127   3.843   4.543  11.938  0.7907 -0.1259 -0.4291
  273MPD2     H 4128   4.160   4.632  11.754  0.6766  0.7930  0.3299
  273MPD2    H1 4129   3.816   4.384  11.808 -0.0057  0.4433 -0.0587
  273MPD2    H2 4130   3.880   4.708  12.067  0.9238  1.4540  0.3791
  273MPD2    H3 4131   3.741   4.535  11.973  0.2058 -1.3840 -2.4217
  273MPD2     N 4132   4.018   4.421  11.657 -0.1982 -0.7689 -0.6689
  273MPD2    H5 4133   3.943   4.360  11.625 -1.4676  1.6380 -2.2810
  273MPD2    N1 4134   4.085   0.082  11.966 -0.4544 -0.3647 -0.7437
  273MPD2    H7 4135   4.028   0.137  12.029 -0.5267  0.3235 -1.3984
  274TMC3    C1 4136   4.122   4.408  11.450 -0.9271  0.2728  0.1627
  274TMC3    C2 4137   4.009   4.347  11.399 -0.4687  0.6084 -0.0764
  274TMC3    C3 4138   3.975   4.395  11.279 -0.4124  0.3958  0.1220
  274TMC3    C4 4139   4.176   4.528  11.395 -0.2885 -0.7928  0.1032
  274TMC3    C5 4140   4.111   4.589  11.292  0.2696  0.7816 -0.2239
  274TMC3    C6 4141   4.026   4.509  11.223  0.4594 -0.1188  0.3187
  274TMC3     C 4142   4.138   4.415  11.593  0.3589  0.1294  0.0538
  274TMC3     O 4143   4.249   4.450  11.629 -0.1348  0.4130  0.1159
  274TMC3     H 4144   3.983   4.246  11.428 -0.7258  0.7775  0.2772
  274TMC3    H1 4145   4.252   4.579  11.454 -1.3690 -1.6741  2.2483
  274TMC3    H2 4146   3.972   4.553  11.139  1.6875 -1.1682 -1.0076
  274TMC3    C7 4147   4.062   4.717  11.331 -0.3869 -0.0681  0.1356
  274TMC3    C8 4148   3.881   4.313  11.202  0.3247 -0.3816 -0.1223
  274TMC3    O1 4149   3.949   0.025  11.300 -0.3658 -0.9168  0.1272
  274TMC3    O2 4150   3.801   4.252  11.268 -0.1604 -0.2717  0.0571
  275MPD2     C 4151   3.282   2.729  14.361 -0.5152 -0.6783  0.0539
  275MPD2    C1 4152   3.264   2.666  14.485  0.5404  0.1489  0.5003
  275MPD2    C2 4153   3.175   2.564  14.497  0.3408  0.1017 -0.4462
  275MPD2    C3 4154   3.110   2.519  14.384 -0.6697  0.4174 -0.1238
  275MPD2    C4 4155   3.137   2.575  14.259  0.3479 -0.2318 -0.0924
  275MPD2    C5 4156   3.220   2.683  14.249  0.4440  0.1606 -0.1083
  275MPD2     H 4157   3.160   2.532  14.600  0.2828 -1.5432 -0.9732
  275MPD2    H1 4158   3.087   2.535  14.171  1.5373  0.2078 -0.9756
  275MPD2    H2 4159   3.355   2.807  14.345 -0.0412 -2.0918 -4.8429
  275MPD2    H3 4160   3.236   2.730  14.153  2.9408 -2.2273 -0.8786
  275MPD2     N 4161   3.024   2.412  14.407 -0.7479  0.2293  0.1262
  275MPD2    H5 4162   3.016   2.395  14.507  0.4831  0.4883  0.2710
  275MPD2    N1 4163   3.323   2.699  14.606  0.7993 -0.4164 -0.4968
  275MPD2    H7 4164   3.298   2.643  14.687 -0.8478 -0.8303 -1.2985
  276TMC3    C1 4165   3.472   2.810  14.759  0.1396  0.7232 -0.0213
  276TMC3    C2 4166   3.452   2.713  14.853  0.1417  0.0353 -0.1312
  276TMC3    C3 4167   3.473   2.743  14.985  0.2727  0.4276  0.7276
  276TMC3    C4 4168   3.531   2.933  14.791  0.5907  0.6032 -0.7219
  276TMC3    C5 4169   3.545   2.958  14.925  0.4329  0.8063  0.8631
  276TMC3    C6 4170   3.523   2.865  15.019  0.3824  0.1135 -0.4428
  276TMC3     C 4171   3.414   2.804  14.625 -1.0034 -0.3508 -0.0524
  276TMC3     O 4172   3.461   2.888  14.543 -0.7261  0.0395 -0.4128
  276TMC3     H 4173   3.448   2.611  14.815 -0.8400  0.5893 -1.5066
  276TMC3    H1 4174   3.538   3.018  14.724 -4.4291  0.0805 -1.8642
  276TMC3    H2 4175   3.542   2.879  15.125 -0.0865 -1.1539 -0.1898
  276TMC3    C7 4176   3.640   3.062  14.967  0.1665 -0.0383 -0.1141
  276TMC3    C8 4177   3.496   2.633  15.070  0.7393 -0.1784  0.2201
  276TMC3    O1 4178   3.656   3.072  15.089  0.2186 -0.0206  0.4384
  276TMC3    O2 4179   3.570   2.648  15.163  0.3422 -0.4086  0.9869
  277MPD2     C 4180   0.282   1.648  13.675 -0.2896 -0.1410 -0.5040
  277MPD2    C1 4181   0.147   1.645  13.665  0.6926 -0.5259  0.5144
  277MPD2    C2 4182   0.073   1.569  13.752 -0.0875  0.1616 -0.1918
  277MPD2    C3 4183   0.135   1.470  13.822  0.0228 -0.0799 -0.1171
  277MPD2    C4 4184   0.273   1.476  13.833  0.9303  0.2879  0.6803
  277MPD2    C5 4185   0.348   1.565  13.763 -0.2281 -0.4968 -0.5797
  277MPD2     H 4186   4.690   1.567  13.749 -0.1912 -0.3353  3.6912
  277MPD2    H1 4187   0.333   1.415  13.900  1.8853  0.6125  0.1198
  277MPD2    H2 4188   0.343   1.693  13.598  2.2431  1.4239  2.3794
  277MPD2    H3 4189   0.455   1.575  13.776 -0.2748 -0.7736 -0.0150
  277MPD2     N 4190   0.056   1.368  13.880  0.3339  0.5643 -0.5518
  277MPD2    H5 4191   4.685   1.393  13.897  0.4807 -0.9470  2.4943
  277MPD2    N1 4192   0.083   1.720  13.563  0.3592 -0.2243  0.5107
  277MPD2    H7 4193   0.138   1.783  13.505  0.3811 -0.4053  0.3343
  278TMC3    C1 4194   0.011   1.185  14.020  0.0712 -1.4907 -0.4179
  278TMC3    C2 4195   4.719   1.049  14.000 -0.1191  0.9937 -0.5165
  278TMC3    C3 4196   4.635   0.985  14.080  0.1239  0.5224  0.0230
  278TMC3    C4 4197   4.661   1.255  14.117  0.0871 -0.3099 -0.0001
  278TMC3    C5 4198   4.568   1.188  14.189 -0.6804  0.5120 -0.9851
  278TMC3    C6 4199   4.555   1.055  14.170 -0.6831  0.5065  0.1842
  278TMC3     C 4200   0.108   1.252  13.937  0.2893  0.4420 -0.6123
  278TMC3     O 4201   0.199   1.190  13.878 -0.7296 -0.8089 -0.3854
  278TMC3     H 4202   0.054   0.989  13.933 -0.7443 -1.1521  0.8438
  278TMC3    H1 4203   4.685   1.357  14.144  2.0656 -0.5839 -0.7183
  278TMC3    H2 4204   4.488   1.001  14.235 -0.7081  0.8233  0.4184
  278TMC3    C7 4205   4.481   1.268  14.277 -0.6900  0.9199 -0.1925
  278TMC3    C8 4206   4.609   0.845  14.067 -0.3433 -0.0368 -0.1079
  278TMC3    O1 4207   4.526   1.372  14.323  0.3442 -0.7971  0.6588
  278TMC3    O2 4208   4.640   0.767  14.153 -0.0085  0.2938  0.0717
  279MPD2     C 4209   4.137   1.945   0.511  0.1678 -0.3669  0.6210
  279MPD2    C1 4210   4.055   2.051   0.517 -0.2275 -0.3039  0.1557
  279MPD2    C2 4211   4.046   2.138   0.410 -0.4733  0.1561  0.4203
  279MPD2    C3 4212   4.111   2.105   0.292  0.6278 -0.3498  0.7136
  279MPD2    C4 4213   4.202   2.002   0.293 -0.8146 -0.1509  0.3787
  279MPD2    C5 4214   4.215   1.916   0.399 -0.9138  0.2201  0.2002
  279MPD2     H 4215   3.989   2.230   0.408 -3.2936 -1.5218  4.3492
  279MPD2    H1 4216   4.257   1.980   0.203 -2.0556 -0.0738 -0.3915
  279MPD2    H2 4217   4.142   1.884   0.600  0.1402  0.7805  1.4058
  279MPD2    H3 4218   4.275   1.825   0.399  0.9324  1.4306  1.5507
  279MPD2     N 4219   4.084   2.182   0.178  0.0759 -0.3729  0.1470
  279MPD2    H5 4220   4.035   2.270   0.193  1.9492  0.8935 -1.0977
  279MPD2    N1 4221   3.997   2.084   0.642 -0.2125 -0.2408  0.1584
  279MPD2    H7 4222   4.046   2.045   0.722  1.3760 -0.4593 -0.9052
  280TMC3    C1 4223   3.781   2.193   0.583  0.2038 -0.2879  0.4794
  280TMC3    C2 4224   3.737   2.104   0.484  0.5216  0.5242 -0.5167
  280TMC3    C3 4225   3.652   2.150   0.385 -0.7536 -1.1136 -0.2198
  280TMC3    C4 4226   3.740   2.320   0.579  0.3539  0.1887  0.5274
  280TMC3    C5 4227   3.671   2.367   0.471  0.4153  0.2074 -0.5807
  280TMC3    C6 4228   3.624   2.283   0.372  0.5162  0.1733 -0.4721
  280TMC3     C 4229   3.900   2.178   0.670 -0.3223 -0.0906 -0.0874
  280TMC3     O 4230   3.882   2.235   0.777 -0.1054  0.5913  0.1432
  280TMC3     H 4231   3.756   1.998   0.496 -1.2220  0.7168  3.9106
  280TMC3    H1 4232   3.771   2.394   0.651  0.6608  0.9136 -0.3514
  280TMC3    H2 4233   3.569   2.320   0.286  1.3122 -0.7569 -1.3740
  280TMC3    C7 4234   3.675   2.515   0.449  0.1560 -0.8724 -0.3191
  280TMC3    C8 4235   3.602   2.062   0.284  0.0134  0.7123  1.0807
  280TMC3    O1 4236   3.747   2.587   0.515 -0.0227 -0.6435  0.8277
  280TMC3    O2 4237   3.558   2.113   0.177  0.0283 -0.4335 -0.0300
  281TMC3    C1 4238   2.612   1.363  13.077 -0.0434  0.2355 -0.7901
  281TMC3    C2 4239   2.715   1.413  13.003 -0.1258 -0.1601 -0.0659
  281TMC3    C3 4240   2.755   1.353  12.890  0.4699  0.4097  0.0030
  281TMC3    C4 4241   2.548   1.249  13.038 -0.2529  0.4442 -0.6972
  281TMC3    C5 4242   2.595   1.180  12.928  0.9231 -0.0429  0.0277
  281TMC3    C6 4243   2.692   1.235  12.851  0.1666 -0.5859  0.4519
  281TMC3     C 4244   2.531   1.438  13.173  0.3939  0.3508 -0.2546
  281TMC3     O 4245   2.479   1.378  13.264 -0.6049  0.1346 -0.2817
  281TMC3     H 4246   2.763   1.503  13.040 -1.2696  0.1001  0.7629
  281TMC3    H1 4247   2.454   1.214  13.080  0.0746  0.2105 -0.1545
  281TMC3    H2 4248   2.710   1.176  12.761  1.1112 -1.8552  1.4619
  281TMC3    C7 4249   2.598   1.030  12.934  0.2687  0.6916 -0.0810
  281TMC3    C8 4250   2.887   1.367  12.826  0.2175  0.4561  0.2649
  281TMC3    O1 4251   2.653   0.967  12.843 -0.6497 -0.6951  0.5022
  281TMC3    O2 4252   2.904   1.270  12.754  0.3455  0.3247  0.0731
  282MPD2     C 4253   0.432   3.173  15.030 -0.1612  0.0064  0.1248
  282MPD2    C1 4254   0.314   3.241  15.044  0.3159 -0.3479  0.4428
  282MPD2    C2 4255   0.223   3.259  14.942 -0.2807  0.4425 -0.2170
  282MPD2    C3 4256   0.254   3.206  14.815 -0.4795 -0.7095  0.3644
  282MPD2    C4 4257   0.370   3.130  14.804  0.4424  0.5191 -0.4106
  282MPD2    C5 4258   0.465   3.123  14.905 -0.0914 -0.3451 -0.7389
  282MPD2     H 4259   0.127   3.307  14.955  0.5657  1.1319  3.4031
  282MPD2    H1 4260   0.396   3.083  14.710 -2.9798  0.1729 -1.1855
  282MPD2    H2 4261   0.499   3.149  15.112  1.2365  0.1765 -0.9535
  282MPD2    H3 4262   0.557   3.068  14.887  1.2522  1.8013 -0.4767
  282MPD2     N 4263   0.158   3.220  14.712  0.0228 -0.1631 -0.1473
  282MPD2    H5 4264   0.077   3.277  14.736  1.4649  1.4480  0.8943
  282MPD2    N1 4265   0.258   3.278  15.168  0.2651  0.1472 -0.1114
  282MPD2    H7 4266   0.163   3.311  15.174  1.0717  2.4078  0.3320
  283TMC3    C1 4267   0.254   3.300  15.401 -0.4298  0.7447 -0.5317
  283TMC3    C2 4268   0.323   3.362  15.506  0.1822 -0.3256  0.2192
  283TMC3    C3 4269   0.241   3.404  15.611 -0.7027  0.3781 -0.0424
  283TMC3    C4 4270   0.120   3.271  15.408  0.2255  0.1198 -0.6415
  283TMC3    C5 4271   0.047   3.326  15.511  0.0127 -0.4068 -0.3451
  283TMC3    C6 4272   0.107   3.385  15.613 -0.2475 -0.2823 -0.0335
  283TMC3     C 4273   0.332   3.268  15.285 -0.2922  0.3466 -0.1407
  283TMC3     O 4274   0.454   3.263  15.301  0.6510 -0.8208 -0.3552
  283TMC3     H 4275   0.428   3.386  15.493  0.1823 -0.1645  0.5139
  283TMC3    H1 4276   0.070   3.214  15.332  0.3625  0.4588 -0.9879
  283TMC3    H2 4277   0.045   3.440  15.683 -0.8342  1.0565 -1.5838
  283TMC3    C7 4278   4.632   3.306  15.526  0.5739 -0.1742 -0.2869
  283TMC3    C8 4279   0.278   3.527  15.676  0.0165 -1.1414  0.0807
  283TMC3    O1 4280   4.580   3.340  15.631 -0.6051  0.2456  0.2320
  283TMC3    O2 4281   0.272   3.515  15.798  0.5446 -0.3430 -0.5425
  284MPD2     C 4282   3.004   1.916  11.216  0.3200  0.2059  0.2153
  284MPD2    C1 4283   3.133   1.946  11.202 -0.7490 -0.6333 -0.0258
  284MPD2    C2 4284   3.228   1.922  11.302  0.0819  0.2120 -0.3415
  284MPD2    C3 4285   3.191   1.862  11.423  0.3651 -0.1120 -0.1411
  284MPD2    C4 4286   3.057   1.842  11.437  0.2736 -0.5619  0.3344
  284MPD2    C5 4287   2.965   1.865  11.340 -0.3200 -0.0003 -0.3839
  284MPD2     H 4288   3.329   1.949  11.272 -0.8893  2.3242 -1.6703
  284MPD2    H1 4289   3.011   1.805  11.528 -1.0804 -0.1769 -0.1987
  284MPD2    H2 4290   2.930   1.932  11.138  0.9128  0.6757 -0.2551
  284MPD2    H3 4291   2.858   1.849  11.346 -0.1534 -1.4472 -1.3727
  284MPD2     N 4292   3.285   1.835  11.524 -0.2837 -0.3342  0.4207
  284MPD2    H5 4293   3.240   1.801  11.609  0.6577  2.1598  1.9283
  284MPD2    N1 4294   3.179   1.982  11.077 -0.1855 -0.3574 -0.2040
  284MPD2    H7 4295   3.278   1.966  11.061  0.0985  0.0017  1.1781
  285TMC3    C1 4296   3.186   2.119  10.885 -0.2776  0.1785 -0.3069
  285TMC3    C2 4297   3.297   2.054  10.840 -0.7026 -0.0266 -0.3506
  285TMC3    C3 4298   3.374   2.104  10.735 -0.3187  0.5943 -0.0018
  285TMC3    C4 4299   3.151   2.242  10.837 -0.3370  0.1271 -0.4386
  285TMC3    C5 4300   3.240   2.300  10.757 -0.5024 -0.2989 -0.0200
  285TMC3    C6 4301   3.347   2.231  10.690  0.1654 -0.7160  1.0982
  285TMC3     C 4302   3.112   2.068  10.999  0.1157  0.4014  0.1802
  285TMC3     O 4303   3.005   2.129  11.021  0.1085 -0.1714 -0.1656
  285TMC3     H 4304   3.336   1.968  10.892 -1.7257  0.1715  0.7348
  285TMC3    H1 4305   3.064   2.288  10.882 -1.5269 -0.9750 -1.6005
  285TMC3    H2 4306   3.415   2.289  10.630 -0.6067 -2.1599 -1.1575
  285TMC3    C7 4307   3.274   2.437  10.794  0.1817  0.5310 -0.6879
  285TMC3    C8 4308   3.496   2.033  10.711  0.2361  0.3804  1.0251
  285TMC3    O1 4309   3.392   2.475  10.783  0.1976  0.8497 -0.1840
  285TMC3    O2 4310   3.532   1.962  10.800 -0.2903  0.0292 -0.5363
  286MPD2     C 4311   3.082   1.948   1.580  0.3991 -0.0355 -0.2483
  286MPD2    C1 4312   3.062   1.902   1.455 -0.1371  0.3885  0.0964
  286MPD2    C2 4313   3.132   1.786   1.412  0.1225  0.6898 -0.6594
  286MPD2    C3 4314   3.216   1.721   1.497 -0.7887  0.0716 -0.2390
  286MPD2    C4 4315   3.241   1.781   1.622 -0.2994 -0.5786  0.1520
  286MPD2    C5 4316   3.174   1.892   1.658 -0.0319 -0.0350  0.1153
  286MPD2     H 4317   3.116   1.734   1.318 -0.0723 -0.3702 -0.0494
  286MPD2    H1 4318   3.307   1.729   1.690  1.0904  3.9775  2.2725
  286MPD2    H2 4319   3.027   2.032   1.622 -0.8353 -2.0226  2.0504
  286MPD2    H3 4320   3.206   1.929   1.755 -0.5521  3.5983 -1.1303
  286MPD2     N 4321   3.290   1.607   1.465 -0.7912  0.2535 -0.1621
  286MPD2    H5 4322   3.361   1.588   1.535 -1.2861 -1.2286 -0.0698
  286MPD2    N1 4323   2.963   1.947   1.365  0.2004  0.5528  0.7283
  286MPD2    H7 4324   2.961   1.906   1.272  2.5361  0.4626  0.7147
  287TMC3    C1 4325   3.380   1.419   1.353 -0.1774 -0.0199  0.4626
  287TMC3    C2 4326   3.424   1.365   1.237  0.3150 -0.0555 -0.1419
  287TMC3    C3 4327   3.530   1.285   1.231  0.2988  0.1562 -0.0682
  287TMC3    C4 4328   3.450   1.394   1.466  0.2736  0.1411 -0.4255
  287TMC3    C5 4329   3.554   1.304   1.459 -0.5369  0.5128 -0.0028
  287TMC3    C6 4330   3.604   1.260   1.339  0.4172 -0.0186 -0.1022
  287TMC3     C 4331   3.284   1.526   1.357  0.3630  0.1636  0.4512
  287TMC3     O 4332   3.200   1.535   1.265  0.3312 -0.3690  0.1125
  287TMC3     H 4333   3.367   1.373   1.145 -2.3015 -0.2059  1.4739
  287TMC3    H1 4334   3.405   1.397   1.565 -1.4099 -1.2552 -1.1456
  287TMC3    H2 4335   3.672   1.175   1.337 -0.3276 -0.6401  1.7179
  287TMC3    C7 4336   3.625   1.289   1.585 -0.0144 -0.2377  1.0494
  287TMC3    C8 4337   3.564   1.224   1.102 -0.1091 -0.7744 -0.0399
  287TMC3    O1 4338   3.623   1.380   1.669  0.4873 -0.7988 -0.2258
  287TMC3    O2 4339   3.468   1.200   1.029  0.3606 -0.0272  0.1561
  288TMC3    C1 4340   0.838   1.038  13.838 -0.0105 -0.0154 -0.5362
  288TMC3    C2 4341   0.773   1.082  13.956  0.3446 -0.5812 -0.0579
  288TMC3    C3 4342   0.694   1.189  13.939  0.1524 -0.0027  0.2172
  288TMC3    C4 4343   0.811   1.088  13.711 -0.1241  0.3194 -0.4320
  288TMC3    C5 4344   0.727   1.195  13.704 -0.2422  0.0314 -0.0988
  288TMC3    C6 4345   0.663   1.246  13.817  0.0064 -0.3207 -0.2110
  288TMC3     C 4346   0.962   0.962  13.854  0.0835 -0.3766 -0.0724
  288TMC3     O 4347   1.049   0.967  13.771 -0.2762  0.2328 -0.1705
  288TMC3     H 4348   0.811   1.065  14.056  1.9442  0.4673 -0.4736
  288TMC3    H1 4349   0.871   1.051  13.629  1.1317  0.5822  0.3646
  288TMC3    H2 4350   0.588   1.324  13.812 -0.1531 -0.5732 -1.8466
  288TMC3    C7 4351   0.735   1.282  13.584  0.3104  0.3772 -0.3284
  288TMC3    C8 4352   0.635   1.257  14.060 -0.3625 -0.3166  0.5699
  288TMC3    O1 4353   0.742   1.402  13.599 -1.4420  0.3041 -0.0495
  288TMC3    O2 4354   0.609   1.377  14.049 -0.2401 -0.6261  0.3426
  289MPD2     C 4355   1.037   0.280  14.022 -0.2504 -0.1454 -0.0821
  289MPD2    C1 4356   0.931   0.367  14.024  0.7965  0.3894 -0.1753
  289MPD2    C2 4357   0.834   0.355  14.123 -0.7058 -0.3427  0.2409
  289MPD2    C3 4358   0.843   0.255  14.222  0.1768 -0.3410 -0.3330
  289MPD2    C4 4359   0.953   0.175  14.223  0.1307 -0.5389  0.0100
  289MPD2    C5 4360   1.049   0.189  14.123  0.0506 -0.1563  0.1102
  289MPD2     H 4361   0.746   0.417  14.113  0.7189  1.3643 -1.5755
  289MPD2    H1 4362   0.970   0.107  14.306  0.6351 -0.4326 -0.0063
  289MPD2    H2 4363   1.113   0.276  13.945  2.9429 -0.4346  3.0814
  289MPD2    H3 4364   1.145   0.139  14.119 -0.3853 -0.8521 -1.5527
  289MPD2     N 4365   0.739   0.229  14.312 -0.5607 -0.1671 -0.4405
  289MPD2    H5 4366   0.740   0.139  14.358  1.3690 -0.1330 -0.4225
  289MPD2    N1 4367   0.926   0.453  13.918  0.5812  0.6526  0.2951
  289MPD2    H7 4368   1.013   0.452  13.866  0.6872  0.8700  0.4683
  290TMC3    C1 4369   0.507   0.239  14.356  0.4395 -0.6805 -0.3443
  290TMC3    C2 4370   0.402   0.323  14.393 -0.3373  0.4188  0.0570
  290TMC3    C3 4371   0.267   0.283  14.375 -0.2312 -0.0245  0.9251
  290TMC3    C4 4372   0.492   0.115  14.306  0.4171 -0.6265  0.4584
  290TMC3    C5 4373   0.361   0.077  14.295 -0.3007  0.3210 -0.1570
  290TMC3    C6 4374   0.251   0.156  14.325  0.7500  0.4849  0.0467
  290TMC3     C 4375   0.623   0.306  14.317 -0.2143 -0.0569 -0.3343
  290TMC3     O 4376   0.624   0.428  14.297  0.5041 -0.0172  0.4309
  290TMC3     H 4377   0.421   0.418  14.442  0.9105  0.7716 -1.1067
  290TMC3    H1 4378   0.574   0.053  14.273  0.1530 -0.8199  0.1704
  290TMC3    H2 4379   0.157   0.102  14.327  2.0655 -1.8480 -0.2433
  290TMC3    C7 4380   0.341   4.685  14.213 -0.3549 -0.3807  0.4349
  290TMC3    C8 4381   0.162   0.341  14.458 -0.3699 -0.0498  0.5165
  290TMC3    O1 4382   0.408   4.586  14.231  0.3297  0.3472  0.2312
  290TMC3    O2 4383   0.054   0.285  14.471 -0.2045 -0.3443 -0.2381
  291MPD2     C 4384   3.838   0.290   0.499  0.0463  0.0733 -0.8132
  291MPD2    C1 4385   3.816   0.190   0.408 -0.0247 -0.6452  0.4727
  291MPD2    C2 4386   3.920   0.146   0.333 -0.1903  0.0354  0.5373
  291MPD2    C3 4387   4.049   0.199   0.335 -0.3017  0.3502 -0.0300
  291MPD2    C4 4388   4.062   0.315   0.411  0.3016  0.1004 -0.3141
  291MPD2    C5 4389   3.956   0.358   0.489 -0.3143  0.4130  0.5250
  291MPD2     H 4390   3.896   0.061   0.270  2.6934 -0.6016  0.2916
  291MPD2    H1 4391   4.155   0.370   0.416 -0.1589  0.8372  0.1434
  291MPD2    H2 4392   3.756   0.328   0.559  0.7370 -0.4289  0.4634
  291MPD2    H3 4393   3.957   0.446   0.552  1.3362  0.3480  0.6144
  291MPD2     N 4394   4.156   0.162   0.252  0.0711 -0.6347 -0.3936
  291MPD2    H5 4395   4.232   0.225   0.234  0.6415 -0.2207  3.4694
  291MPD2    N1 4396   3.697   0.115   0.383  0.6282 -0.0020 -0.1453
  291MPD2    H7 4397   3.694   0.057   0.300 -1.1992 -0.6924  0.4140
  292TMC3    C1 4398   3.469   0.062   0.381 -0.4196 -0.4147 -0.0906
  292TMC3    C2 4399   3.364   0.142   0.365  0.4058  0.2712  0.3196
  292TMC3    C3 4400   3.306   0.147   0.241 -0.1523  0.0915  0.3545
  292TMC3    C4 4401   3.514   4.699   0.286 -0.0122  0.7290 -0.0792
  292TMC3    C5 4402   3.451   4.706   0.166 -0.1243 -0.8237 -0.1906
  292TMC3    C6 4403   3.347   0.062   0.142 -0.7378  0.0046 -0.8169
  292TMC3     C 4404   3.584   0.131   0.446 -0.4151 -0.5912 -0.1609
  292TMC3     O 4405   3.558   0.191   0.547  0.1591 -0.4436 -0.1132
  292TMC3     H 4406   3.350   0.219   0.441  0.5949  1.5680 -0.9476
  292TMC3    H1 4407   3.595   4.628   0.298 -2.4260 -2.4786 -2.7279
  292TMC3    H2 4408   3.286   0.063   0.052  0.0831 -1.1901 -1.3794
  292TMC3    C7 4409   3.523   4.658   0.050  0.3111 -0.5090  0.0305
  292TMC3    C8 4410   3.186   0.218   0.221 -0.1932  0.4184 -0.1280
  292TMC3    O1 4411   3.604   4.567   0.066 -0.0940  0.6140 -0.2648
  292TMC3    O2 4412   3.143   0.243   0.111  0.5763 -0.1465  0.2088
  293MPD2     C 4413   1.436   1.712  12.280  0.5722  0.1850 -0.6831
  293MPD2    C1 4414   1.367   1.625  12.360  0.4290 -0.5891 -0.1911
  293MPD2    C2 4415   1.382   1.634  12.496  0.2196 -0.2726  0.0631
  293MPD2    C3 4416   1.469   1.720  12.557 -0.1587 -0.8813  0.4354
  293MPD2    C4 4417   1.546   1.792  12.471 -0.2303  0.5150  0.2120
  293MPD2    C5 4418   1.529   1.793  12.332 -0.0576  0.5347 -0.0627
  293MPD2     H 4419   1.331   1.565  12.562 -1.4800  0.0544 -0.8921
  293MPD2    H1 4420   1.618   1.864  12.507  0.2741 -0.7051  1.6803
  293MPD2    H2 4421   1.402   1.712  12.177 -0.7785 -0.4466 -0.2471
  293MPD2    H3 4422   1.587   1.860  12.270 -0.5583  0.5218 -0.5492
  293MPD2     N 4423   1.476   1.728  12.699  0.7085  1.0588  0.6574
  293MPD2    H5 4424   1.425   1.650  12.740 -1.0166  0.9071 -1.7788
  293MPD2    N1 4425   1.275   1.545  12.297 -0.1559 -0.2085  0.0084
  293MPD2    H7 4426   1.277   1.541  12.195 -0.4244  1.2062 -0.0500
  294TMC3    C1 4427   1.143   1.357  12.259 -0.0833 -0.1900  0.2732
  294TMC3    C2 4428   1.128   1.226  12.290 -0.1420  0.0206  0.2675
  294TMC3    C3 4429   1.111   1.140  12.187 -0.0306 -0.4038  0.3520
  294TMC3    C4 4430   1.132   1.412  12.133  0.3440  1.0703  0.1585
  294TMC3    C5 4431   1.117   1.328  12.032  0.2014  1.0586 -0.2248
  294TMC3    C6 4432   1.107   1.194  12.056  0.0026 -0.1137  0.6060
  294TMC3     C 4433   1.204   1.441  12.356  0.8660 -0.1194 -1.0557
  294TMC3     O 4434   1.211   1.402  12.471 -0.1526  0.6426  0.3253
  294TMC3     H 4435   1.128   1.186  12.390 -0.5005  1.0201  0.6691
  294TMC3    H1 4436   1.122   1.518  12.110 -0.2090  1.1438  0.7379
  294TMC3    H2 4437   1.104   1.120  11.977 -0.8537  0.2174  0.3253
  294TMC3    C7 4438   1.045   1.386  11.925  0.0116  0.2940 -0.9626
  294TMC3    C8 4439   1.027   1.031  12.219  0.0761  0.6859 -0.1911
  294TMC3    O1 4440   0.960   1.468  11.954  0.6740 -0.0510  0.0117
  294TMC3    O2 4441   0.940   1.057  12.300  0.0065  0.6277  0.3871
  295MPD2     C 4442   1.011   0.502   0.367 -0.1814 -0.9110  0.3545
  295MPD2    C1 4443   1.042   0.567   0.484  0.3482  0.0806  0.2826
  295MPD2    C2 4444   0.945   0.642   0.555  0.0603 -0.4668  0.0067
  295MPD2    C3 4445   0.821   0.657   0.498  0.6868 -0.5485  0.2700
  295MPD2    C4 4446   0.801   0.620   0.366 -0.2469 -0.0403  0.6636
  295MPD2    C5 4447   0.889   0.540   0.302  0.1625 -0.2910 -0.3931
  295MPD2     H 4448   0.964   0.666   0.660  0.5691 -0.3101 -0.1191
  295MPD2    H1 4449   0.703   0.640   0.323  1.0451  1.6191 -1.5381
  295MPD2    H2 4450   1.092   0.451   0.315  0.1367 -1.0439  0.9715
  295MPD2    H3 4451   0.873   0.503   0.202 -0.7778  0.5239 -0.5435
  295MPD2     N 4452   0.708   0.720   0.566  0.0498  0.4841 -0.2660
  295MPD2    H5 4453   0.621   0.722   0.514 -1.2943 -1.4893  1.8952
  295MPD2    N1 4454   1.174   0.558   0.538  0.4377  0.5487 -0.4878
  295MPD2    H7 4455   1.193   0.620   0.617 -0.3463  1.2278 -0.8342
  296TMC3    C1 4456   0.590   0.840   0.723 -0.2801 -1.2060  0.2597
  296TMC3    C2 4457   0.606   0.948   0.806  0.7114 -0.2091 -0.0672
  296TMC3    C3 4458   0.495   0.978   0.887 -0.6720 -0.5500  0.0809
  296TMC3    C4 4459   0.475   0.764   0.717  0.1178  0.6592 -0.8745
  296TMC3    C5 4460   0.370   0.798   0.796 -0.1305  0.1530 -0.9315
  296TMC3    C6 4461   0.385   0.897   0.883 -0.0960  1.0520 -0.7334
  296TMC3     C 4462   0.712   0.787   0.685  0.1314  0.7655  0.4808
  296TMC3     O 4463   0.809   0.805   0.756  0.1451  0.5921 -0.2462
  296TMC3     H 4464   0.697   1.004   0.822 -1.1033  2.6929 -0.0368
  296TMC3    H1 4465   0.476   0.673   0.658  2.0785  0.1284 -0.0317
  296TMC3    H2 4466   0.297   0.920   0.943  0.4993  1.0237  0.1533
  296TMC3    C7 4467   0.290   0.687   0.823  0.2900  0.1892  0.3852
  296TMC3    C8 4468   0.502   1.086   0.981  0.8806 -0.1516 -1.1597
  296TMC3    O1 4469   0.248   0.608   0.737  0.6835  0.2623 -0.7912
  296TMC3    O2 4470   0.395   1.132   1.019  0.1758  0.0110 -0.2774
  297MPD2     C 4471   3.665   2.342  15.956  0.2417 -0.0857 -0.5969
  297MPD2    C1 4472   3.652   2.466  15.894 -0.0128 -0.6187 -0.5604
  297MPD2    C2 4473   3.759   2.549  15.903 -0.3566 -0.8613 -0.5061
  297MPD2    C3 4474   3.879   2.505  15.960 -0.1083  0.0441 -0.6765
  297MPD2    C4 4475   3.890   2.386  16.021 -0.3874  0.4019 -0.1828
  297MPD2    C5 4476   3.782   2.300  16.023 -0.3887  0.7368  0.0046
  297MPD2     H 4477   3.758   2.644  15.851  1.3396  0.5091  2.0039
  297MPD2    H1 4478   3.982   2.359  16.071  0.0143 -0.9855 -1.6714
  297MPD2    H2 4479   3.579   2.276  15.960 -1.5715  2.1215 -2.7291
  297MPD2    H3 4480   3.786   2.201  16.066  0.1979  1.6718  2.1087
  297MPD2     N 4481   3.987   2.589  15.977 -0.0545 -0.2007  0.2609
  297MPD2    H5 4482   4.067   2.560  16.032  1.1342  2.6000 -0.0071
  297MPD2    N1 4483   3.534   2.511  15.827  0.2346 -0.0206 -0.1160
  297MPD2    H7 4484   3.520   2.610  15.806 -0.0011  0.3211  1.6458
  298TMC3    C1 4485   3.304   2.513  15.752  0.0220  0.2242  0.0605
  298TMC3    C2 4486   3.258   2.487  15.628 -0.1138  0.6186  0.2639
  298TMC3    C3 4487   3.159   2.566  15.578  0.6370  0.4902  0.3558
  298TMC3    C4 4488   3.267   2.618  15.824  1.0747 -0.1828 -0.4158
  298TMC3    C5 4489   3.167   2.698  15.769 -0.4281 -0.5691  0.4210
  298TMC3    C6 4490   3.117   2.681  15.639  0.6940  0.2384 -0.1939
  298TMC3     C 4491   3.424   2.433  15.798  0.1615  0.4656  0.1102
  298TMC3     O 4492   3.405   2.314  15.804  0.6320  0.2756  0.6230
  298TMC3     H 4493   3.296   2.402  15.571  1.4938  1.0527  0.6918
  298TMC3    H1 4494   3.291   2.634  15.929  0.8268  0.6166 -0.4836
  298TMC3    H2 4495   3.023   2.723  15.603  0.6131  1.7341  1.7339
  298TMC3    C7 4496   3.093   2.781  15.861  0.1138  0.5243 -0.0980
  298TMC3    C8 4497   3.102   2.541  15.455  0.1053 -0.1022  0.7326
  298TMC3    O1 4498   3.107   2.776  15.984 -0.4187 -0.3877  0.5506
  298TMC3    O2 4499   3.038   2.638  15.405  0.1180 -0.5032 -0.3816
  299MPD2     C 4500   0.744   1.055  10.605  0.2523 -0.0720  0.5088
  299MPD2    C1 4501   0.679   1.148  10.528  0.2369 -1.1260  0.6912
  299MPD2    C2 4502   0.583   1.099  10.441  0.3868  0.3799 -0.2417
  299MPD2    C3 4503   0.550   0.967  10.432  0.7881 -0.7543  0.3452
  299MPD2    C4 4504   0.619   0.879  10.506  0.0130 -0.0255 -0.1490
  299MPD2    C5 4505   0.715   0.921  10.590  0.2408 -0.0462  0.0732
  299MPD2     H 4506   0.525   1.170  10.382 -2.2891 -2.1515 -0.6981
  299MPD2    H1 4507   0.585   0.777  10.508  1.0043 -0.2945  2.1053
  299MPD2    H2 4508   0.817   1.072  10.683  1.7000  0.7633 -1.0000
  299MPD2    H3 4509   0.762   0.846  10.652  2.6027 -0.0432 -1.6934
  299MPD2     N 4510   0.442   0.919  10.356  0.0326  0.5898  0.0761
  299MPD2    H5 4511   0.427   0.819  10.361 -0.1649  0.6258  0.2269
  299MPD2    N1 4512   0.714   1.286  10.537  0.5208 -0.2024 -0.5589
  299MPD2    H7 4513   0.784   1.311  10.606  1.3560 -0.6205 -1.2416
  300TMC3    C1 4514   0.229   0.958  10.242  0.0298 -0.0289  0.7917
  300TMC3    C2 4515   0.172   1.032  10.143 -0.1765  0.6662  0.2310
  300TMC3    C3 4516   0.067   1.110  10.180  0.0254 -0.0737 -0.1248
  300TMC3    C4 4517   0.162   0.945  10.362  0.4550  0.2369 -1.1038
  300TMC3    C5 4518   0.046   1.015  10.388  0.0017  0.7883 -0.3000
  300TMC3    C6 4519   4.711   1.095  10.290  0.6725 -0.0514  0.6228
  300TMC3     C 4520   0.366   1.002  10.274 -0.2061 -0.7218 -0.4246
  300TMC3     O 4521   0.388   1.115  10.238  0.4411  0.5238  0.3740
  300TMC3     H 4522   0.243   1.063  10.067  0.5574 -1.7871 -0.0818
  300TMC3    H1 4523   0.217   0.898  10.443  0.5646  1.9048 -0.2079
  300TMC3    H2 4524   4.634   1.166  10.316  1.4927  1.0462  0.0538
  300TMC3    C7 4525   0.001   1.004  10.528  0.2761 -0.9609 -0.5192
  300TMC3    C8 4526   0.064   1.241  10.111  0.6734  0.1680  0.2791
  300TMC3    O1 4527   0.054   0.907  10.591  0.0729  0.0631 -0.2527
  300TMC3    O2 4528   0.056   1.230   9.992  0.0510  0.3506  0.0679
  301MPD2     C 4529   1.406   3.609   1.512 -0.1383  0.6134  0.1794
  301MPD2    C1 4530   1.393   3.637   1.379  0.0442  0.5637 -0.5611
  301MPD2    C2 4531   1.428   3.542   1.288  0.6341 -0.3931 -0.4480
  301MPD2    C3 4532   1.466   3.416   1.338  0.2341  0.2352  0.0633
  301MPD2    C4 4533   1.478   3.393   1.475 -0.3623 -0.6772 -0.4792
  301MPD2    C5 4534   1.451   3.492   1.559  0.4617 -0.3261 -0.2293
  301MPD2     H 4535   1.429   3.567   1.182  1.2819 -4.1095 -1.3308
  301MPD2    H1 4536   1.498   3.297   1.521 -0.1109  0.2964  1.4179
  301MPD2    H2 4537   1.378   3.681   1.587 -0.6847  1.5241 -0.9092
  301MPD2    H3 4538   1.466   3.468   1.663 -2.6529  0.8210  0.4792
  301MPD2     N 4539   1.509   3.313   1.251  0.0804 -0.0957 -0.1964
  301MPD2    H5 4540   1.532   3.223   1.292 -0.5063 -0.3230 -0.3626
  301MPD2    N1 4541   1.341   3.756   1.332 -0.3927  0.2314  0.7080
  301MPD2    H7 4542   1.337   3.768   1.232  1.7146  0.2324  0.6317
  302TMC3    C1 4543   1.556   3.189   1.053  0.2573  0.5606 -0.1948
  302TMC3    C2 4544   1.591   3.081   1.125 -0.1381  0.5527 -0.1906
  302TMC3    C3 4545   1.611   2.965   1.057 -0.2316 -0.3291  0.7315
  302TMC3    C4 4546   1.535   3.180   0.922 -0.0651  0.4289  0.4844
  302TMC3    C5 4547   1.555   3.064   0.850 -0.1100  0.1200  0.4708
  302TMC3    C6 4548   1.592   2.955   0.921 -0.1760 -0.2714 -0.0239
  302TMC3     C 4549   1.518   3.318   1.114  0.6687  0.3341 -0.3412
  302TMC3     O 4550   1.498   3.414   1.041 -0.1146 -0.3032 -1.0054
  302TMC3     H 4551   1.626   3.086   1.227  0.5259 -2.2091 -0.2740
  302TMC3    H1 4552   1.511   3.270   0.866  1.8786  0.1170 -0.8760
  302TMC3    H2 4553   1.585   2.852   0.887  1.2599 -0.1619 -0.6350
  302TMC3    C7 4554   1.503   3.034   0.711  0.0149  0.0276 -0.0778
  302TMC3    C8 4555   1.667   2.841   1.120 -0.3020  0.3464 -0.8206
  302TMC3    O1 4556   1.503   2.915   0.671 -0.0588  0.5878  0.2473
  302TMC3    O2 4557   1.702   2.748   1.045  0.1982 -0.3321 -0.4021
  303MPD2     C 4558   2.838   1.819  10.241 -0.3972  0.0204 -0.0448
  303MPD2    C1 4559   2.749   1.730  10.295 -0.3244 -0.1338 -0.2894
  303MPD2    C2 4560   2.761   1.590  10.263  0.1065  0.0853 -0.2993
  303MPD2    C3 4561   2.868   1.549  10.182  0.2608  0.6761  0.0922
  303MPD2    C4 4562   2.959   1.641  10.138  0.0602  0.3957  0.1040
  303MPD2    C5 4563   2.946   1.771  10.165  0.7907 -0.0456 -0.4289
  303MPD2     H 4564   2.700   1.521  10.321  1.3852 -1.4944 -0.8160
  303MPD2    H1 4565   3.032   1.607  10.065  0.2724  3.0398 -0.8995
  303MPD2    H2 4566   2.828   1.926  10.256 -0.2767 -0.5919  4.4122
  303MPD2    H3 4567   3.013   1.841  10.116  1.4918 -0.8268 -0.5730
  303MPD2     N 4568   2.880   1.421  10.133  0.3760  0.7946 -0.0275
  303MPD2    H5 4569   2.965   1.392  10.087  0.5773  0.7113  0.3931
  303MPD2    N1 4570   2.641   1.792  10.360 -0.1447  0.3809 -0.0192
  303MPD2    H7 4571   2.639   1.893  10.370  2.2118  0.4139  0.0350
  304TMC3    C1 4572   2.450   1.815  10.477 -1.1576  0.2451 -0.1647
  304TMC3    C2 4573   2.364   1.853  10.383  0.2163  0.6703  0.4700
  304TMC3    C3 4574   2.232   1.871  10.412 -0.8718 -0.0883 -0.3735
  304TMC3    C4 4575   2.409   1.775  10.602  0.2474 -0.4539 -0.4283
  304TMC3    C5 4576   2.274   1.781  10.630 -0.6291  0.1870  0.1763
  304TMC3    C6 4577   2.191   1.840  10.539 -0.3773  0.0183 -0.0336
  304TMC3     C 4578   2.541   1.721  10.421  0.2521 -0.1212  0.2491
  304TMC3     O 4579   2.495   1.608  10.401 -0.1559 -0.0875 -0.2691
  304TMC3     H 4580   2.395   1.871  10.281  0.3682 -0.3292  0.3367
  304TMC3    H1 4581   2.473   1.754  10.687 -0.3116 -3.1284 -0.6639
  304TMC3    H2 4582   2.091   1.860  10.576 -0.1471  0.2816  0.4439
  304TMC3    C7 4583   2.213   1.662  10.694 -0.3124 -0.1752 -0.6629
  304TMC3    C8 4584   2.139   1.815  10.308  0.1172  0.2094 -0.2258
  304TMC3    O1 4585   2.100   1.639  10.651  0.1276 -0.1819  0.0254
  304TMC3    O2 4586   2.144   1.871  10.196 -0.3427  0.3527  0.0233
  305MPD2     C 4587   0.057   3.464  13.870  0.7035  0.0640 -0.5560
  305MPD2    C1 4588   0.175   3.404  13.904  0.0581 -0.3656 -0.0477
  305MPD2    C2 4589   0.263   3.378  13.801 -0.4581  0.4079 -0.7303
  305MPD2    C3 4590   0.229   3.394  13.666  0.3451  0.6121  0.2590
  305MPD2    C4 4591   0.106   3.456  13.640  0.7527  0.3228 -0.1656
  305MPD2    C5 4592   0.019   3.494  13.735 -0.2722 -0.1259 -0.7644
  305MPD2     H 4593   0.368   3.361  13.822 -0.8419  1.0041  1.5588
  305MPD2    H1 4594   0.078   3.485  13.539  0.6710 -0.1406 -0.2751
  305MPD2    H2 4595   4.719   3.486  13.954 -1.5109  0.1006 -2.2605
  305MPD2    H3 4596   4.654   3.548  13.710  0.6569  0.6124 -2.5543
  305MPD2     N 4597   0.309   3.359  13.553 -0.2229  0.7168 -0.0551
  305MPD2    H5 4598   0.285   3.395  13.462 -0.1674 -0.7831 -0.6642
  305MPD2    N1 4599   0.213   3.392  14.045 -0.1779 -0.3715  0.1686
  305MPD2    H7 4600   0.143   3.421  14.112  0.0900 -1.3479  0.8754
  306TMC3    C1 4601   0.331   3.310  14.241  0.1566 -0.1715 -0.3012
  306TMC3    C2 4602   0.428   3.226  14.296 -0.1473 -0.0339  0.2703
  306TMC3    C3 4603   0.476   3.255  14.417  0.4362 -0.0723  0.2697
  306TMC3    C4 4604   0.283   3.419  14.308 -0.7830 -0.8173 -0.5430
  306TMC3    C5 4605   0.335   3.443  14.431  0.0177  0.1267  0.0229
  306TMC3    C6 4606   0.437   3.363  14.487 -0.0378  0.2567 -0.5751
  306TMC3     C 4607   0.313   3.304  14.090 -0.6678 -0.4899  0.5245
  306TMC3     O 4608   0.375   3.222  14.024 -0.4930 -0.0486 -0.5708
  306TMC3     H 4609   0.471   3.146  14.237  1.2080  0.4172  0.6498
  306TMC3    H1 4610   0.192   3.470  14.278  0.7534  2.8409  1.0237
  306TMC3    H2 4611   0.455   3.382  14.592 -1.9655  1.4673 -0.4488
  306TMC3    C7 4612   0.259   3.527  14.522 -0.2829  0.0323 -0.3157
  306TMC3    C8 4613   0.564   3.155  14.473 -0.4950 -0.0215  0.3675
  306TMC3    O1 4614   0.139   3.525  14.504  0.5786  0.1323  0.5204
  306TMC3    O2 4615   0.545   3.043  14.429 -0.1758 -0.8886 -0.4844
  307MPD2     C 4616   2.036   0.543   0.969  0.7315 -0.2231  0.0138
  307MPD2    C1 4617   2.018   0.674   1.017 -0.3209  0.4342 -0.3944
  307MPD2    C2 4618   1.888   0.718   1.057  0.3268 -0.0459  0.4478
  307MPD2    C3 4619   1.782   0.626   1.045  0.1170  0.4315  0.0038
  307MPD2    C4 4620   1.805   0.497   1.006  0.4538 -0.6159 -0.2144
  307MPD2    C5 4621   1.932   0.453   0.983 -0.1186  0.3333 -0.5868
  307MPD2     H 4622   1.872   0.820   1.089 -0.9698 -0.5580  1.4162
  307MPD2    H1 4623   1.729   0.420   0.995  0.2703 -0.1462 -2.3418
  307MPD2    H2 4624   2.134   0.506   0.943  1.1804  0.3286  0.9078
  307MPD2    H3 4625   1.944   0.352   0.947  1.8406  1.3448 -2.7778
  307MPD2     N 4626   1.652   0.673   1.072  0.1857  0.2457 -0.5752
  307MPD2    H5 4627   1.638   0.763   1.118  1.4733 -0.3455  0.9775
  307MPD2    N1 4628   2.123   0.771   1.022  0.0717 -0.3672 -0.1063
  307MPD2    H7 4629   2.096   0.862   1.057  1.9460  0.2193 -0.2263
  308TMC3    C1 4630   1.204   0.744   1.093 -0.8386 -0.5005  0.6017
  308TMC3    C2 4631   1.229   0.820   1.206 -0.3330  0.5631 -0.2379
  308TMC3    C3 4632   1.354   0.816   1.272  0.3305 -0.1820 -0.7900
  308TMC3    C4 4633   1.304   0.668   1.039  0.4837  0.5659  0.1592
  308TMC3    C5 4634   1.421   0.657   1.111 -0.0363 -0.0414  0.0115
  308TMC3    C6 4635   1.451   0.736   1.223  0.6032 -0.4414 -0.0192
  308TMC3     C 4636   1.130   0.821   0.991 -0.2657 -0.3071  0.2038
  308TMC3     O 4637   1.094   0.760   0.893  0.4094  0.3746 -0.0119
  308TMC3     H 4638   1.156   0.890   1.245  1.2820  2.4471 -0.6187
  308TMC3    H1 4639   1.288   0.633   0.938  0.0633  1.5547 -0.1209
  308TMC3    H2 4640   1.543   0.716   1.277  0.6758  1.2042  0.4771
  308TMC3    C7 4641   1.536   0.604   1.048  0.5145 -0.5391  0.1157
  308TMC3    C8 4642   1.399   0.953   1.298 -0.5888 -0.4687  0.0574
  308TMC3    O1 4643   1.528   0.528   0.952  0.0148 -0.0746  0.5142
  308TMC3    O2 4644   1.334   1.033   1.235  0.2096  0.6813 -0.3214
  309MPD2     C 4645   1.413   2.072  17.452 -0.1575  0.1598  0.2363
  309MPD2    C1 4646   1.349   2.174  17.382  0.8371 -0.1286  0.2629
  309MPD2    C2 4647   1.261   2.253  17.456  0.0326  0.2338 -0.2704
  309MPD2    C3 4648   1.247   2.233  17.594 -0.2101 -0.5692 -0.2699
  309MPD2    C4 4649   1.320   2.136  17.657 -0.0994  0.3979 -0.2008
  309MPD2    C5 4650   1.397   2.054  17.585 -0.4909  0.2134  0.7708
  309MPD2     H 4651   1.202   2.325  17.400  0.2358  0.0791 -0.6820
  309MPD2    H1 4652   1.322   2.123   0.061 -0.0595 -0.7317 -0.3398
  309MPD2    H2 4653   1.479   2.006  17.398 -0.4117  0.2703 -0.2134
  309MPD2    H3 4654   1.452   1.974  17.632 -0.4706  0.2854  0.8713
  309MPD2     N 4655   1.157   2.310  17.671  0.1138 -0.3768 -0.5556
  309MPD2    H5 4656   1.144   2.276   0.062 -0.9429 -1.0302 -0.9240
  309MPD2    N1 4657   1.362   2.203  17.242  0.1335 -0.0654 -0.1738
  309MPD2    H7 4658   1.332   2.298  17.221 -0.0491  0.1235  0.9290
  310TMC3    C1 4659   1.371   2.135  16.993 -0.1167  0.0903  0.0655
  310TMC3    C2 4660   1.352   2.268  16.956 -0.0161 -0.3965  0.6117
  310TMC3    C3 4661   1.326   2.281  16.821  0.4461  0.4008 -0.2067
  310TMC3    C4 4662   1.370   2.028  16.904 -0.1168 -1.2583 -0.0873
  310TMC3    C5 4663   1.330   2.048  16.782  0.1385 -0.0180  0.0464
  310TMC3    C6 4664   1.310   2.175  16.735 -0.1941 -0.4384 -0.0716
  310TMC3     C 4665   1.384   2.103  17.140  0.1088 -0.0177  0.0165
  310TMC3     O 4666   1.413   1.990  17.162 -0.0242 -0.3258  0.1298
  310TMC3     H 4667   1.370   2.356  17.017  0.0519 -0.0133  0.0448
  310TMC3    H1 4668   1.405   1.930  16.932  0.5116 -1.0941 -0.3120
  310TMC3    H2 4669   1.279   2.191  16.632  1.0175  1.4528 -0.1306
  310TMC3    C7 4670   1.286   1.946  16.696  0.6837  0.3958  0.2368
  310TMC3    C8 4671   1.300   2.417  16.769 -0.5849 -0.4563 -0.5577
  310TMC3    O1 4672   1.261   1.989  16.587 -0.1902 -0.3831  0.6642
  310TMC3    O2 4673   1.246   2.496  16.845 -0.7350 -0.1884  0.5206
  311MPD2     C 4674   4.299   2.816  12.535 -0.0332  0.4617 -0.2976
  311MPD2    C1 4675   4.292   2.907  12.635 -0.0546 -0.2280  0.0660
  311MPD2    C2 4676   4.162   2.945  12.676  0.4926  0.6731 -0.5648
  311MPD2    C3 4677   4.048   2.896  12.613  0.0629  0.0199 -0.1075
  311MPD2    C4 4678   4.057   2.807  12.508  0.2472 -0.9690  0.0581
  311MPD2    C5 4679   4.184   2.764  12.477  0.4157  0.4388  0.0220
  311MPD2     H 4680   4.155   3.025  12.748 -1.8277 -0.4122  0.4005
  311MPD2    H1 4681   3.975   2.768  12.449  1.0620 -3.5954  0.6290
  311MPD2    H2 4682   4.392   2.776  12.496  1.3177 -0.1710  3.5530
  311MPD2    H3 4683   4.196   2.688  12.400 -0.4022 -1.9105  2.1971
  311MPD2     N 4684   3.924   2.953  12.644 -0.7065  0.3499  0.0691
  311MPD2    H5 4685   3.919   3.020  12.720 -1.7479  1.3351 -0.8831
  311MPD2    N1 4686   4.401   2.971  12.692  0.0337 -0.4047 -0.1699
  311MPD2    H7 4687   4.390   3.042  12.763 -1.1804 -0.6796 -0.0712
  312TMC3    C1 4688   3.696   3.007  12.639 -0.6041 -0.0756  0.6849
  312TMC3    C2 4689   3.566   2.990  12.598  0.4484  0.7294  0.7792
  312TMC3    C3 4690   3.464   3.081  12.625 -0.2463 -0.1076 -0.2921
  312TMC3    C4 4691   3.723   3.123  12.709 -0.6487  0.2246 -0.1452
  312TMC3    C5 4692   3.614   3.209  12.738 -0.1357 -0.5482 -0.2195
  312TMC3    C6 4693   3.493   3.193  12.692  0.4167  0.2715  0.2131
  312TMC3     C 4694   3.800   2.927  12.586  0.2921  0.0664  1.5262
  312TMC3     O 4695   3.767   2.865  12.487  0.0574 -0.4329  0.0807
  312TMC3     H 4696   3.550   2.898  12.542 -0.0445  0.2485  1.7134
  312TMC3    H1 4697   3.817   3.147  12.758  0.6059  0.4194 -2.6885
  312TMC3    H2 4698   3.410   3.260  12.711  0.4927  0.0562  1.2932
  312TMC3    C7 4699   3.622   3.311  12.844  0.0093 -0.6764 -0.0552
  312TMC3    C8 4700   3.326   3.056  12.588 -0.0104 -0.4364 -0.2174
  312TMC3    O1 4701   3.560   3.416  12.826  0.2153 -0.4209  0.1445
  312TMC3    O2 4702   3.249   3.150  12.575 -0.3709  0.6794  0.7157
  313MPD2     C 4703   4.530   1.757  10.599 -0.1359 -0.3803 -0.7454
  313MPD2    C1 4704   4.467   1.820  10.493 -0.4231  0.6957 -1.2052
  313MPD2    C2 4705   4.447   1.747  10.379 -0.0134  0.4629  0.4723
  313MPD2    C3 4706   4.465   1.609  10.378  0.7606  0.0283  0.0070
  313MPD2    C4 4707   4.525   1.546  10.488 -0.0871  0.0583  0.0843
  313MPD2    C5 4708   4.567   1.626  10.594 -0.1081 -0.6420 -0.0336
  313MPD2     H 4709   4.411   1.791  10.287  2.1164 -0.0355 -0.5951
  313MPD2    H1 4710   4.532   1.438  10.499 -0.2913 -0.1700 -1.9571
  313MPD2    H2 4711   4.551   1.805  10.694 -3.8894 -0.3227  0.0611
  313MPD2    H3 4712   4.616   1.588  10.683  0.4153 -0.2890 -0.1752
  313MPD2     N 4713   4.411   1.542  10.259  0.1557 -0.8123  0.1391
  313MPD2    H5 4714   4.389   1.604  10.182  0.4537  0.6979  1.2703
  313MPD2    N1 4715   4.433   1.954  10.495 -0.2938  0.6150  0.2086
  313MPD2    H7 4716   4.398   1.994  10.409  0.1672 -0.2949 -0.4058
  314TMC3    C1 4717   4.406   2.169  10.574  0.5874 -0.0528  0.2510
  314TMC3    C2 4718   4.458   2.266  10.653 -0.2810  0.0275 -0.6225
  314TMC3    C3 4719   4.475   2.395  10.605  0.5552  0.2195  0.7225
  314TMC3    C4 4720   4.363   2.197  10.446 -0.5836  0.6933  0.3229
  314TMC3    C5 4721   4.379   2.327  10.406  0.4897 -0.4786 -0.5244
  314TMC3    C6 4722   4.437   2.424  10.479 -0.2765 -1.1489  0.2941
  314TMC3     C 4723   4.431   2.034  10.605  0.0129  0.0375 -0.1270
  314TMC3     O 4724   4.445   1.999  10.725  0.4667  0.0013  0.2131
  314TMC3     H 4725   4.501   2.238  10.748  1.2690 -0.9962 -1.6377
  314TMC3    H1 4726   4.334   2.132  10.365  1.8762 -0.7908  0.6400
  314TMC3    H2 4727   4.448   2.525  10.442 -1.4178 -1.3506 -0.5814
  314TMC3    C7 4728   4.320   2.364  10.279  0.1094  0.7267  0.0818
  314TMC3    C8 4729   4.475   2.509  10.688 -0.0307 -0.0348 -0.6270
  314TMC3    O1 4730   4.373   2.458  10.224 -0.2653  0.1345  0.1954
  314TMC3    O2 4731   4.485   2.623  10.637  0.0317  0.1216  0.3544
  315MPD2     C 4732   2.887   2.150  17.471  0.8773 -0.5866  0.1774
  315MPD2    C1 4733   2.982   2.187  17.567  0.4720  0.0634  0.0191
  315MPD2    C2 4734   3.044   2.306  17.545 -0.1417 -0.2063 -0.2463
  315MPD2    C3 4735   3.011   2.398  17.452  0.4050 -0.4858 -0.9358
  315MPD2    C4 4736   2.911   2.365  17.361  0.6034  0.1690 -0.6995
  315MPD2    C5 4737   2.853   2.241  17.370 -0.1325  0.9401 -0.2442
  315MPD2     H 4738   3.120   2.337  17.616 -1.9057  0.1050  1.4951
  315MPD2    H1 4739   2.881   2.432  17.281  0.1475  1.6881  0.7677
  315MPD2    H2 4740   2.824   2.062  17.476  1.0020 -0.6742  0.2271
  315MPD2    H3 4741   2.777   2.215  17.296  1.1532 -0.2700 -1.1563
  315MPD2     N 4742   3.092   2.517  17.455  0.0851 -0.1479  0.0365
  315MPD2    H5 4743   3.158   2.535  17.530 -0.3620 -1.1455  0.6600
  315MPD2    N1 4744   3.029   2.100  17.669  0.0035 -0.3059 -0.0807
  315MPD2    H7 4745   3.115   2.129   0.011  0.1949 -0.2624 -0.4584
  316TMC3    C1 4746   3.147   2.733  17.382  0.4806  0.3792 -0.3342
  316TMC3    C2 4747   3.255   2.733  17.472  0.5129 -0.1728 -0.5017
  316TMC3    C3 4748   3.323   2.853  17.482 -0.1347  0.5298  0.0998
  316TMC3    C4 4749   3.097   2.840  17.321  0.2054 -0.4068  0.3421
  316TMC3    C5 4750   3.162   2.957  17.345 -0.1812  0.2835 -0.3186
  316TMC3    C6 4751   3.267   2.969  17.428  0.2389  0.0563  0.6705
  316TMC3     C 4752   3.082   2.609  17.351 -0.6529 -1.1874  0.3372
  316TMC3     O 4753   3.014   2.606  17.251  0.2949 -0.3612  0.1899
  316TMC3     H 4754   3.303   2.639  17.497 -0.5791 -0.3533  0.9623
  316TMC3    H1 4755   3.000   2.829  17.274  0.7333 -0.7757 -0.6514
  316TMC3    H2 4756   3.317   3.064  17.442 -0.0176  0.1482  0.9844
  316TMC3    C7 4757   3.117   3.077  17.266  0.0412  0.2234 -0.1722
  316TMC3    C8 4758   3.428   2.882  17.574  0.5546 -1.0450 -0.1897
  316TMC3    O1 4759   3.152   3.185  17.313  0.0334  0.4212 -0.0010
  316TMC3    O2 4760   3.491   2.987  17.567 -0.0346 -0.0241  0.0923
  317MPD2     C 4761   0.657   0.054  13.135 -0.2107 -0.5576 -0.9493
  317MPD2    C1 4762   0.691   4.660  13.079  0.1689 -0.6716  0.1643
  317MPD2    C2 4763   0.710   4.558  13.174  0.1075 -0.2113  0.9322
  317MPD2    C3 4764   0.707   4.576  13.314  0.4988  0.1595  0.1446
  317MPD2    C4 4765   0.669   4.702  13.361  0.6507 -0.2813  0.3359
  317MPD2    C5 4766   0.633   0.070  13.271  0.3586 -0.2217  0.1610
  317MPD2     H 4767   0.719   4.456  13.138  0.7779  0.5178 -0.9190
  317MPD2    H1 4768   0.669   0.011  13.464  0.9109 -0.7947  0.5132
  317MPD2    H2 4769   0.639   0.144  13.078 -2.0967  0.2239  0.8886
  317MPD2    H3 4770   0.590   0.164  13.304  2.9683  1.4150 -1.1178
  317MPD2     N 4771   0.733   4.459  13.395  0.2847  0.0056  0.6641
  317MPD2    H5 4772   0.751   4.372  13.347 -0.4729  0.8835 -1.2170
  317MPD2    N1 4773   0.698   4.639  12.936  0.3773  0.4234  0.5163
  317MPD2    H7 4774   0.728   4.544  12.914 -1.1521  0.3783 -1.4076
  318TMC3    C1 4775   0.773   4.340  13.590 -0.2932  0.0351  0.1045
  318TMC3    C2 4776   0.688   4.236  13.560  0.0349  0.2974 -0.3133
  318TMC3    C3 4777   0.692   4.132  13.641  0.2257  0.3125 -0.8899
  318TMC3    C4 4778   0.855   4.344  13.690 -0.1886 -0.2837 -0.0761
  318TMC3    C5 4779   0.860   4.239  13.770  0.9410  0.9962  0.7536
  318TMC3    C6 4780   0.778   4.136  13.748  0.6662  0.4020  0.1612
  318TMC3     C 4781   0.761   4.470  13.526  0.1757 -0.5017 -0.3530
  318TMC3     O 4782   0.773   4.573  13.590  0.0465  0.6405 -0.2881
  318TMC3     H 4783   0.633   4.238  13.466 -1.2032  0.0387  0.4013
  318TMC3    H1 4784   0.900   4.438  13.721 -0.1316 -0.1982 -0.4155
  318TMC3    H2 4785   0.778   4.043  13.804 -1.0386  2.0495  2.8874
  318TMC3    C7 4786   0.947   4.255  13.883 -0.4779 -0.1835  0.3327
  318TMC3    C8 4787   0.603   4.017  13.606 -0.0208  0.2342 -0.4748
  318TMC3    O1 4788   0.957   4.370  13.928  0.1521 -0.5556  0.1807
  318TMC3    O2 4789   0.607   3.916  13.680 -0.2852 -0.4387  0.0843
  319MPD2     C 4790   0.640   2.299  17.247  0.1590  0.7226  0.5313
  319MPD2    C1 4791   0.648   2.160  17.263 -0.3249 -0.1159 -0.7576
  319MPD2    C2 4792   0.602   2.082  17.158 -0.2293  0.0440 -0.4320
  319MPD2    C3 4793   0.560   2.130  17.037  0.7081 -0.1546  0.0397
  319MPD2    C4 4794   0.558   2.270  17.026  0.2084 -0.0737  0.1218
  319MPD2    C5 4795   0.595   2.351  17.129  0.0400 -0.2808 -0.3512
  319MPD2     H 4796   0.596   1.975  17.177 -0.2598  0.6382  2.9043
  319MPD2    H1 4797   0.528   2.322  16.936 -0.2881  2.5962  1.8183
  319MPD2    H2 4798   0.681   2.371  17.317  0.5596  0.4256  0.6066
  319MPD2    H3 4799   0.604   2.456  17.104 -0.0956 -0.1881  0.0038
  319MPD2     N 4800   0.509   2.050  16.931  0.4653 -0.4890 -0.4682
  319MPD2    H5 4801   0.463   2.115  16.868  1.2835 -1.0052 -1.5918
  319MPD2    N1 4802   0.707   2.105  17.378  0.2255  0.2301 -0.6234
  319MPD2    H7 4803   0.689   2.006  17.390 -0.6923  0.4112 -0.4980
  320TMC3    C1 4804   0.488   1.872  16.782 -0.7394  0.0175 -0.4228
  320TMC3    C2 4805   0.482   1.950  16.665 -0.0849  0.3866  1.1489
  320TMC3    C3 4806   0.474   1.879  16.543  0.8046  0.3110 -0.6729
  320TMC3    C4 4807   0.486   1.735  16.785  0.2269 -0.3000  0.3989
  320TMC3    C5 4808   0.472   1.672  16.664 -0.3668 -0.2399  0.0233
  320TMC3    C6 4809   0.475   1.740  16.544 -1.3970  0.2747  0.0365
  320TMC3     C 4810   0.536   1.921  16.912 -0.6223  1.1309  0.4022
  320TMC3     O 4811   0.596   1.846  16.986  0.2395 -0.1338 -0.2685
  320TMC3     H 4812   0.500   2.056  16.666 -1.9240  0.7212 -0.7993
  320TMC3    H1 4813   0.471   1.690  16.883 -1.9746  1.7621  1.0045
  320TMC3    H2 4814   0.483   1.676  16.457  1.4014  1.2309 -0.4077
  320TMC3    C7 4815   0.504   1.535  16.654 -0.3947 -0.3397  0.0258
  320TMC3    C8 4816   0.463   1.959  16.430 -0.4245  0.3083  1.0272
  320TMC3    O1 4817   0.481   1.472  16.552 -0.2096  0.0210 -0.1635
  320TMC3    O2 4818   0.434   2.076  16.454 -0.5653  0.1469 -0.5171
  321TMC3    C1 4819   0.796   2.080  17.584 -0.3240 -0.0652  0.1105
  321TMC3    C2 4820   0.823   1.951  17.557  0.8699  0.0969  0.3785
  321TMC3    C3 4821   0.852   1.874  17.662  0.0142  0.1679  0.5431
  321TMC3    C4 4822   0.805   2.132   0.000 -0.6570  0.3423 -0.6995
  321TMC3    C5 4823   0.850   2.052   0.100 -0.1092  0.4711 -0.2134
  321TMC3    C6 4824   0.867   1.922   0.082 -0.4352 -0.1402 -0.0860
  321TMC3     C 4825   0.759   2.174  17.485  0.5038 -0.6906 -0.0215
  321TMC3     O 4826   0.769   2.293  17.503  0.2406 -0.0439  0.8088
  321TMC3     H 4827   0.831   1.912  17.456  0.0167 -1.2887  0.8478
  321TMC3    H1 4828   0.789   2.238   0.020 -3.0514 -0.4054  1.3262
  321TMC3    H2 4829   0.890   1.860   0.167  0.8879  0.2904 -0.1354
  321TMC3    C7 4830   0.954   2.111   0.183 -0.0758 -0.0650 -0.1903
  321TMC3    C8 4831   0.964   1.785  17.647 -0.7752  0.4260  0.2445
  321TMC3    O1 4832   0.932   2.205   0.256  0.2678  0.2974  0.1876
  321TMC3    O2 4833   1.062   1.840  17.696 -0.0322 -0.3521  0.1084
  322MPD2     C 4834   4.565   2.786  13.763  0.2167 -0.6019  0.0771
  322MPD2    C1 4835   4.637   2.718  13.858  0.4768 -0.0612  0.6347
  322MPD2    C2 4836   4.635   2.576  13.844  0.3465  0.1388 -0.1616
  322MPD2    C3 4837   4.563   2.503  13.753 -0.3687  0.4631  0.0321
  322MPD2    C4 4838   4.480   2.575  13.668  0.0416 -0.1018  0.1438
  322MPD2    C5 4839   4.496   2.711  13.668  0.4074  0.6141 -0.0846
  322MPD2     H 4840   4.700   2.514  13.906 -4.1738 -2.0722  2.3969
  322MPD2    H1 4841   4.424   2.513  13.598 -2.5449  0.7305  1.4855
  322MPD2    H2 4842   4.559   2.894  13.757 -0.4079 -0.6621 -0.3815
  322MPD2    H3 4843   4.464   2.761  13.578 -0.1274  0.4117 -0.0123
  322MPD2     N 4844   4.582   2.366  13.750  0.2196  0.1750 -0.1768
  322MPD2    H5 4845   4.646   2.332  13.821 -1.9416  1.2772  2.2942
  322MPD2    N1 4846   4.722   2.780  13.951 -1.1912 -0.5415 -0.4220
  322MPD2    H7 4847   0.006   2.881  13.946 -0.5237 -0.6584 -1.6125
  323TMC3    C1 4848   0.150   2.803  14.125 -0.6435  0.8266  0.7184
  323TMC3    C2 4849   0.256   2.842  14.050  0.8029 -0.1031  0.4299
  323TMC3    C3 4850   0.375   2.862  14.110 -0.4548  0.1758 -0.6708
  323TMC3    C4 4851   0.170   2.787  14.256 -0.3411  0.1824 -0.0553
  323TMC3    C5 4852   0.289   2.818  14.319 -0.3960  0.4316  0.3895
  323TMC3    C6 4853   0.399   2.853  14.244 -0.3326  0.2816  0.0974
  323TMC3     C 4854   0.055   2.719  14.059  0.2007  0.7743  0.4794
  323TMC3     O 4855   0.023   2.618  14.118 -0.4111  0.3678 -0.3348
  323TMC3     H 4856   0.257   2.826  13.943 -1.1747  0.6477  0.3034
  323TMC3    H1 4857   0.093   2.736  14.314 -1.4175  1.2087 -0.5723
  323TMC3    H2 4858   0.499   2.868  14.283 -0.1499 -1.0085  0.1122
  323TMC3    C7 4859   0.329   2.738  14.433  0.1348 -0.1952  0.2614
  323TMC3    C8 4860   0.495   2.813  14.044  0.5458 -0.4616 -0.3641
  323TMC3    O1 4861   0.292   2.618  14.433 -0.5426 -0.4493 -0.1038
  323TMC3    O2 4862   0.567   2.735  14.102  0.4565  0.1235  0.1176
  324MPD2     C 4863   1.928   3.539  14.355 -0.0171  0.9054 -0.0193
  324MPD2    C1 4864   1.828   3.618  14.404 -0.5091 -0.0571  0.2416
  324MPD2    C2 4865   1.702   3.602  14.351  0.0522  0.3537  0.6063
  324MPD2    C3 4866   1.666   3.499  14.263 -0.0734 -0.1941 -0.0087
  324MPD2    C4 4867   1.773   3.423  14.218 -0.5987 -0.0681  0.1615
  324MPD2    C5 4868   1.898   3.444  14.261 -0.4267  0.2089  0.4812
  324MPD2     H 4869   1.612   3.648  14.390 -1.9173 -2.0263 -1.1490
  324MPD2    H1 4870   1.763   3.349  14.140 -0.8971  1.5744 -1.3747
  324MPD2    H2 4871   2.033   3.558  14.374  0.0222  0.5406  0.1282
  324MPD2    H3 4872   1.978   3.385  14.218 -0.2170 -0.4228  1.7511
  324MPD2     N 4873   1.542   3.478  14.208  0.0442 -0.0303  0.1729
  324MPD2    H5 4874   1.537   3.424  14.122 -1.8898 -0.7646  0.7550
  324MPD2    N1 4875   1.838   3.727  14.493 -0.1614  0.3763  0.0433
  324MPD2    H7 4876   1.761   3.790  14.512  1.7449  3.1068 -1.2057
  325TMC3    C1 4877   1.313   3.504  14.158  0.0211  0.3479 -0.1536
  325TMC3    C2 4878   1.312   3.377  14.108 -0.1985 -0.3979  0.1501
  325TMC3    C3 4879   1.189   3.332  14.071  0.0705 -0.1071  0.4956
  325TMC3    C4 4880   1.209   3.594  14.164 -0.4154 -0.0458 -0.1707
  325TMC3    C5 4881   1.092   3.541  14.105 -0.5143 -0.3526 -0.4287
  325TMC3    C6 4882   1.087   3.415  14.053 -0.0943  0.5702 -0.3885
  325TMC3     C 4883   1.429   3.550  14.232  0.1625  0.4788 -0.0280
  325TMC3     O 4884   1.411   3.636  14.313 -0.3846 -0.3702  0.2354
  325TMC3     H 4885   1.390   3.302  14.113  1.1042  1.0381  1.1907
  325TMC3    H1 4886   1.230   3.697  14.193  2.5610 -0.3519 -1.2818
  325TMC3    H2 4887   0.994   3.379  14.011 -0.3918 -1.1822  1.7520
  325TMC3    C7 4888   0.984   3.629  14.072 -0.1080 -0.5543 -0.5062
  325TMC3    C8 4889   1.208   3.256  13.955  0.2209  0.2345  0.5679
  325TMC3    O1 4890   0.908   3.594  13.982 -0.3399 -0.8513 -0.0606
  325TMC3    O2 4891   1.315   3.275  13.902 -0.2138  0.1443 -0.2052
  326MPD2     C 4892   3.469   4.431  11.391 -0.3336  0.0292 -0.0913
  326MPD2    C1 4893   3.440   4.455  11.260 -0.4942 -0.4905  0.1897
  326MPD2    C2 4894   3.526   4.543  11.191  0.3275 -0.4259 -0.1732
  326MPD2    C3 4895   3.631   4.604  11.248 -0.1265  0.5922 -0.2677
  326MPD2    C4 4896   3.647   4.596  11.386  0.5123  0.5761 -0.3586
  326MPD2    C5 4897   3.572   4.499  11.454 -0.6510 -0.5366  0.7216
  326MPD2     H 4898   3.514   4.544  11.083 -2.9987  0.6465  0.1991
  326MPD2    H1 4899   3.712   4.663  11.441 -0.1985  0.0603  1.0892
  326MPD2    H2 4900   3.403   4.367  11.448  2.0376  0.2914  2.9411
  326MPD2    H3 4901   3.588   4.470  11.557 -2.7162 -0.4816  1.0554
  326MPD2     N 4902   3.721   4.686  11.177  0.1900  0.2972 -0.2111
  326MPD2    H5 4903   3.804   0.001  11.220  0.8061 -0.2084 -0.9268
  326MPD2    N1 4904   3.341   4.393  11.183 -0.5636 -0.4876  0.2610
  326MPD2    H7 4905   3.346   4.401  11.082  1.1403  0.4665  0.4283
  327TMC3    C1 4906   3.170   4.269  11.105  0.1217  0.0075  0.1559
  327TMC3    C2 4907   3.107   4.371  11.039  0.2443  0.4915  1.2388
  327TMC3    C3 4908   3.097   4.358  10.898  0.0362  0.2572 -0.7838
  327TMC3    C4 4909   3.237   4.172  11.037 -0.0664  0.2033 -0.6931
  327TMC3    C5 4910   3.238   4.174  10.901  0.4624  0.3696 -0.2376
  327TMC3    C6 4911   3.166   4.263  10.829  0.1449  0.0020 -0.2533
  327TMC3     C 4912   3.233   4.315  11.223  0.1020  0.3726  0.2149
  327TMC3     O 4913   3.202   4.277  11.339 -0.2170  0.5545  0.6823
  327TMC3     H 4914   3.085   4.460  11.096  1.4429  3.2439 -2.6609
  327TMC3    H1 4915   3.289   4.103  11.102  0.2235 -0.4342 -1.6022
  327TMC3    H2 4916   3.156   4.254  10.721 -0.1174 -3.7869  0.1226
  327TMC3    C7 4917   3.369   4.150  10.839 -0.6313  0.8100 -0.6076
  327TMC3    C8 4918   3.074   4.484  10.825  0.2374  0.3272 -0.0529
  327TMC3    O1 4919   3.365   4.142  10.720 -0.4789 -0.5260 -0.3504
  327TMC3    O2 4920   3.138   4.500  10.720 -0.2285  0.0645 -0.1724
  328MPD2     C 4921   0.298   0.419  17.598 -0.4379  0.0324 -0.0386
  328MPD2    C1 4922   0.394   0.441  17.505 -0.2632 -0.1358  0.3862
  328MPD2    C2 4923   0.425   0.568  17.464 -0.9116  0.3239  0.3028
  328MPD2    C3 4924   0.346   0.673  17.512 -0.1433  0.6251  0.1489
  328MPD2    C4 4925   0.237   0.647  17.589  0.3793  0.6784 -0.7621
  328MPD2    C5 4926   0.220   0.525  17.647  0.1350 -0.3766  0.6725
  328MPD2     H 4927   0.512   0.595  17.404 -2.5621 -0.2762 -2.3275
  328MPD2    H1 4928   0.179   0.731  17.628  0.8120  0.4762  0.3172
  328MPD2    H2 4929   0.277   0.324  17.645  1.6478 -0.5535 -0.2982
  328MPD2    H3 4930   0.146   0.521   0.021 -0.8884 -1.3842 -0.3235
  328MPD2     N 4931   0.376   0.807  17.482 -0.0064  0.1343  0.3610
  328MPD2    H5 4932   0.304   0.872  17.514 -1.5378  1.1267 -5.1846
  328MPD2    N1 4933   0.451   0.323  17.460 -0.4096 -0.3018  0.3792
  328MPD2    H7 4934   0.412   0.236  17.496 -2.3210  0.2892 -0.3003
  329TMC3    C1 4935   0.566   0.177  17.309  0.5825  0.3234  0.6270
  329TMC3    C2 4936   0.479   0.077  17.331  0.0806 -1.1451  0.2309
  329TMC3    C3 4937   0.503   4.686  17.261  0.5955  0.3452 -0.1222
  329TMC3    C4 4938   0.666   0.166  17.216  0.6289  0.4306  0.2169
  329TMC3    C5 4939   0.683   0.052  17.150 -0.6818  0.4579  0.0071
  329TMC3    C6 4940   0.603   4.668  17.171 -0.2494  0.0748  0.7804
  329TMC3     C 4941   0.549   0.310  17.366  0.3093  0.4774  0.5883
  329TMC3     O 4942   0.611   0.403  17.317 -0.3011 -0.2858  0.2919
  329TMC3     H 4943   0.395   0.089  17.398  1.0113  0.2040  1.1558
  329TMC3    H1 4944   0.727   0.254  17.200  0.3963  0.7919  1.2926
  329TMC3    H2 4945   0.617   4.570  17.126 -1.2542  0.9010 -1.3066
  329TMC3    C7 4946   0.809   0.045  17.069 -0.5718  0.0920 -0.1488
  329TMC3    C8 4947   0.430   4.568  17.299 -0.5902  0.2756  0.0861
  329TMC3    O1 4948   0.899   0.115  17.107 -0.2587  0.0782  0.3719
  329TMC3    O2 4949   0.456   4.460  17.243 -0.2414 -0.3365  0.1019
  330TMC3    C1 4950   4.406   3.872   9.862 -0.4453  0.2879  0.6797
  330TMC3    C2 4951   4.367   3.810   9.746  0.1282  0.0529  0.5246
  330TMC3    C3 4952   4.379   3.674   9.730  0.3817 -0.7051 -0.7102
  330TMC3    C4 4953   4.439   3.791   9.963 -0.0560 -0.5082  0.0210
  330TMC3    C5 4954   4.449   3.658   9.945 -0.6099  0.8180  0.9259
  330TMC3    C6 4955   4.412   3.592   9.835 -0.5576 -0.2274  0.4302
  330TMC3     C 4956   4.406   4.010   9.887 -0.3415  0.2330  0.0741
  330TMC3     O 4957   4.450   4.047   9.994  0.0488 -0.1685 -0.8887
  330TMC3     H 4958   4.316   3.866   9.669  0.3455  0.9490  1.0324
  330TMC3    H1 4959   4.462   3.835  10.059  0.6012 -2.2884  0.6716
  330TMC3    H2 4960   4.428   3.486   9.819 -0.0436  0.0007 -0.6162
  330TMC3    C7 4961   4.470   3.590  10.072  0.1569 -0.7269 -0.0323
  330TMC3    C8 4962   4.351   3.625   9.599  0.0329 -0.6528 -0.0727
  330TMC3    O1 4963   4.541   3.651  10.156  0.2463 -0.1718 -0.3232
  330TMC3    O2 4964   4.338   3.709   9.513  0.1481  0.6406 -0.3132
  331MPD2     C 4965   1.219   2.974  12.380 -0.5759 -0.5980 -0.3240
  331MPD2    C1 4966   1.332   3.026  12.317 -0.3111 -0.6448 -0.1303
  331MPD2    C2 4967   1.398   2.952  12.217  0.1541 -0.3997  0.4724
  331MPD2    C3 4968   1.356   2.824  12.188  0.1155 -0.6398 -0.3395
  331MPD2    C4 4969   1.253   2.768  12.257  0.1120 -0.5637 -0.4785
  331MPD2    C5 4970   1.188   2.842  12.355  0.1776 -0.1993 -0.5502
  331MPD2     H 4971   1.485   2.994  12.169 -0.2353  0.6404  0.6847
  331MPD2    H1 4972   1.225   2.667  12.230 -0.6223 -0.3377 -0.5582
  331MPD2    H2 4973   1.172   3.024  12.464 -0.5760  1.1692 -1.3617
  331MPD2    H3 4974   1.107   2.799  12.413  0.8942 -0.5764  0.1633
  331MPD2     N 4975   1.427   2.767  12.080  0.2571  0.4062  0.4705
  331MPD2    H5 4976   1.490   2.827  12.028  1.0720 -0.0122  0.9635
  331MPD2    N1 4977   1.374   3.156  12.361  0.7746 -0.4153 -0.1145
  331MPD2    H7 4978   1.316   3.204  12.428  0.5092 -1.7233  0.5950
  332TMC3    C1 4979   1.525   2.617  11.937  0.4082 -0.3585 -0.9441
  332TMC3    C2 4980   1.556   2.717  11.854  0.1873 -0.8255  0.3015
  332TMC3    C3 4981   1.677   2.717  11.802 -1.1238 -0.3679  0.3182
  332TMC3    C4 4982   1.613   2.524  11.972  0.2154 -0.4203 -0.3190
  332TMC3    C5 4983   1.741   2.534  11.932  0.1879 -0.6744  0.0614
  332TMC3    C6 4984   1.775   2.627  11.830  0.7921 -0.1037  0.0887
  332TMC3     C 4985   1.425   2.640  12.036 -0.0576  0.3810  1.3058
  332TMC3     O 4986   1.365   2.540  12.079 -0.6411 -0.0718 -0.0088
  332TMC3     H 4987   1.486   2.794  11.824  1.4454  1.6450  3.6908
  332TMC3    H1 4988   1.596   2.476  12.068 -1.2157 -0.7459 -0.7301
  332TMC3    H2 4989   1.876   2.639  11.791  0.8817 -1.7684 -0.1567
  332TMC3    C7 4990   1.843   2.487  12.022  0.7312 -0.9574  0.2946
  332TMC3    C8 4991   1.727   2.843  11.740  0.2562  0.5179  0.2562
  332TMC3    O1 4992   1.821   2.396  12.098  0.7341 -0.2158  0.1060
  332TMC3    O2 4993   1.846   2.856  11.736  0.4238  0.1968 -0.0169
  333MPD2     C 4994   1.939   3.115  11.038  0.5755 -0.4278 -0.2084
  333MPD2    C1 4995   1.986   3.012  10.954 -0.4105  0.8328 -1.0619
  333MPD2    C2 4996   1.924   2.889  10.964 -0.0560  0.1339 -0.4639
  333MPD2    C3 4997   1.813   2.863  11.041 -1.0614 -0.4096  0.5806
  333MPD2    C4 4998   1.762   2.968  11.119  0.0119  0.0803  0.0426
  333MPD2    C5 4999   1.827   3.092  11.116 -0.2988 -0.6208  0.5650
  333MPD2     H 5000   1.957   2.801  10.911 -1.6865  0.0147 -1.2686
  333MPD2    H1 5001   1.673   2.966  11.181 -0.3910  0.4916 -0.5243
  333MPD2    H2 5002   2.003   3.202  11.036 -1.3190  0.9691 -0.7128
  333MPD2    H3 5003   1.792   3.180  11.167  0.2164  1.0578 -2.0001
  333MPD2     N 5004   1.763   2.730  11.035  0.5623 -0.5684 -0.3627
  333MPD2    H5 5005   1.817   2.681  10.965 -0.7061 -0.6213 -1.2915
  333MPD2    N1 5006   2.096   3.039  10.874 -0.0815 -0.4014  0.0354
  333MPD2    H7 5007   2.136   3.131  10.892  0.2761  0.0287 -2.9576
  334TMC3    C1 5008   2.289   3.006  10.738  0.4420 -0.0601  0.0091
  334TMC3    C2 5009   2.397   2.919  10.728  0.1004  0.2020 -0.8513
  334TMC3    C3 5010   2.515   2.975  10.694 -0.0468 -0.1128 -0.4127
  334TMC3    C4 5011   2.286   3.136  10.702 -0.0387 -0.8524 -0.3133
  334TMC3    C5 5012   2.408   3.183  10.660 -0.2628  0.5439  0.1209
  334TMC3    C6 5013   2.521   3.109  10.669 -0.1830  0.4810 -0.1081
  334TMC3     C 5014   2.180   2.946  10.815 -0.2914  0.1270 -0.0806
  334TMC3     O 5015   2.161   2.829  10.797 -0.7804  0.0949  0.0638
  334TMC3     H 5016   2.395   2.819  10.768 -2.7213  0.4745 -0.2826
  334TMC3    H1 5017   2.200   3.199  10.720  0.2148 -0.6290  0.1123
  334TMC3    H2 5018   2.611   3.163  10.643 -0.5487  0.4149 -1.5041
  334TMC3    C7 5019   2.419   3.317  10.619 -0.2336 -0.3979 -0.3442
  334TMC3    C8 5020   2.630   2.890  10.682  0.6211  0.2626  0.7082
  334TMC3    O1 5021   2.526   3.377  10.635  0.1409 -0.0907  0.7305
  334TMC3    O2 5022   2.607   2.770  10.685  0.3587 -0.0560  0.4444
  335TMC3    C1 5023   1.202   0.952  17.578 -0.3278 -0.7133 -0.4123
  335TMC3    C2 5024   1.199   0.857  17.479  0.4666 -0.0644  0.3805
  335TMC3    C3 5025   1.311   0.798  17.440  0.0063  0.2598  0.4024
  335TMC3    C4 5026   1.318   0.983  17.644 -0.0793 -0.0942 -0.2059
  335TMC3    C5 5027   1.434   0.919  17.596  0.7232  0.4609 -0.0365
  335TMC3    C6 5028   1.423   0.816  17.510  0.6116 -0.3708  0.4917
  335TMC3     C 5029   1.085   0.943  17.657 -0.3540  0.9265 -0.0230
  335TMC3     O 5030   1.076   1.004   0.056 -0.4058  0.4444  0.4515
  335TMC3     H 5031   1.109   0.835  17.423 -0.1057 -0.0195  1.2850
  335TMC3    H1 5032   1.331   1.056   0.019  1.2982  0.6871 -1.1443
  335TMC3    H2 5033   1.510   0.759  17.479  0.4895 -0.8343  1.0207
  335TMC3    C7 5034   1.566   0.950  17.650  0.3807  0.5646  0.6859
  335TMC3    C8 5035   1.277   0.660  17.408 -0.5206  0.0580  0.5529
  335TMC3    O1 5036   1.668   0.903  17.600  0.6842 -0.2722  0.1157
  335TMC3    O2 5037   1.177   0.614  17.456  0.6130 -0.0987 -0.0506
  336MPD2     C 5038   0.981   2.975  16.004 -0.2098 -0.9656  0.2094
  336MPD2    C1 5039   0.925   2.880  15.925 -0.1905 -0.1857 -0.3067
  336MPD2    C2 5040   0.885   2.763  15.988 -0.1804  0.0955  0.2091
  336MPD2    C3 5041   0.904   2.740  16.122 -0.1501  0.0419 -0.4392
  336MPD2    C4 5042   0.948   2.845  16.200  0.2577 -0.4895  0.0660
  336MPD2    C5 5043   0.981   2.961  16.138 -0.6892  0.1989 -0.2984
  336MPD2     H 5044   0.837   2.685  15.929  1.2803 -0.2797 -0.4854
  336MPD2    H1 5045   0.959   2.834  16.307 -1.7870  0.8060  0.4069
  336MPD2    H2 5046   1.003   3.074  15.965  2.2660 -1.5320  0.1664
  336MPD2    H3 5047   1.006   3.048  16.197 -0.0554  0.5248 -1.0669
  336MPD2     N 5048   0.855   2.626  16.198 -0.4516 -0.9864  0.1584
  336MPD2    H5 5049   0.858   2.640  16.299 -0.0803 -1.0457  0.1577
  336MPD2    N1 5050   0.886   2.905  15.789 -0.2302  0.4360  0.0436
  336MPD2    H7 5051   0.816   2.847  15.744 -2.1989  1.3842  1.9218
  337TMC3    C1 5052   0.840   3.020  15.594  0.1967  1.0556  0.1247
  337TMC3    C2 5053   0.707   2.998  15.602 -0.0223 -0.1807 -0.7286
  337TMC3    C3 5054   0.628   3.011  15.490  0.0318 -0.1968  0.4910
  337TMC3    C4 5055   0.883   3.088  15.483  0.2448 -0.4716  0.0158
  337TMC3    C5 5056   0.798   3.114  15.377  0.1127 -0.6315 -0.6162
  337TMC3    C6 5057   0.673   3.060  15.372  0.2143  0.2727 -0.0720
  337TMC3     C 5058   0.916   3.019  15.717  0.1604 -0.0120 -0.9724
  337TMC3     O 5059   1.018   3.093  15.734  0.0559 -0.0831  0.1121
  337TMC3     H 5060   0.669   2.950  15.691  1.2900  1.0373  0.4918
  337TMC3    H1 5061   0.987   3.119  15.483  0.7285 -2.0725 -1.6488
  337TMC3    H2 5062   0.608   3.074  15.286 -1.7454 -2.7401  0.9180
  337TMC3    C7 5063   0.837   3.203  15.273  0.2482 -0.5770  0.3181
  337TMC3    C8 5064   0.494   2.975  15.504 -0.2422  0.4418 -0.6836
  337TMC3    O1 5065   0.955   3.240  15.256  0.0086  0.1880 -0.3808
  337TMC3    O2 5066   0.437   2.975  15.615  0.0976 -0.0475 -0.5868
  338MPD2     C 5067   1.400   1.854   1.343 -0.2516  0.5772  0.2410
  338MPD2    C1 5068   1.304   1.948   1.322  0.5161 -0.0147 -0.2477
  338MPD2    C2 5069   1.303   2.070   1.388 -0.4879  0.8270 -0.0830
  338MPD2    C3 5070   1.399   2.095   1.486  0.2609 -1.3767  0.0365
  338MPD2    C4 5071   1.501   2.000   1.504  0.1289 -0.6952  0.9228
  338MPD2    C5 5072   1.491   1.883   1.432 -0.2644 -0.4480 -0.2228
  338MPD2     H 5073   1.226   2.140   1.358 -1.2242 -0.0212 -0.1692
  338MPD2    H1 5074   1.578   2.008   1.580 -0.3058 -2.1612  1.5236
  338MPD2    H2 5075   1.393   1.751   1.309 -3.0887  0.8564  0.0314
  338MPD2    H3 5076   1.565   1.807   1.454  0.1600 -0.1275 -0.5738
  338MPD2     N 5077   1.386   2.204   1.576  0.0005 -0.9519  0.3555
  338MPD2    H5 5078   1.315   2.274   1.556 -0.7163 -1.7698  0.0483
  338MPD2    N1 5079   1.200   1.930   1.219  0.0665 -0.1174 -0.4680
  338MPD2    H7 5080   1.144   2.010   1.190  2.1423  1.4331 -0.1482
  339TMC3    C1 5081   1.419   2.347   1.763 -0.4057  0.0455 -0.5594
  339TMC3    C2 5082   1.426   2.327   1.898  0.4508 -0.4027 -0.0549
  339TMC3    C3 5083   1.359   2.420   1.979 -0.6677  0.2573  0.2511
  339TMC3    C4 5084   1.370   2.463   1.702  0.1466 -0.2483 -0.7039
  339TMC3    C5 5085   1.307   2.549   1.794  0.0441  0.4293 -0.2039
  339TMC3    C6 5086   1.290   2.528   1.928 -0.1888 -0.4113  0.7785
  339TMC3     C 5087   1.472   2.237   1.679 -0.0168 -0.2652  0.3403
  339TMC3     O 5088   1.565   2.178   1.731 -0.4376 -0.3336 -0.2952
  339TMC3     H 5089   1.451   2.230   1.937  2.5167 -1.3736 -3.7988
  339TMC3    H1 5090   1.386   2.493   1.600 -3.8998  1.4584 -0.8350
  339TMC3    H2 5091   1.228   2.592   1.990 -2.4974 -2.6714  0.8278
  339TMC3    C7 5092   1.287   2.682   1.741 -0.2371  0.6568  0.2429
  339TMC3    C8 5093   1.318   2.363   2.110  0.6140 -0.5213  0.4425
  339TMC3    O1 5094   1.255   2.701   1.622 -0.3591  0.0071  0.2883
  339TMC3    O2 5095   1.397   2.299   2.176  0.0411  0.3353 -0.0373
  340MPD2     C 5096   2.573   4.356  10.194  0.0562 -0.2372 -0.8578
  340MPD2    C1 5097   2.530   4.237  10.150  0.2862  0.3116  0.1653
  340MPD2    C2 5098   2.602   4.120  10.163  0.6926  0.1650 -0.6546
  340MPD2    C3 5099   2.725   4.128  10.217 -0.1846  0.3281  0.0109
  340MPD2    C4 5100   2.773   4.249  10.263 -0.1317  0.1497  0.1702
  340MPD2    C5 5101   2.700   4.359  10.244 -1.3617  0.4884  0.2652
  340MPD2     H 5102   2.573   4.029  10.113  0.9811  0.5774 -1.5844
  340MPD2    H1 5103   2.866   4.260  10.318 -0.0576  1.5483 -0.2532
  340MPD2    H2 5104   2.517   4.449  10.195 -0.7438 -0.7295 -0.0196
  340MPD2    H3 5105   2.744   4.451  10.280  1.3022 -0.4287 -0.6854
  340MPD2     N 5106   2.812   4.011  10.224 -0.4957  0.3205 -0.2392
  340MPD2    H5 5107   2.905   4.040  10.251 -0.2257  2.0407 -2.9929
  340MPD2    N1 5108   2.420   4.250  10.064 -0.8951 -0.1821  0.1702
  340MPD2    H7 5109   2.392   4.344  10.041  1.0878  0.1019 -1.0433
  341TMC3    C1 5110   2.271   4.189   9.901 -1.0404  0.2351 -0.3284
  341TMC3    C2 5111   2.174   4.106   9.860  0.5161  0.4093  0.4971
  341TMC3    C3 5112   2.153   4.083   9.726 -0.0321  0.2066 -0.5909
  341TMC3    C4 5113   2.341   4.265   9.806 -0.7196 -0.2221  0.3623
  341TMC3    C5 5114   2.320   4.242   9.678  0.2043 -0.3944  0.3323
  341TMC3    C6 5115   2.227   4.151   9.639  0.5748 -0.0101  0.2219
  341TMC3     C 5116   2.354   4.140  10.011  0.0866  0.4129  0.9197
  341TMC3     O 5117   2.337   4.031  10.065 -0.3162 -0.0583 -0.1188
  341TMC3     H 5118   2.126   4.041   9.933  0.0668  1.1589  0.8614
  341TMC3    H1 5119   2.430   4.325   9.826  0.1864 -0.9530 -1.5476
  341TMC3    H2 5120   2.232   4.139   9.531  0.1170 -0.0621  0.2052
  341TMC3    C7 5121   2.433   4.267   9.594  0.5523  0.3361 -0.2986
  341TMC3    C8 5122   2.047   3.996   9.689  0.6142  0.5671 -0.4535
  341TMC3    O1 5123   2.498   4.169   9.551  0.1629 -0.3466 -0.1084
  341TMC3    O2 5124   1.966   3.954   9.768 -0.1514  0.8078 -0.1057
  342MPD2     C 5125   3.452   3.498  17.274  0.5593  1.1752  0.1082
  342MPD2    C1 5126   3.586   3.501  17.300  0.8554 -0.0341  0.1697
  342MPD2    C2 5127   3.648   3.625  17.298 -0.0488 -0.2024  0.0483
  342MPD2    C3 5128   3.584   3.742  17.266 -0.8276 -0.3213 -0.5046
  342MPD2    C4 5129   3.449   3.736  17.238  0.0710  0.0993 -0.5031
  342MPD2    C5 5130   3.392   3.611  17.241 -0.5857 -0.0074 -0.2910
  342MPD2     H 5131   3.746   3.617  17.343 -0.6396  0.6158  1.4763
  342MPD2    H1 5132   3.391   3.822  17.206 -0.1923 -0.0494 -0.4301
  342MPD2    H2 5133   3.383   3.415  17.265  0.4107  1.2914  0.1814
  342MPD2    H3 5134   3.287   3.613  17.215 -1.2490 -0.4185  2.3154
  342MPD2     N 5135   3.653   3.864  17.246 -0.4113  0.4378 -0.2899
  342MPD2    H5 5136   3.605   3.949  17.219  0.1605  0.7899 -0.1825
  342MPD2    N1 5137   3.659   3.383  17.330 -0.6139 -0.0970  0.5596
  342MPD2    H7 5138   3.759   3.397  17.340 -0.7221 -0.3422  2.1004
  343TMC3    C1 5139   3.699   3.151  17.331 -0.1531 -0.1123 -0.0662
  343TMC3    C2 5140   3.819   3.173  17.391  0.9619  0.1680 -0.8985
  343TMC3    C3 5141   3.899   3.062  17.406 -0.2750  0.0658  0.7175
  343TMC3    C4 5142   3.654   3.022  17.311  0.6122  0.7126 -0.2190
  343TMC3    C5 5143   3.732   2.914  17.344  0.4739  1.1491 -0.0933
  343TMC3    C6 5144   3.853   2.934  17.402  0.9365 -0.3762 -0.0525
  343TMC3     C 5145   3.604   3.254  17.325  0.4027  0.3402  0.2883
  343TMC3     O 5146   3.488   3.221  17.342  0.7305 -0.5920 -0.1743
  343TMC3     H 5147   3.870   3.268  17.383 -0.5339  1.1897  1.7957
  343TMC3    H1 5148   3.549   3.012  17.285  1.5802 -2.8150 -2.6004
  343TMC3    H2 5149   3.913   2.848  17.429 -1.9274 -1.7325  2.0664
  343TMC3    C7 5150   3.658   2.791  17.362 -0.0337  0.3667  0.5258
  343TMC3    C8 5151   4.050   3.077  17.415 -0.5261 -0.3197 -0.6982
  343TMC3    O1 5152   3.556   2.782  17.297 -0.3121 -0.4587  0.4019
  343TMC3    O2 5153   4.088   3.191  17.409 -0.5087 -0.3401 -0.7861
  344MPD2     C 5154   0.524   2.035  10.141  0.2576  0.1572 -0.8336
  344MPD2    C1 5155   0.629   2.054  10.228 -0.5083 -0.0044 -0.2551
  344MPD2    C2 5156   0.711   2.162  10.216  0.0765 -0.4238 -0.1601
  344MPD2    C3 5157   0.696   2.260  10.120  0.0923 -0.4128  0.0723
  344MPD2    C4 5158   0.581   2.247  10.042  0.7054  0.6082 -0.1793
  344MPD2    C5 5159   0.503   2.137  10.052 -0.4734 -0.3477  0.1550
  344MPD2     H 5160   0.789   2.173  10.290  1.7087 -2.6182 -1.5508
  344MPD2    H1 5161   0.561   2.318   9.963 -0.5258  2.7846  2.0922
  344MPD2    H2 5162   0.460   1.948  10.131 -0.1288  0.2079  1.1769
  344MPD2    H3 5163   0.435   2.118   9.970 -0.0253 -0.4809 -0.1881
  344MPD2     N 5164   0.781   2.370  10.099 -0.7299  0.2289  0.3436
  344MPD2    H5 5165   0.763   2.411  10.008  2.8310 -0.9983 -0.9057
  344MPD2    N1 5166   0.677   1.952  10.317 -0.3045 -0.3748  0.2166
  344MPD2    H7 5167   0.753   1.981  10.379  0.1272  1.1871 -1.0536
  345TMC3    C1 5168   0.972   2.507  10.117 -1.1550  0.1397 -0.5951
  345TMC3    C2 5169   1.105   2.527  10.155  0.7274 -0.2999  0.3280
  345TMC3    C3 5170   1.173   2.632  10.103  0.0448  0.1790  0.6662
  345TMC3    C4 5171   0.912   2.602  10.032 -0.0916 -0.3362  0.8766
  345TMC3    C5 5172   0.986   2.706   9.987 -0.1007  0.0279  0.1621
  345TMC3    C6 5173   1.115   2.725  10.018 -0.2428  0.0205 -1.0552
  345TMC3     C 5174   0.890   2.406  10.176  0.1958  0.3452 -0.1655
  345TMC3     O 5175   0.931   2.352  10.278  0.1779  0.2019  0.1311
  345TMC3     H 5176   1.136   2.470  10.242 -3.6935 -1.5547  1.0549
  345TMC3    H1 5177   0.806   2.607  10.012  0.4721 -1.8169 -2.6198
  345TMC3    H2 5178   1.169   2.811   9.978  0.3849  0.2361  0.2573
  345TMC3    C7 5179   0.929   2.808   9.898 -0.0828 -0.7002  0.3839
  345TMC3    C8 5180   1.296   2.673  10.178  0.0409 -0.3547  0.6039
  345TMC3    O1 5181   0.999   2.907   9.874  0.0287  0.2029 -0.2511
  345TMC3    O2 5182   1.294   2.663  10.302 -0.0701 -0.3365  0.2102
  346MPD2     C 5183   0.159   3.903  14.449 -0.4323  0.0387  0.4272
  346MPD2    C1 5184   0.259   3.933  14.355 -0.3783 -0.3339  0.0872
  346MPD2    C2 5185   0.363   4.019  14.395 -0.1807  0.3941  0.3604
  346MPD2    C3 5186   0.369   4.066  14.529  0.0641  0.7842 -0.0613
  346MPD2    C4 5187   0.266   4.039  14.614 -0.5951 -0.0364 -0.0827
  346MPD2    C5 5188   0.169   3.957  14.572 -0.2303  0.1270  0.2826
  346MPD2     H 5189   0.442   4.045  14.326  0.7371  0.4547  1.4391
  346MPD2    H1 5190   0.261   4.068  14.718  0.0267 -2.9760  0.7602
  346MPD2    H2 5191   0.068   3.846  14.430  0.0957 -0.5161 -0.4350
  346MPD2    H3 5192   0.090   3.948  14.645 -2.0832  0.5965 -1.6916
  346MPD2     N 5193   0.478   4.150  14.556  0.1553 -0.1185 -0.4213
  346MPD2    H5 5194   0.541   4.151  14.476 -0.0239  1.0238 -0.5447
  346MPD2    N1 5195   0.256   3.880  14.221  0.0961 -0.4993  0.0093
  346MPD2    H7 5196   0.329   3.919  14.162  0.7708 -0.3876  0.9124
  347TMC3    C1 5197   0.633   4.290  14.664 -0.2987  0.2142  0.2928
  347TMC3    C2 5198   0.703   4.290  14.547  0.3621 -0.4292  0.1610
  347TMC3    C3 5199   0.841   4.286  14.538  0.3847 -0.2446 -0.2174
  347TMC3    C4 5200   0.703   4.306  14.779 -0.0687 -0.0130  0.0861
  347TMC3    C5 5201   0.837   4.315  14.769  0.2681  0.2572 -0.1264
  347TMC3    C6 5202   0.909   4.297  14.649  0.0196 -0.7323 -0.3627
  347TMC3     C 5203   0.498   4.226  14.668  0.3483  0.4863  0.0396
  347TMC3     O 5204   0.433   4.231  14.769  0.3637  0.1865  0.6833
  347TMC3     H 5205   0.652   4.302  14.452  2.3485  0.3641 -0.7983
  347TMC3    H1 5206   0.654   4.314  14.876  1.6300  1.8265  0.8002
  347TMC3    H2 5207   1.017   4.285  14.650  0.0227 -0.7351 -0.8290
  347TMC3    C7 5208   0.917   4.336  14.890  0.0218 -0.0835  0.1487
  347TMC3    C8 5209   0.898   4.184  14.441  0.1255  0.1233 -0.2805
  347TMC3    O1 5210   1.035   4.326  14.884 -0.5668 -0.0231 -0.1261
  347TMC3    O2 5211   0.993   4.121  14.477  0.3752  0.0269 -0.1729
  348MPD2     C 5212   4.469   3.840  12.063 -0.1973 -0.7198 -0.5787
  348MPD2    C1 5213   4.451   3.760  11.955 -0.1582  0.0773 -0.5504
  348MPD2    C2 5214   4.475   3.821  11.831 -0.1166  0.1002  0.2655
  348MPD2    C3 5215   4.507   3.955  11.817  0.0194  0.0894  0.0903
  348MPD2    C4 5216   4.516   4.032  11.928 -0.0416 -0.6888 -0.1740
  348MPD2    C5 5217   4.494   3.976  12.052 -0.2019  0.7425  0.0702
  348MPD2     H 5218   4.471   3.756  11.745  1.8693  0.9533 -0.4593
  348MPD2    H1 5219   4.561   4.131  11.926  0.7054 -1.0459 -1.3059
  348MPD2    H2 5220   4.465   3.799  12.163  1.3492 -1.5661 -0.8591
  348MPD2    H3 5221   4.519   4.039  12.137 -0.2904  1.7896 -0.6859
  348MPD2     N 5222   4.534   4.001  11.682  0.4400  0.0810  0.4458
  348MPD2    H5 5223   4.530   3.939  11.602 -1.8294 -0.1867  0.7885
  348MPD2    N1 5224   4.406   3.627  11.959  0.5745 -0.0842 -0.0992
  348MPD2    H7 5225   4.382   3.582  11.871  0.5336 -1.1199  0.4533
  349TMC3    C1 5226   4.337   3.421  12.058  0.1968  0.0924 -0.1084
  349TMC3    C2 5227   4.374   3.321  12.146  0.7309 -0.3480 -0.2369
  349TMC3    C3 5228   4.312   3.198  12.134 -0.5081  0.0873 -0.3119
  349TMC3    C4 5229   4.246   3.400  11.964 -0.0940 -0.0170  0.2658
  349TMC3    C5 5230   4.179   3.278  11.960 -0.5762 -0.2598  0.2341
  349TMC3    C6 5231   4.212   3.174  12.043 -0.2303 -0.2437 -0.5032
  349TMC3     C 5232   4.392   3.552  12.075 -0.4561  0.6512  0.7696
  349TMC3     O 5233   4.439   3.575  12.188  0.1231 -0.3275 -0.2587
  349TMC3     H 5234   4.444   3.344  12.225  0.9635 -3.0315  0.3382
  349TMC3    H1 5235   4.216   3.488  11.906 -0.0750 -0.3785 -0.2937
  349TMC3    H2 5236   4.145   3.089  12.049 -1.2562  0.5825 -0.1146
  349TMC3    C7 5237   4.063   3.248  11.868 -0.2180  0.0096  0.0279
  349TMC3    C8 5238   4.364   3.081  12.195 -0.6264  0.0338 -0.8837
  349TMC3    O1 5239   4.047   3.131  11.837  0.1891 -0.0083  0.0635
  349TMC3    O2 5240   4.400   3.087  12.313 -0.0267  0.9843 -0.5082
  350MPD2     C 5241   3.576   1.353  10.101 -0.1148  0.5066  0.5973
  350MPD2    C1 5242   3.614   1.232  10.056 -0.4447 -0.0806 -0.5510
  350MPD2    C2 5243   3.743   1.219  10.018  0.2094 -0.0327  0.0462
  350MPD2    C3 5244   3.827   1.326  10.006 -0.1043 -0.6295 -0.0215
  350MPD2    C4 5245   3.783   1.451  10.046 -0.1892 -0.2659 -0.2683
  350MPD2    C5 5246   3.658   1.463  10.089 -0.2401  0.5110 -0.8511
  350MPD2     H 5247   3.775   1.115  10.013  0.6307  0.1218 -0.4331
  350MPD2    H1 5248   3.845   1.540  10.043 -0.3484 -0.1470 -0.0974
  350MPD2    H2 5249   3.476   1.368  10.140  0.2883  0.9612  1.4456
  350MPD2    H3 5250   3.621   1.562  10.112  0.0664  0.2891  0.5894
  350MPD2     N 5251   3.963   1.303   9.958 -0.3656 -0.2184 -0.1985
  350MPD2    H5 5252   3.987   1.205   9.947 -1.6315 -0.4697 -0.6825
  350MPD2    N1 5253   3.532   1.115  10.060 -0.6990  1.1945 -0.4088
  350MPD2    H7 5254   3.579   1.030  10.032  0.6212  1.5319  0.7851
  351TMC3    C1 5255   3.346   0.977  10.138 -0.0980 -0.2919 -0.0574
  351TMC3    C2 5256   3.375   0.884  10.044 -0.5576  0.0226  0.2513
  351TMC3    C3 5257   3.307   0.764  10.055 -0.2998  0.2617  0.2126
  351TMC3    C4 5258   3.236   0.968  10.223  0.3885 -0.0344 -0.3010
  351TMC3    C5 5259   3.164   0.852  10.221 -0.5777 -0.0006  0.0935
  351TMC3    C6 5260   3.199   0.747  10.143  0.5515  0.1239  0.0261
  351TMC3     C 5261   3.405   1.109  10.126  0.4742  0.1889 -0.4634
  351TMC3     O 5262   3.343   1.196  10.188  0.2464  0.2427  0.2449
  351TMC3     H 5263   3.447   0.907   9.966 -0.8165  0.4611  0.1425
  351TMC3    H1 5264   3.222   1.042  10.300  2.2131  0.1750 -0.1699
  351TMC3    H2 5265   3.139   0.657  10.146  2.0891 -0.8478  1.6876
  351TMC3    C7 5266   3.027   0.848  10.272  0.5563 -0.3942 -0.4233
  351TMC3    C8 5267   3.336   0.664   9.952  0.4041  0.0541 -0.4284
  351TMC3    O1 5268   2.953   0.752  10.249 -0.1972  0.0099  0.2546
  351TMC3    O2 5269   3.386   0.713   9.844 -0.0117  0.1167  0.2843
  352MPD2     C 5270   0.443   4.178   1.382 -0.0646 -0.5969 -0.0883
  352MPD2    C1 5271   0.523   4.290   1.338  0.2535  0.1612  0.7299
  352MPD2    C2 5272   0.665   4.267   1.340 -0.4261  0.3149 -0.0552
  352MPD2    C3 5273   0.724   4.152   1.390  0.7233  0.5427  0.5762
  352MPD2    C4 5274   0.639   4.061   1.451  0.1336  0.3572 -0.7967
  352MPD2    C5 5275   0.503   4.069   1.440  0.0375  0.3817  0.2034
  352MPD2     H 5276   0.725   4.348   1.300  1.9298 -1.7771 -0.7152
  352MPD2    H1 5277   0.673   3.972   1.503  2.3733  2.0370  0.6006
  352MPD2    H2 5278   0.336   4.165   1.369 -0.1813  1.2903 -1.0696
  352MPD2    H3 5279   0.438   3.990   1.476  1.5784 -0.9496  0.0626
  352MPD2     N 5280   0.860   4.124   1.394 -0.2292  0.3641 -0.7875
  352MPD2    H5 5281   0.888   4.036   1.434 -1.4098  0.5023  0.3634
  352MPD2    N1 5282   0.459   4.402   1.276 -0.3789  0.0048 -0.0408
  352MPD2    H7 5283   0.358   4.407   1.280 -0.3359  0.3151  0.6239
  353TMC3    C1 5284   1.087   4.145   1.317 -0.4647  0.4245 -0.0625
  353TMC3    C2 5285   1.133   4.044   1.398 -0.3700 -0.0828  0.0865
  353TMC3    C3 5286   1.225   3.965   1.337 -0.0088 -0.4991  0.0874
  353TMC3    C4 5287   1.134   4.169   1.194 -0.0189 -0.2038 -0.9709
  353TMC3    C5 5288   1.234   4.091   1.143 -0.8763 -0.0550 -0.2776
  353TMC3    C6 5289   1.289   3.993   1.216  0.0593 -0.6924 -0.1521
  353TMC3     C 5290   0.956   4.205   1.333 -0.0086 -0.2482  0.7086
  353TMC3     O 5291   0.947   4.319   1.285 -0.4333  0.0360  0.1436
  353TMC3     H 5292   1.097   4.023   1.498 -0.9904  0.4360 -0.0297
  353TMC3    H1 5293   1.075   4.239   1.136 -1.2312 -0.5343 -0.1453
  353TMC3    H2 5294   1.358   3.928   1.163  0.7460 -0.5759  0.5920
  353TMC3    C7 5295   1.212   4.039   1.008  0.3840  0.4705 -0.6276
  353TMC3    C8 5296   1.274   3.847   1.408 -0.3424  0.8620  0.2263
  353TMC3    O1 5297   1.215   3.917   0.989  0.5023  0.1101  0.1712
  353TMC3    O2 5298   1.237   3.838   1.524  0.4361 -0.3045 -0.3039
  354TMC3    C1 5299   2.894   0.278  13.394  0.5116  0.1787  0.4948
  354TMC3    C2 5300   2.937   0.407  13.382  0.1684 -0.3511 -0.3007
  354TMC3    C3 5301   2.924   0.465  13.261  0.3858 -0.3961 -0.3075
  354TMC3    C4 5302   2.840   0.208  13.293 -0.2518 -0.1027 -0.0512
  354TMC3    C5 5303   2.858   0.258  13.168  0.3733  0.4523  0.8794
  354TMC3    C6 5304   2.881   0.393  13.154 -0.2097  0.8189 -0.4846
  354TMC3     C 5305   2.855   0.229  13.521  0.0214 -0.3072 -0.0436
  354TMC3     O 5306   2.774   0.137  13.529 -0.1537 -0.6249 -0.1453
  354TMC3     H 5307   3.001   0.456  13.454 -2.4200  2.2029  0.2643
  354TMC3    H1 5308   2.833   0.101  13.312 -1.3303 -0.3762 -1.9920
  354TMC3    H2 5309   2.863   0.444  13.059  1.5230  0.8113 -0.8108
  354TMC3    C7 5310   2.919   0.168  13.078  0.2950 -0.0240  0.1333
  354TMC3    C8 5311   2.943   0.606  13.260 -0.2847 -0.2319  0.1314
  354TMC3    O1 5312   2.906   0.046  13.084 -0.4106 -0.2650 -0.1172
  354TMC3    O2 5313   2.957   0.668  13.364 -0.3870  0.4611  0.3662
  355MPD2     C 5314   3.615   1.044  11.734  0.1759 -0.0086 -0.1175
  355MPD2    C1 5315   3.679   1.033  11.616 -0.0342 -0.0036  0.1407
  355MPD2    C2 5316   3.820   1.031  11.625 -1.1692 -0.3251 -0.3184
  355MPD2    C3 5317   3.895   1.065  11.739  0.0637  0.1524 -0.4814
  355MPD2    C4 5318   3.818   1.089  11.856 -0.0655  1.0419 -0.1930
  355MPD2    C5 5319   3.680   1.070  11.854 -0.5484 -0.5627 -0.6212
  355MPD2     H 5320   3.877   1.002  11.537 -1.3090 -2.1905  0.2210
  355MPD2    H1 5321   3.852   1.105  11.957 -1.2265  1.6919  0.1014
  355MPD2    H2 5322   3.508   1.029  11.738  0.1214  0.2427 -0.6153
  355MPD2    H3 5323   3.630   1.078  11.950  1.9795 -1.7170  0.7831
  355MPD2     N 5324   4.038   1.072  11.752 -0.7013  0.4139 -0.1718
  355MPD2    H5 5325   4.083   1.087  11.842 -1.3016  2.0038 -0.1441
  355MPD2    N1 5326   3.602   0.999  11.507 -0.1202  0.0750 -0.0843
  355MPD2    H7 5327   3.503   0.981  11.525 -0.4258  0.0679 -1.7154
  356TMC3    C1 5328   4.258   1.085  11.660  0.5023  0.1314  0.3059
  356TMC3    C2 5329   4.329   1.137  11.553 -0.1762  0.3296 -0.7735
  356TMC3    C3 5330   4.443   1.209  11.562 -0.3158 -0.0507 -0.0332
  356TMC3    C4 5331   4.310   1.105  11.780  0.2196 -0.4309  0.7066
  356TMC3    C5 5332   4.420   1.186  11.791 -0.5970 -0.5401 -0.6226
  356TMC3    C6 5333   4.489   1.236  11.687 -0.2977  0.4388  0.2110
  356TMC3     C 5334   4.122   1.043  11.641  0.6338 -0.5163 -0.0893
  356TMC3     O 5335   4.098   1.004  11.531 -0.1834 -0.5733  0.0142
  356TMC3     H 5336   4.286   1.111  11.457 -2.8582  1.6636  0.0869
  356TMC3    H1 5337   4.256   1.076  11.869  1.1799  0.1048  1.4532
  356TMC3    H2 5338   4.584   1.288  11.693  1.2944 -2.5378  0.8527
  356TMC3    C7 5339   4.445   1.236  11.924 -0.1680 -0.8187 -0.0532
  356TMC3    C8 5340   4.511   1.249  11.443  0.7853 -0.3179  0.9834
  356TMC3    O1 5341   4.407   1.158  12.013 -0.0573  0.1108  0.4035
  356TMC3    O2 5342   4.479   1.206  11.335 -0.5705 -0.5496 -0.5847
  357MPD2     C 5343   2.454   1.054   1.418 -0.5877 -0.2578 -0.8900
  357MPD2    C1 5344   2.510   0.949   1.334  0.1258  0.1382 -0.1224
  357MPD2    C2 5345   2.434   0.831   1.322  0.3988  0.6826  0.5063
  357MPD2    C3 5346   2.306   0.818   1.379  0.7736  0.2684 -0.3224
  357MPD2    C4 5347   2.255   0.925   1.454 -0.1752  0.8052 -0.3612
  357MPD2    C5 5348   2.328   1.038   1.471 -0.2470 -0.1702 -0.0722
  357MPD2     H 5349   2.474   0.746   1.267  0.0671  0.1388  1.1115
  357MPD2    H1 5350   2.154   0.915   1.490  0.7323  3.8203  2.9630
  357MPD2    H2 5351   2.509   1.147   1.426 -0.1272 -0.6675  0.8042
  357MPD2    H3 5352   2.287   1.122   1.527  1.0463 -1.0109  2.1520
  357MPD2     N 5353   2.216   0.705   1.373 -0.3038  0.0149 -0.4794
  357MPD2    H5 5354   2.128   0.710   1.423 -0.4528 -1.7111 -0.5821
  357MPD2    N1 5355   2.637   0.977   1.277 -0.3392  0.1205  0.3497
  357MPD2    H7 5356   2.674   1.067   1.305 -1.6585  0.7684 -0.0143
  358TMC3    C1 5357   2.842   0.939   1.159  0.4831  0.2019  0.4832
  358TMC3    C2 5358   2.900   0.886   1.044  0.0794  0.0243 -0.0725
  358TMC3    C3 5359   3.030   0.906   1.020 -0.6415 -0.3033 -0.8444
  358TMC3    C4 5360   2.916   1.018   1.243 -0.0195 -0.4750  0.3138
  358TMC3    C5 5361   3.044   1.041   1.213 -0.0766 -0.5999 -0.0982
  358TMC3    C6 5362   3.106   0.986   1.100  0.5378  0.5293  0.6116
  358TMC3     C 5363   2.708   0.890   1.194 -0.1575 -0.7130  0.6449
  358TMC3     O 5364   2.671   0.795   1.128  0.1697 -0.7152 -0.3852
  358TMC3     H 5365   2.839   0.830   0.974  1.2902  0.4786 -1.4668
  358TMC3    H1 5366   2.874   1.043   1.339  1.6269 -0.5329  1.0417
  358TMC3    H2 5367   3.201   1.026   1.068 -0.9279  2.5101 -1.3252
  358TMC3    C7 5368   3.133   1.099   1.312  0.0023  0.1360 -0.5916
  358TMC3    C8 5369   3.095   0.866   0.894 -0.0923 -0.5293 -0.2061
  358TMC3    O1 5370   3.244   1.045   1.324 -0.2616 -0.3036  0.3447
  358TMC3    O2 5371   3.171   0.949   0.844 -0.2276  0.6814  0.1028
  359MPD2     C 5372   3.986   0.541  12.467  0.6587 -0.0621  0.9543
  359MPD2    C1 5373   3.940   0.501  12.343 -0.3646  0.2365 -0.2246
  359MPD2    C2 5374   3.805   0.509  12.311  0.3893 -0.2009 -0.7081
  359MPD2    C3 5375   3.712   0.561  12.405  0.4804  0.0631  0.7173
  359MPD2    C4 5376   3.760   0.597  12.530  0.5390 -0.4548  0.3356
  359MPD2    C5 5377   3.897   0.586  12.557  0.3297  0.2594 -0.9234
  359MPD2     H 5378   3.777   0.484  12.210 -0.2585 -1.5817 -0.1935
  359MPD2    H1 5379   3.703   0.645  12.609 -0.5009 -1.6596  0.3114
  359MPD2    H2 5380   4.086   0.578  12.485 -0.3577  1.6432  3.1741
  359MPD2    H3 5381   3.933   0.635  12.647  0.9350 -0.6671 -0.6572
  359MPD2     N 5382   3.570   0.570  12.382 -0.5650  0.1620 -0.6926
  359MPD2    H5 5383   3.515   0.612  12.456  0.9885 -0.9620  1.1206
  359MPD2    N1 5384   4.035   0.465  12.244  0.1768 -0.1570  0.5010
  359MPD2    H7 5385   3.994   0.418  12.163  0.9528 -2.4018  1.4099
  360TMC3    C1 5386   4.235   0.420  12.136  0.6059  0.2134 -0.4321
  360TMC3    C2 5387   4.356   0.471  12.109  0.2874 -0.3935  0.4505
  360TMC3    C3 5388   4.428   0.399  12.014  1.7375  0.1611 -0.0824
  360TMC3    C4 5389   4.170   0.313  12.084 -0.1127 -0.6376  0.4014
  360TMC3    C5 5390   4.243   0.247  11.991 -0.3216 -0.1479  0.4940
  360TMC3    C6 5391   4.369   0.290  11.949 -0.3851 -0.1604 -0.2838
  360TMC3     C 5392   4.167   0.494  12.241 -0.7382 -0.7447  0.0068
  360TMC3     O 5393   4.228   0.563  12.319  0.2705 -0.3946  0.5450
  360TMC3     H 5394   4.391   0.565  12.151 -2.4602  0.5081  0.6967
  360TMC3    H1 5395   4.083   0.274  12.135 -0.5226 -1.6125 -1.0246
  360TMC3    H2 5396   4.418   0.239  11.868  0.1189 -0.8131  0.4371
  360TMC3    C7 5397   4.208   0.125  11.927  0.4190 -0.0311 -0.1589
  360TMC3    C8 5398   4.539   0.472  11.969 -0.2745 -0.4229 -0.1869
  360TMC3    O1 5399   4.289   0.056  11.872  0.1883  0.3406  0.0318
  360TMC3    O2 5400   4.552   0.589  11.996  0.4081 -0.0806 -0.4244
  361MPD2     C 5401   0.153   3.738  17.234  0.5791  0.8424 -0.8349
  361MPD2    C1 5402   0.122   3.823  17.335 -0.2277  0.4776  0.0003
  361MPD2    C2 5403   0.153   3.784  17.463  0.6479  0.3539  0.3595
  361MPD2    C3 5404   0.224   3.672  17.487 -0.0221 -0.3624 -0.0249
  361MPD2    C4 5405   0.248   3.578  17.390  0.3576 -0.2336 -0.3337
  361MPD2    C5 5406   0.213   3.618  17.262 -0.4874 -0.1143  0.1464
  361MPD2     H 5407   0.131   3.850  17.547  0.2914  1.6174 -0.7214
  361MPD2    H1 5408   0.306   3.488  17.408  0.4255 -0.8781 -3.6379
  361MPD2    H2 5409   0.127   3.767  17.133 -0.7185 -0.3199 -0.8326
  361MPD2    H3 5410   0.227   3.548  17.180  1.3400 -1.0308  1.2301
  361MPD2     N 5411   0.271   3.633  17.611  0.7911 -0.8870  0.0610
  361MPD2    H5 5412   0.313   3.542  17.624 -1.9998 -2.0961  0.5615
  361MPD2    N1 5413   0.051   3.945  17.322  0.0945 -0.4523  0.0281
  361MPD2    H7 5414   0.014   3.976  17.411  0.1712 -2.0518  0.6189
  362TMC3    C1 5415   4.664   4.118  17.225  0.2669  0.0015  0.1763
  362TMC3    C2 5416   4.574   4.116  17.330 -0.5502  0.1512  1.1898
  362TMC3    C3 5417   4.478   4.210  17.332 -0.1270  0.1986  0.1832
  362TMC3    C4 5418   4.681   4.227  17.137 -0.2429 -0.6015  0.2435
  362TMC3    C5 5419   4.594   4.328  17.159 -0.6797 -0.1571  0.6864
  362TMC3    C6 5420   4.489   4.318  17.244 -0.0800 -0.4842  0.3046
  362TMC3     C 5421   0.034   4.014  17.207 -0.1550  0.4609  0.2178
  362TMC3     O 5422   0.084   4.000  17.094 -0.1186 -0.2479  0.2266
  362TMC3     H 5423   4.556   4.024  17.385 -0.7721 -0.2217  0.5015
  362TMC3    H1 5424   0.010   4.225  17.043  1.5890 -0.2145  1.3057
  362TMC3    H2 5425   4.434   4.409  17.262 -1.1929 -0.9043 -0.9345
  362TMC3    C7 5426   4.612   4.457  17.092  0.2460 -0.7451 -0.7325
  362TMC3    C8 5427   4.364   4.200  17.421  0.1495 -0.1599  0.2503
  362TMC3    O1 5428   4.506   4.524  17.083  0.0587  0.0992 -0.2333
  362TMC3    O2 5429   4.362   4.105  17.498  0.0740  0.1486 -0.2161
  363TMC3    C1 5430   4.531   1.370   9.267  0.5744  0.1849 -0.0326
  363TMC3    C2 5431   4.561   1.239   9.273  0.3691 -0.3153 -0.8355
  363TMC3    C3 5432   4.461   1.155   9.306 -0.1335 -0.6281  1.0557
  363TMC3    C4 5433   4.402   1.417   9.289 -0.3232 -0.0447  0.1031
  363TMC3    C5 5434   4.301   1.323   9.313  0.4452  0.6160  0.0630
  363TMC3    C6 5435   4.332   1.192   9.334  0.3435 -0.5620 -0.0522
  363TMC3     C 5436   4.615   1.471   9.197  0.5546  0.0912 -0.0361
  363TMC3     O 5437   4.575   1.584   9.188  0.1355  0.0382  0.7279
  363TMC3     H 5438   4.658   1.198   9.250 -0.2520 -2.6076  0.5801
  363TMC3    H1 5439   4.373   1.519   9.270  1.1968  0.3106 -0.3230
  363TMC3    H2 5440   4.258   1.118   9.363 -0.7900  0.4252 -0.4244
  363TMC3    C7 5441   4.162   1.367   9.338  0.3118  1.6388  0.1366
  363TMC3    C8 5442   4.483   1.008   9.294 -0.1842  0.3233  0.0588
  363TMC3    O1 5443   4.082   1.278   9.372  0.3976  0.0454  0.0192
  363TMC3    O2 5444   4.395   0.943   9.243 -0.2224  0.1591 -0.3536
  364MPD2     C 5445   3.015   0.262  10.883  0.1045  0.3484 -0.6177
  364MPD2    C1 5446   3.096   0.190  10.801  0.5281 -0.2514 -0.3459
  364MPD2    C2 5447   3.090   0.053  10.802 -0.5062  0.0820 -0.0701
  364MPD2    C3 5448   2.997   4.709  10.880 -0.3523  0.1223  0.5634
  364MPD2    C4 5449   2.918   0.065  10.963 -0.2597  0.3530  0.3598
  364MPD2    C5 5450   2.922   0.200  10.963 -0.0684 -0.3953 -0.9712
  364MPD2     H 5451   3.155   0.008  10.728  0.0862  1.7849 -0.5837
  364MPD2    H1 5452   2.839   0.014  11.017 -0.4886  0.8601  0.5074
  364MPD2    H2 5453   3.027   0.368  10.900 -1.1891  0.4561 -0.3654
  364MPD2    H3 5454   2.861   0.265  11.024  1.5462  1.4915 -1.3931
  364MPD2     N 5455   2.995   4.568  10.893  0.0470 -0.2853 -0.3793
  364MPD2    H5 5456   2.937   4.531  10.968  1.4792 -2.7700 -0.5123
  364MPD2    N1 5457   3.189   0.265  10.721 -0.2249  0.0231 -0.0328
  364MPD2    H7 5458   3.189   0.363  10.745  1.4019 -0.1612  0.7488
  365TMC3    C1 5459   3.365   0.320  10.559 -0.2710 -0.6447 -0.0305
  365TMC3    C2 5460   3.463   0.287  10.474 -0.0350  0.2212  0.8260
  365TMC3    C3 5461   3.514   0.376  10.382 -0.6526 -0.4285 -0.6121
  365TMC3    C4 5462   3.321   0.450  10.564 -0.3921 -0.9792 -0.1319
  365TMC3    C5 5463   3.378   0.543  10.484  0.0325  0.4354 -0.4112
  365TMC3    C6 5464   3.462   0.505  10.378 -1.0369  0.2784  0.2302
  365TMC3     C 5465   3.295   0.215  10.636  0.1406 -0.3957  0.5893
  365TMC3     O 5466   3.322   0.097  10.613 -0.4540  0.1653 -0.3819
  365TMC3     H 5467   3.490   0.183  10.486  1.2328  0.7139  2.2735
  365TMC3    H1 5468   3.236   0.478  10.624 -0.7638  1.5261 -1.7871
  365TMC3    H2 5469   3.500   0.572  10.301 -0.3588 -1.0611 -0.6106
  365TMC3    C7 5470   3.324   0.682  10.475 -0.0990  0.3064 -0.1868
  365TMC3    C8 5471   3.601   0.327  10.279 -1.2970 -0.5079 -0.8347
  365TMC3    O1 5472   3.406   0.769  10.445  0.2034  1.2540 -0.5474
  365TMC3    O2 5473   3.671   0.404  10.216 -0.1604  0.5311  0.8456
  366MPD2     C 5474   0.948   1.598  14.983  0.6850  0.2826  0.8250
  366MPD2    C1 5475   0.914   1.645  15.107 -0.4208  0.7813  0.2320
  366MPD2    C2 5476   0.952   1.566  15.218 -0.2044 -0.2278  0.1920
  366MPD2    C3 5477   1.045   1.468  15.214  0.3007 -0.0138  0.2885
  366MPD2    C4 5478   1.091   1.434  15.087  1.3427  0.6014 -0.3315
  366MPD2    C5 5479   1.034   1.490  14.973 -0.0996  0.0451  0.3760
  366MPD2     H 5480   0.904   1.594  15.311  0.5307  1.2152  0.1370
  366MPD2    H1 5481   1.168   1.358  15.078  1.2249  0.4711 -0.2399
  366MPD2    H2 5482   0.911   1.626  14.885  1.9839  0.7738  0.4717
  366MPD2    H3 5483   1.080   1.464  14.878 -1.3735 -0.0988 -0.1920
  366MPD2     N 5484   1.086   1.393  15.330 -0.0415 -0.4145  0.2217
  366MPD2    H5 5485   1.119   1.299  15.310 -1.5497 -1.1815  1.3700
  366MPD2    N1 5486   0.836   1.756  15.138 -0.0996 -1.0858 -0.6929
  366MPD2    H7 5487   0.824   1.787  15.234  3.0889 -0.2707 -0.5792
  367TMC3    C1 5488   0.707   1.956  15.095 -0.1958  0.1952 -0.2621
  367TMC3    C2 5489   0.769   2.028  15.197 -0.8550 -0.7804 -0.7820
  367TMC3    C3 5490   0.720   2.151  15.223  0.4074 -0.5853 -0.7740
  367TMC3    C4 5491   0.608   2.012  15.016  0.2377 -0.3182  0.1870
  367TMC3    C5 5492   0.562   2.137  15.051  0.4658 -0.1494 -0.0800
  367TMC3    C6 5493   0.611   2.204  15.157 -0.0946 -0.3681 -0.9018
  367TMC3     C 5494   0.775   1.834  15.046  0.5348 -0.5657  0.8562
  367TMC3     O 5495   0.753   1.802  14.929 -0.1018 -0.4313 -0.1422
  367TMC3     H 5496   0.865   2.001  15.238 -1.6619  0.6801  2.0596
  367TMC3    H1 5497   0.569   1.960  14.929  0.5499 -0.8516  0.3677
  367TMC3    H2 5498   0.563   2.296  15.190  1.0464  0.4857 -1.6471
  367TMC3    C7 5499   0.460   2.203  14.970  0.0315  0.3741  0.2442
  367TMC3    C8 5500   0.797   2.238  15.306 -0.4573  0.3698  0.7202
  367TMC3    O1 5501   0.473   2.328  14.972 -0.8611 -0.4635  0.0393
  367TMC3    O2 5502   0.880   2.179  15.371  0.3207  0.1876 -1.1056
  368MPD2     C 5503   2.532   3.873  12.619  0.3920 -0.3205 -0.7719
  368MPD2    C1 5504   2.451   3.964  12.548  0.6198  0.0120  0.2242
  368MPD2    C2 5505   2.507   4.044  12.450  1.1943  0.9545  0.6980
  368MPD2    C3 5506   2.643   4.027  12.410  0.1804 -0.3968  0.7675
  368MPD2    C4 5507   2.720   3.939  12.480  0.5498  0.1265  0.6627
  368MPD2    C5 5508   2.663   3.870  12.585 -0.2583  0.1080 -0.0809
  368MPD2     H 5509   2.451   4.118  12.394  0.2291 -0.0846  0.2993
  368MPD2    H1 5510   2.826   3.926  12.459  0.0836 -2.1271 -0.2799
  368MPD2    H2 5511   2.500   3.813  12.703  2.8976  0.2510  0.5819
  368MPD2    H3 5512   2.726   3.803  12.642 -2.1451 -0.2265  1.5987
  368MPD2     N 5513   2.717   4.111  12.320  0.0784 -0.1954 -0.3776
  368MPD2    H5 5514   2.815   4.089  12.306  0.0725  0.4081 -1.3724
  368MPD2    N1 5515   2.323   3.985  12.572  1.1174 -0.8234 -0.2065
  368MPD2    H7 5516   2.262   4.037  12.510  2.2121 -0.3684 -0.9149
  369TMC3    C1 5517   2.126   3.999  12.710 -0.1482 -0.3250  0.1100
  369TMC3    C2 5518   2.081   4.100  12.637 -0.4093 -0.0176  0.0182
  369TMC3    C3 5519   1.946   4.125  12.628  0.1315 -0.7804 -0.5212
  369TMC3    C4 5520   2.044   3.903  12.765  0.8711 -0.3201 -0.1010
  369TMC3    C5 5521   1.915   3.922  12.738  0.0959 -0.2775 -0.5859
  369TMC3    C6 5522   1.860   4.028  12.666 -0.4951  0.2514 -0.5054
  369TMC3     C 5523   2.262   3.954  12.695  0.6968 -0.1196  0.3212
  369TMC3     O 5524   2.319   3.912  12.789  0.2988  0.2063 -0.1564
  369TMC3     H 5525   2.152   4.171  12.597 -1.5477  0.9813 -0.2356
  369TMC3    H1 5526   2.085   3.810  12.803 -1.2720 -1.0820  0.3234
  369TMC3    H2 5527   1.752   4.034  12.663 -0.5329  0.1602  0.4996
  369TMC3    C7 5528   1.833   3.805  12.760  0.5321  0.0374  0.0962
  369TMC3    C8 5529   1.915   4.196  12.510  0.5235  1.3671  0.1816
  369TMC3    O1 5530   1.881   3.716  12.826 -0.2738  0.2690  0.4477
  369TMC3    O2 5531   1.995   4.194  12.416  0.3954 -0.6479  0.2766
  370TMC3    C1 5532   1.681   4.653  16.400 -0.4976  0.1372 -0.1619
  370TMC3    C2 5533   1.587   4.650  16.505  0.4542  0.3744 -0.2797
  370TMC3    C3 5534   1.516   4.528  16.513 -0.2924 -0.3128  0.0064
  370TMC3    C4 5535   1.700   4.554  16.307 -0.0576  0.2453  0.6112
  370TMC3    C5 5536   1.614   4.448  16.314 -0.1015 -0.4195  0.2655
  370TMC3    C6 5537   1.518   4.438  16.411 -0.1229  0.6193  0.3958
  370TMC3     C 5538   1.785   0.031  16.389 -0.7403 -0.8350 -0.3175
  370TMC3     O 5539   1.897   4.709  16.377 -0.1291  0.0710  0.6560
  370TMC3     H 5540   1.579   0.011  16.570 -2.2619  0.2156 -0.3890
  370TMC3    H1 5541   1.792   4.560  16.250  0.1833 -1.0543  0.8725
  370TMC3    H2 5542   1.466   4.346  16.432  0.3812  0.4108  0.7533
  370TMC3    C7 5543   1.655   4.326  16.254  0.0327  0.3158 -0.3331
  370TMC3    C8 5544   1.498   4.467  16.642  0.1603  0.0304  0.1327
  370TMC3    O1 5545   1.749   4.344  16.177  0.1718 -0.2778 -0.1349
  370TMC3    O2 5546   1.478   4.347  16.652 -0.6490  0.5815 -0.3746
  371TMC3    C1 5547   2.543   2.836  15.602 -0.2079  0.0075  0.7782
  371TMC3    C2 5548   2.538   2.819  15.743 -0.9126  0.2970 -0.5205
  371TMC3    C3 5549   2.493   2.933  15.808  0.1573 -0.3981 -0.5209
  371TMC3    C4 5550   2.528   2.947  15.528  0.2332 -0.0563 -0.1796
  371TMC3    C5 5551   2.496   3.057  15.597  0.3800 -0.0257 -0.5088
  371TMC3    C6 5552   2.472   3.050  15.734 -0.4063 -0.2970 -0.1986
  371TMC3     C 5553   2.558   2.705  15.527  1.0053  0.5152  0.0913
  371TMC3     O 5554   2.595   2.712  15.410 -0.4378  0.0725 -0.0207
  371TMC3     H 5555   2.567   2.732  15.800 -1.3259  0.4178 -0.1203
  371TMC3    H1 5556   2.528   2.944  15.420  2.0158 -0.0577 -0.1662
  371TMC3    H2 5557   2.429   3.138  15.780  0.9448 -0.3548  1.1874
  371TMC3    C7 5558   2.501   3.193  15.545  0.5984  0.1750 -0.1203
  371TMC3    C8 5559   2.453   2.929  15.949  0.0347  0.0599 -0.8114
  371TMC3    O1 5560   2.482   3.288  15.618  0.0728  0.2431  0.2815
  371TMC3    O2 5561   2.483   2.824  16.008  0.2062  0.2960 -0.1379
  372MPD2     C 5562   2.746   3.679  12.927 -0.4791  0.6769 -0.0525
  372MPD2    C1 5563   2.784   3.724  13.052 -0.2688 -0.7206  0.1472
  372MPD2    C2 5564   2.736   3.655  13.163  0.1428  0.2453 -0.3614
  372MPD2    C3 5565   2.654   3.546  13.158 -0.0157  0.0069 -0.3189
  372MPD2    C4 5566   2.621   3.507  13.034 -0.0299  0.5851 -0.5100
  372MPD2    C5 5567   2.668   3.566  12.924 -0.5279 -0.1232  0.0810
  372MPD2     H 5568   2.767   3.687  13.261 -2.3449  1.1648  0.1331
  372MPD2    H1 5569   2.555   3.421  13.026 -0.3614  0.8227 -0.3229
  372MPD2    H2 5570   2.774   3.727  12.834 -2.1350  1.7816  0.0074
  372MPD2    H3 5571   2.629   3.531  12.829 -2.7098  1.8438  0.2504
  372MPD2     N 5572   2.596   3.492  13.270  0.2861  0.3885  0.1073
  372MPD2    H5 5573   2.608   3.547  13.355 -3.4217  2.3877 -0.6428
  372MPD2    N1 5574   2.869   3.837  13.070  0.2365 -0.0073 -0.2184
  372MPD2    H7 5575   2.907   3.858  13.162  0.2689  1.5207 -0.5852
  373TMC3    C1 5576   2.524   3.315  13.398 -0.0265  0.1727 -1.2095
  373TMC3    C2 5577   2.454   3.396  13.480  0.3259  0.5064 -0.2554
  373TMC3    C3 5578   2.405   3.335  13.593 -0.1013  0.2402  0.4498
  373TMC3    C4 5579   2.575   3.193  13.438  0.0080 -0.0418  0.3094
  373TMC3    C5 5580   2.534   3.140  13.555 -1.7355 -0.1780  0.3065
  373TMC3    C6 5581   2.441   3.204  13.635  0.7777  0.5280  0.3409
  373TMC3     C 5582   2.583   3.358  13.274 -1.1355  0.3233  0.4220
  373TMC3     O 5583   2.612   3.273  13.192 -0.7199 -0.3974 -0.2410
  373TMC3     H 5584   2.421   3.490  13.439  0.4765 -0.4695 -2.5967
  373TMC3    H1 5585   2.649   3.139  13.380 -0.8548 -0.5689 -0.2962
  373TMC3    H2 5586   2.415   3.167  13.733  2.5450  0.5238  0.8132
  373TMC3    C7 5587   2.532   2.995  13.564  0.3705 -0.1304 -0.4424
  373TMC3    C8 5588   2.351   3.433  13.691 -0.1420 -0.1683  0.2092
  373TMC3    O1 5589   2.627   2.942  13.518  0.2416 -0.2556 -0.1989
  373TMC3    O2 5590   2.356   3.549  13.655 -1.1636  0.0786  0.4697
  374TMC3    C1 5591   3.847   3.224   9.617 -1.3626  0.2237 -0.1129
  374TMC3    C2 5592   3.907   3.344   9.658 -0.0913  0.5716 -0.5152
  374TMC3    C3 5593   3.955   3.421   9.558  0.1568  0.0815 -0.1284
  374TMC3    C4 5594   3.837   3.188   9.483  0.5073 -0.0875  0.4143
  374TMC3    C5 5595   3.889   3.270   9.389  0.2820  0.4154  0.1915
  374TMC3    C6 5596   3.955   3.382   9.430 -0.3098 -0.4511  0.7573
  374TMC3     C 5597   3.834   3.109   9.706  0.4222 -0.3772 -0.8712
  374TMC3     O 5598   3.843   2.995   9.665 -0.1645  0.4249  0.3931
  374TMC3     H 5599   3.896   3.380   9.760 -0.1841 -1.4269  0.1730
  374TMC3    H1 5600   3.812   3.085   9.465 -2.3577  0.5464  0.7350
  374TMC3    H2 5601   4.007   3.442   9.357 -0.5234 -2.4963 -1.0866
  374TMC3    C7 5602   3.876   3.233   9.251  0.1532 -0.4485  0.9244
  374TMC3    C8 5603   3.993   3.558   9.584 -0.3211  0.2208 -1.1215
  374TMC3    O1 5604   3.807   3.136   9.227 -0.1280  0.6255  0.0671
  374TMC3    O2 5605   3.965   3.634   9.496  0.2970  0.1379  0.4422
  375MPD2     C 5606   2.783   0.793   0.236 -0.2874  0.0974 -0.2326
  375MPD2    C1 5607   2.723   0.871   0.142 -0.5595 -0.3440  0.2117
  375MPD2    C2 5608   2.767   0.861   0.012  0.3691 -0.5561 -0.3220
  375MPD2    C3 5609   2.858   0.775  17.673  0.7740  0.5931 -0.0804
  375MPD2    C4 5610   2.919   0.687   0.063 -0.4061  0.8324  0.1623
  375MPD2    C5 5611   2.878   0.698   0.195  0.4236 -0.2670  0.4499
  375MPD2     H 5612   2.725   0.931  17.645 -3.7240 -1.3148  1.3045
  375MPD2    H1 5613   2.989   0.611   0.032  0.0153  1.6941 -0.9912
  375MPD2    H2 5614   2.758   0.791   0.342  1.3824 -2.4430  0.1135
  375MPD2    H3 5615   2.926   0.635   0.269 -0.1081 -1.3017 -0.0851
  375MPD2     N 5616   2.896   0.770  17.536  0.4638 -0.3255  0.3483
  375MPD2    H5 5617   2.974   0.709  17.512  0.4915 -0.0779 -0.1936
  375MPD2    N1 5618   2.625   0.962   0.170 -0.3301 -0.0398 -0.2213
  375MPD2    H7 5619   2.592   0.999   0.081  0.2169  2.1871  0.5091
  376TMC3    C1 5620   2.939   0.838  17.323  0.2475  0.6392  0.7247
  376TMC3    C2 5621   3.076   0.823  17.341 -0.0600 -0.2924 -0.6454
  376TMC3    C3 5622   3.151   0.823  17.227 -0.1289 -0.4740 -0.0391
  376TMC3    C4 5623   2.884   0.847  17.195  0.3295 -0.6424  0.4248
  376TMC3    C5 5624   2.964   0.832  17.090 -0.6516  0.1941 -0.1815
  376TMC3    C6 5625   3.099   0.815  17.102 -0.2365 -0.9949 -0.1600
  376TMC3     C 5626   2.855   0.853  17.438 -0.0932 -0.6755 -0.0694
  376TMC3     O 5627   2.742   0.894  17.421  0.0438  0.0174  0.0719
  376TMC3     H 5628   3.119   0.825  17.441  1.4339 -1.6198 -1.2617
  376TMC3    H1 5629   2.779   0.873  17.189  0.0439 -2.2590 -1.5671
  376TMC3    H2 5630   3.152   0.809  17.007  0.0099  0.2380 -0.0966
  376TMC3    C7 5631   2.906   0.761  16.977  0.7344  0.0384 -0.3823
  376TMC3    C8 5632   3.290   0.779  17.244 -0.1335 -0.5459  0.3364
  376TMC3    O1 5633   2.962   0.775  16.868  0.4436 -0.0087  0.4841
  376TMC3    O2 5634   3.333   0.750  17.355 -0.4394  0.0163 -0.1309
  377MPD2     C 5635   1.130   4.059  11.937  0.3299 -0.7395 -0.0296
  377MPD2    C1 5636   1.197   4.050  12.054  0.2883 -0.0395 -0.1864
  377MPD2    C2 5637   1.122   4.055  12.167 -0.6254  0.1842 -0.1235
  377MPD2    C3 5638   0.979   4.062  12.162 -0.2685 -0.8545  0.6954
  377MPD2    C4 5639   0.918   4.073  12.041 -0.6056 -1.0364  0.0112
  377MPD2    C5 5640   0.995   4.077  11.929  0.6027  0.4933 -0.2486
  377MPD2     H 5641   1.174   4.073  12.261  0.2972 -2.4277 -0.1410
  377MPD2    H1 5642   0.810   4.074  12.029 -0.8324  0.3522  2.0811
  377MPD2    H2 5643   1.182   4.053  11.842 -0.8172  2.3564 -0.8385
  377MPD2    H3 5644   0.947   4.086  11.833 -0.7053  0.1144  0.3694
  377MPD2     N 5645   0.901   4.089  12.275 -0.2068 -0.0057  0.2229
  377MPD2    H5 5646   0.800   4.093  12.271 -0.0578  0.4849 -2.6597
  377MPD2    N1 5647   1.335   4.034  12.045 -0.0504  0.2497  0.6168
  377MPD2    H7 5648   1.368   4.039  11.949 -0.8655 -0.1827  0.3125
  378TMC3    C1 5649   1.735   4.003  11.978  0.5469 -0.4888  0.5324
  378TMC3    C2 5650   1.604   4.009  11.993 -0.1355  0.1040  1.0946
  378TMC3    C3 5651   1.554   4.011  12.118  0.1729 -0.0885 -0.0974
  378TMC3    C4 5652   1.817   3.980  12.087 -0.5624  0.0444 -0.1644
  378TMC3    C5 5653   1.770   3.990  12.217  0.1677  0.2253  0.1157
  378TMC3    C6 5654   1.633   4.004  12.227 -0.5135  0.0848  0.4610
  378TMC3     C 5655   1.799   4.026  11.847 -0.4375  0.5918  0.4823
  378TMC3     O 5656   1.720   4.053  11.760  0.0207 -0.5410 -0.3838
  378TMC3     H 5657   1.537   4.006  11.909  1.7091 -0.8610 -0.3442
  378TMC3    H1 5658   1.924   3.967  12.073 -0.0195  0.7441  3.4493
  378TMC3    H2 5659   1.595   4.002  12.328  2.1024 -0.5834  1.4288
  378TMC3    C7 5660   1.838   3.934  12.332  0.3740  0.6659 -0.1484
  378TMC3    C8 5661   1.410   4.007  12.150 -0.2447 -0.1807  0.4125
  378TMC3    O1 5662   1.767   3.883  12.420 -0.6682 -0.2142  0.1160
  378TMC3    O2 5663   1.381   3.971  12.262  0.2020  0.0485  0.4211
  379MPD2     C 5664   1.240   2.734  16.380 -0.7743 -0.3673 -0.1038
  379MPD2    C1 5665   1.305   2.630  16.327  0.4047  0.2531  0.3380
  379MPD2    C2 5666   1.349   2.537  16.423  0.2361  0.3123 -0.3215
  379MPD2    C3 5667   1.305   2.542  16.558 -0.5923  0.1301  0.1797
  379MPD2    C4 5668   1.249   2.662  16.604  0.3634 -0.0557  0.3342
  379MPD2    C5 5669   1.218   2.748  16.510  0.4762  0.0006 -0.3030
  379MPD2     H 5670   1.400   2.450  16.382  0.8335  0.3389  0.3540
  379MPD2    H1 5671   1.205   2.679  16.701 -0.0661 -0.2650  0.1762
  379MPD2    H2 5672   1.198   2.812  16.316  0.9810  1.7161  1.2871
  379MPD2    H3 5673   1.160   2.838  16.529 -0.4101 -0.9199  1.3630
  379MPD2     N 5674   1.337   2.430  16.637  0.4602  0.4586  0.5394
  379MPD2    H5 5675   1.379   2.351  16.589 -0.9674 -0.6612  1.1269
  379MPD2    N1 5676   1.321   2.623  16.184 -0.4566  0.0534  0.4037
  379MPD2    H7 5677   1.290   2.701  16.128 -1.9210 -0.0793  1.0200
  380TMC3    C1 5678   1.384   2.534  15.972 -0.2146  0.0020  0.7230
  380TMC3    C2 5679   1.468   2.451  15.909 -0.0678 -0.2939  0.6678
  380TMC3    C3 5680   1.456   2.425  15.770 -0.4069  0.3651 -0.0923
  380TMC3    C4 5681   1.282   2.593  15.909  0.8272 -0.6365 -0.5054
  380TMC3    C5 5682   1.259   2.554  15.783  0.1621  0.0808 -0.5609
  380TMC3    C6 5683   1.346   2.479  15.707 -0.3111  0.9255  0.6459
  380TMC3     C 5684   1.392   2.522  16.118  0.2572 -0.9069 -0.1783
  380TMC3     O 5685   1.447   2.423  16.166 -0.3982 -0.1065 -0.6754
  380TMC3     H 5686   1.557   2.420  15.963 -0.3802 -0.0938  1.2914
  380TMC3    H1 5687   1.216   2.667  15.954  1.6790 -0.5159  0.5459
  380TMC3    H2 5688   1.342   2.467  15.600 -1.9203  1.6306  0.6300
  380TMC3    C7 5689   1.168   2.622  15.702 -0.2248 -0.1328 -0.3503
  380TMC3    C8 5690   1.574   2.413  15.688  0.2879  0.3651  0.9736
  380TMC3    O1 5691   1.145   2.739  15.731  0.0822  0.0281 -0.0854
  380TMC3    O2 5692   1.554   2.411  15.566 -0.4146 -0.7716  0.8155
  381TMC3    C1 5693   1.410   3.700  16.588  0.1240  0.7353  0.7306
  381TMC3    C2 5694   1.499   3.792  16.543  0.1437  0.1728  0.6839
  381TMC3    C3 5695   1.538   3.894  16.628  0.8475 -0.4319  0.4703
  381TMC3    C4 5696   1.334   3.724  16.707 -0.6045 -0.1160  0.0740
  381TMC3    C5 5697   1.366   3.826  16.784  0.4881  0.0373  0.5367
  381TMC3    C6 5698   1.477   3.905  16.755 -0.2644  0.8319 -0.5490
  381TMC3     C 5699   1.359   3.611  16.486 -0.3185  0.2180  0.5209
  381TMC3     O 5700   1.373   3.633  16.364 -0.2801 -0.7596  0.3029
  381TMC3     H 5701   1.555   3.762  16.455  0.8690 -0.3470  1.3136
  381TMC3    H1 5702   1.255   3.656  16.735 -1.8012  0.4293 -1.9670
  381TMC3    H2 5703   1.527   3.966  16.829 -0.3699 -0.1916  0.3774
  381TMC3    C7 5704   1.339   3.809  16.924  0.0046 -0.7969  0.1332
  381TMC3    C8 5705   1.663   3.958  16.606 -0.3466 -1.4986 -0.1751
  381TMC3    O1 5706   1.323   3.698  16.966 -0.5453 -0.6960  0.6201
  381TMC3    O2 5707   1.721   3.908  16.514 -0.4293 -0.9134  0.1048
  382MPD2     C 5708   0.217   1.730   0.877 -0.5942  0.2829  0.0278
  382MPD2    C1 5709   0.270   1.721   0.751  0.8403 -0.6812 -1.1806
  382MPD2    C2 5710   0.231   1.614   0.677  0.0721 -0.0229 -0.6144
  382MPD2    C3 5711   0.132   1.530   0.728 -0.7016 -0.1936 -0.0911
  382MPD2    C4 5712   0.087   1.540   0.857  0.0028  1.3343  0.2152
  382MPD2    C5 5713   0.132   1.643   0.928 -0.6268 -0.4120  0.0522
  382MPD2     H 5714   0.267   1.615   0.575  2.4654  4.5867  0.2743
  382MPD2    H1 5715   0.010   1.475   0.896  1.3377 -0.4950 -0.2325
  382MPD2    H2 5716   0.240   1.817   0.937  1.9407 -0.6791  0.4597
  382MPD2    H3 5717   0.085   1.659   1.024 -0.3407 -2.6405  0.5647
  382MPD2     N 5718   0.077   1.429   0.647  0.5159 -0.1360  0.0811
  382MPD2    H5 5719   0.016   1.360   0.690  0.7553 -0.0789  0.5084
  382MPD2    N1 5720   0.369   1.808   0.691 -0.1363 -0.6847  0.9207
  382MPD2    H7 5721   0.414   1.773   0.607  0.3247 -1.5098  1.5091
  383TMC3    C1 5722   0.031   1.298   0.454 -0.2658  0.1258  0.0127
  383TMC3    C2 5723   0.075   1.245   0.336 -0.3275  0.5961 -1.4617
  383TMC3    C3 5724   4.723   1.160   0.265  0.2984  0.0307  0.1884
  383TMC3    C4 5725   4.633   1.245   0.496  0.0687  0.3449 -0.4314
  383TMC3    C5 5726   4.562   1.152   0.423  0.8785  0.5671  0.0015
  383TMC3    C6 5727   4.602   1.104   0.303  0.2601  0.6011 -0.8337
  383TMC3     C 5728   0.107   1.409   0.510 -0.1174 -0.5521 -0.0148
  383TMC3     O 5729   0.191   1.462   0.432  0.2269 -0.2306 -0.3210
  383TMC3     H 5730   0.172   1.280   0.302  1.1959 -0.9746  1.1990
  383TMC3    H1 5731   4.586   1.293   0.581 -0.4286 -0.0269 -0.4966
  383TMC3    H2 5732   4.546   1.034   0.242 -2.5666  0.3216  2.0567
  383TMC3    C7 5733   4.459   1.068   0.484 -0.4343  0.2195  0.2153
  383TMC3    C8 5734   4.725   1.175   0.117  0.3403  0.4564  0.2324
  383TMC3    O1 5735   4.396   0.989   0.417  0.3372  0.2855 -0.3557
  383TMC3    O2 5736   4.626   1.123   0.062  0.6919  0.5046 -0.4437
  384MPD2     C 5737   2.554   2.089  11.877 -0.3514 -0.7050  0.3353
  384MPD2    C1 5738   2.466   2.024  11.956  0.0103 -0.1641 -0.1199
  384MPD2    C2 5739   2.482   1.886  11.976 -0.3336 -0.5522 -0.8105
  384MPD2    C3 5740   2.572   1.815  11.904 -0.6968 -0.5319 -0.0925
  384MPD2    C4 5741   2.658   1.880  11.821  0.2673  0.0406 -0.6377
  384MPD2    C5 5742   2.652   2.017  11.806  0.3823 -0.2622  0.3904
  384MPD2     H 5743   2.404   1.839  12.036 -1.2591  2.6703  0.5479
  384MPD2    H1 5744   2.730   1.822  11.765 -0.3861 -0.5189 -0.9033
  384MPD2    H2 5745   2.542   2.196  11.862  1.0469 -0.5398  0.4179
  384MPD2    H3 5746   2.729   2.060  11.744 -0.1599 -0.5166 -0.4668
  384MPD2     N 5747   2.573   1.681  11.932  0.4046 -0.5411  0.4709
  384MPD2    H5 5748   2.514   1.642  12.004 -0.9707  0.1894 -0.2720
  384MPD2    N1 5749   2.358   2.090  12.017 -0.1531 -0.6244 -0.4677
  384MPD2    H7 5750   2.364   2.191  12.014 -2.8332 -0.3781  2.9665
  385TMC3    C1 5751   2.654   1.469  11.943 -0.4659 -0.6815 -0.7796
  385TMC3    C2 5752   2.594   1.366  11.880  0.0530 -0.6181 -0.3884
  385TMC3    C3 5753   2.514   1.279  11.945  0.2148 -0.1578  0.1925
  385TMC3    C4 5754   2.637   1.479  12.076  0.1111 -0.0977 -0.6190
  385TMC3    C5 5755   2.552   1.398  12.146 -0.7669 -0.1708  0.1893
  385TMC3    C6 5756   2.491   1.294  12.079  0.0898 -0.2621  0.6388
  385TMC3     C 5757   2.660   1.593  11.877 -0.5181  0.2179  0.2153
  385TMC3     O 5758   2.735   1.611  11.783 -0.3111 -0.1962  0.5185
  385TMC3     H 5759   2.596   1.373  11.772 -0.5787 -1.6147 -0.4661
  385TMC3    H1 5760   2.683   1.560  12.132 -0.6552  0.3185 -0.5904
  385TMC3    H2 5761   2.410   1.247  12.133  0.2564 -0.6379  0.5605
  385TMC3    C7 5762   2.458   1.481  12.225  0.1011 -0.3539  0.2353
  385TMC3    C8 5763   2.432   1.183  11.881 -0.4261 -0.4512 -0.0050
  385TMC3    O1 5764   2.452   1.585  12.165  0.5377  0.3171 -0.5839
  385TMC3    O2 5765   2.361   1.114  11.956  0.3429  0.1278  0.2121
  386TMC3    C1 5766   2.879   3.991  11.644  0.1632  0.3157 -0.6350
  386TMC3    C2 5767   2.946   3.975  11.520 -0.0404 -0.3390 -0.0652
  386TMC3    C3 5768   2.923   4.072  11.420 -0.1385  0.1210 -0.2356
  386TMC3    C4 5769   2.796   4.094  11.670  0.5450  0.7465  0.2182
  386TMC3    C5 5770   2.761   4.173  11.561  0.1891 -0.9924  0.3285
  386TMC3    C6 5771   2.828   4.168  11.442 -0.8193  0.0347 -0.1784
  386TMC3     C 5772   2.953   3.957  11.766  0.8222 -0.1803 -0.1897
  386TMC3     O 5773   2.939   4.034  11.861 -0.3943 -0.3418  0.0648
  386TMC3     H 5774   3.006   3.888  11.495 -1.5495 -1.2527 -0.5058
  386TMC3    H1 5775   2.746   4.097  11.766  0.2248 -0.7252  0.1024
  386TMC3    H2 5776   2.809   4.244  11.367  0.2501 -0.8491 -1.3458
  386TMC3    C7 5777   2.626   4.228  11.563  0.4253 -0.4178  0.1697
  386TMC3    C8 5778   2.910   4.012  11.290 -0.6715  0.3637 -0.2459
  386TMC3    O1 5779   2.571   4.259  11.668 -0.2577 -0.5593 -0.1689
  386TMC3    O2 5780   2.805   4.056  11.242  0.1636  0.5481 -0.0936
  387MPD2     C 5781   0.695   4.259   9.330 -0.1841 -0.7140 -0.2187
  387MPD2    C1 5782   0.769   4.231   9.439 -0.6924  0.6505  0.2155
  387MPD2    C2 5783   0.805   4.097   9.456  0.3839  0.1290 -0.2820
  387MPD2    C3 5784   0.767   3.992   9.371  0.7263 -0.2061  0.9325
  387MPD2    C4 5785   0.685   4.025   9.266 -0.0523  0.3772 -0.6350
  387MPD2    C5 5786   0.660   4.159   9.247  0.3258  0.2534  0.1236
  387MPD2     H 5787   0.851   4.068   9.549  3.8192  2.4593 -1.2584
  387MPD2    H1 5788   0.643   3.952   9.199 -3.4136  0.6724  1.1780
  387MPD2    H2 5789   0.664   4.361   9.312 -0.8106 -0.9133 -0.2624
  387MPD2    H3 5790   0.593   4.193   9.169  0.7809  1.8656  0.4471
  387MPD2     N 5791   0.789   3.866   9.424 -0.1134  0.0806 -0.7048
  387MPD2    H5 5792   0.844   3.851   9.508 -0.8733 -2.2793 -0.6283
  387MPD2    N1 5793   0.804   4.321   9.542  0.0671  0.1147 -0.0113
  387MPD2    H7 5794   0.870   4.278   9.607 -0.9856 -0.5285  0.6319
  388TMC3    C1 5795   0.839   4.507   9.676  0.3550 -0.1629 -0.4529
  388TMC3    C2 5796   0.905   4.630   9.662 -0.3693 -0.2939  0.3100
  388TMC3    C3 5797   0.994   4.660   9.755  0.5219 -0.2573 -0.2771
  388TMC3    C4 5798   0.865   4.415   9.774 -0.0730  0.2979 -0.4347
  388TMC3    C5 5799   0.965   4.450   9.859 -0.6388 -0.1447  0.4283
  388TMC3    C6 5800   1.023   4.573   9.856 -1.0413  0.6229 -0.0908
  388TMC3     C 5801   0.771   4.450   9.564 -0.1921  0.8546 -0.3736
  388TMC3     O 5802   0.716   4.528   9.482  0.0277  0.4340  0.2084
  388TMC3     H 5803   0.894   4.689   9.571 -0.7635 -0.5839  0.1729
  388TMC3    H1 5804   0.807   4.324   9.787 -1.0756  0.8444 -1.0189
  388TMC3    H2 5805   1.080   4.601   9.944 -0.6512  0.2202 -0.2178
  388TMC3    C7 5806   1.002   4.348   9.963  0.2930  0.8364 -0.3166
  388TMC3    C8 5807   1.069   0.056   9.754  0.0648 -0.8002 -0.4147
  388TMC3    O1 5808   1.013   4.382  10.079 -0.1685 -0.2031 -0.0539
  388TMC3    O2 5809   1.016   0.150   9.691 -0.4399 -0.0756 -0.8586
  389MPD2     C 5810   0.139   2.432  10.903  0.1325 -0.6052 -0.0038
  389MPD2    C1 5811   0.093   2.308  10.866  0.6772  0.3604  0.4568
  389MPD2    C2 5812   0.020   2.226  10.954  0.3116  0.5654 -0.4531
  389MPD2    C3 5813   0.000   2.271  11.084 -1.4201  0.4862  0.2274
  389MPD2    C4 5814   0.046   2.394  11.117 -0.1499 -0.1291  0.1766
  389MPD2    C5 5815   0.109   2.478  11.030 -0.0895  0.9965  0.2928
  389MPD2     H 5816   4.712   2.128  10.921  0.8555  0.6373 -1.2345
  389MPD2    H1 5817   0.029   2.427  11.219  1.1301 -2.4165  1.1141
  389MPD2    H2 5818   0.194   2.492  10.832 -0.4642  0.4434  0.4320
  389MPD2    H3 5819   0.158   2.566  11.068  0.5318  1.3540 -1.3359
  389MPD2     N 5820   4.667   2.203  11.192  0.6643  0.3564  0.9305
  389MPD2    H5 5821   4.662   2.259  11.276 -2.1230 -0.7695  1.4967
  389MPD2    N1 5822   0.115   2.278  10.727  0.3858  0.8027  0.1948
  389MPD2    H7 5823   0.164   2.346  10.670  0.8573  0.1377 -0.2000
  390TMC3    C1 5824   4.573   2.038  11.327 -0.2210  0.3016 -0.6325
  390TMC3    C2 5825   4.582   1.905  11.367 -0.8363  1.3154  0.0567
  390TMC3    C3 5826   4.514   1.863  11.487 -0.2252  0.1147  0.1942
  390TMC3    C4 5827   4.519   2.128  11.411 -0.3611  0.2679  0.7250
  390TMC3    C5 5828   4.460   2.083  11.525 -0.3705  0.3829 -0.6744
  390TMC3    C6 5829   4.452   1.958  11.561 -0.0263  0.4031 -0.0348
  390TMC3     C 5830   4.626   2.077  11.196 -0.5392 -0.5024 -0.0764
  390TMC3     O 5831   4.628   2.000  11.100  0.3329  0.7913  0.8620
  390TMC3     H 5832   4.614   1.822  11.306  2.3183  2.0128  0.7956
  390TMC3    H1 5833   4.524   2.230  11.375  1.7310 -0.8135 -2.0178
  390TMC3    H2 5834   4.410   1.928  11.656  0.6589 -0.1939  0.0708
  390TMC3    C7 5835   4.364   2.171  11.589  0.1667 -0.4682  0.3056
  390TMC3    C8 5836   4.470   1.723  11.494 -0.2376 -0.5741  0.0703
  390TMC3    O1 5837   4.393   2.287  11.594  0.0861 -0.2172  0.0519
  390TMC3    O2 5838   4.478   1.660  11.389 -0.4945  0.2025 -0.4541
  391MPD2     C 5839   4.345   3.678  11.152  0.1191  0.8422  0.5693
  391MPD2    C1 5840   4.415   3.789  11.117 -0.2877  0.4919  0.1301
  391MPD2    C2 5841   4.407   3.816  10.983 -0.1529  0.1062  0.0431
  391MPD2    C3 5842   4.329   3.741  10.897  0.1969  0.0255 -0.4783
  391MPD2    C4 5843   4.252   3.636  10.938 -0.4046  0.1298  0.3120
  391MPD2    C5 5844   4.268   3.603  11.067 -0.7101  0.2649 -0.0000
  391MPD2     H 5845   4.456   3.905  10.943  1.6649  0.1069  2.3034
  391MPD2    H1 5846   4.206   3.562  10.873  0.0011  0.0837  0.0744
  391MPD2    H2 5847   4.344   3.642  11.254  0.0133 -2.0923 -0.4766
  391MPD2    H3 5848   4.218   3.515  11.105 -1.0063  1.1072  1.5757
  391MPD2     N 5849   4.351   3.779  10.766  0.6470 -0.1560 -0.8476
  391MPD2    H5 5850   4.429   3.842  10.751  0.1190  0.2011 -2.1107
  391MPD2    N1 5851   4.495   3.862  11.211 -0.5151 -0.1784 -0.0777
  391MPD2    H7 5852   4.495   3.823  11.305 -0.3172 -3.4321 -1.4283
  392TMC3    C1 5853   4.329   3.762  10.533 -0.2486  0.1497 -0.0417
  392TMC3    C2 5854   4.254   3.732  10.421 -0.3629 -0.2211  0.4746
  392TMC3    C3 5855   4.272   3.800  10.304  0.2418 -0.1867 -0.0798
  392TMC3    C4 5856   4.435   3.855  10.519 -0.6121  0.1163 -0.9539
  392TMC3    C5 5857   4.447   3.923  10.401  0.0093 -0.6150  0.7109
  392TMC3    C6 5858   4.369   3.901  10.294  0.7601  0.3282 -0.0430
  392TMC3     C 5859   4.277   3.725  10.664 -0.4447  0.0163  1.1153
  392TMC3     O 5860   4.174   3.655  10.665 -0.6928 -0.5453 -0.2366
  392TMC3     H 5861   4.163   3.675  10.441  1.4637 -2.5337  2.1625
  392TMC3    H1 5862   4.502   3.872  10.603  0.7079 -2.4952 -1.4906
  392TMC3    H2 5863   4.381   3.957  10.203  0.0663 -0.0470 -0.3613
  392TMC3    C7 5864   4.545   4.033  10.401  0.2462  0.0313  0.1228
  392TMC3    C8 5865   4.186   3.752  10.193  0.7676 -0.4558 -0.4169
  392TMC3    O1 5866   4.585   4.077  10.507 -0.1568 -0.3119  0.3156
  392TMC3    O2 5867   4.146   3.636  10.197  0.2149 -0.0650  0.3127
  393TMC3    C1 5868   3.845   1.533  10.407  0.6289  0.2704 -0.3081
  393TMC3    C2 5869   3.750   1.571  10.490  0.4591  0.5303  1.0540
  393TMC3    C3 5870   3.700   1.471  10.568 -0.1140 -0.4755 -0.2716
  393TMC3    C4 5871   3.904   1.401  10.403 -0.1856 -0.0359  0.1696
  393TMC3    C5 5872   3.840   1.302  10.478 -0.3881  0.7532 -1.1107
  393TMC3    C6 5873   3.731   1.333  10.556  0.4018  0.8930 -1.5242
  393TMC3     C 5874   3.910   1.637  10.331  0.4072  0.3100 -0.6046
  393TMC3     O 5875   4.027   1.628  10.303 -0.5890 -0.6304 -0.3127
  393TMC3     H 5876   3.734   1.677  10.507 -0.6181  0.2187  1.9925
  393TMC3    H1 5877   3.995   1.382  10.346  0.1646  1.2453  0.2916
  393TMC3    H2 5878   3.677   1.259  10.614  1.5197  1.2547 -0.0393
  393TMC3    C7 5879   3.827   1.167  10.420  0.0993 -0.0120 -0.4189
  393TMC3    C8 5880   3.583   1.512  10.628  0.4598 -0.3774  0.8514
  393TMC3    O1 5881   3.728   1.094  10.443  0.7538 -0.5897  0.1881
  393TMC3    O2 5882   3.555   1.627  10.603 -0.0221  0.7479  0.5448
  394TMC3    C1 5883   0.144   2.151  10.533 -0.1567  0.6010 -0.6750
  394TMC3    C2 5884   0.113   2.037  10.468 -0.2224  0.2371 -0.2900
  394TMC3    C3 5885   0.132   2.044  10.330 -0.4777 -0.9840 -0.3956
  394TMC3    C4 5886   0.197   2.262  10.469  0.7382 -0.0753 -0.6286
  394TMC3    C5 5887   0.225   2.256  10.337  0.2006 -0.0184  1.1108
  394TMC3    C6 5888   0.200   2.141  10.263 -0.6881  0.4888 -0.2788
  394TMC3     C 5889   0.090   2.152  10.671 -0.3759  0.1004 -0.7039
  394TMC3     O 5890   0.028   2.056  10.716  0.1058 -0.7047  0.0462
  394TMC3     H 5891   0.079   1.946  10.518  0.3249 -0.4991 -1.2570
  394TMC3    H1 5892   0.211   2.356  10.522  0.0357  0.8287 -2.0446
  394TMC3    H2 5893   0.214   2.134  10.156 -0.5840  0.9230 -0.2939
  394TMC3    C7 5894   0.281   2.367  10.262 -0.4368  0.3231  0.1248
  394TMC3    C8 5895   0.047   1.966  10.241  0.5232  0.3259 -0.3394
  394TMC3    O1 5896   0.350   2.442  10.330 -0.1547  0.3422  0.8591
  394TMC3    O2 5897   0.029   2.015  10.132  0.0615 -0.1249  0.4212
  395TMC3    C1 5898   4.536   4.567  14.964 -1.0221  0.1711 -0.5175
  395TMC3    C2 5899   4.521   4.461  14.881  0.1409  0.0130  0.0753
  395TMC3    C3 5900   4.593   4.456  14.764 -0.6350  0.4036 -0.0398
  395TMC3    C4 5901   4.626   4.671  14.937 -0.3658  0.9202 -0.2872
  395TMC3    C5 5902   4.713   4.646  14.837 -0.1549  0.2532 -0.1898
  395TMC3    C6 5903   4.696   4.550  14.740  0.4711 -0.2060 -0.3964
  395TMC3     C 5904   4.484   4.557  15.096 -0.6706  0.9250  0.4958
  395TMC3     O 5905   4.430   4.451  15.126  0.3443 -1.0400 -0.7959
  395TMC3     H 5906   4.442   4.388  14.898  0.5622  0.1699  2.7808
  395TMC3    H1 5907   4.616   0.040  14.988 -2.0247 -0.1332  1.3361
  395TMC3    H2 5908   0.033   4.531  14.654  0.1577 -1.3171 -0.3846
  395TMC3    C7 5909   0.067   0.036  14.813 -0.3641 -0.1853 -0.3633
  395TMC3    C8 5910   4.543   4.378  14.653  0.3277  0.7054  0.8309
  395TMC3    O1 5911   0.021   0.143  14.849  0.1950 -0.0189  0.3207
  395TMC3    O2 5912   4.616   4.353  14.559 -0.0556  0.1305  0.1212
  396MPD2     C 5913   3.354   1.241  17.171  0.3628 -0.5656 -0.1465
  396MPD2    C1 5914   3.445   1.326  17.216 -0.1991 -0.1170 -1.0003
  396MPD2    C2 5915   3.449   1.456  17.165 -0.6729 -0.0959  0.6458
  396MPD2    C3 5916   3.362   1.495  17.064 -0.4635 -0.0562  0.1038
  396MPD2    C4 5917   3.264   1.409  17.025 -0.1029 -0.3748 -0.6887
  396MPD2    C5 5918   3.255   1.288  17.091  0.0176 -0.2602  0.1062
  396MPD2     H 5919   3.530   1.523  17.190 -0.5472  0.5218 -1.4340
  396MPD2    H1 5920   3.182   1.430  16.958 -0.9921 -0.5960  0.3364
  396MPD2    H2 5921   3.345   1.144  17.219 -1.8245 -0.7721 -1.0001
  396MPD2    H3 5922   3.171   1.224  17.068  0.3613 -1.3311  1.9058
  396MPD2     N 5923   3.380   1.616  17.001  0.1793  1.1165  0.3604
  396MPD2    H5 5924   3.454   1.679  17.031  0.5286  2.4214 -3.2211
  396MPD2    N1 5925   3.536   1.278  17.313  0.2056  0.3638  0.1807
  396MPD2    H7 5926   3.536   1.177  17.321  0.4190  0.4982  1.9573
  397TMC3    C1 5927   3.736   1.276  17.422  0.0336  0.1380  0.0336
  397TMC3    C2 5928   3.846   1.313  17.352  0.0004  0.2903 -0.6785
  397TMC3    C3 5929   3.893   1.218  17.256 -0.2163 -0.5450 -0.2987
  397TMC3    C4 5930   3.695   1.149  17.437 -0.0363  0.1951 -0.1310
  397TMC3    C5 5931   3.755   1.053  17.357  0.4104  0.0132 -0.4121
  397TMC3    C6 5932   3.849   1.091  17.266 -0.0551  0.2199 -0.1937
  397TMC3     C 5933   3.631   1.361  17.366  0.5887 -0.0986  0.1668
  397TMC3     O 5934   3.649   1.483  17.360  0.1221 -0.4671 -0.4695
  397TMC3     H 5935   3.859   1.420  17.347 -0.1816  0.4247  1.5486
  397TMC3    H1 5936   3.614   1.135  17.508  0.3283  0.3255  0.3148
  397TMC3    H2 5937   3.888   1.020  17.194 -1.3867  0.9206 -1.5901
  397TMC3    C7 5938   3.766   0.916  17.392 -0.9088  0.1866 -0.1481
  397TMC3    C8 5939   3.952   1.270  17.137  0.3808  0.8197  0.1619
  397TMC3    O1 5940   3.798   0.833  17.308 -0.3421 -0.3062 -0.4760
  397TMC3    O2 5941   3.929   1.208  17.033 -0.0366  0.7364 -0.3406
  398MPD2     C 5942   1.136   1.648   0.495 -0.3936 -0.1563  0.0253
  398MPD2    C1 5943   1.174   1.526   0.550  0.0803  0.1449  0.0370
  398MPD2    C2 5944   1.261   1.523   0.662  0.6657  0.0441  0.0789
  398MPD2    C3 5945   1.302   1.645   0.720  0.4380 -0.2155  0.2805
  398MPD2    C4 5946   1.263   1.763   0.662 -0.6533  0.1195 -0.3742
  398MPD2    C5 5947   1.179   1.765   0.553 -0.7551  0.0976  0.3301
  398MPD2     H 5948   1.285   1.433   0.716  0.8550 -0.4739 -0.8596
  398MPD2    H1 5949   1.292   1.858   0.707  0.2256  0.0339 -0.7578
  398MPD2    H2 5950   1.057   1.652   0.421 -0.0114  0.4817 -0.3534
  398MPD2    H3 5951   1.155   1.864   0.516 -0.1974 -0.2983 -1.1248
  398MPD2     N 5952   1.386   1.644   0.835 -0.2269  0.0902  0.3680
  398MPD2    H5 5953   1.407   1.554   0.876 -1.7599 -0.7171 -0.6437
  398MPD2    N1 5954   1.133   1.399   0.497 -0.1642  0.7902  0.2005
  398MPD2    H7 5955   1.175   1.314   0.533 -1.9726  0.1244  0.7733
  399TMC3    C1 5956   1.001   1.249   0.364  0.5322  0.0407 -0.6785
  399TMC3    C2 5957   1.087   1.155   0.405  0.1430 -0.0812 -0.5655
  399TMC3    C3 5958   1.047   1.024   0.380 -0.3778 -0.4381  0.1824
  399TMC3    C4 5959   0.867   1.221   0.335 -0.6459 -0.5115 -0.7096
  399TMC3    C5 5960   0.827   1.089   0.336  0.4626  0.3005  0.1733
  399TMC3    C6 5961   0.918   0.989   0.354 -0.2762 -0.8783 -0.6683
  399TMC3     C 5962   1.032   1.380   0.415  0.0642  0.2134  0.3388
  399TMC3     O 5963   0.944   1.457   0.390  0.0390  0.4240 -0.2345
  399TMC3     H 5964   1.193   1.164   0.424 -0.0236  0.0266  0.3573
  399TMC3    H1 5965   0.794   1.297   0.308 -0.0582  0.2298 -0.2288
  399TMC3    H2 5966   0.888   0.885   0.345  0.2318 -1.0621 -0.2593
  399TMC3    C7 5967   0.708   1.076   0.413  0.1214  0.4827 -0.2240
  399TMC3    C8 5968   1.150   0.927   0.407 -0.2379 -0.0158 -0.0698
  399TMC3    O1 5969   0.630   0.979   0.395  0.2489  0.0098 -0.4381
  399TMC3    O2 5970   1.238   0.960   0.489  0.0554  0.8052  0.1769
  400TMC3    C1 5971   0.477   0.998  17.418  0.1307 -0.0272 -0.5061
  400TMC3    C2 5972   0.362   1.037  17.353  0.1417  0.0493 -0.1920
  400TMC3    C3 5973   0.335   1.172  17.350  0.1099 -0.9081 -0.0505
  400TMC3    C4 5974   0.567   1.087  17.476  0.6800  0.0382  0.8180
  400TMC3    C5 5975   0.525   1.213  17.482 -0.4310 -0.4370 -0.8043
  400TMC3    C6 5976   0.410   1.262  17.422  0.2136 -0.4954  0.4974
  400TMC3     C 5977   0.493   0.859  17.421 -0.3119  0.3299 -0.2071
  400TMC3     O 5978   0.594   0.805  17.372  0.1636  0.5600  0.4847
  400TMC3     H 5979   0.303   0.966  17.297 -1.3733  0.9787  0.2300
  400TMC3    H1 5980   0.658   1.047  17.521  1.0322  1.8749  1.7577
  400TMC3    H2 5981   0.387   1.367  17.410 -0.4786 -1.0477 -2.9208
  400TMC3    C7 5982   0.593   1.300  17.577  1.5606 -0.4971 -0.0262
  400TMC3    C8 5983   0.241   1.217  17.257 -0.8277 -0.6179  0.5018
  400TMC3    O1 5984   0.689   1.250  17.635  0.2797 -0.0955 -0.3354
  400TMC3    O2 5985   0.254   1.332  17.218 -0.0786  0.1914  0.3372
  401MPD2     C 5986   2.501   4.228   0.258 -0.3525  0.2058  0.7254
  401MPD2    C1 5987   2.505   4.187   0.395 -0.4025  0.1350  0.3959
  401MPD2    C2 5988   2.481   4.055   0.418 -0.0360  0.0756  0.2218
  401MPD2    C3 5989   2.439   3.968   0.322  0.1889  0.2687 -0.5296
  401MPD2    C4 5990   2.425   4.010   0.192 -0.0645 -0.6128  0.2510
  401MPD2    C5 5991   2.459   4.140   0.161 -0.0757  0.1572  0.2597
  401MPD2     H 5992   2.481   4.029   0.524  1.0637 -2.0902 -0.3086
  401MPD2    H1 5993   2.391   3.948   0.109  1.6768 -1.3416  0.0922
  401MPD2    H2 5994   2.540   4.323   0.226 -1.3705  0.9291  1.6124
  401MPD2    H3 5995   2.459   4.178   0.059  1.9369  1.2493  0.6600
  401MPD2     N 5996   2.415   3.835   0.366 -0.0381  0.1910  0.0426
  401MPD2    H5 5997   2.439   3.810   0.461  0.3097 -0.1689 -0.1439
  401MPD2    N1 5998   2.540   4.275   0.498  0.1091 -0.2721 -0.1243
  401MPD2    H7 5999   2.522   4.230   0.587  0.5342 -0.8453 -0.3266
  402TMC3    C1 6000   2.382   3.612   0.356 -0.0275  0.0763 -0.4590
  402TMC3    C2 6001   2.353   3.628   0.488 -0.3512  0.5011  0.0335
  402TMC3    C3 6002   2.386   3.531   0.579  0.0415  0.2672  0.4463
  402TMC3    C4 6003   2.447   3.502   0.309  0.6814 -0.2239  0.3129
  402TMC3    C5 6004   2.492   3.419   0.404 -0.5927 -0.0736  0.1752
  402TMC3    C6 6005   2.466   3.424   0.540 -0.2979  0.0712  0.3145
  402TMC3     C 6006   2.382   3.735   0.281 -0.0172 -0.1170  0.5095
  402TMC3     O 6007   2.387   3.721   0.162 -0.5689 -0.3921  0.0389
  402TMC3     H 6008   2.291   3.708   0.527 -0.4181  1.8961 -2.9406
  402TMC3    H1 6009   2.491   3.510   0.211 -1.4934  1.1692 -0.5621
  402TMC3    H2 6010   2.505   3.350   0.609  0.9517  2.5044  2.2564
  402TMC3    C7 6011   2.607   3.338   0.358 -0.0855  0.0986 -0.4380
  402TMC3    C8 6012   2.389   3.561   0.721 -0.1188  0.3502  0.3055
  402TMC3    O1 6013   2.616   3.292   0.245  0.0230  0.0970  0.0998
  402TMC3    O2 6014   2.443   3.473   0.785 -0.0946  0.3688 -0.1763
  403MPD2     C 6015   2.012   2.184  13.082  0.4586 -0.1143 -0.4461
  403MPD2    C1 6016   1.947   2.092  13.162  0.2739 -0.0675 -0.0003
  403MPD2    C2 6017   1.988   2.082  13.293 -0.0904  0.3568  0.3784
  403MPD2    C3 6018   2.099   2.151  13.343  1.4736 -0.1777 -0.8092
  403MPD2    C4 6019   2.165   2.232  13.259  0.8708  0.6159  0.0224
  403MPD2    C5 6020   2.124   2.247  13.133  0.2996 -0.2350  0.3008
  403MPD2     H 6021   1.953   2.009  13.366 -2.1056  0.6974 -0.2335
  403MPD2    H1 6022   2.249   2.289  13.297 -0.4286  2.6545 -0.1800
  403MPD2    H2 6023   1.977   2.192  12.980 -1.1601 -2.1852 -0.0566
  403MPD2    H3 6024   2.191   2.303  13.068 -2.3053 -0.9297 -3.0005
  403MPD2     N 6025   2.118   2.133  13.481  0.0472 -0.9512 -0.2076
  403MPD2    H5 6026   2.038   2.096  13.532 -0.1078  2.2184  1.8597
  403MPD2    N1 6027   1.831   2.027  13.120 -0.2526 -0.1478 -0.2077
  403MPD2    H7 6028   1.812   2.041  13.022  1.8137 -1.8077 -0.8396
  404TMC3    C1 6029   1.644   1.887  13.120 -0.1782  0.3337 -0.5760
  404TMC3    C2 6030   1.584   1.793  13.192 -0.2777 -0.7228  0.1697
  404TMC3    C3 6031   1.499   1.708  13.127 -0.0129  0.6780  0.1088
  404TMC3    C4 6032   1.637   1.898  12.985 -0.2801  0.5951 -0.6632
  404TMC3    C5 6033   1.552   1.809  12.923 -0.2559 -0.6495 -0.1661
  404TMC3    C6 6034   1.485   1.717  12.992 -0.6092  0.3019 -0.5557
  404TMC3     C 6035   1.754   1.948  13.192  0.2947  0.0559  0.0263
  404TMC3     O 6036   1.758   1.917  13.311  0.3426  0.2263 -0.2673
  404TMC3     H 6037   1.598   1.784  13.299 -0.3810 -0.1849  0.2264
  404TMC3    H1 6038   1.686   1.984  12.941  1.1524  0.1319  0.0269
  404TMC3    H2 6039   1.410   1.653  12.947  0.2375 -0.3639 -1.0155
  404TMC3    C7 6040   1.558   1.810  12.772 -0.2109  0.3332 -0.0703
  404TMC3    C8 6041   1.464   1.568  13.170  0.3352  0.1989  0.5241
  404TMC3    O1 6042   1.608   1.910  12.730 -0.3977 -0.1950  0.0349
  404TMC3    O2 6043   1.472   1.478  13.089 -0.3347  0.4102  0.3112
  405MPD2     C 6044   2.116   2.420  14.886 -0.2343  0.2751 -0.1728
  405MPD2    C1 6045   2.047   2.358  14.784 -0.1205 -0.2154 -0.9338
  405MPD2    C2 6046   2.071   2.408  14.655  0.6543 -0.1299 -0.5149
  405MPD2    C3 6047   2.173   2.502  14.625  0.5077 -0.2726 -0.7079
  405MPD2    C4 6048   2.252   2.538  14.734 -0.1988  1.0445 -0.2167
  405MPD2    C5 6049   2.220   2.509  14.864 -0.2829  0.1230 -0.3725
  405MPD2     H 6050   2.017   2.376  14.566  0.8840 -1.0705 -0.3107
  405MPD2    H1 6051   2.342   2.596  14.716 -0.4324  1.9087  1.3784
  405MPD2    H2 6052   2.102   2.374  14.983  0.5291  0.5677  0.0781
  405MPD2    H3 6053   2.274   2.557  14.945  0.7197 -0.0943 -0.9136
  405MPD2     N 6054   2.185   2.550  14.501  0.1272  0.2629 -0.8080
  405MPD2    H5 6055   2.106   2.517  14.445 -0.2971  1.5408 -0.9788
  405MPD2    N1 6056   1.970   2.245  14.810 -0.7615  0.0606 -0.6808
  405MPD2    H7 6057   1.942   2.222  14.905 -1.0995  1.0102 -0.5549
  406TMC3    C1 6058   2.201   2.763  14.120 -0.7937  0.1143 -0.0273
  406TMC3    C2 6059   2.166   2.650  14.049  0.3208  1.1523  0.1841
  406TMC3    C3 6060   2.187   2.531  14.116 -0.1021 -0.8150 -0.5350
  406TMC3    C4 6061   2.247   2.769  14.251 -0.3083  0.3079  0.1470
  406TMC3    C5 6062   2.250   2.650  14.310  0.0766  0.3493 -0.3675
  406TMC3    C6 6063   2.231   2.526  14.245 -0.0155  0.3494  0.6138
  406TMC3     C 6064   2.102   2.863  14.100  0.1181  0.7743  0.4334
  406TMC3     O 6065   2.130   2.972  14.057 -0.6413 -0.1812 -0.5258
  406TMC3     H 6066   2.124   2.657  13.950  1.8954 -0.4836 -0.5858
  406TMC3    H1 6067   2.230   2.855  14.314 -0.0623  0.2634  0.2718
  406TMC3    H2 6068   2.244   2.425  14.284  0.8460 -0.1042 -0.8599
  406TMC3    C7 6069   2.261   2.654  14.455 -0.2259 -0.9522 -0.4191
  406TMC3    C8 6070   2.111   2.427  14.056  0.5622 -0.7837  0.3658
  406TMC3    O1 6071   2.317   2.746  14.516 -0.5565  0.3535 -0.2360
  406TMC3    O2 6072   2.095   2.435  13.934  0.0146 -0.3203 -0.2496
  407MPD2     C 6073   0.158   3.908   9.318  0.1640  0.1848 -0.2421
  407MPD2    C1 6074   0.293   3.874   9.326 -0.3548 -0.3251  0.2396
  407MPD2    C2 6075   0.371   3.965   9.397 -0.1853  0.2687 -0.4711
  407MPD2    C3 6076   0.317   4.075   9.465  0.3382 -0.4493 -0.2347
  407MPD2    C4 6077   0.187   4.102   9.452  0.0005 -0.0203 -0.8885
  407MPD2    C5 6078   0.111   4.018   9.377 -0.2433 -0.8209  0.3815
  407MPD2     H 6079   0.477   3.946   9.390 -0.0123 -0.2414  3.5325
  407MPD2    H1 6080   0.151   4.193   9.497 -4.0057 -2.6479  1.2392
  407MPD2    H2 6081   0.081   3.842   9.279 -0.1192 -0.0463  0.7125
  407MPD2    H3 6082   0.005   4.039   9.365 -0.3939 -2.0144 -0.4121
  407MPD2     N 6083   0.391   4.147   9.565  0.0108 -0.8134  0.6188
  407MPD2    H5 6084   0.340   4.219   9.615 -0.1115  1.6211 -3.0272
  407MPD2    N1 6085   0.346   3.757   9.277 -0.0500  0.3430  0.3460
  407MPD2    H7 6086   0.448   3.749   9.278 -0.0924 -0.1682  0.8044
  408TMC3    C1 6087   0.366   3.551   9.176 -0.0622  1.0181  0.0528
  408TMC3    C2 6088   0.491   3.575   9.130  0.6475 -0.1290  0.0915
  408TMC3    C3 6089   0.565   3.466   9.090 -0.5824  0.4803  0.5182
  408TMC3    C4 6090   0.322   3.423   9.214 -0.4168 -0.6756  0.1617
  408TMC3    C5 6091   0.407   3.314   9.181  0.4468 -0.4550 -0.0476
  408TMC3    C6 6092   0.525   3.331   9.117 -0.3371 -0.0448 -0.1300
  408TMC3     C 6093   0.277   3.657   9.217  0.5030  0.1386  0.1964
  408TMC3     O 6094   0.154   3.635   9.211  0.1343 -0.1706 -0.4536
  408TMC3     H 6095   0.522   3.675   9.103  1.6341  0.1592  2.3358
  408TMC3    H1 6096   0.222   3.403   9.251 -0.8671 -0.0337 -0.7163
  408TMC3    H2 6097   0.595   3.251   9.097 -1.1063  0.5212 -5.0649
  408TMC3    C7 6098   0.386   3.183   9.238  0.1296  0.0400  0.2856
  408TMC3    C8 6099   0.714   3.477   9.067  0.0577 -0.2501  0.1281
  408TMC3    O1 6100   0.443   3.092   9.184  0.7108 -0.4556 -0.3551
  408TMC3    O2 6101   0.763   3.398   8.989 -0.3847  0.3148 -0.3004
  409MPD2     C 6102   3.993   0.570  16.937  0.0440  0.3444  0.2857
  409MPD2    C1 6103   3.989   0.628  17.068 -1.0361  0.1303  0.0355
  409MPD2    C2 6104   4.019   0.757  17.077 -0.0311  0.5149 -0.3514
  409MPD2    C3 6105   4.072   0.827  16.972 -0.1981  0.2565 -0.6008
  409MPD2    C4 6106   4.076   0.775  16.850  0.1424  0.0931  0.1847
  409MPD2    C5 6107   4.034   0.646  16.831 -0.5014  0.7584  0.4447
  409MPD2     H 6108   4.011   0.804  17.175 -0.1824  0.5477 -0.3797
  409MPD2    H1 6109   4.129   0.818  16.765  1.0842 -1.7318 -0.1392
  409MPD2    H2 6110   3.975   0.467  16.908 -1.6685  0.3795  1.2080
  409MPD2    H3 6111   4.040   0.607  16.730 -1.5872 -0.4189  0.8349
  409MPD2     N 6112   4.140   0.948  16.990 -0.6292 -0.2000 -1.0355
  409MPD2    H5 6113   4.185   0.992  16.910 -0.7984  1.7397 -0.0698
  409MPD2    N1 6114   3.955   0.556  17.184  0.1287  0.4918 -0.4192
  409MPD2    H7 6115   3.951   0.606  17.272 -1.1414 -3.1154  1.5560
  410TMC3    C1 6116   4.277   1.109  17.095 -0.1073 -0.1596 -0.4986
  410TMC3    C2 6117   4.341   1.138  17.213  0.0364 -1.0744 -0.5327
  410TMC3    C3 6118   4.426   1.250  17.212 -0.6463  0.4903  0.2581
  410TMC3    C4 6119   4.292   1.189  16.980  0.0383 -0.6050 -0.5857
  410TMC3    C5 6120   4.384   1.293  16.994  0.7128  0.8457  0.2657
  410TMC3    C6 6121   4.446   1.335  17.109  0.7422 -0.6708 -0.3064
  410TMC3     C 6122   4.178   1.003  17.107  0.3179  0.1191  0.1911
  410TMC3     O 6123   4.166   0.959  17.220  0.1576 -0.2186  0.2705
  410TMC3     H 6124   4.333   1.078  17.303  1.4387 -1.4147 -0.6279
  410TMC3    H1 6125   4.256   1.160  16.882  0.7387  0.9083 -1.2921
  410TMC3    H2 6126   4.522   1.411  17.100 -1.0846  1.0910 -0.9032
  410TMC3    C7 6127   4.393   1.376  16.884  0.4136  0.5550  0.5206
  410TMC3    C8 6128   4.497   1.271  17.344 -0.7966  0.1098  0.4503
  410TMC3    O1 6129   4.376   1.320  16.779 -0.4952  0.2934 -0.0149
  410TMC3    O2 6130   4.471   1.194  17.434  0.0009 -0.6376  0.2722
  411MPD2     C 6131   4.339   0.688  14.927 -1.0338 -0.2717 -0.0124
  411MPD2    C1 6132   4.299   0.670  14.796 -0.1514 -0.1461 -0.2423
  411MPD2    C2 6133   4.321   0.546  14.744 -0.4654 -0.7362  0.1577
  411MPD2    C3 6134   4.377   0.447  14.821 -0.2376  0.5810 -0.0675
  411MPD2    C4 6135   4.401   0.463  14.954  0.1183 -0.4190 -0.0344
  411MPD2    C5 6136   4.383   0.586  15.004 -0.0080 -0.1083  0.3261
  411MPD2     H 6137   4.310   0.531  14.637 -0.3519  0.7936 -0.0612
  411MPD2    H1 6138   4.461   0.392  15.009  2.5687  0.8229 -1.0870
  411MPD2    H2 6139   4.322   0.782  14.978  1.4737 -1.4141  2.9346
  411MPD2    H3 6140   4.411   0.603  15.107  1.1641  0.7529 -0.1290
  411MPD2     N 6141   4.408   0.331  14.748 -0.2712  0.3170 -0.6527
  411MPD2    H5 6142   4.398   0.329  14.647  2.2430  0.4538 -0.8955
  411MPD2    N1 6143   4.252   0.778  14.722 -0.5926 -0.4611  0.2598
  411MPD2    H7 6144   4.267   0.870  14.762  2.2067 -1.1010  0.6853
  412TMC3    C1 6145   4.436   0.119  14.696  0.0747  0.0965 -0.1461
  412TMC3    C2 6146   4.367   4.724  14.690  0.1067  0.4158 -0.0527
  412TMC3    C3 6147   4.367   4.656  14.576  0.5820 -0.3988  1.0234
  412TMC3    C4 6148   4.521   0.156  14.603  0.3438  0.0567 -0.0891
  412TMC3    C5 6149   4.523   0.081  14.488 -0.1567  0.2716 -0.0635
  412TMC3    C6 6150   4.442   4.694  14.473 -0.1174  0.1096 -0.3928
  412TMC3     C 6151   4.419   0.205  14.806 -0.1077  0.0722 -0.5467
  412TMC3     O 6152   4.387   0.159  14.916  0.8373  0.2190 -0.5233
  412TMC3     H 6153   4.297   4.704  14.770  2.3132 -2.2257  1.2189
  412TMC3    H1 6154   4.597   0.229  14.630  0.2922 -0.2179  0.7877
  412TMC3    H2 6155   4.439   4.639  14.380  1.5805  0.8211 -0.8885
  412TMC3    C7 6156   4.483   0.172  14.375  0.4337 -0.2972 -0.4002
  412TMC3    C8 6157   4.228   4.624  14.533  0.2049 -0.3835 -0.1855
  412TMC3    O1 6158   4.387   0.129  14.304 -0.2917 -0.6355  0.0925
  412TMC3    O2 6159   4.147   4.595  14.619 -0.5786 -0.8249  0.0526
  413MPD2     C 6160   1.232   4.105  15.358 -0.5388  1.0036  0.0937
  413MPD2    C1 6161   1.168   4.046  15.257  0.0101 -0.0491  0.7815
  413MPD2    C2 6162   1.247   3.948  15.189  1.0773 -0.1841  0.2444
  413MPD2    C3 6163   1.378   3.906  15.232 -0.4736 -0.1447 -0.0442
  413MPD2    C4 6164   1.439   3.983  15.331 -0.1999  1.0222  0.3505
  413MPD2    C5 6165   1.362   4.078  15.395  0.5036  0.2395  0.3230
  413MPD2     H 6166   1.214   3.892  15.102  0.9869  1.2233 -0.6168
  413MPD2    H1 6167   1.545   3.978  15.355 -0.3556 -1.3840  0.5224
  413MPD2    H2 6168   1.177   4.180  15.414 -1.5071  0.6601 -0.3995
  413MPD2    H3 6169   1.401   4.142  15.473 -1.5676  2.0988 -0.1633
  413MPD2     N 6170   1.447   3.807  15.157 -0.2755 -0.3213  0.0613
  413MPD2    H5 6171   1.411   3.783  15.065 -2.5611  0.6343  0.6904
  413MPD2    N1 6172   1.037   4.079  15.226  0.0939  0.4728  0.6733
  413MPD2    H7 6173   0.993   4.120  15.308  1.6069 -0.0976  1.7762
  414TMC3    C1 6174   1.575   3.625  15.116 -0.3511 -0.0464  0.6824
  414TMC3    C2 6175   1.618   3.510  15.166 -0.0629 -0.4179  0.7735
  414TMC3    C3 6176   1.646   3.409  15.083 -0.1805  0.4953  0.4662
  414TMC3    C4 6177   1.580   3.650  14.978  0.1195 -1.3172 -0.7862
  414TMC3    C5 6178   1.608   3.541  14.896 -0.0880 -0.6195 -0.1486
  414TMC3    C6 6179   1.626   3.412  14.949 -0.3757  0.6775  0.4027
  414TMC3     C 6180   1.547   3.733  15.206  1.0603  0.4118 -0.7024
  414TMC3     O 6181   1.572   3.728  15.327  0.1668  0.8468  0.2331
  414TMC3     H 6182   1.630   3.496  15.273 -0.6684  1.0498  1.0374
  414TMC3    H1 6183   1.552   3.747  14.939 -2.0888 -1.1906  1.1587
  414TMC3    H2 6184   1.630   3.322  14.889 -1.2793 -1.2187  3.1788
  414TMC3    C7 6185   1.586   3.566  14.749 -0.2877  0.2927 -0.0288
  414TMC3    C8 6186   1.735   3.303  15.128  0.2683 -0.0349  0.5345
  414TMC3    O1 6187   1.488   3.635  14.732  0.5779 -0.2389 -0.7783
  414TMC3    O2 6188   1.737   3.198  15.064  0.0897 -0.8864 -0.6354
  415TMC3    C1 6189   2.802   1.212  10.062 -0.4136  0.4606  0.5432
  415TMC3    C2 6190   2.912   1.195   9.982  0.5611 -0.4156  0.0419
  415TMC3    C3 6191   2.927   1.065   9.927 -0.3317 -0.0522  0.3640
  415TMC3    C4 6192   2.731   1.107  10.117  0.0276 -0.3495 -0.6782
  415TMC3    C5 6193   2.756   0.983  10.069 -0.5081  0.3061 -0.7348
  415TMC3    C6 6194   2.852   0.959   9.974  0.1694 -0.1889  0.0004
  415TMC3     C 6195   2.777   1.324  10.141  0.9079 -0.6956  0.1802
  415TMC3     O 6196   2.664   1.342  10.184  0.7607  0.3049  0.0725
  415TMC3     H 6197   2.962   1.280   9.937  1.3040 -0.8650  0.0198
  415TMC3    H1 6198   2.671   1.125  10.206  0.2939  0.5264 -0.6770
  415TMC3    H2 6199   2.868   0.861   9.929 -1.0633 -0.4857  0.2093
  415TMC3    C7 6200   2.653   0.880  10.077 -0.4152 -0.3888 -0.1047
  415TMC3    C8 6201   3.046   1.030   9.861 -0.5749  0.1381 -0.0511
  415TMC3    O1 6202   2.695   0.767  10.070  0.0829 -0.4929  0.0161
  415TMC3    O2 6203   3.057   0.917   9.818 -0.0655 -0.6729 -0.2797
  416MPD2     C 6204   4.035   0.363  11.693  0.2785 -0.4743  0.4616
  416MPD2    C1 6205   3.934   0.287  11.630 -0.0701 -0.0814 -0.1280
  416MPD2    C2 6206   3.968   0.186  11.535 -0.5566 -0.1750  0.2113
  416MPD2    C3 6207   4.102   0.163  11.507  0.3767 -0.3114 -0.1670
  416MPD2    C4 6208   4.202   0.245  11.563 -0.3333 -0.1096 -1.0964
  416MPD2    C5 6209   4.172   0.344  11.657  1.0110 -0.0154  0.0703
  416MPD2     H 6210   3.889   0.128  11.488  1.5343 -0.9498 -2.2991
  416MPD2    H1 6211   4.305   0.218  11.543  0.0258  0.2178  0.3748
  416MPD2    H2 6212   4.013   0.460  11.734  0.6728  0.2257 -0.9864
  416MPD2    H3 6213   4.256   0.402  11.694  0.3511  1.5510 -0.8406
  416MPD2     N 6214   4.142   0.056  11.420 -0.1387  0.3905 -0.0992
  416MPD2    H5 6215   4.240   0.030  11.417 -0.4710 -0.3262 -4.1244
  416MPD2    N1 6216   3.800   0.333  11.653  0.1172 -0.3749  0.3129
  416MPD2    H7 6217   3.790   0.415  11.711  1.2516 -0.7265  1.0153
  417TMC3    C1 6218   3.562   0.335  11.639  0.5432 -1.0249 -0.3298
  417TMC3    C2 6219   3.560   0.458  11.705  0.0364  0.6115 -0.6853
  417TMC3    C3 6220   3.447   0.540  11.691  0.3465 -0.3430 -0.3431
  417TMC3    C4 6221   3.455   0.280  11.574  0.4118 -0.2973 -0.4475
  417TMC3    C5 6222   3.348   0.366  11.547 -0.0991 -0.4927  0.8954
  417TMC3    C6 6223   3.341   0.488  11.611  0.2963  0.5513 -0.3034
  417TMC3     C 6224   3.690   0.272  11.607  0.0381 -0.4990 -0.8464
  417TMC3     O 6225   3.686   0.154  11.574 -0.0955 -0.1248 -0.6680
  417TMC3     H 6226   3.656   0.506  11.723  0.8760 -1.9956  1.7526
  417TMC3    H1 6227   3.454   0.178  11.538 -0.0294 -0.9891  1.4857
  417TMC3    H2 6228   3.259   0.556  11.592 -1.1021 -0.4909  2.0625
  417TMC3    C7 6229   3.350   0.391  11.403 -0.0132 -0.1435 -0.1068
  417TMC3    C8 6230   3.428   0.655  11.773  0.2366 -0.3620 -0.3040
  417TMC3    O1 6231   3.341   0.506  11.369 -0.5590  0.6696  0.5461
  417TMC3    O2 6232   3.317   0.711  11.784 -0.0151 -0.7797 -0.2791
  418TMC3    C1 6233   1.734   1.735   1.122 -0.7205 -0.3016 -0.2523
  418TMC3    C2 6234   1.655   1.783   1.016  0.1401 -0.3110  0.1133
  418TMC3    C3 6235   1.532   1.718   1.001 -0.7405 -0.6568 -0.6551
  418TMC3    C4 6236   1.691   1.640   1.211 -0.0959 -1.0691 -0.1116
  418TMC3    C5 6237   1.567   1.583   1.193 -0.2978  0.5390  0.2239
  418TMC3    C6 6238   1.486   1.624   1.079 -0.6572  0.1211 -0.5711
  418TMC3     C 6239   1.881   1.747   1.115  0.5944  0.3410 -0.3378
  418TMC3     O 6240   1.929   1.856   1.089 -0.4309  0.5623 -0.1817
  418TMC3     H 6241   1.692   1.851   0.940  1.5799  0.4171  1.4592
  418TMC3    H1 6242   1.766   1.600   1.278  0.3256 -2.3976 -1.3988
  418TMC3    H2 6243   1.384   1.587   1.077  0.1839 -2.2386  0.7570
  418TMC3    C7 6244   1.527   1.464   1.263  0.8979 -1.1652  0.2522
  418TMC3    C8 6245   1.449   1.756   0.894  0.0183  0.4218  0.3044
  418TMC3    O1 6246   1.424   1.405   1.221  0.2061  0.1049 -0.1379
  418TMC3    O2 6247   1.440   1.871   0.854 -0.2433 -0.0634  0.2256
  419MPD2     C 6248   1.247   4.600  12.577 -0.1189 -0.8715 -0.2916
  419MPD2    C1 6249   1.164   4.704  12.536 -0.1679  0.3276 -0.2367
  419MPD2    C2 6250   1.091   0.058  12.622 -0.5512  0.2133  0.2083
  419MPD2    C3 6251   1.091   0.035  12.755  0.1946  0.3113 -0.3048
  419MPD2    C4 6252   1.178   4.655  12.803 -0.3611 -0.1809 -0.7217
  419MPD2    C5 6253   1.258   4.587  12.711 -0.1138  0.3145  0.7068
  419MPD2     H 6254   1.023   0.133  12.583 -0.8566  0.0660  0.4589
  419MPD2    H1 6255   1.189   4.633  12.909 -0.7933  0.1258 -0.6107
  419MPD2    H2 6256   1.309   4.555  12.501  0.9669  0.8087 -0.4009
  419MPD2    H3 6257   1.338   4.518  12.738 -0.8595 -0.4654  0.9371
  419MPD2     N 6258   1.022   0.124  12.834 -1.0860 -0.3511  0.2708
  419MPD2    H5 6259   0.991   0.209  12.789  0.0340  0.2192  0.5735
  419MPD2    N1 6260   1.155   0.016  12.401 -0.3555  0.5205 -0.2110
  419MPD2    H7 6261   1.088   0.088  12.375 -1.0833 -0.2919 -0.5784
  420TMC3    C1 6262   0.953   0.245  13.024  0.4401  0.0078 -0.9864
  420TMC3    C2 6263   0.894   0.339  12.947 -0.5753  0.5207  0.2380
  420TMC3    C3 6264   0.846   0.447  13.015  0.2077 -0.4638  0.5134
  420TMC3    C4 6265   0.958   0.250  13.161 -0.0612 -0.3811 -0.7705
  420TMC3    C5 6266   0.897   0.353  13.221 -0.9287  1.2294 -0.5653
  420TMC3    C6 6267   0.837   0.453  13.156  0.1429 -0.3442 -0.3845
  420TMC3     C 6268   1.002   0.121  12.971  0.0750  0.8429 -0.3344
  420TMC3     O 6269   1.022   0.024  13.045 -0.0594  0.4605 -0.2461
  420TMC3     H 6270   0.883   0.344  12.839 -0.7017 -1.7194  0.1362
  420TMC3    H1 6271   1.002   0.165  13.212 -0.8572  0.2192  0.9135
  420TMC3    H2 6272   0.805   0.543  13.209 -1.4295 -0.9966 -0.2128
  420TMC3    C7 6273   0.860   0.323  13.361  0.1802  0.0993 -0.4680
  420TMC3    C8 6274   0.811   0.568  12.944 -0.0877 -0.4936  0.5604
  420TMC3    O1 6275   0.920   0.228  13.413 -0.3852  0.0838  0.0581
  420TMC3    O2 6276   0.716   0.636  12.988 -0.2244 -0.2037  0.5153
  421TMC3    C1 6277   2.225   2.140  13.688 -0.4706 -0.0499  0.0794
  421TMC3    C2 6278   2.330   2.176  13.767 -0.1892 -0.1200 -0.1029
  421TMC3    C3 6279   2.341   2.120  13.890 -0.6248  0.5546 -0.2999
  421TMC3    C4 6280   2.150   2.031  13.729  0.8222 -0.7253  0.1759
  421TMC3    C5 6281   2.174   1.970  13.846  0.1246  0.5398 -0.3692
  421TMC3    C6 6282   2.276   2.010  13.929 -0.6418  0.5583  0.0119
  421TMC3     C 6283   2.233   2.177  13.551 -0.4987  0.8762  0.1396
  421TMC3     O 6284   2.326   2.251  13.511 -0.7827 -0.4346  0.2940
  421TMC3     H 6285   2.407   2.239  13.724  0.4144  0.4294  1.8064
  421TMC3    H1 6286   2.062   2.000  13.674  0.8542  0.6538 -0.6716
  421TMC3    H2 6287   2.298   1.954  14.019  2.4144  0.4055 -0.8288
  421TMC3    C7 6288   2.162   1.826  13.843  0.0667  0.2334 -0.0320
  421TMC3    C8 6289   2.408   2.199  13.991 -0.5756 -0.6309  0.2984
  421TMC3    O1 6290   2.221   1.760  13.931 -0.0206 -0.6270  0.0176
  421TMC3    O2 6291   2.496   2.275  13.948 -0.2327 -0.1259 -0.2443
  422TMC3    C1 6292   0.136   3.040  12.737  0.4661 -0.2307 -0.1264
  422TMC3    C2 6293   0.126   3.178  12.734  0.2606 -0.1771 -0.2193
  422TMC3    C3 6294   0.003   3.230  12.732  0.7064  0.0498 -0.1311
  422TMC3    C4 6295   0.024   2.962  12.726  0.4456  0.2496  0.2549
  422TMC3    C5 6296   4.624   3.024  12.726  0.3452 -0.1515 -0.0286
  422TMC3    C6 6297   4.609   3.163  12.724 -0.4008  0.1323 -0.1635
  422TMC3     C 6298   0.263   2.988  12.685 -1.0980 -0.0066  0.3249
  422TMC3     O 6299   0.361   3.007  12.753 -0.1047 -0.3728 -0.1285
  422TMC3     H 6300   0.221   3.230  12.746  0.7240 -0.5963 -2.1449
  422TMC3    H1 6301   0.047   2.856  12.729  0.8559  0.3853  1.7440
  422TMC3    H2 6302   4.512   3.207  12.704 -0.5467  0.1869  0.6628
  422TMC3    C7 6303   4.529   2.945  12.660 -0.0109  1.0278  0.3548
  422TMC3    C8 6304   4.719   3.376  12.734 -0.2182  0.2040 -0.3389
  422TMC3    O1 6305   4.582   2.869  12.576 -0.6686  0.1314  0.0624
  422TMC3    O2 6306   0.071   3.431  12.812  0.5293  0.7313 -0.0917
  423MPD2     C 6307   0.631   0.249   0.650 -0.4383  0.1715 -0.0849
  423MPD2    C1 6308   0.634   0.116   0.671 -0.5630  0.3936  0.4638
  423MPD2    C2 6309   0.709   0.032   0.594 -0.1975 -0.0371 -0.1625
  423MPD2    C3 6310   0.791   0.078   0.496 -0.4375 -0.7065  0.2900
  423MPD2    C4 6311   0.797   0.218   0.491  0.0043 -0.4750 -0.0047
  423MPD2    C5 6312   0.713   0.303   0.555  0.6905 -0.2362  0.5551
  423MPD2     H 6313   0.706   4.652   0.616 -0.7675 -0.2752 -1.3889
  423MPD2    H1 6314   0.851   0.261   0.407 -1.1846 -1.7505 -1.4202
  423MPD2    H2 6315   0.589   0.323   0.717 -2.2129 -0.8920 -0.0327
  423MPD2    H3 6316   0.714   0.411   0.541 -0.3708 -0.1960  0.7266
  423MPD2     N 6317   0.869   0.003   0.402 -0.2761 -0.2558  0.4313
  423MPD2    H5 6318   0.928   0.060   0.342 -1.5015 -0.2991 -0.8211
  423MPD2    N1 6319   0.557   0.058   0.779  0.0019 -0.1525  0.5148
  423MPD2    H7 6320   0.565   4.685   0.801  2.0083  0.2200  1.4927
  424TMC3    C1 6321   0.426   0.044   0.968  0.6971  0.2244  0.3264
  424TMC3    C2 6322   0.497   4.668   1.026  0.1876  0.8979 -0.4028
  424TMC3    C3 6323   0.433   4.588   1.113  0.0036  0.4725  0.2557
  424TMC3    C4 6324   0.294   0.060   0.987 -0.0852 -1.3282  0.0403
  424TMC3    C5 6325   0.232   4.699   1.073  0.4915  0.4636 -0.1796
  424TMC3    C6 6326   0.301   4.603   1.143  0.1976 -0.3022 -0.5747
  424TMC3     C 6327   0.478   0.129   0.868  0.0491  0.7865 -0.9406
  424TMC3     O 6328   0.446   0.248   0.863 -0.2312  0.0596  0.4664
  424TMC3     H 6329   0.604   4.662   1.015  0.0367  0.3838 -1.6289
  424TMC3    H1 6330   0.227   0.134   0.946  1.0443 -0.3984 -0.1289
  424TMC3    H2 6331   0.252   4.542   1.217 -2.0420  0.9888 -0.9909
  424TMC3    C7 6332   0.087   4.704   1.075  0.4459 -0.1386  0.7812
  424TMC3    C8 6333   0.523   4.491   1.181  0.7339 -0.4002  0.1789
  424TMC3    O1 6334   0.045   0.023   0.972  0.0329 -0.2636 -0.5949
  424TMC3    O2 6335   0.641   4.502   1.159 -0.5593  0.3569  0.4055
  425MPD2     C 6336   4.531   3.913  16.959 -0.1345  0.3556  0.6306
  425MPD2    C1 6337   4.482   3.851  17.062  0.4380 -0.3724 -0.0470
  425MPD2    C2 6338   4.382   3.906  17.129  0.7727 -0.2925  0.8638
  425MPD2    C3 6339   4.335   4.025  17.086  0.5724  0.6602 -0.1375
  425MPD2    C4 6340   4.389   4.098  16.982  0.2496  0.2890  0.3124
  425MPD2    C5 6341   4.490   4.039  16.916 -0.4779  0.1712 -0.0179
  425MPD2     H 6342   4.327   3.849  17.203 -1.3412  0.5539 -0.0632
  425MPD2    H1 6343   4.349   4.193  16.950  1.4928  1.1129  1.2137
  425MPD2    H2 6344   4.621   3.876  16.911 -0.3845 -0.4834  0.8117
  425MPD2    H3 6345   4.533   4.086  16.828  1.4830 -1.8609 -0.1404
  425MPD2     N 6346   4.221   4.071  17.158 -1.0488 -0.1237 -0.2415
  425MPD2    H5 6347   4.183   4.007  17.226  1.3629  0.5308  1.7157
  425MPD2    N1 6348   4.547   3.737  17.103 -0.1758 -0.3177  0.8781
  425MPD2    H7 6349   4.604   3.694  17.031  0.0060  2.0751 -0.4315
  426TMC3    C1 6350   4.585   3.548  17.242 -0.2967  0.8560 -0.6841
  426TMC3    C2 6351   4.567   3.465  17.135  0.3664 -0.0321 -0.1358
  426TMC3    C3 6352   4.632   3.343  17.140  0.1830 -0.2597  0.2682
  426TMC3    C4 6353   4.634   3.506  17.361  0.4674  0.0204  0.0176
  426TMC3    C5 6354   4.696   3.384  17.366  0.0358 -0.0497 -0.1296
  426TMC3    C6 6355   4.694   3.298  17.255  0.3779 -0.5157  0.2988
  426TMC3     C 6356   4.538   3.680  17.232 -0.7385  1.0131 -0.3134
  426TMC3     O 6357   4.496   3.727  17.334 -0.2055  0.0777  0.0677
  426TMC3     H 6358   4.517   3.496  17.044  0.0437  2.5807  0.9257
  426TMC3    H1 6359   4.639   3.576  17.443 -1.4198 -0.8017  0.8196
  426TMC3    H2 6360   0.017   3.202  17.261 -0.9900 -1.1091  1.9923
  426TMC3    C7 6361   0.031   3.332  17.488 -0.6970  0.8889  0.3825
  426TMC3    C8 6362   4.617   3.245  17.032  0.2827 -0.3410 -0.2541
  426TMC3    O1 6363   0.100   3.232  17.480 -0.3368 -0.7689  0.7011
  426TMC3    O2 6364   4.651   3.129  17.053  0.1701  0.1238 -0.3061
  427MPD2     C 6365   3.103   0.635  14.978  0.0647  0.3527 -0.1074
  427MPD2    C1 6366   3.096   0.660  15.113 -0.8084  0.1008  0.7228
  427MPD2    C2 6367   2.996   0.728  15.174  0.6350 -0.1936 -0.1151
  427MPD2    C3 6368   2.889   0.765  15.092 -0.1583 -0.1215  0.5422
  427MPD2    C4 6369   2.896   0.731  14.960  0.1849  0.2533 -0.4248
  427MPD2    C5 6370   2.997   0.668  14.897  0.5710  0.0512 -0.0070
  427MPD2     H 6371   2.989   0.746  15.280  2.7256 -1.0568  0.1655
  427MPD2    H1 6372   2.816   0.759  14.893 -1.1944 -1.6687  0.4217
  427MPD2    H2 6373   3.185   0.580  14.933 -0.7502  1.1322 -2.4978
  427MPD2    H3 6374   2.999   0.656  14.789 -0.0449 -0.7758  0.0716
  427MPD2     N 6375   2.770   0.825  15.138 -0.8451  0.3205  0.3808
  427MPD2    H5 6376   2.691   0.833  15.075 -1.2497 -1.0571  0.7214
  427MPD2    N1 6377   3.197   0.623  15.207  0.0978  0.2221 -0.1853
  427MPD2    H7 6378   3.185   0.625  15.307  2.1701  0.0607  0.0805
  428TMC3    C1 6379   3.417   0.583  15.272 -0.2400  0.0748  0.6771
  428TMC3    C2 6380   3.378   0.521  15.385  0.7310  0.5324  0.4406
  428TMC3    C3 6381   3.480   0.493  15.470  0.8955  0.7195  0.3015
  428TMC3    C4 6382   3.551   0.608  15.242  0.3567 -0.5768 -0.5520
  428TMC3    C5 6383   3.640   0.581  15.334 -0.6243 -0.3487  0.4680
  428TMC3    C6 6384   3.613   0.514  15.447 -0.1652 -0.1145  0.1998
  428TMC3     C 6385   3.321   0.591  15.164  0.0299 -0.3802 -0.3686
  428TMC3     O 6386   3.374   0.600  15.054  0.1875  0.5382  0.2569
  428TMC3     H 6387   3.275   0.496  15.410  0.0806  2.3197 -0.4827
  428TMC3    H1 6388   3.573   0.670  15.155  1.5138  0.0389  0.1818
  428TMC3    H2 6389   3.688   0.490  15.522  1.6185  0.4915 -1.3910
  428TMC3    C7 6390   3.777   0.638  15.318  0.2004  0.5889 -0.0425
  428TMC3    C8 6391   3.434   0.416  15.588 -0.3866  0.3914 -0.3393
  428TMC3    O1 6392   3.856   0.620  15.415  0.2331 -0.3461 -0.3953
  428TMC3    O2 6393   3.317   0.419  15.609  0.3855  0.1181  0.3409
  429MPD2     C 6394   4.517   1.569   0.448 -0.7258  0.0269  0.5045
  429MPD2    C1 6395   4.532   1.574   0.307 -0.8035 -0.8423  0.6751
  429MPD2    C2 6396   4.615   1.673   0.263 -0.7287  0.0418 -0.3310
  429MPD2    C3 6397   4.678   1.768   0.352  0.1814  0.2217  0.5789
  429MPD2    C4 6398   4.674   1.750   0.488 -0.0172  0.1361 -0.8260
  429MPD2    C5 6399   4.587   1.655   0.534 -0.1855 -0.6144  0.3231
  429MPD2     H 6400   4.630   1.683   0.156 -3.3922 -1.5013 -0.8659
  429MPD2    H1 6401   4.717   1.823   0.556 -0.8378  0.5908 -0.7921
  429MPD2    H2 6402   4.450   1.499   0.497  0.6200 -1.8427 -0.3248
  429MPD2    H3 6403   4.570   1.645   0.641 -0.2444  1.4390  0.5128
  429MPD2     N 6404   0.028   1.873   0.289  0.4022 -0.0335  0.7602
  429MPD2    H5 6405   0.040   1.853   0.190  0.1171  2.7419  0.1768
  429MPD2    N1 6406   4.455   1.498   0.215  0.4181  0.2659  0.2207
  429MPD2    H7 6407   4.478   1.519   0.119 -0.8920  0.0032 -0.1454
  430TMC3    C1 6408   0.158   2.055   0.242  0.1502 -0.1418  0.1032
  430TMC3    C2 6409   0.093   2.141   0.163 -0.3071  0.6029  0.3913
  430TMC3    C3 6410   0.116   2.150   0.028  0.2035  0.2798 -0.1718
  430TMC3    C4 6411   0.263   1.980   0.192  0.2868  0.2736 -0.5408
  430TMC3    C5 6412   0.288   1.991   0.053  0.2850  0.2630  1.2062
  430TMC3    C6 6413   0.216   2.072  17.677 -0.0924 -0.1518 -0.6347
  430TMC3     C 6414   0.076   1.986   0.333  0.6895  0.3112 -0.0370
  430TMC3     O 6415   0.056   2.038   0.442  0.1407 -0.8781 -0.0895
  430TMC3     H 6416   0.022   2.206   0.213 -0.5002  2.4652 -2.3252
  430TMC3    H1 6417   0.300   1.896   0.250  0.9092  1.0643  0.1950
  430TMC3    H2 6418   0.255   2.089  17.577 -1.7712 -0.4869 -1.3360
  430TMC3    C7 6419   0.365   1.888  17.701 -0.6007  0.0265  0.1045
  430TMC3    C8 6420   0.006   2.187  17.646 -1.0290 -0.4351  0.1526
  430TMC3    O1 6421   0.342   1.864  17.584  0.1544  0.0761 -0.4699
  430TMC3    O2 6422   0.016   2.131  17.536  0.5427 -0.4036 -0.2522
  431MPD2     C 6423   0.947   0.782  12.350 -0.0144  0.2652 -0.5153
  431MPD2    C1 6424   1.052   0.793  12.264  0.1698  0.4318  0.2925
  431MPD2    C2 6425   1.119   0.680  12.230  0.0471  0.1811 -0.7602
  431MPD2    C3 6426   1.092   0.554  12.290 -0.3457  0.6226 -0.5523
  431MPD2    C4 6427   0.988   0.546  12.380  0.4203  0.2636 -0.4408
  431MPD2    C5 6428   0.919   0.657  12.395  0.7903  0.6766 -0.0223
  431MPD2     H 6429   1.197   0.699  12.157  1.3512 -2.0513  0.0594
  431MPD2    H1 6430   0.957   0.451  12.422 -3.2960  1.2290 -1.0350
  431MPD2    H2 6431   0.879   0.860  12.382 -1.4959 -0.2708 -2.3247
  431MPD2    H3 6432   0.833   0.650  12.459  1.1836 -2.3722  0.1707
  431MPD2     N 6433   1.144   0.433  12.238  0.2584  0.0962 -0.6492
  431MPD2    H5 6434   1.117   0.350  12.290  0.5997  1.5918  1.9514
  431MPD2    N1 6435   1.091   0.911  12.201  0.0895  0.3494 -0.1433
  431MPD2    H7 6436   1.163   0.909  12.130 -0.7838  2.5528 -1.1056
  432TMC3    C1 6437   1.248   0.274  12.105 -0.0842  1.3606 -0.3823
  432TMC3    C2 6438   1.268   0.232  11.974  0.5397 -0.4111 -0.5808
  432TMC3    C3 6439   1.277   0.092  11.963  0.3946  0.2267 -0.0045
  432TMC3    C4 6440   1.224   0.189  12.204 -0.0258 -0.1572 -0.3276
  432TMC3    C5 6441   1.220   0.054  12.179  0.0265 -0.3064  0.3073
  432TMC3    C6 6442   1.263   0.000  12.060 -0.8804  0.1925 -0.7071
  432TMC3     C 6443   1.218   0.415  12.120  0.1147  0.1915  0.0227
  432TMC3     O 6444   1.251   0.498  12.031  0.1579  0.4746 -0.1519
  432TMC3     H 6445   1.293   0.303  11.896 -2.1255 -1.8312 -2.7086
  432TMC3    H1 6446   1.219   0.221  12.307 -0.9123 -0.0423 -0.4096
  432TMC3    H2 6447   1.267   4.620  12.039  0.4819  0.4720 -1.8916
  432TMC3    C7 6448   1.215   4.688  12.288 -0.7346 -0.2833 -0.9563
  432TMC3    C8 6449   1.322   0.043  11.842  0.0776  0.2633 -0.5144
  432TMC3    O1 6450   1.273   4.578  12.278 -0.1257  0.3249  0.3103
  432TMC3    O2 6451   1.287   4.658  11.809  0.3408 -0.0154 -0.5232
  433MPD2     C 6452   0.464   4.654  10.733  0.3893  0.0864 -0.6267
  433MPD2    C1 6453   0.378   4.565  10.789  0.2025 -0.3276  0.0457
  433MPD2    C2 6454   0.366   4.557  10.926 -0.4371  0.0237 -0.1559
  433MPD2    C3 6455   0.438   4.650  11.005  0.4453  0.4752  0.1380
  433MPD2    C4 6456   0.528   0.014  10.949  0.1183 -0.9225  0.2142
  433MPD2    C5 6457   0.542   0.013  10.810 -0.4381  0.1089  0.4130
  433MPD2     H 6458   0.304   4.480  10.969  1.6564 -1.7139 -0.2249
  433MPD2    H1 6459   0.587   0.087  11.003 -0.1380  0.1587 -0.9716
  433MPD2    H2 6460   0.489   4.655  10.627  0.3488 -0.7613 -0.6460
  433MPD2    H3 6461   0.620   0.075  10.766  1.2009 -1.9798  0.3815
  433MPD2     N 6462   0.430   4.645  11.145  0.1823  0.3627  0.0317
  433MPD2    H5 6463   0.394   4.565  11.197 -0.1751  0.2020 -0.4610
  433MPD2    N1 6464   0.316   4.469  10.700  0.5854  0.7735 -0.1239
  433MPD2    H7 6465   0.336   4.470  10.601  1.0631 -3.7647 -0.0836
  434TMC3    C1 6466   0.206   4.266  10.649 -0.6707 -0.2140  0.5652
  434TMC3    C2 6467   0.203   4.146  10.701  1.2162  0.6828  0.3040
  434TMC3    C3 6468   0.214   4.035  10.634 -0.3578 -0.1341  0.0987
  434TMC3    C4 6469   0.211   4.280  10.513  0.8140  0.0381  0.2702
  434TMC3    C5 6470   0.238   4.163  10.441 -0.2656  0.4818  0.4340
  434TMC3    C6 6471   0.229   4.036  10.499  0.0382 -0.1873 -0.5135
  434TMC3     C 6472   0.229   4.372  10.742  0.0727 -0.1252 -0.0124
  434TMC3     O 6473   0.184   4.355  10.857  0.7178  0.4542 -0.1549
  434TMC3     H 6474   0.178   4.142  10.806 -2.0154 -2.3681 -0.6029
  434TMC3    H1 6475   0.208   4.378  10.468  2.6321 -0.3710 -0.7474
  434TMC3    H2 6476   0.269   3.951  10.445 -0.4800 -0.6641 -0.1562
  434TMC3    C7 6477   0.236   4.180  10.295 -0.0297  0.3091 -0.2051
  434TMC3    C8 6478   0.233   3.916  10.717  0.4699 -0.1547  0.3643
  434TMC3    O1 6479   0.265   4.284  10.242  0.0718  0.4943  0.0021
  434TMC3    O2 6480   0.199   3.935  10.834  0.2200 -0.7549  0.4562
  435MPD2     C 6481   1.694   4.722  15.722 -0.1869  0.2526  0.0888
  435MPD2    C1 6482   1.657   4.688  15.849 -1.1937  0.6408 -0.4693
  435MPD2    C2 6483   1.723   4.585  15.900  0.2550 -0.6780 -0.1152
  435MPD2    C3 6484   1.814   4.510  15.831  0.1562 -0.6666  0.2955
  435MPD2    C4 6485   1.842   4.542  15.702  0.2649 -0.3326  0.3057
  435MPD2    C5 6486   1.780   4.650  15.644 -0.0652  0.1530  0.0457
  435MPD2     H 6487   1.695   4.555  16.001 -1.2727  1.1239 -0.0174
  435MPD2    H1 6488   1.910   4.491  15.636  0.1015 -1.6580  1.1483
  435MPD2    H2 6489   1.649   0.083  15.674  0.9791 -0.4072 -2.2104
  435MPD2    H3 6490   1.809   4.689  15.547 -0.2821 -2.5326 -1.0791
  435MPD2     N 6491   1.889   4.422  15.905 -0.1484  0.0536  0.0489
  435MPD2    H5 6492   1.860   4.396  15.999 -2.1675 -1.8629 -1.1014
  435MPD2    N1 6493   1.550   0.021  15.920  0.2552  0.3681 -0.1157
  435MPD2    H7 6494   1.532   4.707  16.011  1.0466  1.4781  0.5237
  436TMC3    C1 6495   1.330   0.225  16.203 -0.5054  0.0428  0.4592
  436TMC3    C2 6496   1.414   0.167  16.115  0.0818 -0.3915 -0.2595
  436TMC3    C3 6497   1.385   0.180  15.984  0.6717  0.0451 -0.6240
  436TMC3    C4 6498   1.232   0.315  16.169  0.2192  0.3387 -0.7616
  436TMC3    C5 6499   1.215   0.331  16.034 -0.0165 -0.7468  0.1759
  436TMC3    C6 6500   1.289   0.269  15.939  0.0551 -0.3188 -0.2961
  436TMC3     C 6501   1.345   0.201  16.347  0.0484 -0.1187  0.2700
  436TMC3     O 6502   1.460   0.174  16.385  0.0950 -0.2632  0.2462
  436TMC3     H 6503   1.491   0.104  16.159 -1.4594 -1.0150  1.5281
  436TMC3    H1 6504   1.170   0.372  16.238 -0.2136 -0.0228 -0.8523
  436TMC3    H2 6505   1.264   0.281  15.835 -0.8214  1.2782  0.1112
  436TMC3    C7 6506   1.140   0.447  15.983  0.3691 -0.0496 -0.2986
  436TMC3    C8 6507   1.474   0.132  15.885  0.0920 -0.0121 -0.3068
  436TMC3    O1 6508   1.178   0.499  15.877 -0.3994  0.3082 -0.6515
  436TMC3    O2 6509   1.490   0.209  15.791 -1.0403  0.5205  0.6175
  437TMC3    C1 6510   0.202   1.629  13.028 -1.0255  0.6755  0.3119
  437TMC3    C2 6511   0.076   1.586  13.005 -0.2344 -0.3590  0.3968
  437TMC3    C3 6512   0.017   1.638  12.887  0.2097 -0.2242 -0.8106
  437TMC3    C4 6513   0.269   1.722  12.945 -0.1449  0.5779 -0.3780
  437TMC3    C5 6514   0.206   1.764  12.828  0.0799  0.5477  0.7310
  437TMC3    C6 6515   0.080   1.722  12.804 -0.1576 -0.2385  0.4699
  437TMC3     C 6516   0.272   1.576  13.145  0.9816  0.0541  0.2315
  437TMC3     O 6517   0.389   1.602  13.160 -0.5235 -0.0178 -0.1654
  437TMC3     H 6518   0.009   1.530  13.069  0.5003 -1.7378 -0.0321
  437TMC3    H1 6519   0.370   1.752  12.970 -0.6725  0.6205  1.6868
  437TMC3    H2 6520   0.011   1.769  12.735 -0.8051 -1.7594  0.0704
  437TMC3    C7 6521   0.288   1.771  12.709 -0.3780 -0.6269  0.6733
  437TMC3    C8 6522   4.603   1.613  12.857  0.7063 -1.3167 -0.4152
  437TMC3    O1 6523   0.224   1.747  12.606 -0.3640  0.1174  0.2045
  437TMC3    O2 6524   4.571   1.627  12.739 -0.5065  0.2306 -0.0209
  438MPD2     C 6525   2.635   2.840  16.796  0.4330 -0.3930  0.6157
  438MPD2    C1 6526   2.699   2.723  16.839  0.2549 -0.2107 -0.3654
  438MPD2    C2 6527   2.718   2.715  16.977  0.0624  0.0007 -0.5902
  438MPD2    C3 6528   2.684   2.824  17.061 -0.2142 -0.2883 -1.1051
  438MPD2    C4 6529   2.640   2.941  17.015 -0.1117 -0.2640 -0.1733
  438MPD2    C5 6530   2.601   2.944  16.885  0.4214 -0.0789 -0.2138
  438MPD2     H 6531   2.753   2.618  17.010 -1.8977 -0.1543  1.0819
  438MPD2    H1 6532   2.615   3.027  17.075  1.9823  0.2459 -0.0405
  438MPD2    H2 6533   2.609   2.846  16.691 -2.1404 -3.2132  1.0923
  438MPD2    H3 6534   2.548   3.031  16.848  2.9065  1.1132 -0.9207
  438MPD2     N 6535   2.705   2.818  17.205 -0.1617 -0.2983  0.4230
  438MPD2    H5 6536   2.710   2.901  17.263 -0.1653  0.1883 -0.2737
  438MPD2    N1 6537   2.722   2.613  16.749 -0.4682  0.2950 -0.1269
  438MPD2    H7 6538   2.751   2.521  16.781  0.2142  0.5086 -0.1243
  439TMC3    C1 6539   2.677   2.488  16.561  0.7923  0.3779  0.0992
  439TMC3    C2 6540   2.719   2.471  16.429  0.1778 -0.5585  0.0914
  439TMC3    C3 6541   2.704   2.347  16.377  0.3287  0.7048 -0.2019
  439TMC3    C4 6542   2.638   2.390  16.643 -0.4620 -0.1460 -0.1244
  439TMC3    C5 6543   2.630   2.265  16.588  0.3205 -0.2319 -0.0786
  439TMC3    C6 6544   2.666   2.243  16.457 -0.2567 -0.3469  0.1279
  439TMC3     C 6545   2.700   2.619  16.616 -0.0661  0.1977  0.3110
  439TMC3     O 6546   2.718   2.713  16.541 -0.3877 -0.8731  0.4670
  439TMC3     H 6547   2.777   2.548  16.380 -1.2759  1.2034  1.1621
  439TMC3    H1 6548   2.581   2.406  16.734 -1.9023 -0.9441 -0.8901
  439TMC3    H2 6549   2.654   2.142  16.419  0.5118 -0.5272  0.3623
  439TMC3    C7 6550   2.670   2.166  16.684  0.1460 -0.3038  0.6995
  439TMC3    C8 6551   2.768   2.310  16.252  0.2382 -0.9248  0.3039
  439TMC3    O1 6552   2.659   2.208  16.797 -0.0480  0.6080 -0.4413
  439TMC3    O2 6553   2.799   2.192  16.235  0.0018  0.2021 -0.9704
  440MPD2     C 6554   1.762   2.979  14.480  0.8023  0.3214  0.1243
  440MPD2    C1 6555   1.696   2.957  14.603  0.6040  0.6790 -0.1465
  440MPD2    C2 6556   1.763   2.898  14.710 -0.5354  0.2608 -0.3942
  440MPD2    C3 6557   1.895   2.864  14.691  0.1128 -0.2619 -1.2529
  440MPD2    C4 6558   1.954   2.872  14.567 -0.4033 -0.1557  0.2877
  440MPD2    C5 6559   1.892   2.933  14.462  0.4977 -0.0083  0.1922
  440MPD2     H 6560   1.712   2.895  14.805 -2.0152  0.2179 -1.2030
  440MPD2    H1 6561   2.050   2.824  14.556 -0.4086  0.1817 -1.1552
  440MPD2    H2 6562   1.704   3.019  14.397  2.3399  2.1899 -0.0420
  440MPD2    H3 6563   1.933   2.950  14.363 -0.2018  0.9982  0.0746
  440MPD2     N 6564   1.970   2.807  14.802 -0.4079 -0.1415  0.0872
  440MPD2    H5 6565   2.070   2.790  14.797  0.0183  2.4031  0.1618
  440MPD2    N1 6566   1.563   3.001  14.628 -0.0803  0.4019  0.1752
  440MPD2    H7 6567   1.526   2.976  14.719  1.7020  1.8461  1.2790
  441TMC3    C1 6568   1.995   2.724  15.028 -0.2804 -0.1282 -0.0981
  441TMC3    C2 6569   2.110   2.798  15.055 -0.2190  0.8553 -0.0031
  441TMC3    C3 6570   2.186   2.765  15.164 -0.1703  0.2610  0.2813
  441TMC3    C4 6571   1.954   2.621  15.113  0.4461 -0.2826  0.5961
  441TMC3    C5 6572   2.037   2.587  15.216  0.5300 -0.1853  0.4885
  441TMC3    C6 6573   2.155   2.660  15.244 -0.6428 -0.1837 -0.2850
  441TMC3     C 6574   1.907   2.755  14.920 -0.0660  0.2771  0.0078
  441TMC3     O 6575   1.788   2.728  14.927 -0.0003  0.7812 -0.3878
  441TMC3     H 6576   2.150   2.873  14.988  1.1834  1.6378  1.7230
  441TMC3    H1 6577   1.860   2.574  15.090  0.5694 -0.3117  0.1386
  441TMC3    H2 6578   2.209   2.640  15.335  2.7756 -0.3915 -2.3687
  441TMC3    C7 6579   1.963   2.539  15.337 -0.1581  0.3947  0.1921
  441TMC3    C8 6580   2.206   2.880  15.252  0.0354  0.1061  0.1110
  441TMC3    O1 6581   1.843   2.554  15.318 -0.6106 -0.0241  0.5031
  441TMC3    O2 6582   2.254   2.871  15.364  0.7311 -0.2815 -0.1742
  442MPD2     C 6583   4.189   2.715  16.801  0.3138 -0.3047  0.2842
  442MPD2    C1 6584   4.174   2.843  16.749 -0.4191 -0.4334  0.3466
  442MPD2    C2 6585   4.195   2.859  16.613 -0.1352 -0.1135  0.0622
  442MPD2    C3 6586   4.199   2.753  16.530  0.2332 -0.1076 -0.2156
  442MPD2    C4 6587   4.205   2.620  16.580 -0.4322 -0.2940 -0.4834
  442MPD2    C5 6588   4.196   2.605  16.719 -0.7123 -0.4112  0.7262
  442MPD2     H 6589   4.176   2.956  16.569  0.5956  1.0472  2.2989
  442MPD2    H1 6590   4.205   2.530  16.519  0.5363 -1.1424  0.7684
  442MPD2    H2 6591   4.180   2.701  16.908 -3.0331  0.4343  0.1259
  442MPD2    H3 6592   4.207   2.503  16.754 -2.2314 -0.7747  0.1752
  442MPD2     N 6593   4.183   2.762  16.392 -0.4960 -0.1281  0.1746
  442MPD2    H5 6594   4.168   2.677  16.339 -0.9352  0.0082  0.0777
  442MPD2    N1 6595   4.153   2.956  16.824  0.0294  0.3639 -0.3238
  442MPD2    H7 6596   4.142   3.038  16.764  0.5847  0.4526 -0.2987
  443TMC3    C1 6597   4.110   3.102  17.004  0.0917 -0.1915  0.6789
  443TMC3    C2 6598   4.177   3.192  16.930  0.1995 -0.3189  0.9328
  443TMC3    C3 6599   4.121   3.301  16.875 -0.0197  0.1369  0.0272
  443TMC3    C4 6600   3.984   3.129  17.042 -0.1111  0.1424 -0.5325
  443TMC3    C5 6601   3.921   3.238  16.979 -0.0393  0.5589 -0.6266
  443TMC3    C6 6602   3.988   3.334  16.903 -0.0778  0.7701  0.4265
  443TMC3     C 6603   4.126   2.965  16.956  0.6307 -0.2345 -0.5188
  443TMC3     O 6604   4.092   2.872  17.027 -0.1052 -0.0320  0.2429
  443TMC3     H 6605   4.270   3.157  16.887 -0.3178  0.5761 -0.8996
  443TMC3    H1 6606   3.927   3.052  17.093 -1.7357  0.6389 -1.6265
  443TMC3    H2 6607   3.925   3.392  16.837  1.1878  1.8797  0.2029
  443TMC3    C7 6608   3.779   3.230  16.955  0.6261  0.0663  0.3340
  443TMC3    C8 6609   4.151   3.316  16.737  0.7124 -0.0546  0.7360
  443TMC3    O1 6610   3.737   3.117  16.933 -0.0112 -0.1217 -0.1061
  443TMC3    O2 6611   4.161   3.206  16.682 -0.2593  0.0669 -0.2929
  444MPD2     C 6612   4.333   3.052  17.494  0.3932 -0.2505  0.8769
  444MPD2    C1 6613   4.262   2.960  17.415 -0.6218 -0.5134 -0.5367
  444MPD2    C2 6614   4.326   2.853  17.375  0.3562 -0.8404  0.2478
  444MPD2    C3 6615   4.466   2.843  17.378  0.3676 -0.0536  0.4750
  444MPD2    C4 6616   4.539   2.944  17.438  0.1065 -0.1034  0.1909
  444MPD2    C5 6617   4.468   3.047  17.502 -0.0698  0.4866 -0.6537
  444MPD2     H 6618   4.270   2.781  17.316 -0.1230 -0.7619  0.6030
  444MPD2    H1 6619   4.647   2.951  17.443 -0.1402  3.5390  0.3281
  444MPD2    H2 6620   4.291   3.141  17.540 -1.3849 -0.7751  0.2949
  444MPD2    H3 6621   4.531   3.128  17.538 -2.7512  0.8842  3.2064
  444MPD2     N 6622   4.531   2.730  17.317  0.0769 -0.5034  0.1444
  444MPD2    H5 6623   4.470   2.675  17.257 -1.4339  0.7986  0.4673
  444MPD2    N1 6624   4.119   2.961  17.406 -0.7796 -0.4232  0.3711
  444MPD2    H7 6625   4.074   2.873  17.384 -1.8331  0.3009 -0.3442
  445TMC3    C1 6626   4.714   2.610  17.200  0.0304  0.2371 -0.5485
  445TMC3    C2 6627   4.611   2.541  17.140 -0.3523  0.5988 -0.0027
  445TMC3    C3 6628   4.647   2.456  17.041 -1.1613 -0.3175  0.1878
  445TMC3    C4 6629   0.114   2.607  17.149 -0.4079  0.2341  0.1010
  445TMC3    C5 6630   0.145   2.522  17.045 -0.6103 -0.5304  0.4828
  445TMC3    C6 6631   0.046   2.443  16.988 -0.3300  0.4617  0.4436
  445TMC3     C 6632   4.672   2.722  17.293  0.7988 -0.5952  0.0636
  445TMC3     O 6633   0.033   2.805  17.329  0.6963  0.6941  0.7958
  445TMC3     H 6634   4.505   2.556  17.159 -0.4618 -0.8252  0.5205
  445TMC3    H1 6635   0.194   2.674  17.179  0.0376  0.5756 -1.8451
  445TMC3    H2 6636   0.067   2.389  16.896 -0.3724  0.7207  0.2827
  445TMC3    C7 6637   0.279   2.522  16.976  0.1362  0.0855 -0.7026
  445TMC3    C8 6638   4.537   2.411  16.955  0.2201  0.4898  0.5757
  445TMC3    O1 6639   0.289   2.431  16.893  0.5384  0.3102  0.2323
  445TMC3    O2 6640   4.424   2.454  16.973  0.0563  0.1153 -0.2492
  446MPD2     C 6641   0.058   3.618  11.281  0.6014  0.4858  0.2935
  446MPD2    C1 6642   0.056   3.637  11.149 -0.7406 -0.0353 -0.7434
  446MPD2    C2 6643   0.115   3.752  11.093 -0.1243  0.0654 -0.5818
  446MPD2    C3 6644   0.194   3.842  11.160  0.1550 -0.1139  0.1011
  446MPD2    C4 6645   0.196   3.812  11.296  0.0798  0.2731  0.3490
  446MPD2    C5 6646   0.129   3.710  11.352 -0.8149  0.3571 -0.1710
  446MPD2     H 6647   0.122   3.756  10.985  0.4859  1.2076 -0.4897
  446MPD2    H1 6648   0.240   3.878  11.370 -1.0715  1.8417 -0.3575
  446MPD2    H2 6649   0.007   3.540  11.335 -0.8195  0.1619 -1.5292
  446MPD2    H3 6650   0.123   3.700  11.460  0.1368  0.9802 -0.0569
  446MPD2     N 6651   0.260   3.957  11.095 -0.1330 -0.6575 -1.0349
  446MPD2    H5 6652   0.245   3.976  10.996  1.8827 -0.1934 -1.2540
  446MPD2    N1 6653   4.714   3.551  11.058 -0.3700 -0.7059  0.3487
  446MPD2    H7 6654   4.710   3.580  10.961 -3.2674  1.0377  1.0230
  447TMC3    C1 6655   0.424   4.128  11.078  0.2438 -0.1319  0.4036
  447TMC3    C2 6656   0.438   4.115  10.941 -0.2808  0.5659 -0.4854
  447TMC3    C3 6657   0.510   4.215  10.876 -0.1317 -0.2172 -0.2186
  447TMC3    C4 6658   0.495   4.222  11.145  0.4421 -0.2032 -0.2656
  447TMC3    C5 6659   0.584   4.312  11.077  0.2825  0.0824  0.3047
  447TMC3    C6 6660   0.583   4.309  10.943 -0.7984  0.3660 -1.0899
  447TMC3     C 6661   0.367   4.018  11.158  0.3438 -0.5102 -0.7536
  447TMC3     O 6662   0.414   3.982  11.265 -0.5314 -0.0841 -0.3173
  447TMC3     H 6663   0.404   4.025  10.892  3.2257 -1.5893  0.9824
  447TMC3    H1 6664   0.501   4.216  11.253  1.3984 -0.5180 -0.3378
  447TMC3    H2 6665   0.658   4.365  10.888 -0.2451 -0.2698 -0.9828
  447TMC3    C7 6666   0.718   4.309  11.132  0.6248  0.1691 -0.2783
  447TMC3    C8 6667   0.556   4.199  10.742  0.5307  0.4101  1.1358
  447TMC3    O1 6668   0.796   4.269  11.049  0.0519 -0.0987 -0.1554
  447TMC3    O2 6669   0.577   4.297  10.663  0.4388 -0.2881 -0.3394
  448TMC3    C1 6670   2.483   4.249  16.814 -0.2797 -0.0666 -0.0166
  448TMC3    C2 6671   2.473   4.131  16.740 -0.6000  0.3883  0.3220
  448TMC3    C3 6672   2.434   4.019  16.806  0.4673  0.0479  0.4726
  448TMC3    C4 6673   2.452   4.254  16.951  0.5880 -0.0133  0.3385
  448TMC3    C5 6674   2.409   4.134  17.005 -0.3757 -0.2052 -0.7474
  448TMC3    C6 6675   2.398   4.017  16.940  0.0973 -0.7997 -0.2482
  448TMC3     C 6676   2.518   4.360  16.733  0.2462  0.1125 -0.6633
  448TMC3     O 6677   2.505   4.343  16.611 -0.0386  0.1935 -0.7272
  448TMC3     H 6678   2.503   4.125  16.636  1.1631 -1.1636  0.9382
  448TMC3    H1 6679   2.457   4.339  17.018 -0.6696 -0.4198  0.9447
  448TMC3    H2 6680   2.379   3.922  16.989 -2.0659 -0.6203 -0.7382
  448TMC3    C7 6681   2.350   4.151  17.137  0.7573  0.1850  0.7665
  448TMC3    C8 6682   2.424   3.897  16.730 -0.6842  0.2155 -0.0689
  448TMC3    O1 6683   2.290   4.258  17.159  0.4837  0.2843 -0.1265
  448TMC3    O2 6684   2.441   3.806  16.801 -0.4280 -0.3403 -0.2255
  449MPD2     C 6685   3.702   2.218  14.003 -0.1353 -0.3251  0.4164
  449MPD2    C1 6686   3.609   2.130  13.938  0.7234  0.5022  0.5713
  449MPD2    C2 6687   3.566   2.017  14.008 -0.1379  0.2819 -0.1925
  449MPD2    C3 6688   3.601   1.994  14.139 -0.2802  0.4047 -0.5774
  449MPD2    C4 6689   3.685   2.083  14.203 -0.0080 -0.5716  0.2738
  449MPD2    C5 6690   3.730   2.199  14.138 -0.2371 -0.4648  0.4431
  449MPD2     H 6691   3.510   1.940  13.957  1.6110 -0.0898 -1.5228
  449MPD2    H1 6692   3.691   2.074  14.311  0.7607  1.7310  0.4070
  449MPD2    H2 6693   3.740   2.305  13.950  1.6429 -0.8073  0.8752
  449MPD2    H3 6694   3.792   2.273  14.188 -1.0148  0.5060 -0.0341
  449MPD2     N 6695   3.544   1.883  14.205 -0.2485 -0.1255  0.6921
  449MPD2    H5 6696   3.495   1.817  14.144  1.4721  0.1232 -0.9583
  449MPD2    N1 6697   3.559   2.143  13.810  0.1797  0.0636  0.1093
  449MPD2    H7 6698   3.479   2.085  13.786 -0.3766  0.1053  1.8409
  450TMC3    C1 6699   3.547   2.178  13.585 -0.2329  0.1961 -0.1269
  450TMC3    C2 6700   3.630   2.114  13.498 -0.3766  0.0349 -0.4208
  450TMC3    C3 6701   3.580   2.011  13.424  0.0788 -0.2099 -0.0170
  450TMC3    C4 6702   3.424   2.138  13.613 -0.1956  0.2868 -0.2960
  450TMC3    C5 6703   3.383   2.028  13.543  0.5767 -0.6755  0.1231
  450TMC3    C6 6704   3.453   1.970  13.439 -0.3347  0.5669 -0.1968
  450TMC3     C 6705   3.617   2.211  13.708 -0.6219  0.5692 -0.3697
  450TMC3     O 6706   3.730   2.258  13.688  0.4617 -0.4279 -0.2181
  450TMC3     H 6707   3.735   2.138  13.484  0.0728 -0.1657  2.6818
  450TMC3    H1 6708   3.355   2.188  13.680 -0.4900  1.8310 -1.7518
  450TMC3    H2 6709   3.417   1.888  13.378 -2.1037  2.2993 -1.4621
  450TMC3    C7 6710   3.330   1.933  13.633 -0.3922  0.1594  0.1241
  450TMC3    C8 6711   3.649   1.969  13.300 -0.0288  0.5738 -0.0615
  450TMC3    O1 6712   3.327   1.958  13.751  0.4114  0.8033 -0.5075
  450TMC3    O2 6713   3.581   1.926  13.210  0.4597  0.6451  0.1485
  451MPD2     C 6714   0.663   1.195   2.012  0.2145  1.0801  0.3952
  451MPD2    C1 6715   0.562   1.239   1.920  0.0357  1.5816  0.2177
  451MPD2    C2 6716   0.508   1.139   1.837  0.7143  0.4968 -0.3550
  451MPD2    C3 6717   0.531   1.002   1.854  1.0639  0.3768 -0.7825
  451MPD2    C4 6718   0.639   0.965   1.942 -0.4047  0.5432  0.3277
  451MPD2    C5 6719   0.702   1.065   2.016  0.4046  0.4249  0.1435
  451MPD2     H 6720   0.459   1.180   1.749  1.2316  0.9496 -0.4282
  451MPD2    H1 6721   0.662   0.860   1.958 -1.8292  0.4755  1.8453
  451MPD2    H2 6722   0.716   1.270   2.070 -0.6605  0.7045  1.6812
  451MPD2    H3 6723   0.779   1.044   2.089  1.1791  0.9538 -0.5296
  451MPD2     N 6724   0.475   0.899   1.779 -0.8493 -0.5401 -0.0072
  451MPD2    H5 6725   0.494   0.801   1.795  1.1657 -0.2719 -0.7016
  451MPD2    N1 6726   0.524   1.377   1.914  0.1932 -0.5675 -0.1127
  451MPD2    H7 6727   0.578   1.445   1.966  0.4203 -0.5428 -0.3770
  452TMC3    C1 6728   0.314   0.785   1.648  1.0619  0.1778  0.2280
  452TMC3    C2 6729   0.371   0.668   1.674 -0.6695  0.0523 -0.9456
  452TMC3    C3 6730   0.305   0.558   1.630 -0.2356  0.8055 -0.5371
  452TMC3    C4 6731   0.193   0.787   1.581  0.3955 -0.1003 -0.7411
  452TMC3    C5 6732   0.139   0.674   1.524 -0.3078 -0.0840  0.1026
  452TMC3    C6 6733   0.191   0.550   1.560 -0.1052  0.2919  0.1370
  452TMC3     C 6734   0.365   0.916   1.694 -0.6713 -0.2875  0.1468
  452TMC3     O 6735   0.300   1.019   1.669  0.2022  0.8316  0.2496
  452TMC3     H 6736   0.452   0.648   1.743 -0.9022  0.5048 -0.5388
  452TMC3    H1 6737   0.152   0.881   1.547  0.1718 -0.4945 -1.5532
  452TMC3    H2 6738   0.147   0.456   1.529  0.4475 -0.1246  0.6013
  452TMC3    C7 6739   0.057   0.692   1.407 -0.4201  0.3604 -0.2087
  452TMC3    C8 6740   0.370   0.430   1.653  0.3825  0.5887  0.0404
  452TMC3    O1 6741   0.052   0.801   1.356  0.0549 -0.3142  0.2610
  452TMC3    O2 6742   0.299   0.328   1.664  0.3123  0.0252 -0.1537
  453TMC3    C1 6743   2.033   2.921  11.379 -0.4535 -0.1557  0.2460
  453TMC3    C2 6744   1.928   2.835  11.423 -0.9006  0.8479  0.0385
  453TMC3    C3 6745   1.916   2.714  11.364  0.7446 -0.2663 -0.6106
  453TMC3    C4 6746   2.120   2.890  11.278  0.6595  0.0933 -0.5269
  453TMC3    C5 6747   2.114   2.759  11.234 -0.1282  0.1151 -0.3172
  453TMC3    C6 6748   2.016   2.674  11.279 -0.2785  0.5922 -0.5535
  453TMC3     C 6749   2.096   3.013  11.476  0.1589  0.3765  0.6393
  453TMC3     O 6750   2.168   3.098  11.429  0.6972 -0.2503 -0.2017
  453TMC3     H 6751   1.875   2.846  11.517  0.0626 -0.6184  0.7507
  453TMC3    H1 6752   2.205   2.954  11.255  0.4202  0.6611  0.1798
  453TMC3    H2 6753   1.999   2.582  11.224  1.2700 -0.1856  0.2488
  453TMC3    C7 6754   2.207   2.714  11.132 -0.4504 -0.7051  0.1042
  453TMC3    C8 6755   1.833   2.617  11.435 -0.3451  0.6382 -0.7416
  453TMC3    O1 6756   2.268   2.803  11.071 -0.0867 -0.0243 -0.6829
  453TMC3    O2 6757   1.724   2.658  11.481  0.0862  0.3555 -0.3205
  454MPD2     C 6758   0.578   2.912  16.313  0.5149 -0.4309 -0.2986
  454MPD2    C1 6759   0.517   2.791  16.277  0.7535 -0.1997 -0.2395
  454MPD2    C2 6760   0.440   2.730  16.374 -0.3793  0.4024  0.3151
  454MPD2    C3 6761   0.413   2.777  16.502  0.6897 -0.7117  0.1230
  454MPD2    C4 6762   0.471   2.900  16.535  0.5070  0.6206  0.0613
  454MPD2    C5 6763   0.554   2.956  16.446 -0.3219 -0.1540 -0.3834
  454MPD2     H 6764   0.393   2.634  16.352 -0.7919  1.6275 -4.0298
  454MPD2    H1 6765   0.458   2.953  16.628  0.3789  0.3451  0.2002
  454MPD2    H2 6766   0.655   2.954  16.250  0.7598 -1.3302 -0.5983
  454MPD2    H3 6767   0.601   3.051  16.469  0.4714  0.0050 -2.5906
  454MPD2     N 6768   0.323   2.718  16.593 -0.2694 -0.3728  0.8017
  454MPD2    H5 6769   0.287   2.775  16.669  0.9935  0.2137  0.9504
  454MPD2    N1 6770   0.532   2.718  16.153 -0.5325  0.8658 -0.4750
  454MPD2    H7 6771   0.506   2.621  16.157 -1.0771  0.9777 -1.3317
  455TMC3    C1 6772   0.150   2.557  16.633 -0.7672  0.7387 -0.6072
  455TMC3    C2 6773   0.079   2.665  16.678  0.0846 -0.0743 -0.2932
  455TMC3    C3 6774   4.677   2.687  16.644 -0.4001 -0.0779 -0.8279
  455TMC3    C4 6775   0.083   2.461  16.554  1.0112 -0.1651  0.5900
  455TMC3    C5 6776   4.683   2.500  16.515  0.5129  0.2714 -0.2548
  455TMC3    C6 6777   4.611   2.602  16.560  0.0781  0.4028 -1.2059
  455TMC3     C 6778   0.285   2.587  16.583  0.1523 -0.2501 -0.5191
  455TMC3     O 6779   0.336   2.501  16.513  0.4010  0.8034  1.0219
  455TMC3     H 6780   0.125   2.734  16.748  1.3391  0.4802 -1.6439
  455TMC3    H1 6781   0.142   2.379  16.515  3.3868  2.0397 -0.4850
  455TMC3    H2 6782   4.508   2.630  16.539  0.1555  1.5557 -0.0472
  455TMC3    C7 6783   4.627   2.431  16.393  0.1973 -0.2386  0.2319
  455TMC3    C8 6784   4.617   2.801  16.718 -0.0405 -0.1146  0.7846
  455TMC3    O1 6785   4.513   2.456  16.352  0.1544  0.1508  0.1613
  455TMC3    O2 6786   4.648   2.810  16.837 -0.0225  0.8982 -0.3726
  456MPD2     C 6787   2.888   3.061  15.733 -0.8662  0.2576  0.6436
  456MPD2    C1 6788   2.935   2.978  15.833  0.1067 -0.4561  0.0162
  456MPD2    C2 6789   2.882   2.996  15.957 -0.3561  0.0170 -0.0047
  456MPD2    C3 6790   2.809   3.107  15.989 -0.3035 -0.5289  0.0739
  456MPD2    C4 6791   2.771   3.200  15.889  0.0376  0.0858  0.1752
  456MPD2    C5 6792   2.810   3.168  15.764 -0.2196 -0.3241  0.0899
  456MPD2     H 6793   2.911   2.926  16.035 -2.3062 -2.5275 -1.5914
  456MPD2    H1 6794   2.718   3.292  15.909 -0.1026 -0.0950  0.6326
  456MPD2    H2 6795   2.919   3.058  15.629  1.0562  2.5341  1.1498
  456MPD2    H3 6796   2.754   3.232  15.696  0.4584  1.1701  0.9458
  456MPD2     N 6797   2.780   3.124  16.124 -0.6989 -0.0984 -0.0676
  456MPD2    H5 6798   2.803   3.055  16.195  1.5706  1.9658  1.2010
  456MPD2    N1 6799   3.023   2.876  15.792  0.5337  0.4152 -0.4996
  456MPD2    H7 6800   3.044   2.883  15.693 -0.0874 -2.0616 -0.8014
  457TMC3    C1 6801   2.648   3.190  16.310  0.1205  0.1591 -0.0813
  457TMC3    C2 6802   2.536   3.246  16.354  0.3215  0.5215 -0.9180
  457TMC3    C3 6803   2.507   3.262  16.493 -0.9016  0.2507 -0.9261
  457TMC3    C4 6804   2.740   3.145  16.396 -0.3095 -0.5480 -0.0953
  457TMC3    C5 6805   2.720   3.163  16.528  1.3314  0.4422 -0.0576
  457TMC3    C6 6806   2.599   3.209  16.584 -0.2678  0.0128 -0.3565
  457TMC3     C 6807   2.681   3.206  16.170 -1.0222 -0.4889  0.3686
  457TMC3     O 6808   2.612   3.282  16.109 -0.3713  0.7741 -0.4538
  457TMC3     H 6809   2.465   3.284  16.281  0.3730 -1.4116 -1.9592
  457TMC3    H1 6810   2.839   3.119  16.361  0.2807 -0.1576  1.2529
  457TMC3    H2 6811   2.589   3.235  16.689  2.7235  3.0108 -0.8209
  457TMC3    C7 6812   2.834   3.195  16.616 -0.1021 -0.0516 -0.5672
  457TMC3    C8 6813   2.453   3.386  16.541 -0.1247 -0.3847 -0.3602
  457TMC3    O1 6814   2.931   3.249  16.566  0.2579  0.8439 -0.1663
  457TMC3    O2 6815   2.461   3.422  16.654 -0.0492 -0.6108  0.9405
  458MPD2     C 6816   0.699   1.865  12.412  0.4361 -0.7512 -0.0606
  458MPD2    C1 6817   0.716   1.930  12.532  1.0559 -0.5103 -1.0163
  458MPD2    C2 6818   0.618   1.910  12.634  0.2341 -0.5278  0.1303
  458MPD2    C3 6819   0.501   1.834  12.620  0.4331  0.5765 -0.5230
  458MPD2    C4 6820   0.488   1.772  12.496  0.4989 -0.1658  0.3756
  458MPD2    C5 6821   0.585   1.789  12.398 -1.1637 -0.3895 -0.3663
  458MPD2     H 6822   0.638   1.955  12.731 -1.6551 -1.2184  0.8219
  458MPD2    H1 6823   0.413   1.699  12.471 -1.3060  1.8570 -0.0839
  458MPD2    H2 6824   0.780   1.874  12.341  1.7969  1.5110  1.7774
  458MPD2    H3 6825   0.573   1.730  12.307  0.6874 -0.0150 -0.8559
  458MPD2     N 6826   0.416   1.817  12.734 -0.6380 -0.7217  0.9621
  458MPD2    H5 6827   0.447   1.840  12.828  2.5890 -2.7249  0.3980
  458MPD2    N1 6828   0.826   2.014  12.556  0.0856 -0.3270  0.3129
  458MPD2    H7 6829   0.902   2.022  12.489  0.2258  1.4376  0.7078
  459TMC3    C1 6830   0.990   2.152  12.678 -0.1805 -0.8307 -0.4320
  459TMC3    C2 6831   1.088   2.121  12.588  0.1077 -0.1629  1.3077
  459TMC3    C3 6832   1.217   2.104  12.632  0.5792  0.5614  1.1357
  459TMC3    C4 6833   1.025   2.175  12.813 -0.2806 -0.1969  0.1395
  459TMC3    C5 6834   1.151   2.151  12.858 -0.4151  0.6916  1.0954
  459TMC3    C6 6835   1.247   2.112  12.771  0.3143 -0.0889  0.7214
  459TMC3     C 6836   0.852   2.097  12.664 -0.0238 -0.6556 -0.2869
  459TMC3     O 6837   0.781   2.105  12.766 -0.1348  0.1131  0.1981
  459TMC3     H 6838   1.069   2.125  12.481  1.5165  0.2219  1.0600
  459TMC3    H1 6839   0.947   2.201  12.883  0.0991  2.4644 -0.4094
  459TMC3    H2 6840   1.350   2.093  12.797  1.3326  1.1415 -2.4605
  459TMC3    C7 6841   1.159   2.118  12.993 -0.1045  0.1522  0.0435
  459TMC3    C8 6842   1.334   2.106  12.543  0.0449 -0.3955 -0.6452
  459TMC3    O1 6843   1.056   2.062  13.037 -0.0748 -0.3264 -0.1426
  459TMC3    O2 6844   1.445   2.104  12.596  0.4799 -0.0850 -0.0177
  460MPD2     C 6845   0.592   3.863  10.596  0.2378  0.4698 -0.1113
  460MPD2    C1 6846   0.579   4.002  10.593 -0.2307 -0.5994 -1.5125
  460MPD2    C2 6847   0.581   4.066  10.473  1.1719 -0.2556 -0.3750
  460MPD2    C3 6848   0.582   3.995  10.354 -0.4016  0.1959 -0.1653
  460MPD2    C4 6849   0.595   3.859  10.360  0.0030  0.0215 -0.1540
  460MPD2    C5 6850   0.590   3.791  10.480  0.1349  0.2629  0.8983
  460MPD2     H 6851   0.579   4.174  10.473  0.1715 -0.2631 -1.3087
  460MPD2    H1 6852   0.603   3.801  10.268  0.8435 -0.9763  0.5511
  460MPD2    H2 6853   0.596   3.806  10.688 -1.6921 -0.1306 -0.4079
  460MPD2    H3 6854   0.578   3.684  10.473 -1.1194  0.3848  1.2002
  460MPD2     N 6855   0.596   4.062  10.233  0.1211 -0.3514 -0.9234
  460MPD2    H5 6856   0.626   4.159  10.230 -0.2659 -0.2034  0.2822
  460MPD2    N1 6857   0.563   4.068  10.712  0.5554 -0.1766 -0.1641
  460MPD2    H7 6858   0.559   4.006  10.792 -1.0755  0.2006  0.0436
  461TMC3    C1 6859   0.588   4.126   9.987 -0.0653 -0.1981  0.2068
  461TMC3    C2 6860   0.596   4.079   9.858  0.2165  0.3742  0.1566
  461TMC3    C3 6861   0.550   4.156   9.752 -0.0577 -0.6516  0.0603
  461TMC3    C4 6862   0.540   4.259  10.012  0.0689  0.2215 -0.1255
  461TMC3    C5 6863   0.509   4.334   9.903  0.0699  0.0273 -0.1636
  461TMC3    C6 6864   0.518   4.287   9.769  0.1261 -0.3325 -0.1857
  461TMC3     C 6865   0.573   4.020  10.099 -0.2161 -0.2632  0.0251
  461TMC3     O 6866   0.547   3.904  10.067  0.0050 -0.0482  0.2321
  461TMC3     H 6867   0.624   3.975   9.844  2.2849  0.7910  1.2011
  461TMC3    H1 6868   0.508   4.281  10.113  0.7881 -2.4891  0.6741
  461TMC3    H2 6869   0.493   4.359   9.692  1.0888 -0.4405 -0.5966
  461TMC3    C7 6870   0.517   4.480   9.903 -0.2702  0.7226  0.0056
  461TMC3    C8 6871   0.496   4.084   9.636 -0.5906 -0.2048 -0.8769
  461TMC3    O1 6872   0.448   4.557   9.843  0.1153 -0.0808  0.2998
  461TMC3    O2 6873   0.544   3.973   9.621  1.0028  0.2895  0.2643
  462TMC3    C1 6874   4.300   0.149  17.579 -0.6144  0.1925 -0.0860
  462TMC3    C2 6875   4.373   0.036  17.538 -0.2730  0.3355 -0.3955
  462TMC3    C3 6876   4.381   4.653  17.624 -0.8912  0.4989  0.2259
  462TMC3    C4 6877   4.230   0.154  17.688  0.4784 -0.9087  0.4631
  462TMC3    C5 6878   4.242   0.040   0.071  0.0835  0.4438  0.0842
  462TMC3    C6 6879   4.322   4.660   0.043  0.3284 -0.9789  0.1284
  462TMC3     C 6880   4.303   0.267  17.496 -0.7602 -0.0484 -0.3815
  462TMC3     O 6881   4.321   0.249  17.378  0.2602 -0.3618  0.0816
  462TMC3     H 6882   4.395   0.023  17.433 -0.4323  1.2598 -0.5375
  462TMC3    H1 6883   4.161   0.235   0.002  1.2805 -0.3477  0.9821
  462TMC3    H2 6884   4.312   4.567   0.099 -0.0830 -0.3029  1.1618
  462TMC3    C7 6885   4.156   0.042   0.187  0.4836  0.0007 -0.1476
  462TMC3    C8 6886   4.467   4.538  17.584 -0.2904 -0.5231  0.9164
  462TMC3    O1 6887   4.108   4.660   0.217 -0.4285  0.4493  0.0365
  462TMC3    O2 6888   4.463   4.439  17.659 -0.2151  0.0066 -0.0918
  463MPD2     C 6889   0.567   4.106   1.840 -0.0036 -0.5191 -0.3514
  463MPD2    C1 6890   0.452   4.158   1.784  0.5035  0.4811  0.1520
  463MPD2    C2 6891   0.456   4.285   1.724  0.3921  0.5108  0.0407
  463MPD2    C3 6892   0.569   4.364   1.716  0.3728 -0.3913  0.7852
  463MPD2    C4 6893   0.682   4.316   1.782 -1.2053 -0.2923 -0.3667
  463MPD2    C5 6894   0.674   4.195   1.844  0.2118 -0.1931 -0.0842
  463MPD2     H 6895   0.359   4.318   1.687  1.1571 -0.6417 -2.9665
  463MPD2    H1 6896   0.783   4.356   1.773 -0.8276 -1.0604  0.4773
  463MPD2    H2 6897   0.579   4.010   1.890 -0.3715  0.1238  0.9810
  463MPD2    H3 6898   0.762   4.159   1.897 -1.3256 -0.8341  2.0083
  463MPD2     N 6899   0.572   4.483   1.643 -0.6179  0.4135 -0.1602
  463MPD2    H5 6900   0.662   4.521   1.616  0.6400 -0.5536  2.6799
  463MPD2    N1 6901   0.329   4.093   1.778 -0.2707 -0.4741  0.2364
  463MPD2    H7 6902   0.254   4.143   1.732  0.7587  0.3872 -0.5240
  464TMC3    C1 6903   0.176   3.924   1.823 -0.4167 -0.1936 -0.4105
  464TMC3    C2 6904   0.074   4.013   1.795 -0.1718  0.0391  0.7034
  464TMC3    C3 6905   4.678   3.965   1.760 -0.1092 -0.9655 -0.3044
  464TMC3    C4 6906   0.156   3.789   1.827 -0.2399 -0.1970  0.0301
  464TMC3    C5 6907   0.031   3.746   1.786  0.3444  0.0751  0.7418
  464TMC3    C6 6908   4.658   3.833   1.742 -0.2554 -0.0963  0.1063
  464TMC3     C 6909   0.308   3.974   1.845  0.1126  0.4634 -0.1867
  464TMC3     O 6910   0.380   3.898   1.911  0.0737 -0.1042  0.5320
  464TMC3     H 6911   0.090   4.118   1.817 -1.3835  0.1379  1.0779
  464TMC3    H1 6912   0.235   3.715   1.839 -0.2103 -0.1707 -0.0035
  464TMC3    H2 6913   4.566   3.794   1.700 -0.6756 -0.1080  1.0459
  464TMC3    C7 6914   0.003   3.599   1.790 -0.4705 -0.4693 -0.3844
  464TMC3    C8 6915   4.586   4.044   1.686  0.3116  0.3417 -0.0972
  464TMC3    O1 6916   0.095   3.522   1.758 -0.1001  0.0695 -0.1224
  464TMC3    O2 6917   4.627   4.140   1.621  0.0142  0.0845 -0.1347
  465MPD2     C 6918   1.742   2.228  17.116  0.3894 -0.0992 -0.0230
  465MPD2    C1 6919   1.680   2.307  17.209 -0.2473 -0.5976 -0.7306
  465MPD2    C2 6920   1.615   2.422  17.165 -0.0194  0.9466 -0.2551
  465MPD2    C3 6921   1.607   2.455  17.035 -0.1219 -0.3843  1.1290
  465MPD2    C4 6922   1.662   2.368  16.935 -0.4624  0.0293 -0.1441
  465MPD2    C5 6923   1.721   2.260  16.982  0.2249 -0.3353  0.0347
  465MPD2     H 6924   1.562   2.480  17.240 -1.0286 -1.2917  0.7550
  465MPD2    H1 6925   1.655   2.378  16.828  0.6946 -0.2316 -0.2497
  465MPD2    H2 6926   1.797   2.139  17.146  0.9809 -0.2780 -1.6273
  465MPD2    H3 6927   1.766   2.190  16.911  0.7641  1.2441 -1.1831
  465MPD2     N 6928   1.558   2.582  17.007  0.0270  0.7023 -0.0121
  465MPD2    H5 6929   1.510   2.631  17.081  0.3295  0.3725  0.3977
  465MPD2    N1 6930   1.685   2.270  17.345  0.5736  0.5692  0.0663
  465MPD2    H7 6931   1.644   2.342  17.403 -0.1620 -2.0903  2.8473
  466TMC3    C1 6932   1.343   2.912  16.990  0.3338 -0.3687  0.2882
  466TMC3    C2 6933   1.397   3.017  16.923  0.4863 -0.0492  0.2104
  466TMC3    C3 6934   1.493   2.986  16.831  0.1736 -0.3613  0.2960
  466TMC3    C4 6935   1.379   2.780  16.969 -0.3205  0.1673  1.2685
  466TMC3    C5 6936   1.489   2.758  16.882 -0.3994  0.2977  0.1913
  466TMC3    C6 6937   1.536   2.860  16.805  0.5399  0.0263 -0.2297
  466TMC3     C 6938   1.271   2.946  17.103 -0.2829  0.2528 -0.7662
  466TMC3     O 6939   1.304   3.051  17.153 -0.4667 -0.0834  0.0327
  466TMC3     H 6940   1.344   3.111  16.931 -0.3920 -0.4697 -0.7087
  466TMC3    H1 6941   1.353   2.710  17.047  0.8250  2.6309  3.8665
  466TMC3    H2 6942   1.614   2.837  16.732 -1.7402 -1.5979 -2.1658
  466TMC3    C7 6943   1.566   2.638  16.884 -0.2655 -0.6774  0.8418
  466TMC3    C8 6944   1.577   3.089  16.779  0.1151 -0.0295 -0.1117
  466TMC3    O1 6945   1.648   2.624  16.793 -0.6393  0.5323 -0.1395
  466TMC3    O2 6946   1.620   3.064  16.667  0.2850  0.1101  0.4514
  467TMC3    C1 6947   2.687   0.853  13.828  0.1575 -1.0011 -0.2789
  467TMC3    C2 6948   2.655   0.797  13.706 -0.3486 -0.0052 -0.3716
  467TMC3    C3 6949   2.523   0.799  13.667 -0.5756  0.0027 -0.1720
  467TMC3    C4 6950   2.591   0.898  13.925  0.6783 -0.7580  0.2830
  467TMC3    C5 6951   2.461   0.874  13.880  0.4454 -0.2744  1.2201
  467TMC3    C6 6952   2.429   0.836  13.756  0.1993 -0.7469  0.2072
  467TMC3     C 6953   2.812   0.914  13.860 -0.2279 -0.1349  0.2049
  467TMC3     O 6954   2.843   0.957  13.969 -0.4993 -0.5522  0.5621
  467TMC3     H 6955   2.736   0.767  13.640  0.6141  0.0088  0.8037
  467TMC3    H1 6956   2.613   0.944  14.020 -0.2010 -2.6240  1.3923
  467TMC3    H2 6957   2.326   0.841  13.724  0.2307 -0.3792  0.1569
  467TMC3    C7 6958   2.366   0.974  13.932 -0.3941  0.3645  0.2468
  467TMC3    C8 6959   2.491   0.809  13.529  0.2204 -0.2016  0.1599
  467TMC3    O1 6960   2.418   1.077  13.973 -0.0861 -0.2119  0.5167
  467TMC3    O2 6961   2.392   0.871  13.498 -0.0269  0.4663 -0.0408
  468MPD2     C 6962   2.228   3.759  10.414  0.4353 -0.2293 -0.3618
  468MPD2    C1 6963   2.340   3.740  10.497  0.0722 -0.3097 -0.0767
  468MPD2    C2 6964   2.363   3.611  10.540  0.8500  0.7488  1.0076
  468MPD2    C3 6965   2.281   3.496  10.516  0.0911  0.2837  0.5990
  468MPD2    C4 6966   2.166   3.519  10.438 -0.3536  0.2088 -0.4287
  468MPD2    C5 6967   2.150   3.646  10.391  0.8951  0.1064  0.9461
  468MPD2     H 6968   2.446   3.594  10.607  0.5124 -1.1935  0.9305
  468MPD2    H1 6969   2.103   3.438  10.403 -0.8336  0.8714 -1.1039
  468MPD2    H2 6970   2.214   3.852  10.361  2.9052 -0.4104 -1.3261
  468MPD2    H3 6971   2.063   3.663  10.328  2.1088 -0.9636 -1.0049
  468MPD2     N 6972   2.301   3.362  10.566 -0.5964 -0.3695  0.2258
  468MPD2    H5 6973   2.234   3.289  10.545  0.2403 -0.4993 -2.0605
  468MPD2    N1 6974   2.433   3.840  10.522  0.3721 -0.4134  0.0913
  468MPD2    H7 6975   2.511   3.824  10.584  0.3294  0.8352  0.4639
  469TMC3    C1 6976   2.566   4.031  10.516  0.4064 -0.0509  0.7508
  469TMC3    C2 6977   2.681   3.954  10.536 -0.1198  0.0246  0.9612
  469TMC3    C3 6978   2.794   4.007  10.587 -0.0138 -0.4020  0.0112
  469TMC3    C4 6979   2.569   4.166  10.523  0.0290 -0.0067 -0.2716
  469TMC3    C5 6980   2.684   4.222  10.575 -0.3993 -0.4527 -0.3956
  469TMC3    C6 6981   2.794   4.146  10.612  0.0669  0.1906 -0.4684
  469TMC3     C 6982   2.441   3.969  10.471  0.0213 -0.6924  0.5843
  469TMC3     O 6983   2.358   4.031  10.403  0.4786 -0.0992  0.1205
  469TMC3     H 6984   2.688   3.853  10.498  1.4005 -0.6308  2.9684
  469TMC3    H1 6985   2.478   4.224  10.514  0.1551  0.3438  0.6941
  469TMC3    H2 6986   2.882   4.197  10.651  0.4383 -0.8950  0.1081
  469TMC3    C7 6987   2.697   4.362  10.607  0.1316  0.4490  0.5711
  469TMC3    C8 6988   2.893   3.921  10.664  0.7709 -1.3562  1.0764
  469TMC3    O1 6989   2.801   4.399  10.663 -0.0169 -0.1815  0.6145
  469TMC3    O2 6990   2.899   3.805  10.626 -0.5213 -0.4291 -0.8865
  470TMC3    C1 6991   4.032   0.279   1.442  0.2088  0.1591 -0.2435
  470TMC3    C2 6992   4.094   0.397   1.410 -0.5313 -0.1560 -0.5389
  470TMC3    C3 6993   4.206   0.436   1.484  0.1927 -0.1530  0.5120
  470TMC3    C4 6994   4.086   0.198   1.539 -0.0941 -0.2743  0.6632
  470TMC3    C5 6995   4.197   0.241   1.607 -0.1767 -0.8589  0.2784
  470TMC3    C6 6996   4.260   0.360   1.584 -0.5076  0.0105  0.3055
  470TMC3     C 6997   3.937   0.225   1.345 -0.1058 -0.0454 -0.1406
  470TMC3     O 6998   3.889   0.301   1.264 -0.2768 -0.1596  0.6316
  470TMC3     H 6999   4.046   0.468   1.343  2.8679  0.2571 -2.5423
  470TMC3    H1 7000   4.040   0.105   1.571  1.8770 -1.9877 -1.4287
  470TMC3    H2 7001   4.316   0.397   1.669 -2.4529 -0.5549  1.8354
  470TMC3    C7 7002   4.242   0.168   1.720 -0.0756  0.3111 -0.4666
  470TMC3    C8 7003   4.222   0.580   1.491  0.0140 -0.6059  0.3548
  470TMC3    O1 7004   4.362   0.148   1.745  0.1940  0.0366  0.3286
  470TMC3    O2 7005   4.134   0.651   1.451  0.7893  0.3496 -0.0704
  471MPD2     C 7006   4.386   2.530  17.488  0.1990  0.1050  0.2209
  471MPD2    C1 7007   4.399   2.396  17.452 -0.2758 -0.1914  0.0460
  471MPD2    C2 7008   4.477   2.314  17.530  0.6720  0.2408  0.4609
  471MPD2    C3 7009   4.565   2.375  17.623 -0.1524 -0.2248  0.0612
  471MPD2    C4 7010   4.549   2.502  17.662 -0.0918 -0.3290  0.3316
  471MPD2    C5 7011   4.471   2.578  17.582  0.5623 -0.0585 -0.1708
  471MPD2     H 7012   4.492   2.210  17.502 -0.7595  0.0945  0.2539
  471MPD2    H1 7013   4.612   2.555   0.028  1.2435  0.2979 -1.3418
  471MPD2    H2 7014   4.325   2.605  17.438 -0.2773 -1.0271 -0.8981
  471MPD2    H3 7015   4.465   2.683  17.609 -0.3207  0.1244 -1.0580
  471MPD2     N 7016   4.670   2.301  17.689  0.0582  0.4460 -0.6488
  471MPD2    H5 7017   4.704   2.346   0.069 -1.7907 -3.8393  2.3438
  471MPD2    N1 7018   4.328   2.344  17.343 -0.1252  0.3126 -0.8490
  471MPD2    H7 7019   4.318   2.243  17.341 -0.7839  0.4290 -3.6806
  472TMC3    C1 7020   4.199   2.325  17.146  0.2669 -0.1829  0.4737
  472TMC3    C2 7021   4.092   2.368  17.071 -0.1396 -0.0476  0.0136
  472TMC3    C3 7022   4.055   2.271  16.973 -0.1235 -0.1204 -0.5543
  472TMC3    C4 7023   4.254   2.207  17.140 -0.4834  0.2872  0.1362
  472TMC3    C5 7024   4.225   2.128  17.035  0.2061 -0.0094  0.4275
  472TMC3    C6 7025   4.122   2.156  16.954 -1.1275  0.3075  0.2909
  472TMC3     C 7026   4.268   2.422  17.243  0.3345  0.4544  0.4921
  472TMC3     O 7027   4.240   2.541  17.236 -0.1614  0.5688  0.0039
  472TMC3     H 7028   4.057   2.470  17.079 -0.5547 -0.2464  0.7786
  472TMC3    H1 7029   4.350   2.182  17.184  0.0745 -0.2183 -1.4004
  472TMC3    H2 7030   4.087   2.081  16.883 -2.5110  2.1826 -1.0310
  472TMC3    C7 7031   4.316   2.019  17.000  0.0117 -1.3039 -0.2432
  472TMC3    C8 7032   3.956   2.315  16.880 -0.1579  0.0686 -0.1658
  472TMC3    O1 7033   4.395   1.972  17.081  0.0717 -0.0156  0.1025
  472TMC3    O2 7034   3.970   2.432  16.844 -0.0016  0.6414 -0.1920
  473MPD2     C 7035   4.384   3.465  13.753  0.0167 -0.1102 -0.4704
  473MPD2    C1 7036   4.391   3.599  13.702  0.0036  0.4453 -0.0610
  473MPD2    C2 7037   4.425   3.701  13.786 -0.5362 -0.4813  0.3941
  473MPD2    C3 7038   4.438   3.675  13.921 -0.7684  0.2615 -0.1618
  473MPD2    C4 7039   4.424   3.550  13.969  0.0176 -0.2979  0.2134
  473MPD2    C5 7040   4.397   3.447  13.885 -0.9930  0.1979 -0.2643
  473MPD2     H 7041   4.448   3.800  13.748 -1.5126 -1.6166 -3.1523
  473MPD2    H1 7042   4.426   3.541  14.077  1.2017 -0.2173  0.1914
  473MPD2    H2 7043   4.351   3.386  13.687  0.6720  0.5272 -1.5597
  473MPD2    H3 7044   4.382   3.348  13.928  2.0291 -1.1068 -2.1781
  473MPD2     N 7045   4.466   3.769  14.019 -0.2004 -0.1506  0.1379
  473MPD2    H5 7046   4.481   3.733  14.113  1.4558  1.7549  0.6164
  473MPD2    N1 7047   4.379   3.627  13.562  0.5960  0.1137  0.0028
  473MPD2    H7 7048   4.369   3.727  13.550 -1.2461  0.0154  0.6247
  474TMC3    C1 7049   4.519   3.981  14.109 -0.2256  0.2643  0.3033
  474TMC3    C2 7050   4.620   4.072  14.080 -1.4543  0.4414  0.3102
  474TMC3    C3 7051   4.677   4.125  14.188 -0.2366 -0.2786 -0.4427
  474TMC3    C4 7052   4.462   3.961  14.235  0.2989  0.3599  0.1401
  474TMC3    C5 7053   4.516   4.036  14.336 -0.6764 -0.3457  0.0360
  474TMC3    C6 7054   4.631   4.107  14.316  0.3196  0.1306  0.4933
  474TMC3     C 7055   4.480   3.905  13.993  0.4233  1.0646  0.5030
  474TMC3     O 7056   4.460   3.974  13.894 -0.1666  0.1203  0.3109
  474TMC3     H 7057   4.669   4.072  13.983  1.8090 -2.3670  1.9786
  474TMC3    H1 7058   4.396   3.877  14.253 -0.0657  0.9911  1.7407
  474TMC3    H2 7059   4.682   4.156  14.398  0.5440 -2.7802  2.0933
  474TMC3    C7 7060   4.479   3.983  14.468 -0.3877 -0.0736 -0.8789
  474TMC3    C8 7061   0.057   4.215  14.153  0.2682 -0.5386  0.2013
  474TMC3    O1 7062   4.397   3.888  14.475  0.1035 -0.4334 -0.2063
  474TMC3    O2 7063   0.141   4.233  14.235  0.0092 -0.5840  0.6193
  475MPD2     C 7064   4.014   0.840  10.077  0.6280  0.5555  0.0601
  475MPD2    C1 7065   4.109   0.936  10.102 -0.6241  0.5529 -0.2892
  475MPD2    C2 7066   4.077   1.041  10.192 -0.5813 -0.2730 -0.1348
  475MPD2    C3 7067   3.957   1.040  10.256 -0.3902  0.2701  0.4234
  475MPD2    C4 7068   3.866   0.948  10.228  0.4506 -0.4884 -0.5486
  475MPD2    C5 7069   3.889   0.853  10.135  0.0526 -0.1539 -0.7052
  475MPD2     H 7070   4.147   1.120  10.217 -2.7850  0.9613  2.0862
  475MPD2    H1 7071   3.767   0.945  10.272  0.4695 -2.1677 -0.6237
  475MPD2    H2 7072   4.046   0.765  10.006 -3.4815 -0.8508 -0.2653
  475MPD2    H3 7073   3.814   0.780  10.107 -3.3212  2.3447  1.8434
  475MPD2     N 7074   3.940   1.139  10.353 -1.1913  0.2597  0.1801
  475MPD2    H5 7075   4.022   1.191  10.383  0.2362 -2.1538  0.4103
  475MPD2    N1 7076   4.232   0.921  10.039 -0.5719  0.5271  0.3713
  475MPD2    H7 7077   4.258   0.825  10.020  0.5726  0.6081  1.5268
  476TMC3    C1 7078   4.308   1.142  10.023 -0.2779 -0.0864  0.2513
  476TMC3    C2 7079   4.205   1.202   9.959 -0.1355 -0.1339  0.0378
  476TMC3    C3 7080   4.190   1.336   9.979 -0.1160  0.0183 -0.5924
  476TMC3    C4 7081   4.397   1.219  10.084  0.0540  0.1069  0.3012
  476TMC3    C5 7082   4.379   1.355  10.106  0.1174 -0.3362  0.8187
  476TMC3    C6 7083   4.276   1.421  10.041 -0.2501 -0.0911 -0.2176
  476TMC3     C 7084   4.337   1.011  10.015 -0.8122 -0.2706  0.3500
  476TMC3     O 7085   4.451   0.980   9.988 -0.2673  0.1571 -0.0937
  476TMC3     H 7086   4.143   1.144   9.892  2.9658 -2.9887 -0.3586
  476TMC3    H1 7087   4.484   1.164  10.121  1.7018  1.8433 -0.9883
  476TMC3    H2 7088   4.254   1.528  10.043 -1.5092 -0.3463 -0.9152
  476TMC3    C7 7089   4.439   1.413  10.229 -0.0024 -0.0489 -0.0914
  476TMC3    C8 7090   4.063   1.397   9.948  0.0791 -0.3399  0.6001
  476TMC3    O1 7091   4.485   1.335  10.308 -0.2024  0.2219  0.6014
  476TMC3    O2 7092   4.057   1.519   9.931 -0.0840  0.1305 -0.3510
  477MPD2     C 7093   1.204   3.411  11.500  0.1460 -0.6793  0.2856
  477MPD2    C1 7094   1.075   3.385  11.544  0.5354 -0.4468  0.0280
  477MPD2    C2 7095   1.059   3.297  11.649  0.6871 -0.2819 -0.5221
  477MPD2    C3 7096   1.168   3.232  11.703  0.0286  0.7042 -0.0584
  477MPD2    C4 7097   1.299   3.256  11.661  0.2063  0.2894 -0.0117
  477MPD2    C5 7098   1.315   3.348  11.559  0.1978  1.2469 -0.3944
  477MPD2     H 7099   0.960   3.276  11.687  0.5270 -0.5710 -1.1025
  477MPD2    H1 7100   1.375   3.194  11.708 -0.2294 -0.3271 -0.1230
  477MPD2    H2 7101   1.215   3.489  11.425  3.0607 -0.2079  1.1948
  477MPD2    H3 7102   1.417   3.360  11.527  0.6868 -2.3418 -0.2044
  477MPD2     N 7103   1.142   3.124  11.792 -0.1519 -0.0851  0.3727
  477MPD2    H5 7104   1.043   3.105  11.805  0.1304 -1.3204  0.7471
  477MPD2    N1 7105   0.967   3.464  11.490  0.0834 -0.0207 -0.0594
  477MPD2    H7 7106   0.986   3.521  11.408  0.2411 -1.2254 -0.8579
  478TMC3    C1 7107   0.754   3.567  11.479  0.1005 -0.6795 -0.1860
  478TMC3    C2 7108   0.652   3.621  11.549 -0.0902  0.1388  0.1398
  478TMC3    C3 7109   0.542   3.671  11.483 -0.2700 -0.3385 -0.2681
  478TMC3    C4 7110   0.750   3.562  11.339  0.7499  0.5145  0.2329
  478TMC3    C5 7111   0.635   3.615  11.273 -0.1504 -0.0529 -0.0688
  478TMC3    C6 7112   0.537   3.675  11.338 -0.2616 -0.4495 -0.0284
  478TMC3     C 7113   0.846   3.478  11.552 -0.3730 -0.0040  0.0193
  478TMC3     O 7114   0.807   3.447  11.664 -0.3287 -0.1148 -0.2229
  478TMC3     H 7115   0.651   3.621  11.658 -0.2039 -1.7782  0.1293
  478TMC3    H1 7116   0.833   3.523  11.281 -0.3860  0.8954 -1.6302
  478TMC3    H2 7117   0.446   3.721  11.301  0.1939 -1.1095 -1.9584
  478TMC3    C7 7118   0.598   3.558  11.143  0.4504  0.3256 -0.6936
  478TMC3    C8 7119   0.438   3.728  11.558  1.3089  0.4654  0.2739
  478TMC3    O1 7120   0.674   3.471  11.099 -0.2944 -0.1745  0.0057
  478TMC3    O2 7121   0.390   3.668  11.657 -0.6626  0.0385 -0.1266
  479MPD2     C 7122   3.936   0.821  15.047 -0.0940  0.4532  0.1035
  479MPD2    C1 7123   3.924   0.782  15.174  0.0798 -0.4149 -0.4745
  479MPD2    C2 7124   4.018   0.828  15.266  0.4718  0.4851  0.5029
  479MPD2    C3 7125   4.124   0.915  15.227  0.0673 -0.6129 -0.0870
  479MPD2    C4 7126   4.142   0.937  15.096 -0.0283 -0.0024  0.4941
  479MPD2    C5 7127   4.050   0.885  15.005 -0.5518 -0.3084  0.2630
  479MPD2     H 7128   3.996   0.803  15.369  1.5631 -2.4280  0.0070
  479MPD2    H1 7129   4.229   0.988  15.057  0.3601 -1.0221  0.0109
  479MPD2    H2 7130   3.867   0.789  14.970  2.8858 -0.5113 -2.1925
  479MPD2    H3 7131   4.067   0.897  14.899 -2.2767 -0.3664 -0.0212
  479MPD2     N 7132   4.208   0.972  15.328 -0.3903  0.6971 -0.2955
  479MPD2    H5 7133   4.264   1.048  15.291  0.1039  1.1742  1.4865
  479MPD2    N1 7134   3.801   0.712  15.205  0.2283  0.7882  0.4811
  479MPD2    H7 7135   3.733   0.703  15.131  0.1842  0.3042  0.5823
  480TMC3    C1 7136   4.092   1.141  15.695 -1.0757  0.0970 -0.2915
  480TMC3    C2 7137   4.033   1.240  15.622 -0.3703  0.3641 -0.1916
  480TMC3    C3 7138   4.080   1.251  15.495  0.6783 -0.4960 -0.6360
  480TMC3    C4 7139   4.198   1.068  15.652 -0.9692  0.2163  0.3204
  480TMC3    C5 7140   4.236   1.082  15.525 -0.1433 -0.0936 -0.2047
  480TMC3    C6 7141   4.192   1.186  15.447 -0.1526  0.4014 -0.0695
  480TMC3     C 7142   4.017   1.087  15.810 -0.0379  0.5870 -0.7424
  480TMC3     O 7143   4.026   0.968  15.838 -0.0312 -0.1060 -0.1517
  480TMC3     H 7144   3.933   1.278  15.638  0.3089  1.7713  0.6743
  480TMC3    H1 7145   4.226   0.991  15.723  0.2388  1.3741  1.1050
  480TMC3    H2 7146   4.241   1.223  15.358  0.2067  0.6334  0.2254
  480TMC3    C7 7147   4.210   0.953  15.460  1.0760  0.1959 -0.0308
  480TMC3    C8 7148   3.993   1.309  15.403 -0.0652 -0.2166 -0.5775
  480TMC3    O1 7149   4.170   0.856  15.523 -0.6758  0.2285  0.2816
  480TMC3    O2 7150   3.916   1.401  15.440  0.7536 -0.5707 -0.0872
  481MPD2     C 7151   1.194   4.588  14.248  0.0274  0.1033  0.5895
  481MPD2    C1 7152   1.065   4.560  14.293  0.1731  0.4907  0.5676
  481MPD2    C2 7153   1.039   4.568  14.429 -0.1973 -1.2415 -0.9520
  481MPD2    C3 7154   1.142   4.603  14.521 -0.1046  0.2863  0.2043
  481MPD2    C4 7155   1.268   4.623  14.477  0.5717 -0.6506  0.5631
  481MPD2    C5 7156   1.290   4.617  14.344  0.5306  0.6168 -0.1297
  481MPD2     H 7157   0.941   4.539  14.465  0.2484 -1.0652  0.4193
  481MPD2    H1 7158   1.351   4.638  14.545  0.2451 -1.2919  1.1057
  481MPD2    H2 7159   1.223   4.597  14.144 -1.1005 -1.8832  0.1094
  481MPD2    H3 7160   1.383   4.656  14.305 -0.4828  1.5272 -1.6343
  481MPD2     N 7161   1.126   4.635  14.656  0.5179 -0.0100 -0.0000
  481MPD2    H5 7162   1.205   4.670  14.709  0.9323 -1.9173  0.6602
  481MPD2    N1 7163   0.970   4.554  14.192  0.2939  0.2495  0.1878
  481MPD2    H7 7164   1.009   4.564  14.099  1.3632  0.1364  0.6242
  482TMC3    C1 7165   0.760   4.551  14.084  0.3741  0.2525  0.5759
  482TMC3    C2 7166   0.668   4.457  14.061  0.3459 -0.1536  0.3798
  482TMC3    C3 7167   0.567   4.484  13.969 -0.4592 -0.3556 -0.1240
  482TMC3    C4 7168   0.763   4.673  14.022  0.4342 -0.1501 -0.1431
  482TMC3    C5 7169   0.655   4.696  13.937 -0.3104 -0.7394  0.5398
  482TMC3    C6 7170   0.559   4.609  13.913 -0.3674 -0.3537  0.3662
  482TMC3     C 7171   0.836   4.522  14.204  0.1842 -0.0619  0.0464
  482TMC3     O 7172   0.770   4.474  14.294 -0.0019  0.1668 -0.7201
  482TMC3     H 7173   0.676   4.358  14.104 -0.2498 -0.4427 -0.1848
  482TMC3    H1 7174   0.841   0.021  14.034 -1.9595  2.3771 -0.0556
  482TMC3    H2 7175   0.482   4.643  13.844  1.2585  0.2752 -1.1272
  482TMC3    C7 7176   0.618   0.111  13.931  0.3576 -0.5108 -0.3339
  482TMC3    C8 7177   0.495   4.366  13.910 -0.7350  0.5795 -0.0037
  482TMC3    O1 7178   0.509   0.153  13.975  0.0751 -0.5531 -0.0441
  482TMC3    O2 7179   0.529   4.257  13.948  0.4496 -0.4136  0.3285
  483TMC3    C1 7180   2.605   4.466   0.605 -0.1573  0.1981  0.0829
  483TMC3    C2 7181   2.618   4.603   0.600 -1.0165 -0.2943  0.3909
  483TMC3    C3 7182   2.677   4.663   0.706 -0.6697 -0.4802  0.7242
  483TMC3    C4 7183   2.641   4.394   0.721  0.2667  0.5296  0.1898
  483TMC3    C5 7184   2.712   4.460   0.818 -0.1916 -0.5447 -0.2323
  483TMC3    C6 7185   2.727   4.598   0.815  0.1911  0.3885 -0.4365
  483TMC3     C 7186   2.606   4.394   0.480 -0.5391  0.0077  0.3174
  483TMC3     O 7187   2.634   4.465   0.382 -0.2244  0.0255 -0.0119
  483TMC3     H 7188   2.567   4.652   0.517  0.3101 -1.3485 -1.0490
  483TMC3    H1 7189   2.638   4.286   0.728  0.3418  0.4093 -1.7461
  483TMC3    H2 7190   2.777   4.657   0.891 -0.1451  1.0609 -0.7411
  483TMC3    C7 7191   2.826   4.385   0.869 -0.1735  0.2768 -0.0437
  483TMC3    C8 7192   2.759   0.042   0.664 -0.4618 -0.6430  0.0130
  483TMC3    O1 7193   2.929   4.446   0.886 -0.0237 -0.1145  0.1756
  483TMC3    O2 7194   2.873   0.050   0.714 -0.5621 -0.2160 -0.1388
  484MPD2     C 7195   1.342   2.139  12.175  0.0837  0.5643 -0.2459
  484MPD2    C1 7196   1.391   2.124  12.301 -0.4834  0.1918 -0.1900
  484MPD2    C2 7197   1.527   2.130  12.316 -0.0137 -0.3574  0.2485
  484MPD2    C3 7198   1.624   2.145  12.211 -0.5454  0.2239 -0.2879
  484MPD2    C4 7199   1.569   2.175  12.090  0.2791 -0.1172 -0.0172
  484MPD2    C5 7200   1.432   2.175  12.079 -0.0477 -0.4278  0.5698
  484MPD2     H 7201   1.560   2.101  12.415 -0.5870  0.0362  0.5547
  484MPD2    H1 7202   1.630   2.214  12.009 -1.6528  1.9461 -0.4662
  484MPD2    H2 7203   1.239   2.152  12.143  0.4897 -2.3761 -2.7566
  484MPD2    H3 7204   1.405   2.205  11.978  1.4122 -0.7232  0.0934
  484MPD2     N 7205   1.761   2.137  12.226 -0.2073  0.1639 -0.0965
  484MPD2    H5 7206   1.822   2.166  12.150 -0.6750  2.2713  0.3214
  484MPD2    N1 7207   1.302   2.120  12.410  0.4793 -0.1592 -0.2918
  484MPD2    H7 7208   1.204   2.120  12.383  0.4064  1.5279 -0.0567
  485TMC3    C1 7209   1.983   2.086  12.303  0.1517  0.2059 -0.4354
  485TMC3    C2 7210   2.068   2.056  12.408  0.1500 -0.1727  0.0013
  485TMC3    C3 7211   2.200   2.049  12.386 -0.5733  0.0732  0.3682
  485TMC3    C4 7212   2.033   2.107  12.177 -0.4138  0.0222 -0.1065
  485TMC3    C5 7213   2.170   2.121  12.158 -0.1882 -0.4199  0.0429
  485TMC3    C6 7214   2.253   2.099  12.270 -0.4918  0.8040 -0.6107
  485TMC3     C 7215   1.838   2.104  12.345 -0.8119  0.3982  0.2435
  485TMC3     O 7216   1.801   2.084  12.459  0.2268 -0.5806  0.5126
  485TMC3     H 7217   2.022   2.027  12.502  0.1909 -0.7026 -0.1442
  485TMC3    H1 7218   1.977   2.093  12.085  1.6809  0.8196 -1.4994
  485TMC3    H2 7219   2.360   2.089  12.258 -0.4253  0.1587  0.4876
  485TMC3    C7 7220   2.241   2.035  12.065 -0.1892  0.1358 -0.6816
  485TMC3    C8 7221   2.271   1.938  12.431 -0.3285 -0.1628 -1.0665
  485TMC3    O1 7222   2.183   1.932  12.040 -0.5686 -0.1571 -0.2598
  485TMC3    O2 7223   2.395   1.944  12.418  0.5385 -0.2344 -0.7092
  486MPD2     C 7224   3.910   1.042  12.839 -0.6499 -0.5394  0.7136
  486MPD2    C1 7225   3.791   0.974  12.829 -0.2338 -0.0502 -0.8315
  486MPD2    C2 7226   3.672   1.042  12.789 -0.1631  0.3471 -0.8530
  486MPD2    C3 7227   3.668   1.182  12.788  0.0414  0.6770 -0.4030
  486MPD2    C4 7228   3.788   1.249  12.801 -0.4489 -0.1361 -1.1492
  486MPD2    C5 7229   3.904   1.178  12.824  0.5869  0.2684 -0.5300
  486MPD2     H 7230   3.583   0.984  12.768 -0.7172  0.8335  0.1610
  486MPD2    H1 7231   3.806   1.355  12.789 -1.7531  0.2211 -0.0805
  486MPD2    H2 7232   4.005   0.996  12.867 -0.4526 -2.2783 -2.7600
  486MPD2    H3 7233   3.999   1.231  12.832  0.1147  0.9912  0.2725
  486MPD2     N 7234   3.544   1.250  12.754 -0.1467  0.0892 -0.2793
  486MPD2    H5 7235   3.459   1.199  12.733  0.7339 -1.2549 -0.6019
  486MPD2    N1 7236   3.790   0.836  12.853 -0.9190  0.8353 -0.6290
  486MPD2    H7 7237   3.880   0.801  12.886 -2.0887  0.0233  1.7657
  487TMC3    C1 7238   3.719   0.616  12.909 -0.0750 -0.4979  0.7051
  487TMC3    C2 7239   3.647   0.504  12.860  0.3455 -0.0892 -0.2059
  487TMC3    C3 7240   3.686   0.381  12.897  0.3943  0.6283  0.1783
  487TMC3    C4 7241   3.823   0.596  12.995  0.0447  1.0259  0.4827
  487TMC3    C5 7242   3.855   0.466  13.031  0.3922 -0.1417 -0.5932
  487TMC3    C6 7243   3.790   0.357  12.979  0.8782 -0.0210  0.1028
  487TMC3     C 7244   3.682   0.751  12.861  0.0007 -0.4765  0.6451
  487TMC3     O 7245   3.573   0.760  12.807 -0.1559 -0.1380  0.4617
  487TMC3     H 7246   3.573   0.514  12.781 -0.9911 -2.7493  0.7011
  487TMC3    H1 7247   3.880   0.672  13.047  0.8796  0.9456 -0.2974
  487TMC3    H2 7248   3.805   0.256  13.014 -1.9293 -0.0342  1.2462
  487TMC3    C7 7249   3.907   0.453  13.165 -0.2884 -0.3406  0.1634
  487TMC3    C8 7250   3.592   0.278  12.876  0.1131 -0.7371 -0.1126
  487TMC3    O1 7251   3.885   0.547  13.237 -0.1308  0.2247 -0.1059
  487TMC3    O2 7252   3.633   0.164  12.875  0.1028  0.6217  0.2334
  488MPD2     C 7253   3.427   3.046  15.890  0.3585  0.3218 -0.5342
  488MPD2    C1 7254   3.507   3.035  16.004 -0.3625 -0.5362  0.3457
  488MPD2    C2 7255   3.446   3.031  16.123  0.5920 -0.1591  0.1411
  488MPD2    C3 7256   3.314   3.026  16.137  0.5726  0.8827  0.4465
  488MPD2    C4 7257   3.231   3.040  16.028  0.4768 -0.3314 -0.1034
  488MPD2    C5 7258   3.288   3.056  15.904  0.3935  0.5449 -0.3402
  488MPD2     H 7259   3.495   3.013  16.218  0.2319 -1.3751  0.0973
  488MPD2    H1 7260   3.124   3.038  16.043  0.2541 -0.1938 -1.6797
  488MPD2    H2 7261   3.470   3.059  15.791 -0.0361  2.1053 -0.4744
  488MPD2    H3 7262   3.218   3.070  15.823 -0.3484 -1.8591 -0.1134
  488MPD2     N 7263   3.267   3.024  16.272 -0.0314  0.1132  0.1004
  488MPD2    H5 7264   3.342   3.028  16.340 -0.2383  0.7725  0.2940
  488MPD2    N1 7265   3.650   3.036  16.009 -0.3795  0.1019  0.0300
  488MPD2    H7 7266   3.700   3.032  16.097  2.2998 -2.5275 -1.5828
  489TMC3    C1 7267   3.117   3.002  16.457  0.4213 -0.6804 -0.2276
  489TMC3    C2 7268   3.196   3.076  16.544  0.1378  0.5616  0.7376
  489TMC3    C3 7269   3.214   3.033  16.669  0.2568  0.2757  0.3607
  489TMC3    C4 7270   3.046   2.896  16.505 -0.4132  0.0666  0.3899
  489TMC3    C5 7271   3.056   2.859  16.634 -0.6368 -0.4855  0.2242
  489TMC3    C6 7272   3.138   2.926  16.721 -0.0956  0.2498 -0.5656
  489TMC3     C 7273   3.132   3.018  16.313 -0.9395 -0.0549  0.3350
  489TMC3     O 7274   3.027   3.017  16.249  0.1270  0.4395  0.1656
  489TMC3     H 7275   3.252   3.163  16.510 -1.2778  0.2173 -2.5054
  489TMC3    H1 7276   2.964   2.858  16.445 -0.9924 -2.7919  3.0046
  489TMC3    H2 7277   3.149   2.909  16.827  1.3595 -0.3002 -0.8127
  489TMC3    C7 7278   3.053   2.715  16.657 -0.0005  0.2504  0.5779
  489TMC3    C8 7279   3.305   3.105  16.748 -0.4370  0.0552 -0.1585
  489TMC3    O1 7280   3.081   2.678  16.770  0.3633 -0.5705  0.0095
  489TMC3    O2 7281   3.356   3.042  16.840 -0.7196  0.2055 -0.1268
  490MPD2     C 7282   4.123   2.886   0.084  0.4860 -0.3025 -0.5790
  490MPD2    C1 7283   4.216   2.786   0.066  0.3754  0.3820  0.2119
  490MPD2    C2 7284   4.343   2.797   0.120  0.2411 -0.3051  0.6924
  490MPD2    C3 7285   4.385   2.919   0.174 -0.1126  0.2101 -0.5373
  490MPD2    C4 7286   4.292   3.023   0.179 -0.1467  0.2296 -0.2837
  490MPD2    C5 7287   4.163   3.004   0.137  0.2005  0.5794  0.4684
  490MPD2     H 7288   4.412   2.714   0.115 -0.3991 -0.9553  2.6465
  490MPD2    H1 7289   4.313   3.124   0.212  0.8883  0.6043 -2.1116
  490MPD2    H2 7290   4.019   2.872   0.056  0.4191  2.0484 -1.5133
  490MPD2    H3 7291   4.086   3.077   0.159 -0.5685  0.2707 -1.1511
  490MPD2     N 7292   4.510   2.941   0.230 -0.4576 -0.2030  0.0832
  490MPD2    H5 7293   4.554   3.026   0.264  0.2042 -0.1199 -0.9901
  490MPD2    N1 7294   4.183   2.663   0.001 -0.1192  0.7351 -0.1496
  490MPD2    H7 7295   4.250   2.587  17.700 -2.4237 -1.3242  0.4932
  491TMC3    C1 7296   4.075   2.492  17.591 -0.1957  0.1718  0.1162
  491TMC3    C2 7297   4.112   2.392  17.680  0.1430 -0.0498 -0.0520
  491TMC3    C3 7298   4.075   2.262  17.657 -0.2846  0.3195  0.0798
  491TMC3    C4 7299   4.008   2.462  17.477 -0.8196  0.5176  0.5981
  491TMC3    C5 7300   3.981   2.332  17.454  0.5575  0.2664 -0.2580
  491TMC3    C6 7301   4.019   2.233  17.539 -1.0646  0.3524 -0.0513
  491TMC3     C 7302   4.072   2.630  17.637  0.7780 -0.2944 -0.3826
  491TMC3     O 7303   3.981   2.704  17.601 -0.0095  1.0103 -0.6528
  491TMC3     H 7304   4.141   2.411   0.078  0.8505  1.6360 -0.5688
  491TMC3    H1 7305   3.972   2.548  17.422 -0.7511 -0.3710 -0.8396
  491TMC3    H2 7306   3.995   2.128  17.524  0.0493 -0.0099  0.7221
  491TMC3    C7 7307   3.892   2.296  17.351  0.4630  0.1300 -0.1745
  491TMC3    C8 7308   4.124   2.157   0.042  1.0068  0.1964  0.4597
  491TMC3    O1 7309   3.875   2.179  17.325  0.4324  0.6031  0.9952
  491TMC3    O2 7310   4.162   2.056  17.696  0.6176 -0.2887 -0.8827
  492MPD2     C 7311   0.742   2.059  10.936 -0.2632 -0.2318  0.5082
  492MPD2    C1 7312   0.730   1.921  10.937  0.2220  0.5474 -0.1472
  492MPD2    C2 7313   0.697   1.854  11.062  0.1818 -0.4957  1.2551
  492MPD2    C3 7314   0.674   1.924  11.179  0.3224  0.0045  0.1510
  492MPD2    C4 7315   0.695   2.064  11.180 -0.3403  0.2067 -0.0474
  492MPD2    C5 7316   0.729   2.126  11.055  0.0222  0.1896 -0.5047
  492MPD2     H 7317   0.685   1.747  11.053  0.6289 -0.5878  1.7834
  492MPD2    H1 7318   0.692   2.137  11.259  0.2529  1.1083 -0.8588
  492MPD2    H2 7319   0.770   2.113  10.847 -0.1573 -1.2069 -0.0512
  492MPD2    H3 7320   0.740   2.234  11.062  1.5049  0.2110 -3.1601
  492MPD2     N 7321   0.637   1.859  11.303 -0.0984 -0.4699 -0.3608
  492MPD2    H5 7322   0.625   1.921  11.382 -1.5555  0.4072 -1.2743
  492MPD2    N1 7323   0.744   1.854  10.811  0.1553  0.0289  0.4194
  492MPD2    H7 7324   0.767   1.914  10.733 -1.8597 -1.2638 -1.1885
  493TMC3    C1 7325   0.714   1.687  10.649 -0.0242  0.0849 -0.5027
  493TMC3    C2 7326   0.701   1.783  10.550 -0.1325  0.2021  0.2566
  493TMC3    C3 7327   0.705   1.743  10.422  0.0890  0.0644  0.0430
  493TMC3    C4 7328   0.707   1.551  10.613  0.6481 -0.2830  0.6758
  493TMC3    C5 7329   0.715   1.514  10.483 -0.0060 -0.1187  0.2677
  493TMC3    C6 7330   0.706   1.612  10.381 -0.4978 -0.4458 -0.0348
  493TMC3     C 7331   0.730   1.717  10.786  0.2062  0.1224 -0.4729
  493TMC3     O 7332   0.722   1.622  10.862  0.1384 -0.1977 -0.4057
  493TMC3     H 7333   0.677   1.885  10.577  0.3815  0.0572  1.2503
  493TMC3    H1 7334   0.699   1.476  10.691  2.3779 -1.2416 -0.0344
  493TMC3    H2 7335   0.721   1.589  10.276 -1.4608  0.6313 -0.4114
  493TMC3    C7 7336   0.680   1.379  10.444 -0.5471 -0.3577 -0.2443
  493TMC3    C8 7337   0.644   1.819  10.319  0.2173 -0.0712  0.6507
  493TMC3    O1 7338   0.626   1.370  10.336  0.2461  0.8532 -0.4083
  493TMC3    O2 7339   0.559   1.765  10.248 -0.5795  0.4120  0.3529
  494TMC3    C1 7340   0.308   4.496   0.565 -0.2125  0.3422  0.0811
  494TMC3    C2 7341   0.256   4.381   0.528  0.5321 -1.0352  0.7800
  494TMC3    C3 7342   0.266   4.342   0.395 -0.5177 -0.0812 -0.4489
  494TMC3    C4 7343   0.372   4.585   0.479  0.0369  0.1533  0.2859
  494TMC3    C5 7344   0.387   4.536   0.355  0.9041 -0.5280  0.0760
  494TMC3    C6 7345   0.344   4.414   0.307 -0.1261  0.0523  0.1556
  494TMC3     C 7346   0.260   4.536   0.693  0.4322  0.3241 -0.2924
  494TMC3     O 7347   0.155   4.601   0.692 -0.2624 -0.2588 -0.0223
  494TMC3     H 7348   0.178   4.331   0.585  0.6510  0.7609  2.4801
  494TMC3    H1 7349   0.407   4.684   0.505 -3.5181  1.5812 -0.4005
  494TMC3    H2 7350   0.352   4.380   0.205  1.4449 -0.0364  0.3156
  494TMC3    C7 7351   0.502   4.590   0.274  0.2457 -0.3736  0.4446
  494TMC3    C8 7352   0.264   4.199   0.378 -0.0280  0.5815 -0.4323
  494TMC3    O1 7353   0.557   4.504   0.209 -0.1056 -0.1876  0.3883
  494TMC3    O2 7354   0.346   4.161   0.295  0.5353 -0.0139  0.4663
  495TMC3    C1 7355   4.150   0.904  14.542 -0.2926  0.0121  0.1494
  495TMC3    C2 7356   4.033   0.881  14.468  0.1322  0.1023 -0.1167
  495TMC3    C3 7357   3.929   0.966  14.486  0.4935 -0.1457 -0.4729
  495TMC3    C4 7358   4.159   1.022  14.616  0.0433 -0.3224  0.1077
  495TMC3    C5 7359   4.058   1.115  14.621 -0.5402  0.2778 -1.0643
  495TMC3    C6 7360   3.943   1.082  14.559  0.4424 -0.6547 -0.0321
  495TMC3     C 7361   4.190   0.776  14.602  0.2825  0.6644 -0.2371
  495TMC3     O 7362   4.159   0.669  14.549  0.3471 -0.3777  0.0009
  495TMC3     H 7363   4.022   0.790  14.410 -1.4167 -0.4678  1.0478
  495TMC3    H1 7364   4.246   1.028  14.680 -0.2951 -1.5520  0.6752
  495TMC3    H2 7365   3.861   1.152  14.566  0.8909 -0.3035  1.6806
  495TMC3    C7 7366   4.060   1.186  14.744  0.2345  0.1133 -0.0570
  495TMC3    C8 7367   3.801   0.946  14.419 -0.7178  0.4095  0.1819
  495TMC3    O1 7368   4.156   1.167  14.817  0.3956  0.5466 -0.3960
  495TMC3    O2 7369   3.708   1.011  14.462 -0.6128  0.6288 -0.2299
  496MPD2     C 7370   0.698   0.931  15.497 -0.0847 -0.4982  0.3874
  496MPD2    C1 7371   0.806   0.965  15.566 -0.7171 -0.3588 -0.1852
  496MPD2    C2 7372   0.792   1.034  15.682 -0.5482  0.2806 -0.3149
  496MPD2    C3 7373   0.668   1.065  15.732 -0.5174 -0.4584 -0.1589
  496MPD2    C4 7374   0.562   1.017  15.670 -0.1803  0.3556 -0.2947
  496MPD2    C5 7375   0.577   0.952  15.554 -0.8561  0.4085 -0.6893
  496MPD2     H 7376   0.882   1.067  15.733 -0.2711  0.4095 -0.8941
  496MPD2    H1 7377   0.463   1.017  15.716 -0.2644 -1.4215 -0.4873
  496MPD2    H2 7378   0.711   0.876  15.405 -0.1630 -0.6307  0.4555
  496MPD2    H3 7379   0.494   0.893  15.515 -0.8003 -0.1285 -0.0125
  496MPD2     N 7380   0.648   1.144  15.846 -0.0299 -0.3226  0.2840
  496MPD2    H5 7381   0.549   1.164  15.863 -0.0671 -0.0038 -0.3012
  496MPD2    N1 7382   0.924   0.908  15.521 -0.3041 -0.3558 -0.8194
  496MPD2    H7 7383   0.920   0.857  15.433 -1.7644 -2.4444  0.4656
  497TMC3    C1 7384   0.710   1.271  16.034 -0.0699  0.2267  0.0362
  497TMC3    C2 7385   0.595   1.337  16.036 -0.5338  0.0648 -0.3092
  497TMC3    C3 7386   0.561   1.406  16.148  0.2204 -0.4945 -0.0567
  497TMC3    C4 7387   0.799   1.281  16.141 -0.2070  0.0992  0.2222
  497TMC3    C5 7388   0.773   1.373  16.237  0.1055  0.3513  0.8305
  497TMC3    C6 7389   0.646   1.424  16.260 -0.7872 -0.7658  0.1186
  497TMC3     C 7390   0.754   1.188  15.928  0.0310  0.0699 -0.7616
  497TMC3     O 7391   0.877   1.200  15.907 -0.0255  0.2205 -0.0133
  497TMC3     H 7392   0.537   1.339  15.945 -1.8077  2.5166  0.5684
  497TMC3    H1 7393   0.903   1.252  16.138 -0.6171 -1.5805  2.3336
  497TMC3    H2 7394   0.604   1.479  16.344 -1.3327  1.0642 -1.3494
  497TMC3    C7 7395   0.868   1.374  16.348 -0.2779 -0.0223  0.3245
  497TMC3    C8 7396   0.436   1.476  16.155 -0.7788 -0.1489 -0.4355
  497TMC3    O1 7397   0.961   1.297  16.347 -0.1852  0.4012 -0.2592
  497TMC3    O2 7398   0.429   1.562  16.240  0.7639 -1.0693  0.1992
  498MPD2     C 7399   3.501   1.176   9.651  0.7340  0.8166 -0.6562
  498MPD2    C1 7400   3.448   1.280   9.723 -0.1034 -0.1714 -0.0998
  498MPD2    C2 7401   3.331   1.266   9.789 -0.4293 -0.8211 -0.4738
  498MPD2    C3 7402   3.259   1.148   9.790  0.3104 -0.2671  0.0821
  498MPD2    C4 7403   3.312   1.039   9.725  0.8386 -0.2503 -0.2811
  498MPD2    C5 7404   3.433   1.055   9.655 -0.2155  0.0133  0.0933
  498MPD2     H 7405   3.299   1.347   9.854  2.2263  0.0637 -0.2654
  498MPD2    H1 7406   3.270   0.939   9.733 -1.0667  0.5069 -0.9752
  498MPD2    H2 7407   3.601   1.185   9.612  0.7192  1.8659 -0.4424
  498MPD2    H3 7408   3.487   0.972   9.611  2.8145  1.7083  0.5859
  498MPD2     N 7409   3.135   1.134   9.851  0.4951  0.0445 -0.4040
  498MPD2    H5 7410   3.116   1.219   9.904  0.4197 -0.4494  0.3509
  498MPD2    N1 7411   3.522   1.393   9.751  0.0361 -0.4311  0.0933
  498MPD2    H7 7412   3.470   1.461   9.805 -1.1072 -1.4747  0.3103
  499TMC3    C1 7413   3.688   1.558   9.734  0.0697 -0.1640 -0.6688
  499TMC3    C2 7414   3.816   1.594   9.725 -0.0061 -0.5013 -0.0859
  499TMC3    C3 7415   3.857   1.721   9.713 -0.0063  0.2702 -0.3947
  499TMC3    C4 7416   3.593   1.660   9.731 -0.3362  0.5948 -0.5944
  499TMC3    C5 7417   3.638   1.792   9.719 -0.2165  0.4580 -0.0501
  499TMC3    C6 7418   3.767   1.824   9.712  0.0612  0.0075  0.6820
  499TMC3     C 7419   3.653   1.422   9.702 -0.3991  0.1486  0.0881
  499TMC3     O 7420   3.735   1.352   9.641  0.3140 -0.6373  0.5054
  499TMC3     H 7421   3.883   1.509   9.722 -0.7076 -1.0958  1.1608
  499TMC3    H1 7422   3.495   1.637   9.691 -0.1759 -1.4502  0.1650
  499TMC3    H2 7423   3.803   1.926   9.712  2.1651 -0.7190 -1.9007
  499TMC3    C7 7424   3.538   1.900   9.707  0.0754  0.4834  0.3484
  499TMC3    C8 7425   3.986   1.753   9.670 -0.4563 -0.3598 -1.1173
  499TMC3    O1 7426   3.578   2.007   9.661  0.1729  0.7832  0.0091
  499TMC3    O2 7427   3.997   1.858   9.608 -0.3718 -0.1793  0.5037
  500MPD2     C 7428   4.626   3.183   9.418  0.0317  0.0315 -0.4669
  500MPD2    C1 7429   4.564   3.150   9.535 -0.3219 -0.2558  0.2177
  500MPD2    C2 7430   4.493   3.033   9.543 -0.4178  0.3135 -0.6597
  500MPD2    C3 7431   4.496   2.938   9.442 -0.6498  0.0534  0.6914
  500MPD2    C4 7432   4.561   2.972   9.327  0.3161 -0.1844  0.3560
  500MPD2    C5 7433   4.620   3.096   9.312  0.6295 -0.0281  0.3201
  500MPD2     H 7434   4.437   3.010   9.633 -2.5379  1.8694 -1.6015
  500MPD2    H1 7435   4.564   2.897   9.248 -2.2204 -0.1240  0.1987
  500MPD2    H2 7436   4.684   3.273   9.401 -0.5329  0.7251  1.2954
  500MPD2    H3 7437   4.681   3.114   9.224 -1.2092 -2.8294 -1.5278
  500MPD2     N 7438   4.423   2.818   9.467 -0.6775  0.0862 -0.6927
  500MPD2    H5 7439   4.386   2.805   9.560 -0.8288  2.1585 -0.4646
  500MPD2    N1 7440   4.594   3.214   9.655 -0.0183 -0.0064  0.0790
  500MPD2    H7 7441   4.554   3.176   9.740 -1.0198 -2.8888 -1.6577
  501TMC3    C1 7442   4.695   3.364   9.798 -0.3606 -0.5552  0.1623
  501TMC3    C2 7443   0.001   3.493   9.829 -0.6058 -0.6852  0.1444
  501TMC3    C3 7444   0.076   3.517   9.938  0.1272  0.9535  0.0656
  501TMC3    C4 7445   0.006   3.257   9.876 -0.4568  0.2321 -0.0856
  501TMC3    C5 7446   0.063   3.293  10.000  0.3480  0.2101  0.4833
  501TMC3    C6 7447   0.101   3.417  10.034  0.4060  0.0017 -0.4314
  501TMC3     C 7448   4.660   3.332   9.664 -0.0333  0.5745  0.0453
  501TMC3     O 7449   4.693   3.412   9.583  0.9309 -0.1020 -0.1642
  501TMC3     H 7450   4.715   3.571   9.754 -0.1267 -0.3326  0.4340
  501TMC3    H1 7451   0.013   3.159   9.832 -1.0766  1.3851 -2.7785
  501TMC3    H2 7452   0.166   3.431  10.121  1.2293  2.1391 -1.3796
  501TMC3    C7 7453   0.129   3.179  10.076 -0.3077  0.2671 -0.7830
  501TMC3    C8 7454   0.114   3.649   9.973  0.5973 -0.6050 -0.1814
  501TMC3    O1 7455   0.217   3.202  10.159  0.2826  0.0251 -0.1624
  501TMC3    O2 7456   0.168   3.647  10.081 -0.2812 -0.3109  0.0164
  502TMC3    C1 7457   3.400   1.709  14.854  0.5040 -0.5982 -0.4862
  502TMC3    C2 7458   3.390   1.834  14.801  0.2093  0.3081  0.3007
  502TMC3    C3 7459   3.272   1.901  14.824 -0.1421  0.6346 -0.0262
  502TMC3    C4 7460   3.294   1.645  14.914 -0.1863 -0.0685 -0.3531
  502TMC3    C5 7461   3.180   1.716  14.937 -0.0212  0.3036 -0.1125
  502TMC3    C6 7462   3.168   1.841  14.897 -0.3948 -0.3126 -0.2400
  502TMC3     C 7463   3.519   1.705  14.930 -0.3508  0.1233 -0.4720
  502TMC3     O 7464   3.623   1.749  14.888  0.3205  0.6202 -0.2361
  502TMC3     H 7465   3.476   1.875  14.750 -0.5009  1.5107  0.0818
  502TMC3    H1 7466   3.312   1.553  14.969  0.0307  1.0505  1.4728
  502TMC3    H2 7467   3.082   1.904  14.917  0.2991  0.2688  0.9200
  502TMC3    C7 7468   3.143   1.710  15.073  0.1614  0.6235  0.0259
  502TMC3    C8 7469   3.293   2.040  14.868 -0.7195  0.0977  0.1356
  502TMC3    O1 7470   3.228   1.675  15.153  0.1546  0.0493 -0.2637
  502TMC3    O2 7471   3.203   2.123  14.860  0.3847  0.0600  0.1232
  503MPD2     C 7472   0.342   3.042  17.681  0.2895 -0.0360  0.2301
  503MPD2    C1 7473   0.425   3.069   0.076 -0.7801  0.2343  0.1942
  503MPD2    C2 7474   0.511   2.969   0.123  0.0375 -0.2818  0.5748
  503MPD2    C3 7475   0.530   2.852   0.043 -0.3483  0.1194 -0.0617
  503MPD2    C4 7476   0.441   2.834  17.640  0.0722  0.1072 -0.0347
  503MPD2    C5 7477   0.341   2.921  17.616 -0.1097 -0.0982  0.2498
  503MPD2     H 7478   0.584   2.987   0.201 -0.0696 -1.6387  0.9806
  503MPD2    H1 7479   0.439   2.742  17.584 -0.8823 -0.4465  0.9135
  503MPD2    H2 7480   0.280   3.121  17.642  0.1840  0.3758  1.2296
  503MPD2    H3 7481   0.273   2.901  17.534 -0.7830  0.5361  0.6630
  503MPD2     N 7482   0.631   2.758   0.075  0.1539 -0.3151 -0.3388
  503MPD2    H5 7483   0.692   2.768   0.156 -1.6947 -0.8456  1.1303
  503MPD2    N1 7484   0.434   3.195   0.135 -0.2660  0.0576 -0.2651
  503MPD2    H7 7485   0.454   3.194   0.235 -0.7773  1.3798 -0.1448
  504TMC3    C1 7486   0.776   2.573   0.054 -0.1635  0.4933 -0.0684
  504TMC3    C2 7487   0.789   2.576   0.192 -0.0613  0.7025 -0.5203
  504TMC3    C3 7488   0.900   2.520   0.239  0.3791 -0.1546 -0.3470
  504TMC3    C4 7489   0.866   2.517  17.671 -0.4022  0.1618  0.0664
  504TMC3    C5 7490   0.978   2.460   0.020  0.2125 -0.1237  0.0286
  504TMC3    C6 7491   0.999   2.462   0.161 -0.5490 -1.0000 -0.3361
  504TMC3     C 7492   0.674   2.657  17.701  0.3310 -0.5981  0.1973
  504TMC3     O 7493   0.644   2.635  17.585 -0.1292 -0.4286  0.7493
  504TMC3     H 7494   0.708   2.617   0.252  0.0824  0.3494 -0.0930
  504TMC3    H1 7495   0.838   2.504  17.568  1.0569  1.6696 -0.5354
  504TMC3    H2 7496   1.091   2.427   0.206 -0.9014  0.6335  1.6576
  504TMC3    C7 7497   1.088   2.418  17.633  0.2640  0.4292  0.0384
  504TMC3    C8 7498   0.931   2.543   0.374 -0.0807 -0.6897  0.1756
  504TMC3    O1 7499   1.079   2.470  17.525 -0.1939 -0.5731  0.3917
  504TMC3    O2 7500   0.891   2.651   0.417  0.0402 -0.2687 -0.8555
  505MPD2     C 7501   1.802   1.438  10.185 -0.1582  0.0282  0.8061
  505MPD2    C1 7502   1.856   1.412  10.310  0.0527 -0.5854 -0.3944
  505MPD2    C2 7503   1.953   1.500  10.361  0.0635 -0.0889  0.4451
  505MPD2    C3 7504   1.994   1.611  10.291 -0.1552  0.0401  0.8936
  505MPD2    C4 7505   1.938   1.629  10.169 -0.1922 -0.5308 -0.1448
  505MPD2    C5 7506   1.852   1.536  10.108 -0.3744  0.0528  0.1087
  505MPD2     H 7507   1.993   1.491  10.461  0.9410  2.6526  0.3390
  505MPD2    H1 7508   1.977   1.714  10.113 -1.7968  1.7952  2.2523
  505MPD2    H2 7509   1.734   1.364  10.143  0.4801 -1.1729  1.9063
  505MPD2    H3 7510   1.825   1.557  10.005  1.9771  1.8394 -0.1339
  505MPD2     N 7511   2.088   1.696  10.353 -0.3836  0.1487 -0.1384
  505MPD2    H5 7512   2.115   1.678  10.450  0.8658  0.3472 -0.4420
  505MPD2    N1 7513   1.829   1.286  10.366  0.6037 -0.0903  0.0326
  505MPD2    H7 7514   1.795   1.217  10.299  0.5005 -1.1447  1.1635
  506TMC3    C1 7515   1.834   1.116  10.538  0.7772 -0.4259 -0.1161
  506TMC3    C2 7516   1.901   1.015  10.467  0.1545  0.0958 -0.3169
  506TMC3    C3 7517   1.957   0.903  10.535  0.5304 -0.3347  0.5585
  506TMC3    C4 7518   1.840   1.102  10.675  0.6039 -0.5126  0.0759
  506TMC3    C5 7519   1.910   1.003  10.737  0.0179 -0.2740 -0.2967
  506TMC3    C6 7520   1.956   0.894  10.668  0.8407 -1.7337 -0.3967
  506TMC3     C 7521   1.856   1.252  10.496  0.0059  0.5610 -0.0472
  506TMC3     O 7522   1.859   1.336  10.584 -0.4300  0.3123  0.1412
  506TMC3     H 7523   1.921   1.038  10.363  0.4992 -0.7734 -0.4463
  506TMC3    H1 7524   1.792   1.171  10.744  1.2427  1.1776 -1.1802
  506TMC3    H2 7525   2.011   0.815  10.718  0.5318 -1.2593  0.6761
  506TMC3    C7 7526   2.018   1.054  10.818 -0.1626  0.2795 -0.3620
  506TMC3    C8 7527   2.041   0.810  10.458  0.1234 -0.4970  0.5005
  506TMC3    O1 7528   2.088   0.969  10.878  0.3843  0.0835  0.2432
  506TMC3    O2 7529   2.044   0.692  10.485  0.5224  0.2151 -0.8019
  507TMC3    C1 7530   1.607   2.106  14.707  0.2905  0.7521  0.1492
  507TMC3    C2 7531   1.605   2.017  14.608 -0.5138  0.2476  0.2706
  507TMC3    C3 7532   1.717   1.946  14.584  0.7773  0.7246  0.3517
  507TMC3    C4 7533   1.713   2.129  14.785 -0.5409 -0.0311 -0.5729
  507TMC3    C5 7534   1.834   2.066  14.754 -0.5667  0.1218  1.1436
  507TMC3    C6 7535   1.833   1.977  14.652  0.2453  0.2613  0.0178
  507TMC3     C 7536   1.476   2.162  14.741  0.0990  1.3597  0.4821
  507TMC3     O 7537   1.390   2.167  14.651  0.3848 -0.4130  0.1641
  507TMC3     H 7538   1.520   2.016  14.540  0.4881 -0.2163 -0.9865
  507TMC3    H1 7539   1.706   2.208  14.859 -2.1359 -0.1367 -0.6097
  507TMC3    H2 7540   1.922   1.919  14.632  0.1514 -0.9928  3.2367
  507TMC3    C7 7541   1.933   2.164  14.710  0.2778 -0.1684 -0.1728
  507TMC3    C8 7542   1.737   1.935  14.438 -0.4612  0.2484 -0.4384
  507TMC3    O1 7543   1.966   2.155  14.594 -0.3075 -0.7173 -0.3067
  507TMC3    O2 7544   1.649   1.880  14.368  0.3973 -0.0018 -0.8784
  508MPD2     C 7545   2.617   0.531  16.958  0.0207  0.0014 -0.6883
  508MPD2    C1 7546   2.723   0.601  16.909  0.3617 -0.1740  0.3605
  508MPD2    C2 7547   2.760   0.581  16.775 -0.2094 -0.8591  0.7574
  508MPD2    C3 7548   2.692   0.498  16.693 -0.0216 -0.0669 -0.0231
  508MPD2    C4 7549   2.582   0.430  16.748  0.1015  0.0114  0.0656
  508MPD2    C5 7550   2.546   0.446  16.876 -0.2661  0.4043  0.0466
  508MPD2     H 7551   2.839   0.646  16.738 -0.3458 -1.0027  0.2203
  508MPD2    H1 7552   2.512   0.363  16.699  0.1639  1.2533 -1.7108
  508MPD2    H2 7553   2.588   0.537  17.062  0.3381  1.2422 -0.6712
  508MPD2    H3 7554   2.465   0.387  16.917 -0.9587  1.0352 -0.4042
  508MPD2     N 7555   2.710   0.508  16.553  0.0931  0.1948 -0.0447
  508MPD2    H5 7556   2.775   0.578  16.519  0.3195 -0.5578 -1.1646
  508MPD2    N1 7557   2.790   0.686  17.005  0.7131  0.3472  0.3024
  508MPD2    H7 7558   2.768   0.668  17.102 -1.1404 -1.7411 -0.5210
  509TMC3    C1 7559   2.601   0.493  16.100  0.1412 -0.6373 -0.5817
  509TMC3    C2 7560   2.730   0.524  16.063 -0.2280 -0.5636 -0.3156
  509TMC3    C3 7561   2.817   0.556  16.167 -0.0470  0.1852  0.7604
  509TMC3    C4 7562   2.570   0.452  16.226 -0.5879 -0.1361 -0.5258
  509TMC3    C5 7563   2.669   0.472  16.318  0.3296 -0.1866 -0.4580
  509TMC3    C6 7564   2.789   0.532  16.296 -0.1074 -0.2572  0.0268
  509TMC3     C 7565   2.511   0.471  15.996 -0.3047  0.3341  0.0372
  509TMC3     O 7566   2.427   0.385  16.028  0.5001 -0.3326 -0.5155
  509TMC3     H 7567   2.756   0.546  15.961  1.2405  1.7602  0.5753
  509TMC3    H1 7568   2.469   0.433  16.261  0.2554 -1.1104  1.3981
  509TMC3    H2 7569   2.869   0.537  16.369  0.0946  0.3325 -0.2369
  509TMC3    C7 7570   2.634   0.447  16.456 -0.0953 -0.3859 -0.5372
  509TMC3    C8 7571   2.952   0.570  16.120  0.2833  0.7561  0.2637
  509TMC3    O1 7572   2.562   0.348  16.456  0.3390  0.7452  0.4760
  509TMC3    O2 7573   3.033   0.483  16.164  0.1494 -0.5149 -0.7553
  510MPD2     C 7574   0.779   1.594  14.465  0.5553  0.0305 -0.1862
  510MPD2    C1 7575   0.864   1.515  14.530  0.2217  0.3608 -0.6496
  510MPD2    C2 7576   0.993   1.498  14.477 -0.0256  0.1329 -0.1226
  510MPD2    C3 7577   1.040   1.559  14.363 -0.0439 -0.4367 -0.7852
  510MPD2    C4 7578   0.948   1.634  14.294 -0.1522  0.3090 -0.2608
  510MPD2    C5 7579   0.822   1.650  14.343  0.8582  0.1790 -0.2852
  510MPD2     H 7580   1.069   1.434  14.521 -0.2817 -1.0362 -1.3941
  510MPD2    H1 7581   0.975   1.671  14.196  2.6478 -0.3639  0.2475
  510MPD2    H2 7582   0.672   1.594  14.480  0.7596 -0.3026  1.2684
  510MPD2    H3 7583   0.750   1.710  14.288  1.3091 -0.0879 -1.1693
  510MPD2     N 7584   1.166   1.521  14.319 -0.2766  0.1661 -0.3393
  510MPD2    H5 7585   1.222   1.474  14.389 -1.2850  1.7655  1.5475
  510MPD2    N1 7586   0.819   1.446  14.637  0.3217 -0.1324 -0.1274
  510MPD2    H7 7587   0.726   1.471  14.668  1.0794  1.6204  0.7482
  511TMC3    C1 7588   0.803   1.262  14.792 -0.0210 -0.0921 -0.1032
  511TMC3    C2 7589   0.739   1.336  14.893 -0.3569  0.1516  0.2841
  511TMC3    C3 7590   0.699   1.274  15.010 -0.0267  0.1478  0.3226
  511TMC3    C4 7591   0.815   1.129  14.806 -0.6489 -0.7684 -0.0524
  511TMC3    C5 7592   0.780   1.073  14.928  0.3506 -0.1156  0.1501
  511TMC3    C6 7593   0.730   1.145  15.035  0.6671 -0.3430  0.2988
  511TMC3     C 7594   0.880   1.333  14.691 -0.9873  0.4129 -0.1656
  511TMC3     O 7595   0.980   1.277  14.652  0.1833 -0.2667 -0.1668
  511TMC3     H 7596   0.715   1.440  14.877  1.9723  0.7169  0.3723
  511TMC3    H1 7597   0.855   1.073  14.723  0.1734  0.8980 -0.7873
  511TMC3    H2 7598   0.708   1.107  15.134  3.2141 -1.4977  0.4336
  511TMC3    C7 7599   0.772   0.925  14.930 -0.0340 -0.5983  0.2440
  511TMC3    C8 7600   0.659   1.359  15.111  0.4654  0.1106  0.5975
  511TMC3    O1 7601   0.827   0.862  14.841  0.0318 -0.4381 -0.1897
  511TMC3    O2 7602   0.580   1.446  15.087  0.5118 -0.4156 -0.4060
  512TMC3    C1 7603   4.345   0.564  13.165 -0.4831 -0.4590  0.0941
  512TMC3    C2 7604   4.344   0.565  13.298 -0.0748  0.0594  0.6799
  512TMC3    C3 7605   4.353   0.443  13.366 -0.2572 -0.2376  0.3075
  512TMC3    C4 7606   4.351   0.448  13.100 -0.0821  0.0961 -0.0856
  512TMC3    C5 7607   4.348   0.325  13.163  0.0480 -0.5497  0.5492
  512TMC3    C6 7608   4.352   0.321  13.297 -0.7304 -0.3772  0.1279
  512TMC3     C 7609   4.306   0.683  13.089 -0.4106  0.3445  0.2778
  512TMC3     O 7610   4.330   0.669  12.970  0.0063 -0.0501  0.4673
  512TMC3     H 7611   4.345   0.655  13.359  0.9157  1.0881 -0.8330
  512TMC3    H1 7612   4.357   0.435  12.992 -0.2429  2.4013 -0.3646
  512TMC3    H2 7613   4.378   0.232  13.353 -3.1676 -0.7263  0.7266
  512TMC3    C7 7614   4.394   0.207  13.099  0.9492 -0.5490 -0.0032
  512TMC3    C8 7615   4.404   0.442  13.500 -0.5285  0.3917 -0.1606
  512TMC3    O1 7616   4.436   0.117  13.176  0.8705  0.0040 -0.6616
  512TMC3    O2 7617   4.447   0.337  13.534  0.3685  0.4883  0.1246
  513MPD2     C 7618   1.420   1.116  12.810 -0.1639  0.0547 -0.5876
  513MPD2    C1 7619   1.435   0.991  12.768  0.3326 -0.6509  0.9882
  513MPD2    C2 7620   1.493   0.901  12.861 -0.1820  0.0344  0.1185
  513MPD2    C3 7621   1.519   0.936  12.989 -0.3717  0.4662 -0.3404
  513MPD2    C4 7622   1.496   1.067  13.026 -0.1867  0.0064 -0.0894
  513MPD2    C5 7623   1.461   1.165  12.934 -0.0392  0.0066  0.4878
  513MPD2     H 7624   1.524   0.801  12.833 -2.8446 -1.2797  1.8694
  513MPD2    H1 7625   1.505   1.103  13.128  2.5554 -1.6096  0.2147
  513MPD2    H2 7626   1.364   1.186  12.749 -0.2338  1.8958  1.6022
  513MPD2    H3 7627   1.443   1.267  12.965  0.7781  0.0870  0.7205
  513MPD2     N 7628   1.554   0.834  13.078  0.5244  0.0259 -0.2004
  513MPD2    H5 7629   1.553   0.738  13.043 -3.2488 -0.4419  1.1733
  513MPD2    N1 7630   1.408   0.960  12.632  0.3843 -0.4849 -0.1403
  513MPD2    H7 7631   1.386   1.032  12.563 -0.7562 -2.1590 -1.5392
  514TMC3    C1 7632   1.407   0.793  12.453 -0.2685 -0.4158 -0.2304
  514TMC3    C2 7633   1.475   0.878  12.366  0.4822 -0.3888 -0.6889
  514TMC3    C3 7634   1.526   0.826  12.254  0.1211 -0.4794  0.8829
  514TMC3    C4 7635   1.408   0.655  12.436 -0.3490  0.3218  0.4341
  514TMC3    C5 7636   1.482   0.606  12.333  0.3723 -0.0873  0.4503
  514TMC3    C6 7637   1.533   0.690  12.239  0.4620 -0.3120  0.3320
  514TMC3     C 7638   1.406   0.828  12.590  0.4873  0.2039 -0.2761
  514TMC3     O 7639   1.406   0.730  12.663 -0.4824  0.0171 -1.0698
  514TMC3     H 7640   1.523   0.966  12.407 -0.8221 -0.5583  1.2076
  514TMC3    H1 7641   1.347   0.587  12.494  1.0481 -0.3006  1.1697
  514TMC3    H2 7642   1.595   0.656  12.157 -0.6884  1.8376 -1.4219
  514TMC3    C7 7643   1.572   0.502  12.373 -0.3675 -0.4074  0.2940
  514TMC3    C8 7644   1.602   0.913  12.167 -0.2595 -0.5420  0.7531
  514TMC3    O1 7645   1.631   0.438  12.283 -0.3517  0.2811  0.1305
  514TMC3    O2 7646   1.656   1.011  12.225 -0.2646 -0.6233  0.5850
  515MPD2     C 7647   3.981   2.865  14.908  0.1509  0.0069 -0.2095
  515MPD2    C1 7648   4.040   2.749  14.868  0.3044 -0.2437  0.3440
  515MPD2    C2 7649   4.163   2.751  14.811 -0.5392 -0.1126  0.4043
  515MPD2    C3 7650   4.237   2.868  14.813 -0.8532 -0.5543  0.1144
  515MPD2    C4 7651   4.182   2.991  14.841 -0.6033  0.6205 -0.5848
  515MPD2    C5 7652   4.052   2.984  14.892  0.3520 -0.1657 -0.8037
  515MPD2     H 7653   4.204   2.660  14.767 -1.3745  0.6219 -1.9059
  515MPD2    H1 7654   4.235   3.086  14.835 -0.2210  0.4059 -0.6108
  515MPD2    H2 7655   3.881   2.874  14.950  0.4428 -1.5594  0.8171
  515MPD2    H3 7656   4.007   3.072  14.936  0.5495 -0.2473 -0.4380
  515MPD2     N 7657   4.378   2.868  14.787  0.7551  0.1619 -0.3300
  515MPD2    H5 7658   4.431   2.955  14.791 -0.3368  0.8798 -1.4386
  515MPD2    N1 7659   3.973   2.623  14.875 -0.0955 -0.3840 -0.0624
  515MPD2    H7 7660   4.028   2.537  14.872 -0.2871 -0.5819  2.1623
  516TMC3    C1 7661   3.795   2.481  14.883  0.3654 -1.3619 -0.0217
  516TMC3    C2 7662   3.705   2.469  14.785  0.4384 -0.0371  0.3123
  516TMC3    C3 7663   3.680   2.344  14.740  0.5244  0.3683 -0.4158
  516TMC3    C4 7664   3.873   2.378  14.930  0.4832 -0.1892 -0.5986
  516TMC3    C5 7665   3.825   2.250  14.898 -0.0093  0.4239 -0.3418
  516TMC3    C6 7666   3.716   2.229  14.811  1.3578  0.4612  0.2990
  516TMC3     C 7667   3.841   2.613  14.896 -0.0929  0.2177 -0.0037
  516TMC3     O 7668   3.756   2.703  14.881 -0.2736  0.0807 -0.1068
  516TMC3     H 7669   3.661   2.560  14.746  0.3709  0.1643  0.8721
  516TMC3    H1 7670   3.966   2.389  14.986 -0.2267 -1.2372  0.8043
  516TMC3    H2 7671   3.678   2.133  14.779  0.7478  1.3426 -1.5983
  516TMC3    C7 7672   3.903   2.135  14.951  0.0473 -0.4768  1.0318
  516TMC3    C8 7673   3.591   2.332  14.627 -0.1551 -0.1968 -0.0775
  516TMC3    O1 7674   3.966   2.145  15.057 -0.0800  0.5923 -0.0295
  516TMC3    O2 7675   3.503   2.248  14.620 -0.4459  0.0031 -0.5212
  517MPD2     C 7676   3.684   4.707  17.256  0.9050  0.2529 -0.1092
  517MPD2    C1 7677   3.685   4.595  17.337  1.0769  0.7200 -0.3174
  517MPD2    C2 7678   3.636   4.609  17.471  0.5034  0.2912  0.1608
  517MPD2    C3 7679   3.570   4.725  17.516 -0.4025  0.1318 -0.4279
  517MPD2    C4 7680   3.562   0.103  17.424 -0.6181  0.2343 -0.2801
  517MPD2    C5 7681   3.619   0.092  17.295 -0.5461 -0.1467 -0.4939
  517MPD2     H 7682   3.647   4.526  17.540  0.0526 -1.3581 -1.7704
  517MPD2    H1 7683   3.520   0.201  17.444  0.0788  0.8018 -1.5831
  517MPD2    H2 7684   3.722   4.689  17.156 -1.9120 -0.7917 -0.9923
  517MPD2    H3 7685   3.604   0.175  17.228 -2.7810 -0.5077 -0.4659
  517MPD2     N 7686   3.514   0.015  17.646 -0.2842 -0.4235  0.2072
  517MPD2    H5 7687   3.482   0.110  17.663  1.1483  0.7869 -4.0004
  517MPD2    N1 7688   3.746   4.479  17.283  0.4760 -0.2630 -0.1535
  517MPD2    H7 7689   3.768   4.486  17.184  1.2756 -2.6484 -0.1609
  518TMC3    C1 7690   3.805   4.247  17.267 -0.3185 -0.6877  0.7271
  518TMC3    C2 7691   3.764   4.120  17.286 -0.0253  0.4971  0.3068
  518TMC3    C3 7692   3.832   4.014  17.231  0.4903  0.5263 -0.5487
  518TMC3    C4 7693   3.931   4.269  17.207  0.3529  0.3238  0.1467
  518TMC3    C5 7694   4.011   4.155  17.180 -0.9410  0.2857  0.0373
  518TMC3    C6 7695   3.956   4.030  17.184  0.2608  0.2581 -0.5046
  518TMC3     C 7696   3.747   4.356  17.348 -0.5792  0.6065  1.4094
  518TMC3     O 7697   3.667   4.326  17.431  0.1655 -0.1313  0.3980
  518TMC3     H 7698   3.671   4.101  17.338 -0.1940 -0.3414 -0.2962
  518TMC3    H1 7699   3.968   4.371  17.196  0.9312  0.0823 -0.1481
  518TMC3    H2 7700   4.009   3.938  17.161  0.3985  0.3031 -0.3662
  518TMC3    C7 7701   4.143   4.183  17.137 -0.4837  0.1051  0.9285
  518TMC3    C8 7702   3.786   3.876  17.246 -0.4971 -0.3250 -0.5901
  518TMC3    O1 7703   4.180   4.289  17.091 -0.1357  0.2825 -0.1482
  518TMC3    O2 7704   3.870   3.793  17.268  0.0185 -0.1240  0.8144
  519MPD2     C 7705   0.777   2.484  14.397 -0.4339  0.2367 -0.3519
  519MPD2    C1 7706   0.726   2.404  14.295 -0.6403 -0.8055 -0.2840
  519MPD2    C2 7707   0.773   2.277  14.283  0.0913  0.0951 -0.5730
  519MPD2    C3 7708   0.894   2.235  14.339  0.0543  0.2550 -0.0331
  519MPD2    C4 7709   0.944   2.314  14.446  0.1271  0.3214 -0.1760
  519MPD2    C5 7710   0.881   2.437  14.474  0.4091  0.1002 -0.0876
  519MPD2     H 7711   0.735   2.215  14.204  1.8089  1.0068 -2.1044
  519MPD2    H1 7712   1.026   2.284  14.511  0.6437  3.2918  0.5378
  519MPD2    H2 7713   0.745   2.587  14.399  0.6355  0.5294  2.1092
  519MPD2    H3 7714   0.924   2.501  14.551  1.1297  1.7027 -1.8481
  519MPD2     N 7715   0.947   2.108  14.305 -0.2269 -0.6848 -0.2045
  519MPD2    H5 7716   1.047   2.103  14.323 -0.2555  1.0349  0.4518
  519MPD2    N1 7717   0.630   2.465  14.208  0.4842 -0.0924 -1.1602
  519MPD2    H7 7718   0.596   2.558  14.228  0.7006 -0.2818  0.1095
  520TMC3    C1 7719   0.960   1.928  14.145 -0.2315 -0.8226  0.4217
  520TMC3    C2 7720   0.893   1.900  14.030 -0.3012  0.5192 -0.3095
  520TMC3    C3 7721   0.972   1.880  13.921  0.6454 -0.5512  0.4625
  520TMC3    C4 7722   1.096   1.950  14.146  0.0265  0.0903 -0.1497
  520TMC3    C5 7723   1.172   1.923  14.040  0.1371  0.7218  0.4300
  520TMC3    C6 7724   1.108   1.891  13.923 -0.6997  0.1231  0.3599
  520TMC3     C 7725   0.878   2.011  14.232  0.5485  0.1821  0.0901
  520TMC3     O 7726   0.761   1.989  14.230  0.0155  0.4667 -0.1563
  520TMC3     H 7727   0.786   1.884  14.039 -0.2629 -0.1061 -0.8941
  520TMC3    H1 7728   1.140   1.969  14.243 -1.6448 -0.5424  0.7236
  520TMC3    H2 7729   1.167   1.858  13.838 -0.3305  1.0496  0.2460
  520TMC3    C7 7730   1.305   1.876  14.058 -0.6293 -0.9622 -0.1343
  520TMC3    C8 7731   0.908   1.898  13.794  0.3706  0.5527  0.7011
  520TMC3    O1 7732   1.339   1.862  14.176  0.4425  0.0792 -0.4009
  520TMC3    O2 7733   0.974   1.926  13.696  0.5781 -0.6241  0.4506
  521MPD2     C 7734   1.601   1.049   0.298 -0.6637 -0.0963  0.4679
  521MPD2    C1 7735   1.647   1.006   0.176  0.1643 -0.3806 -0.5376
  521MPD2    C2 7736   1.783   1.020   0.151 -0.2351  0.2538 -0.5822
  521MPD2    C3 7737   1.870   1.060   0.250  0.2147 -0.5566 -0.3536
  521MPD2    C4 7738   1.826   1.081   0.374 -0.2673 -0.0243  0.4252
  521MPD2    C5 7739   1.691   1.084   0.392 -0.5307  0.8124  0.0703
  521MPD2     H 7740   1.817   0.998   0.050  0.7281 -2.4593  0.3466
  521MPD2    H1 7741   1.895   1.116   0.449  0.8460 -0.7989 -0.2360
  521MPD2    H2 7742   1.494   1.043   0.318 -0.9288  1.3911 -0.5047
  521MPD2    H3 7743   1.654   1.113   0.490  0.3552 -0.9424  0.9340
  521MPD2     N 7744   2.006   1.071   0.218 -0.0533 -0.9173 -0.1068
  521MPD2    H5 7745   2.023   1.070   0.118  0.1227 -0.6137 -0.0799
  521MPD2    N1 7746   1.553   0.976   0.081  0.1157  0.4817 -0.0555
  521MPD2    H7 7747   1.457   0.984   0.115  0.7224 -0.4797  1.8691
  522TMC3    C1 7748   2.242   1.114   0.240  0.3739 -0.3471 -0.0293
  522TMC3    C2 7749   2.351   1.070   0.312 -0.3481 -0.1414 -0.6137
  522TMC3    C3 7750   2.473   1.101   0.266  0.0426  0.5113 -0.1549
  522TMC3    C4 7751   2.257   1.180   0.125  0.6164  0.5333 -0.9513
  522TMC3    C5 7752   2.382   1.202   0.078  0.3108  0.0801  0.7211
  522TMC3    C6 7753   2.497   1.165   0.145  0.1854  0.0718 -0.4440
  522TMC3     C 7754   2.110   1.084   0.304 -0.5784 -0.8006  0.8101
  522TMC3     O 7755   2.109   1.059   0.424 -0.0474  0.1155  0.9003
  522TMC3     H 7756   2.335   1.003   0.396  0.8424  1.3366  0.7751
  522TMC3    H1 7757   2.168   1.195   0.065 -1.1049 -1.0738  1.1402
  522TMC3    H2 7758   2.596   1.193   0.113  0.2289  1.0376  0.5094
  522TMC3    C7 7759   2.392   1.210  17.640  0.0056 -0.1347  0.0139
  522TMC3    C8 7760   2.582   1.007   0.290  0.5899 -0.3457 -0.3023
  522TMC3    O1 7761   2.502   1.175  17.596  0.3305 -0.2476  0.7022
  522TMC3    O2 7762   2.599   0.956   0.398  0.3153 -0.7259  0.2849
  523MPD2     C 7763   0.793   4.640  10.078 -0.7509 -0.4227  0.3696
  523MPD2    C1 7764   0.679   4.630  10.001 -1.1157 -0.3736 -0.4363
  523MPD2    C2 7765   0.627   0.025   9.950  0.2797 -0.1238 -0.2792
  523MPD2    C3 7766   0.686   0.145   9.975  0.5087 -0.3646 -0.2597
  523MPD2    C4 7767   0.801   0.152  10.054 -0.4088 -0.3343  0.5113
  523MPD2    C5 7768   0.854   0.036  10.104 -0.3408 -0.5672  1.1156
  523MPD2     H 7769   0.531   0.026   9.898  0.6418 -0.4224 -0.9531
  523MPD2    H1 7770   0.862   0.241  10.067 -1.2433  0.6208 -2.0472
  523MPD2    H2 7771   0.832   4.555  10.133  0.4946 -1.3316 -1.9391
  523MPD2    H3 7772   0.927   0.033  10.184  0.8115 -3.1231 -0.0256
  523MPD2     N 7773   0.642   0.269   9.909  0.1353  0.0629 -0.1570
  523MPD2    H5 7774   0.709   0.345   9.918  1.0996 -0.9850  1.5528
  523MPD2    N1 7775   0.621   4.507   9.981 -0.7884 -0.4931 -0.5470
  523MPD2    H7 7776   0.678   4.432  10.019  0.0115  1.0448  1.3159
  524TMC3    C1 7777   0.498   0.425   9.793 -0.0198  0.1560 -0.2980
  524TMC3    C2 7778   0.587   0.524   9.808 -0.7163  1.0304  0.2853
  524TMC3    C3 7779   0.556   0.644   9.745  0.2179  0.0062 -0.3361
  524TMC3    C4 7780   0.378   0.441   9.722  0.5705  0.4248 -0.1166
  524TMC3    C5 7781   0.345   0.560   9.671 -0.1369  0.6066  1.0477
  524TMC3    C6 7782   0.439   0.657   9.680 -0.4570  0.1843 -0.2335
  524TMC3     C 7783   0.511   0.295   9.855  0.3953  0.0675  1.2639
  524TMC3     O 7784   0.415   0.223   9.866 -0.3189  0.5362 -0.2745
  524TMC3     H 7785   0.681   0.503   9.857 -1.3790  1.9347  1.9528
  524TMC3    H1 7786   0.320   0.355   9.691  2.7482 -0.1671 -2.6192
  524TMC3    H2 7787   0.414   0.755   9.640  0.7714  0.5550 -0.0742
  524TMC3    C7 7788   0.259   0.551   9.552 -0.0989 -0.2712 -0.1241
  524TMC3    C8 7789   0.670   0.739   9.722  0.2000  0.0720  0.4573
  524TMC3    O1 7790   0.230   0.442   9.506  0.2936  0.7241 -0.4662
  524TMC3    O2 7791   0.760   0.725   9.801  0.5088  0.2618 -0.1499
  525MPD2     C 7792   2.291   1.636  14.518 -0.3658  0.3316 -0.5817
  525MPD2    C1 7793   2.393   1.635  14.606  0.5272  0.3595  0.3643
  525MPD2    C2 7794   2.512   1.694  14.570  0.0658 -0.3150 -0.1598
  525MPD2    C3 7795   2.525   1.766  14.458 -0.6352 -0.0219 -0.2575
  525MPD2    C4 7796   2.422   1.777  14.368 -0.3171 -0.1341  1.0569
  525MPD2    C5 7797   2.313   1.706  14.401 -1.0337  0.9706 -0.9379
  525MPD2     H 7798   2.594   1.686  14.640  1.0627 -1.6047 -1.4807
  525MPD2    H1 7799   2.411   1.839  14.280 -1.2929 -0.1186  1.1889
  525MPD2    H2 7800   2.201   1.577  14.523  0.4350 -0.7483  0.9580
  525MPD2    H3 7801   2.226   1.697  14.338 -0.0198 -0.5819 -2.1174
  525MPD2     N 7802   2.642   1.844  14.452  0.1576  0.1882 -0.8204
  525MPD2    H5 7803   2.700   1.841  14.535 -1.9342 -0.5705  0.6054
  525MPD2    N1 7804   2.387   1.552  14.722  0.4543 -0.1979 -0.3549
  525MPD2    H7 7805   2.470   1.524  14.774  1.3884  2.4299 -0.4277
  526TMC3    C1 7806   2.282   1.441  14.903  0.6506  1.1323  0.0458
  526TMC3    C2 7807   2.226   1.485  15.026 -0.0591  0.2908  0.3231
  526TMC3    C3 7808   2.281   1.452  15.151  0.4297  0.5002 -1.1840
  526TMC3    C4 7809   2.398   1.364  14.911 -0.0413  0.8736 -0.1938
  526TMC3    C5 7810   2.449   1.336  15.036 -0.4171  0.5891  0.3862
  526TMC3    C6 7811   2.391   1.370  15.154 -0.2956 -0.8527  0.5585
  526TMC3     C 7812   2.265   1.517  14.782  0.4593  0.5695 -0.2116
  526TMC3     O 7813   2.158   1.566  14.765  0.3623 -0.2033  0.4061
  526TMC3     H 7814   2.153   1.565  15.017 -0.6634 -0.6385 -3.0884
  526TMC3    H1 7815   2.445   1.329  14.819 -2.6024 -1.8493 -0.4670
  526TMC3    H2 7816   2.444   1.346  15.246  0.3273 -0.1947  0.3705
  526TMC3    C7 7817   2.586   1.285  15.050 -0.1696 -0.0457  0.3256
  526TMC3    C8 7818   2.252   1.527  15.268 -0.4288 -0.8371 -0.4193
  526TMC3    O1 7819   2.635   1.279  15.162  0.3350  0.6279  0.2716
  526TMC3    O2 7820   2.345   1.560  15.340  0.0906  0.2567 -0.0402
  527MPD2     C 7821   4.338   0.037   1.264 -0.0220  0.2252  0.6302
  527MPD2    C1 7822   4.408   4.678   1.347  0.5829 -0.3804  0.6802
  527MPD2    C2 7823   4.548   4.659   1.325  0.3996  0.4163 -0.6004
  527MPD2    C3 7824   4.616   4.709   1.218 -0.9415 -0.1810  0.1395
  527MPD2    C4 7825   4.543   0.081   1.136  0.5821 -0.7737  0.0364
  527MPD2    C5 7826   4.409   0.106   1.166 -0.3351 -0.0263  0.5703
  527MPD2     H 7827   4.596   4.589   1.393 -0.7658  0.3833  0.1973
  527MPD2    H1 7828   4.579   0.119   1.040  0.0040  0.1562  0.1847
  527MPD2    H2 7829   4.234   0.067   1.272  0.1611  0.9329  0.4145
  527MPD2    H3 7830   4.352   0.158   1.090 -1.8901 -1.8639  0.4776
  527MPD2     N 7831   0.023   4.670   1.193 -0.2570  0.1231 -0.3554
  527MPD2    H5 7832   0.086   4.632   1.263  0.5065 -0.8427 -1.5781
  527MPD2    N1 7833   4.347   4.612   1.460 -0.3612  0.3586  0.8841
  527MPD2    H7 7834   4.412   4.555   1.514 -0.3697  0.3375  0.8722
  528TMC3    C1 7835   4.204   4.532   1.622 -0.8080 -0.5604  0.2010
  528TMC3    C2 7836   4.316   4.517   1.708 -0.0328 -0.8601  0.6267
  528TMC3    C3 7837   4.299   4.426   1.813 -0.4796  1.2624  0.0669
  528TMC3    C4 7838   4.089   4.462   1.646 -0.0293  0.3503 -0.5917
  528TMC3    C5 7839   4.083   4.384   1.757  0.1398 -0.3550  0.0179
  528TMC3    C6 7840   4.186   4.365   1.839 -0.3783 -0.2601  0.3578
  528TMC3     C 7841   4.216   4.592   1.492 -0.3066 -0.2164  0.2317
  528TMC3     O 7842   4.113   4.630   1.438 -0.3567  0.1486 -0.7696
  528TMC3     H 7843   4.404   4.580   1.707 -0.0818 -0.8128 -0.7687
  528TMC3    H1 7844   4.004   4.461   1.579 -2.3914 -0.0105  2.4367
  528TMC3    H2 7845   4.171   4.299   1.924 -0.4535 -1.1272 -0.3319
  528TMC3    C7 7846   3.961   4.302   1.787 -0.2359 -0.7077  0.7807
  528TMC3    C8 7847   4.408   4.416   1.909 -0.4548 -0.1158  0.6787
  528TMC3    O1 7848   3.966   4.211   1.867  0.1662 -0.4804 -0.0463
  528TMC3    O2 7849   4.484   4.512   1.910 -0.7524 -0.0993 -0.2706
  529MPD2     C 7850   2.097   3.323   0.730 -0.3092  0.5603 -0.8556
  529MPD2    C1 7851   2.184   3.238   0.660  0.0340 -0.1134 -0.1379
  529MPD2    C2 7852   2.184   3.240   0.521 -0.1646  0.5711 -0.2430
  529MPD2    C3 7853   2.101   3.326   0.445  0.1509 -0.1236  0.1865
  529MPD2    C4 7854   2.029   3.416   0.523 -0.1228 -0.7760 -0.3668
  529MPD2    C5 7855   2.024   3.408   0.661  0.3869  0.2127  0.0393
  529MPD2     H 7856   2.250   3.169   0.472  1.8842  2.6896 -0.5791
  529MPD2    H1 7857   1.965   3.493   0.481  0.7556 -1.0433 -2.1975
  529MPD2    H2 7858   2.094   3.312   0.838  1.0775 -1.4228 -1.0315
  529MPD2    H3 7859   1.962   3.475   0.720  0.5277 -0.5274  1.0330
  529MPD2     N 7860   2.106   3.334   0.302  0.2738 -0.3754  0.5158
  529MPD2    H5 7861   2.051   3.409   0.261  0.2125 -0.2904  0.7555
  529MPD2    N1 7862   2.273   3.146   0.723 -0.5584  0.6702 -0.0431
  529MPD2    H7 7863   2.337   3.091   0.668 -0.5352 -2.0676  2.7156
  530TMC3    C1 7864   2.415   3.048   0.899 -0.1337 -0.2334 -0.1338
  530TMC3    C2 7865   2.494   3.098   1.000  0.6158  0.0973 -0.4219
  530TMC3    C3 7866   2.618   3.041   1.025 -0.4432 -0.2943  0.2103
  530TMC3    C4 7867   2.443   2.928   0.839 -0.4367 -0.4997  0.5798
  530TMC3    C5 7868   2.557   2.870   0.882  0.2171  0.2096 -0.1230
  530TMC3    C6 7869   2.637   2.913   0.978 -0.0400  0.4231 -0.4348
  530TMC3     C 7870   2.301   3.137   0.857 -0.2062 -0.5456 -0.1256
  530TMC3     O 7871   2.242   3.187   0.952 -0.2177  0.0853 -0.1273
  530TMC3     H 7872   2.466   3.195   1.039  1.8827 -0.2895  1.4287
  530TMC3    H1 7873   2.393   2.884   0.754  0.4195  1.8858 -1.1821
  530TMC3    H2 7874   2.712   2.854   1.030 -1.5936 -0.4381  0.8400
  530TMC3    C7 7875   2.585   2.732   0.852  0.5124 -0.0046 -1.1556
  530TMC3    C8 7876   2.666   3.089   1.149  0.1596  0.6584  0.5532
  530TMC3    O1 7877   2.705   2.697   0.849 -0.4366  0.2213 -0.1699
  530TMC3    O2 7878   2.616   3.188   1.201 -0.5514 -0.1054  0.5190
  531MPD2     C 7879   1.789   0.247  12.779 -0.3260 -0.2302 -0.1899
  531MPD2    C1 7880   1.722   0.360  12.826 -0.7947 -0.2457  0.6100
  531MPD2    C2 7881   1.662   0.448  12.734 -0.7613 -0.5028  0.1447
  531MPD2    C3 7882   1.653   0.423  12.595 -0.6815 -0.3021  0.1108
  531MPD2    C4 7883   1.719   0.314  12.550 -0.3374  0.0854  0.0790
  531MPD2    C5 7884   1.782   0.237  12.644  0.5177  0.2861 -0.1359
  531MPD2     H 7885   1.633   0.546  12.767 -0.5018 -0.6873  0.9089
  531MPD2    H1 7886   1.708   0.290  12.444 -1.2841  0.8882 -0.0031
  531MPD2    H2 7887   1.832   0.180  12.852  1.0594  0.5067 -0.3316
  531MPD2    H3 7888   1.838   0.156  12.597  2.3022  1.2500  0.3340
  531MPD2     N 7889   1.571   0.500  12.510 -0.1848  0.2775  0.7148
  531MPD2    H5 7890   1.524   0.581  12.550 -2.4451 -0.2561 -0.8686
  531MPD2    N1 7891   1.719   0.387  12.969 -0.3029  0.8876  0.0270
  531MPD2    H7 7892   1.749   0.317  13.037 -0.4896  1.0007  0.2241
  532TMC3    C1 7893   1.657   0.508  13.165  0.6396 -0.4992  0.1964
  532TMC3    C2 7894   1.573   0.616  13.191  0.4146 -0.2134  0.2740
  532TMC3    C3 7895   1.634   0.719  13.258  0.9024  0.1807 -0.0679
  532TMC3    C4 7896   1.782   0.500  13.218  0.1882 -0.7710 -0.0641
  532TMC3    C5 7897   1.835   0.600  13.299  0.1776 -0.4003  0.6513
  532TMC3    C6 7898   1.764   0.718  13.312 -0.6083  1.0416  0.6904
  532TMC3     C 7899   1.637   0.487  13.022 -0.1884  0.1586 -0.9678
  532TMC3     O 7900   1.567   0.569  12.968  0.2932  0.1856  0.3489
  532TMC3     H 7901   1.466   0.606  13.183  0.3377 -0.6258  1.8849
  532TMC3    H1 7902   1.855   0.424  13.193  0.7859 -0.7450  1.6009
  532TMC3    H2 7903   1.805   0.812  13.347  2.5240 -0.8269  1.9465
  532TMC3    C7 7904   1.965   0.592  13.356  0.0124 -0.4009  0.2817
  532TMC3    C8 7905   1.599   0.850  13.208 -1.0247 -0.4452 -0.6183
  532TMC3    O1 7906   2.007   0.701  13.395 -0.4954  0.5305 -0.5150
  532TMC3    O2 7907   1.615   0.944  13.279 -0.0049 -0.0536  0.9340
  533TMC3    C1 7908   2.738   2.056  14.416  0.9180 -0.8868  0.1093
  533TMC3    C2 7909   2.811   2.142  14.339  1.0784 -0.3617  0.0051
  533TMC3    C3 7910   2.851   2.262  14.394 -0.2426  0.0611  0.6728
  533TMC3    C4 7911   2.707   2.091  14.550  0.5353  0.2149 -0.2997
  533TMC3    C5 7912   2.739   2.214  14.593  1.0881  0.0561 -0.2543
  533TMC3    C6 7913   2.815   2.304  14.520 -0.0226  0.4194 -0.1053
  533TMC3     C 7914   2.662   1.944  14.362 -0.3273  0.0401  0.4241
  533TMC3     O 7915   2.628   1.940  14.245  0.1737  0.1954 -0.3385
  533TMC3     H 7916   2.854   2.112  14.244  3.2704 -0.6791  1.0977
  533TMC3    H1 7917   2.629   2.044  14.610  1.9359 -2.1061 -0.2945
  533TMC3    H2 7918   2.857   2.396  14.558 -3.1340  1.5788  0.5114
  533TMC3    C7 7919   2.694   2.238  14.727 -0.1901  0.0276 -0.4572
  533TMC3    C8 7920   2.953   2.341  14.318 -0.2655  0.1497 -0.3502
  533TMC3    O1 7921   2.701   2.142  14.801 -0.7523 -0.5953  0.1147
  533TMC3    O2 7922   2.962   2.349  14.198 -0.4270  0.4934 -0.1798
  534MPD2     C 7923   4.588   3.378   1.651  0.2282 -0.7784  0.2881
  534MPD2    C1 7924   4.529   3.495   1.697  0.8169 -0.6208  0.1035
  534MPD2    C2 7925   4.402   3.531   1.659  0.5611  0.1972  0.6347
  534MPD2    C3 7926   4.328   3.443   1.572  0.3661 -0.4514 -0.1729
  534MPD2    C4 7927   4.390   3.322   1.530  0.1648  0.0243 -0.3541
  534MPD2    C5 7928   4.523   3.290   1.571  0.5350 -0.0417 -0.3500
  534MPD2     H 7929   4.348   3.618   1.694 -0.0952 -0.6622  1.7763
  534MPD2    H1 7930   4.331   3.262   1.461 -0.1961 -0.3483  0.2827
  534MPD2    H2 7931   4.687   3.351   1.685  0.9512  1.6027  0.1305
  534MPD2    H3 7932   4.574   3.199   1.543  2.0302  1.2104 -1.7290
  534MPD2     N 7933   4.203   3.476   1.512 -0.0998 -0.1877 -0.5708
  534MPD2    H5 7934   4.184   3.427   1.425  0.1927  0.0240 -0.7570
  534MPD2    N1 7935   4.596   3.582   1.778  0.1274 -0.2791  0.0763
  534MPD2    H7 7936   4.542   3.661   1.813 -1.6611 -1.2600 -0.4985
  535TMC3    C1 7937   4.047   3.629   1.435 -0.6320 -0.2446 -0.1280
  535TMC3    C2 7938   3.950   3.717   1.464 -0.4076 -0.6992 -0.7518
  535TMC3    C3 7939   3.932   3.829   1.401 -0.1307  0.4396  0.0555
  535TMC3    C4 7940   4.123   3.662   1.329  0.3752  0.4911 -0.0632
  535TMC3    C5 7941   4.099   3.783   1.260 -0.0234 -0.8526  0.6945
  535TMC3    C6 7942   3.998   3.865   1.288  0.1690  0.0562  0.0436
  535TMC3     C 7943   4.127   3.582   1.553  0.3132 -0.1477 -0.0658
  535TMC3     O 7944   4.134   3.645   1.659  0.7524 -0.2462  0.1508
  535TMC3     H 7945   3.885   3.698   1.549 -0.2244  1.9043 -0.0361
  535TMC3    H1 7946   4.199   3.592   1.300  0.8192  1.1651 -0.5169
  535TMC3    H2 7947   3.960   3.950   1.232  0.6204 -0.3976 -0.9504
  535TMC3    C7 7948   4.219   3.835   1.196 -0.5313 -0.0808  0.6459
  535TMC3    C8 7949   3.798   3.891   1.411  0.3841 -0.5654  0.2190
  535TMC3    O1 7950   4.323   3.772   1.207 -0.2534  0.8508  0.1950
  535TMC3    O2 7951   3.715   3.802   1.417 -0.2141  0.5799 -0.2956
  536MPD2     C 7952   3.444   2.306  16.408 -0.2141 -0.1325  0.1648
  536MPD2    C1 7953   3.445   2.170  16.404  0.3860 -0.0252 -0.1946
  536MPD2    C2 7954   3.432   2.101  16.282  0.0742  0.1523 -0.5840
  536MPD2    C3 7955   3.419   2.176  16.163 -0.2033 -0.0789 -0.2609
  536MPD2    C4 7956   3.415   2.313  16.170 -0.2500  0.5395  1.0210
  536MPD2    C5 7957   3.440   2.380  16.294 -0.5142  0.6115 -0.1884
  536MPD2     H 7958   3.423   1.993  16.278 -4.2230  0.4519  1.0539
  536MPD2    H1 7959   3.400   2.378  16.084  1.1933 -0.9413 -0.3385
  536MPD2    H2 7960   3.445   2.354  16.505  0.9309 -0.4375  0.3054
  536MPD2    H3 7961   3.433   2.487  16.314  0.8586  0.7012 -0.1986
  536MPD2     N 7962   3.396   2.108  16.037 -0.0183 -0.0006 -0.3100
  536MPD2    H5 7963   3.377   2.162  15.953 -1.0624  0.4730  0.2223
  536MPD2    N1 7964   3.459   2.099  16.529 -0.4121  0.2566  0.0271
  536MPD2    H7 7965   3.471   2.151  16.616  0.8793  0.0059 -0.0079
  537TMC3    C1 7966   3.471   1.910  16.685 -0.1404 -0.3499  0.4485
  537TMC3    C2 7967   3.514   2.001  16.779  0.4358  0.2241  0.3290
  537TMC3    C3 7968   3.482   1.975  16.907 -0.1243 -0.0721  0.5874
  537TMC3    C4 7969   3.405   1.804  16.722  0.2303  0.0634 -0.3778
  537TMC3    C5 7970   3.367   1.786  16.849 -0.5774  0.2511 -0.4794
  537TMC3    C6 7971   3.405   1.868  16.954 -0.0019 -0.2313 -0.0427
  537TMC3     C 7972   3.446   1.958  16.546  0.1329 -0.2579  0.0110
  537TMC3     O 7973   3.429   1.874  16.457 -0.4762  0.2341  0.1480
  537TMC3     H 7974   3.584   2.079  16.751  3.2188 -2.7710 -1.1112
  537TMC3    H1 7975   3.369   1.737  16.645  2.8841  1.0323 -2.4503
  537TMC3    H2 7976   3.366   1.864  17.055 -0.9223  0.5329 -0.3666
  537TMC3    C7 7977   3.330   1.647  16.880 -0.1484 -0.0706  0.2287
  537TMC3    C8 7978   3.523   2.064  17.009 -0.1022  0.6166  0.1806
  537TMC3    O1 7979   3.254   1.593  16.800 -0.2744  0.5965  0.5888
  537TMC3    O2 7980   3.525   2.030  17.125  0.3662  1.0807  0.2091
  538TMC3    C1 7981   1.000   4.520  10.745 -0.2115  0.0270  0.1169
  538TMC3    C2 7982   1.022   4.408  10.670  0.3415 -0.2611 -0.0391
  538TMC3    C3 7983   0.962   4.400  10.551 -0.3647 -0.2222 -0.3161
  538TMC3    C4 7984   0.939   4.629  10.687 -0.2798 -0.1370 -0.3452
  538TMC3    C5 7985   0.889   4.613  10.565  0.7901 -0.1333 -0.4802
  538TMC3    C6 7986   0.889   4.502  10.492  0.6942  0.2687  0.4623
  538TMC3     C 7987   1.035   4.528  10.886  1.0302  0.1475  0.4585
  538TMC3     O 7988   0.988   4.622  10.944 -0.2343  0.5636  0.2492
  538TMC3     H 7989   1.047   4.312  10.712  1.5148  0.2167  0.3689
  538TMC3    H1 7990   0.911   4.716  10.747 -0.0290 -1.5312  1.7930
  538TMC3    H2 7991   0.868   4.500  10.386 -3.3209 -0.8077  1.2488
  538TMC3    C7 7992   0.780   4.701  10.522  0.0282 -0.4800 -0.0420
  538TMC3    C8 7993   1.003   4.287  10.473 -0.5546 -0.2211  0.8092
  538TMC3    O1 7994   0.687   4.655  10.457  0.0572  0.4299  0.1923
  538TMC3    O2 7995   0.925   4.232  10.401  0.3233  0.4941  0.6987
  539MPD2     C 7996   0.234   3.926  11.670 -0.2063 -0.6319  0.5826
  539MPD2    C1 7997   0.345   3.961  11.597  0.1742 -0.0136 -0.2109
  539MPD2    C2 7998   0.378   4.093  11.587  0.4681 -0.1893  0.1308
  539MPD2    C3 7999   0.299   4.191  11.636 -0.0305 -0.0069 -0.2902
  539MPD2    C4 8000   0.191   4.154  11.711  0.1790  0.2559 -0.3900
  539MPD2    C5 8001   0.160   4.021  11.735 -0.5854  0.4240 -0.8335
  539MPD2     H 8002   0.472   4.123  11.541  2.0747 -2.9922  1.5865
  539MPD2    H1 8003   0.138   4.222  11.776 -1.0194 -2.3058  1.3062
  539MPD2    H2 8004   0.207   3.821  11.668  2.0136 -1.1815  0.0047
  539MPD2    H3 8005   0.083   4.003  11.810  1.1178 -2.5944  0.1997
  539MPD2     N 8006   0.334   4.333  11.621  0.6669  0.1777  0.1674
  539MPD2    H5 8007   0.274   4.392  11.677  0.0031 -1.5211  1.2414
  539MPD2    N1 8008   0.432   3.862  11.535 -0.8669 -0.2055 -0.1554
  539MPD2    H7 8009   0.481   3.896  11.453 -3.8153 -2.4970 -2.8868
  540TMC3    C1 8010   0.424   4.533  11.521  0.2714 -0.0480 -0.1458
  540TMC3    C2 8011   0.469   4.575  11.401 -0.0402  0.5482 -0.0908
  540TMC3    C3 8012   0.448   4.703  11.368  0.1027 -0.0663  0.7798
  540TMC3    C4 8013   0.352   4.622  11.600 -0.0075  0.1701 -0.0882
  540TMC3    C5 8014   0.334   0.029  11.567 -0.7905  0.2781 -0.3096
  540TMC3    C6 8015   0.381   0.070  11.447 -0.6251 -0.9205 -0.0325
  540TMC3     C 8016   0.419   4.392  11.529  0.0348  0.3251  0.4056
  540TMC3     O 8017   0.493   4.330  11.451  0.0209 -0.0221 -0.2871
  540TMC3     H 8018   0.522   4.509  11.334  0.2760  2.4334 -1.6933
  540TMC3    H1 8019   0.305   4.589  11.692 -0.1041  0.5581  0.0020
  540TMC3    H2 8020   0.345   0.162  11.401 -1.1965 -0.3707  1.5001
  540TMC3    C7 8021   0.239   0.104  11.645  0.2408 -0.5277 -0.8824
  540TMC3    C8 8022   0.478   0.015  11.231 -0.1239  0.3332 -0.5036
  540TMC3    O1 8023   0.163   0.042  11.722 -0.1667  0.1365  0.9449
  540TMC3    O2 8024   0.502   0.130  11.217  0.4050 -0.0334  0.4016
  541MPD2     C 8025   2.925   0.899  13.181  1.1858  0.4204  0.3291
  541MPD2    C1 8026   2.961   0.793  13.098 -0.4621 -0.2008 -0.2222
  541MPD2    C2 8027   2.995   0.829  12.971 -0.0450  0.4867 -0.0958
  541MPD2    C3 8028   2.975   0.954  12.916 -0.2267  0.2609 -0.5942
  541MPD2    C4 8029   2.951   1.058  12.999  0.5153  0.2542  0.3295
  541MPD2    C5 8030   2.927   1.028  13.130 -0.3492 -0.0663 -0.2376
  541MPD2     H 8031   3.035   0.757  12.900 -0.0768  1.8493 -1.4873
  541MPD2    H1 8032   2.957   1.159  12.960  0.8241 -0.3887 -1.2856
  541MPD2    H2 8033   2.903   0.887  13.287  0.3417  1.6161  0.2916
  541MPD2    H3 8034   2.895   1.105  13.199 -1.1063  1.6630 -2.5361
  541MPD2     N 8035   2.999   0.991  12.779 -0.2131 -0.5741 -0.0546
  541MPD2    H5 8036   2.974   1.087  12.761  0.5221 -0.5417 -0.8928
  541MPD2    N1 8037   2.966   0.653  13.133  0.3685  0.1487 -0.7182
  541MPD2    H7 8038   2.982   0.589  13.057  0.0401 -1.7940  0.8485
  542TMC3    C1 8039   3.058   0.982  12.554  0.0574 -0.5865  0.5574
  542TMC3    C2 8040   3.139   0.923  12.459 -0.1484 -0.6939 -0.4735
  542TMC3    C3 8041   3.112   0.947  12.326 -0.0767  0.2504  0.3348
  542TMC3    C4 8042   2.955   1.065  12.514  0.5158 -0.4057 -0.1668
  542TMC3    C5 8043   2.944   1.093  12.378  0.5263 -0.5668 -0.5403
  542TMC3    C6 8044   3.024   1.040  12.281 -0.1523 -0.4383 -0.5858
  542TMC3     C 8045   3.058   0.916  12.683 -0.1848 -0.1004  0.0567
  542TMC3     O 8046   3.113   0.805  12.695  0.1327 -0.3216 -0.2392
  542TMC3     H 8047   3.215   0.855  12.495  0.1274  1.0040  2.1618
  542TMC3    H1 8048   2.877   1.088  12.587  2.2529  1.8857  0.9585
  542TMC3    H2 8049   3.020   1.056  12.174 -1.2935 -1.3872 -0.6793
  542TMC3    C7 8050   2.891   1.235  12.350  0.5777  0.7125 -0.5020
  542TMC3    C8 8051   3.194   0.901  12.217  0.8034 -0.2640 -0.3392
  542TMC3    O1 8052   2.939   1.292  12.249  0.6698  0.5293 -0.1060
  542TMC3    O2 8053   3.137   0.871  12.113 -0.3265 -0.2843  0.2594
  543TMC3    C1 8054   2.732   2.712  17.424 -0.0609 -0.3491 -0.3500
  543TMC3    C2 8055   2.701   2.605  17.500  0.1256  0.1928  0.3911
  543TMC3    C3 8056   2.719   2.611  17.641 -0.2525  0.6142  0.1974
  543TMC3    C4 8057   2.793   2.823  17.476 -0.1873  0.4219 -0.1758
  543TMC3    C5 8058   2.816   2.816  17.616 -0.5252  0.7954 -0.3815
  543TMC3    C6 8059   2.794   2.710  17.695  0.3810  0.0550  0.0019
  543TMC3     C 8060   2.701   2.707  17.282  0.8862 -0.6098 -0.4646
  543TMC3     O 8061   2.680   2.589  17.239  0.0526  0.1645 -0.0456
  543TMC3     H 8062   2.660   2.518  17.451 -0.6724  1.3114 -0.8945
  543TMC3    H1 8063   2.823   2.905  17.412  3.0608 -0.0270  0.7586
  543TMC3    H2 8064   2.814   2.709   0.097 -0.6837  0.1190  0.2076
  543TMC3    C7 8065   2.931   2.902  17.646 -0.1838 -0.0143  0.5110
  543TMC3    C8 8066   2.665   2.496   0.011 -0.0692  0.1505  0.2309
  543TMC3    O1 8067   2.960   3.001  17.576  0.0097 -0.4662 -0.3909
  543TMC3    O2 8068   2.651   2.389  17.654 -0.4207  0.2070  0.1776
  544MPD2     C 8069   2.559   2.317   0.471  0.5643  0.0736 -0.0719
  544MPD2    C1 8070   2.607   2.255   0.360  0.1417 -0.3067 -0.0681
  544MPD2    C2 8071   2.632   2.327   0.248 -0.0161 -0.0285 -0.1540
  544MPD2    C3 8072   2.613   2.463   0.248 -0.5325 -0.5090  0.3364
  544MPD2    C4 8073   2.572   2.519   0.358 -0.0124  0.0951  0.2647
  544MPD2    C5 8074   2.548   2.450   0.471 -0.3245 -0.3460  0.4673
  544MPD2     H 8075   2.668   2.283   0.155  2.0429 -0.1636  0.7099
  544MPD2    H1 8076   2.557   2.626   0.370 -0.4730  0.2149 -1.4784
  544MPD2    H2 8077   2.530   2.263   0.560  2.3460 -0.8347 -0.0388
  544MPD2    H3 8078   2.521   2.512   0.556  1.3622  0.0766  0.7085
  544MPD2     N 8079   2.643   2.541   0.138 -0.4285  0.8340  0.3025
  544MPD2    H5 8080   2.617   2.639   0.142 -1.2776  0.5665  1.3482
  544MPD2    N1 8081   2.637   2.123   0.377  0.3273  0.5421 -0.0282
  544MPD2    H7 8082   2.639   2.084   0.470  0.9360 -1.6381 -0.9665
  545TMC3    C1 8083   2.710   1.915   0.317 -0.5063 -0.4934  0.1723
  545TMC3    C2 8084   2.795   1.912   0.425 -0.5614  0.4099 -0.1384
  545TMC3    C3 8085   2.843   1.788   0.460  0.1051  0.1678 -0.1776
  545TMC3    C4 8086   2.690   1.805   0.238  0.3692 -0.4049 -0.3548
  545TMC3    C5 8087   2.742   1.685   0.273 -0.0917 -0.6905 -0.0432
  545TMC3    C6 8088   2.819   1.673   0.390 -0.0416  0.1382 -0.1654
  545TMC3     C 8089   2.661   2.042   0.267 -0.0661 -0.1561 -0.3100
  545TMC3     O 8090   2.631   2.049   0.147 -0.8694 -0.0857  0.4078
  545TMC3     H 8091   2.821   1.997   0.487 -1.9918  0.2606  0.6822
  545TMC3    H1 8092   2.618   1.806   0.158 -0.1515  1.3595  0.1449
  545TMC3    H2 8093   2.856   1.576   0.423  0.7928  0.0855 -1.2422
  545TMC3    C7 8094   2.749   1.586   0.172 -0.0719  0.5891 -0.0502
  545TMC3    C8 8095   2.937   1.790   0.576 -0.0414 -0.3435  0.2041
  545TMC3    O1 8096   2.702   1.623   0.064  0.3354 -0.1694  0.1356
  545TMC3    O2 8097   2.914   1.883   0.651  0.7974 -0.1379 -0.6248
  546MPD2     C 8098   3.568   2.371  17.635  0.0211 -0.0489  0.0130
  546MPD2    C1 8099   3.511   2.416  17.514  0.0138 -0.3160 -0.0663
  546MPD2    C2 8100   3.559   2.527  17.446 -0.6062  0.1406 -0.2105
  546MPD2    C3 8101   3.669   2.593  17.507  0.6118  0.8530 -0.6595
  546MPD2    C4 8102   3.719   2.550  17.631  1.0397 -0.2891  0.7161
  546MPD2    C5 8103   3.674   2.434  17.694  0.0965  0.4574 -0.8684
  546MPD2     H 8104   3.532   2.560  17.347  1.9548 -1.5152 -1.4685
  546MPD2    H1 8105   3.801   2.594  17.687  2.8595 -0.8472 -1.4796
  546MPD2    H2 8106   3.524   2.290  17.692  1.8106 -2.1941 -1.6430
  546MPD2    H3 8107   3.720   2.397   0.081 -3.4591 -1.3848  0.1771
  546MPD2     N 8108   3.721   2.710  17.456  0.2729 -0.1011  0.8187
  546MPD2    H5 8109   3.799   2.753  17.505  2.2749  0.1618 -2.5571
  546MPD2    N1 8110   3.406   2.332  17.462 -0.3933  1.0178  0.6054
  546MPD2    H7 8111   3.391   2.245  17.510  0.7458 -0.3702 -1.5343
  547TMC3    C1 8112   3.298   2.208  17.293 -0.1730  0.7048  0.2499
  547TMC3    C2 8113   3.196   2.214  17.199 -0.3048 -0.2093  0.3367
  547TMC3    C3 8114   3.133   2.094  17.171  0.2361  0.5194 -0.7584
  547TMC3    C4 8115   3.311   2.089  17.372 -0.0082  0.1132 -0.2818
  547TMC3    C5 8116   3.242   1.981  17.348 -0.3611 -0.5642  0.4190
  547TMC3    C6 8117   3.147   1.984  17.253  0.6165 -0.0576  0.7021
  547TMC3     C 8118   3.346   2.335  17.345  0.6214 -0.5109 -0.7902
  547TMC3     O 8119   3.325   2.430  17.272 -0.1591  0.1447  0.1915
  547TMC3     H 8120   3.175   2.299  17.135  2.5180  0.8549  0.8442
  547TMC3    H1 8121   3.381   2.081  17.454  0.1848 -1.7952 -0.6426
  547TMC3    H2 8122   3.086   1.896  17.242  0.4823 -0.2070  2.7196
  547TMC3    C7 8123   3.240   1.879  17.454  0.4529 -0.5613 -0.2618
  547TMC3    C8 8124   3.045   2.085  17.055 -1.4293 -0.0582 -0.5225
  547TMC3    O1 8125   3.288   1.910  17.565  0.6885  0.8316 -0.2481
  547TMC3    O2 8126   3.020   2.189  17.000 -0.2255  0.7877  0.6825
  548MPD2     C 8127   3.891   2.668  12.194 -0.3562 -0.5480 -0.2218
  548MPD2    C1 8128   3.827   2.562  12.248 -0.3405 -0.1210  0.0204
  548MPD2    C2 8129   3.896   2.440  12.254 -0.1798 -0.5856  0.2695
  548MPD2    C3 8130   4.024   2.425  12.196  0.1373 -0.4315  0.1107
  548MPD2    C4 8131   4.090   2.540  12.152  1.1517 -0.5919 -0.2316
  548MPD2    C5 8132   4.021   2.661  12.154 -0.4384  0.3932  0.0602
  548MPD2     H 8133   3.852   2.347  12.290  0.5565 -0.5528  1.2423
  548MPD2    H1 8134   4.193   2.544  12.118  1.5545  3.9745  1.5203
  548MPD2    H2 8135   3.842   2.764  12.181 -1.2865 -0.9600  0.2319
  548MPD2    H3 8136   4.073   2.749  12.117 -0.9637  0.8462  0.3947
  548MPD2     N 8137   4.079   2.299  12.195 -0.3576  1.0715  0.7374
  548MPD2    H5 8138   4.027   2.227  12.244  0.4081  0.5753  0.8270
  548MPD2    N1 8139   3.691   2.574  12.279  0.8361  0.1299  0.3576
  548MPD2    H7 8140   3.654   2.665  12.254  0.1331  0.0079  0.9516
  549TMC3    C1 8141   3.471   2.509  12.313 -0.4303 -0.8196  0.7649
  549TMC3    C2 8142   3.439   2.600  12.218 -0.4687  0.3339 -0.4378
  549TMC3    C3 8143   3.314   2.604  12.172 -0.4317 -0.1951  0.1211
  549TMC3    C4 8144   3.372   2.420  12.365 -0.3313 -0.0836  0.5882
  549TMC3    C5 8145   3.251   2.417  12.306 -0.1008  0.2572  0.0562
  549TMC3    C6 8146   3.217   2.517  12.218 -0.2321  0.3500  0.1042
  549TMC3     C 8147   3.609   2.476  12.320  0.4378 -1.1538  0.1229
  549TMC3     O 8148   3.628   2.371  12.378  0.3176  0.0734  0.0634
  549TMC3     H 8149   3.513   2.653  12.160 -1.5336  1.7858 -0.4760
  549TMC3    H1 8150   3.406   2.343  12.433  0.0061  0.6878  1.2868
  549TMC3    H2 8151   3.118   2.526  12.176  0.2392 -0.4327 -1.2030
  549TMC3    C7 8152   3.147   2.339  12.369 -0.1162  0.8745 -0.0429
  549TMC3    C8 8153   3.269   2.730  12.110  0.3820  0.0614 -0.2106
  549TMC3    O1 8154   3.037   2.387  12.351  0.0540 -0.6200  0.3387
  549TMC3    O2 8155   3.159   2.718  12.053  0.0410 -0.1484 -0.8382
  550TMC3    C1 8156   2.154   0.266  12.302 -0.4666 -0.4143  0.8666
  550TMC3    C2 8157   2.104   0.367  12.384 -0.4206 -0.1161 -0.1225
  550TMC3    C3 8158   2.148   0.493  12.353 -0.4624 -0.0831  0.4870
  550TMC3    C4 8159   2.237   0.295  12.199 -0.5454  0.0076  0.4668
  550TMC3    C5 8160   2.281   0.423  12.170 -0.2730  0.5366  0.1971
  550TMC3    C6 8161   2.248   0.523  12.260 -0.1809  0.2001 -0.2171
  550TMC3     C 8162   2.047   0.179  12.261 -0.3841  0.8894 -0.5672
  550TMC3     O 8163   1.962   0.132  12.339  0.1013  0.2280  0.3948
  550TMC3     H 8164   2.030   0.346  12.461  0.0542 -1.2736  0.0269
  550TMC3    H1 8165   2.276   0.214  12.138 -2.6493 -0.6002 -0.0409
  550TMC3    H2 8166   2.270   0.627  12.243 -1.5407  0.4605 -0.4120
  550TMC3    C7 8167   2.271   0.447  12.031  0.8052  0.1669 -0.0823
  550TMC3    C8 8168   2.121   0.598  12.447  0.4332  0.4484  0.1860
  550TMC3    O1 8169   2.211   0.364  11.966  0.7817  0.0808  0.3450
  550TMC3    O2 8170   2.127   0.714  12.396 -0.3863  0.4797  0.0401
  551TMC3    C1 8171   0.535   3.073  13.310 -0.1245 -0.8549  0.1163
  551TMC3    C2 8172   0.626   3.156  13.244  0.7287 -0.0067 -0.7763
  551TMC3    C3 8173   0.622   3.289  13.261 -0.6472 -0.4006 -0.6155
  551TMC3    C4 8174   0.465   3.123  13.412  0.1753  0.4150  0.6334
  551TMC3    C5 8175   0.476   3.252  13.445  0.1095  0.7771 -0.5867
  551TMC3    C6 8176   0.551   3.336  13.369  0.0140  0.2370 -0.3804
  551TMC3     C 8177   0.489   2.942  13.263 -0.1239 -0.6768  0.1632
  551TMC3     O 8178   0.380   2.897  13.300  0.2112  0.6314 -0.0513
  551TMC3     H 8179   0.687   3.125  13.160  0.3039  0.9919 -1.4519
  551TMC3    H1 8180   0.402   3.064  13.478  1.0463 -1.4984 -0.2420
  551TMC3    H2 8181   0.562   3.442  13.393 -1.2520  0.6704 -1.7194
  551TMC3    C7 8182   0.426   3.292  13.563  0.0873  0.5560 -0.2860
  551TMC3    C8 8183   0.749   3.350  13.216 -0.4649 -0.4712 -0.2803
  551TMC3    O1 8184   0.462   3.214  13.652  0.5192 -0.0190  0.1326
  551TMC3    O2 8185   0.847   3.283  13.235 -0.3647  0.2434  0.7580
  552MPD2     C 8186   1.593   0.188  13.775  0.3861 -0.7139 -0.3750
  552MPD2    C1 8187   1.635   0.072  13.842  0.1671  0.5444 -0.4464
  552MPD2    C2 8188   1.720   0.076  13.950 -0.2187  0.5487  0.4307
  552MPD2    C3 8189   1.762   0.201  13.997 -0.3321  0.5015 -0.5599
  552MPD2    C4 8190   1.727   0.311  13.922  0.4189  0.4564 -0.2605
  552MPD2    C5 8191   1.636   0.309  13.822 -0.5179 -0.3622  0.6454
  552MPD2     H 8192   1.755   4.707  13.987 -2.0036 -0.4246 -0.3590
  552MPD2    H1 8193   1.763   0.411  13.945  0.3179  0.5328 -0.4282
  552MPD2    H2 8194   1.532   0.182  13.685 -1.6863 -3.3809  1.2116
  552MPD2    H3 8195   1.604   0.402  13.775  0.4165  0.2894  1.2829
  552MPD2     N 8196   1.846   0.214  14.113  0.1050  0.4104 -0.0937
  552MPD2    H5 8197   1.891   0.303  14.133  2.8992 -0.8326 -0.8921
  552MPD2    N1 8198   1.587   4.666  13.806 -0.4821  0.2341 -0.4122
  552MPD2    H7 8199   1.618   4.595  13.872 -1.3845  1.4221  1.2767
  553TMC3    C1 8200   1.521   4.485  13.683  0.1523 -0.4699 -0.6481
  553TMC3    C2 8201   1.531   4.433  13.558  0.2259 -0.3042  0.1792
  553TMC3    C3 8202   1.566   4.300  13.551 -0.3717 -0.4560  0.3915
  553TMC3    C4 8203   1.557   4.415  13.796  0.0793 -0.4692  0.2930
  553TMC3    C5 8204   1.586   4.283  13.782  0.4765 -0.6456  0.7103
  553TMC3    C6 8205   1.588   4.221  13.659 -0.1610  0.5191 -0.3068
  553TMC3     C 8206   1.523   4.628  13.694  0.2396  0.0506  0.1938
  553TMC3     O 8207   1.502   4.687  13.590  0.3771  0.4739  0.2684
  553TMC3     H 8208   1.522   4.498  13.472  0.5565 -1.8526 -1.0324
  553TMC3    H1 8209   1.563   4.451  13.898 -1.7601  2.1616 -0.5410
  553TMC3    H2 8210   1.626   4.119  13.657  0.4755  0.7084  1.4673
  553TMC3    C7 8211   1.661   4.203  13.879 -0.3483 -0.0858 -0.1620
  553TMC3    C8 8212   1.672   4.285  13.452  0.0858 -0.1253  0.5190
  553TMC3    O1 8213   1.615   4.095  13.913  0.0827  0.2709  0.0143
  553TMC3    O2 8214   1.732   4.390  13.431  0.6270 -0.1383 -0.4954
  554TMC3    C1 8215   4.601   4.146  11.508 -0.1040  0.7196 -0.5027
  554TMC3    C2 8216   4.561   4.049  11.419 -0.3947 -0.0643  0.4273
  554TMC3    C3 8217   4.632   4.038  11.301  0.2378  0.2700 -0.8902
  554TMC3    C4 8218   4.713   4.222  11.476  0.0660 -0.0965 -0.0241
  554TMC3    C5 8219   0.060   4.210  11.362 -0.5832 -0.2975 -0.4228
  554TMC3    C6 8220   0.012   4.116  11.271  0.3723 -0.0217 -0.0474
  554TMC3     C 8221   4.576   4.131  11.648 -0.1152  0.5323  0.2142
  554TMC3     O 8222   4.574   4.233  11.720  0.1346 -0.3813  0.4829
  554TMC3     H 8223   4.473   3.987  11.435 -0.5374  0.2122  0.7205
  554TMC3    H1 8224   0.013   4.300  11.547  1.8521  0.4554 -1.2941
  554TMC3    H2 8225   0.052   4.113  11.171 -1.5873  2.9492 -0.8943
  554TMC3    C7 8226   0.119   4.331  11.296  0.2067  0.1581 -0.0281
  554TMC3    C8 8227   4.568   3.976  11.185  0.2623 -0.5474  0.2327
  554TMC3    O1 8228   0.173   4.316  11.187  0.4564  0.1234  0.0748
  554TMC3    O2 8229   4.581   4.035  11.080 -0.2284 -0.3880 -0.0461
  555TMC3    C1 8230   2.610   4.087  15.418 -0.1920 -0.3550  0.6653
  555TMC3    C2 8231   2.677   4.145  15.524 -0.4724 -0.0453  0.2799
  555TMC3    C3 8232   2.736   4.063  15.621  0.1265 -0.0420  0.5848
  555TMC3    C4 8233   2.603   3.951  15.412  0.4823  0.3269  0.7851
  555TMC3    C5 8234   2.658   3.871  15.513  0.1062  0.4633  0.0625
  555TMC3    C6 8235   2.724   3.927  15.623  0.1268  0.2063  0.8218
  555TMC3     C 8236   2.588   4.184  15.310 -0.0425 -0.1509  0.2985
  555TMC3     O 8237   2.656   4.290  15.322 -0.3233 -0.0445 -0.7981
  555TMC3     H 8238   2.685   4.253  15.529  1.3705 -0.0539 -2.5878
  555TMC3    H1 8239   2.568   3.904  15.321  0.8453  1.3681  0.1094
  555TMC3    H2 8240   2.745   3.874  15.715 -0.1598 -1.1657  0.0884
  555TMC3    C7 8241   2.659   3.729  15.499  0.4235  0.0826  0.0051
  555TMC3    C8 8242   2.742   4.142  15.743 -0.2636  0.3470 -0.3570
  555TMC3    O1 8243   2.648   3.672  15.607  0.2615 -0.1230 -0.1881
  555TMC3    O2 8244   2.665   4.235  15.753 -0.1692  0.4186  0.1081
  556MPD2     C 8245   1.332   4.677  10.615  0.2514  0.5672 -0.3347
  556MPD2    C1 8246   1.436   4.682  10.708 -0.5077  0.3806  0.2652
  556MPD2    C2 8247   1.564   4.643  10.677  0.4553  0.2335  0.2785
  556MPD2    C3 8248   1.593   4.610  10.543 -0.2756 -0.3057  0.4294
  556MPD2    C4 8249   1.491   4.616  10.448 -0.1845 -0.0509  0.3701
  556MPD2    C5 8250   1.365   4.648  10.481 -0.3485 -0.1355 -0.7870
  556MPD2     H 8251   1.642   4.642  10.752 -0.6678 -1.0753  1.4431
  556MPD2    H1 8252   1.501   4.584  10.345  0.6906  1.8852 -0.1482
  556MPD2    H2 8253   1.231   4.713  10.630  0.3960  1.0164 -0.4429
  556MPD2    H3 8254   1.285   4.637  10.409  0.3524 -0.9363 -1.4440
  556MPD2     N 8255   1.720   4.556  10.503 -0.0245  0.0730  0.3900
  556MPD2    H5 8256   1.785   4.521  10.573 -1.4843  0.3665  1.8970
  556MPD2    N1 8257   1.421   4.718  10.845  0.6475 -0.0757  0.1516
  556MPD2    H7 8258   1.508   4.707  10.896  0.7767  0.5652  0.0671
  557TMC3    C1 8259   1.848   4.437  10.347  0.6840 -0.1601 -0.2142
  557TMC3    C2 8260   1.907   4.446  10.223 -0.2882 -0.0456 -0.1023
  557TMC3    C3 8261   1.917   4.333  10.151  0.1053 -0.1219  0.5741
  557TMC3    C4 8262   1.796   4.318  10.397 -0.8407  0.7570 -0.1444
  557TMC3    C5 8263   1.791   4.214  10.309  0.4808 -0.4124  0.3325
  557TMC3    C6 8264   1.855   4.216  10.193 -0.1833 -0.4686 -0.2975
  557TMC3     C 8265   1.763   4.553  10.375  0.5327 -0.4199  0.2055
  557TMC3     O 8266   1.716   4.615  10.276  0.1755 -0.4518  0.5475
  557TMC3     H 8267   1.951   4.538  10.186  1.6226 -0.8776  0.1435
  557TMC3    H1 8268   1.736   4.313  10.487  1.0269  0.1728  1.0612
  557TMC3    H2 8269   1.864   4.123  10.138  1.7926  0.3772 -1.3612
  557TMC3    C7 8270   1.685   4.114  10.325 -0.1566 -0.5631  0.2514
  557TMC3    C8 8271   1.951   4.350  10.005 -0.2196 -0.2896  0.4082
  557TMC3    O1 8272   1.692   4.031  10.240  0.3968 -0.4897 -0.3551
  557TMC3    O2 8273   2.045   4.421   9.974 -0.0220  0.0657 -0.6524
  558TMC3    C1 8274   4.328   2.599   9.414  0.2950 -0.6289 -0.5111
  558TMC3    C2 8275   4.327   2.567   9.546 -0.4805  0.7616 -0.5283
  558TMC3    C3 8276   4.221   2.491   9.590 -0.0825  0.0218 -0.2522
  558TMC3    C4 8277   4.226   2.572   9.332  0.0398 -0.7796  0.4651
  558TMC3    C5 8278   4.124   2.492   9.377  0.5029 -0.4417  1.0821
  558TMC3    C6 8279   4.117   2.452   9.512 -0.2538 -0.4506  0.3140
  558TMC3     C 8280   4.403   2.723   9.370 -0.6437 -0.3954  0.8739
  558TMC3     O 8281   4.435   2.724   9.249  0.1851 -0.2498 -0.4847
  558TMC3     H 8282   4.409   2.602   9.608  0.2652 -0.1950 -0.9628
  558TMC3    H1 8283   4.219   2.609   9.231  2.4757 -3.4103 -0.6821
  558TMC3    H2 8284   4.046   2.375   9.538  0.0359 -0.4213  1.1792
  558TMC3    C7 8285   4.016   2.469   9.279 -0.5286  0.0586 -0.4315
  558TMC3    C8 8286   4.212   2.477   9.740  0.2023 -0.1031 -0.9232
  558TMC3    O1 8287   4.045   2.492   9.167  0.1875  0.0455  0.1225
  558TMC3    O2 8288   4.316   2.496   9.802  0.2797  0.6401 -0.3376
  559MPD2     C 8289   4.011   3.279  10.437 -1.0103 -0.0912 -0.5242
  559MPD2    C1 8290   3.991   3.241  10.564 -0.2713  0.2609  0.2582
  559MPD2    C2 8291   4.096   3.262  10.655  0.1942  0.4296  0.5512
  559MPD2    C3 8292   4.217   3.316  10.622 -0.6472  0.0169 -0.0661
  559MPD2    C4 8293   4.233   3.367  10.492 -0.0708 -0.1883  0.0652
  559MPD2    C5 8294   4.128   3.346  10.403  0.4609  0.2287 -0.0459
  559MPD2     H 8295   4.077   3.229  10.757 -0.0046  3.4359  1.4693
  559MPD2    H1 8296   4.320   3.415  10.450  0.1917  0.1458  1.0074
  559MPD2    H2 8297   3.943   3.269  10.354 -0.8055  0.4646 -0.7604
  559MPD2    H3 8298   4.141   3.382  10.302  0.2527 -1.6584 -0.7445
  559MPD2     N 8299   4.322   3.327  10.714 -0.2506  0.0450 -0.3820
  559MPD2    H5 8300   4.309   3.271  10.798 -1.8720 -0.1246 -0.7515
  559MPD2    N1 8301   3.864   3.200  10.614  0.8625 -0.4645  0.5563
  559MPD2    H7 8302   3.854   3.187  10.715 -2.7823 -1.1229  0.1213
  560TMC3    C1 8303   4.543   3.333  10.771  0.3206  0.6366 -0.8250
  560TMC3    C2 8304   4.559   3.193  10.774  0.3377 -0.2318 -0.1453
  560TMC3    C3 8305   4.610   3.134  10.885 -0.1131  0.8652 -0.2691
  560TMC3    C4 8306   4.590   3.413  10.872  0.2024  0.2204  0.4462
  560TMC3    C5 8307   4.638   3.352  10.980 -0.8191  0.1926 -1.0679
  560TMC3    C6 8308   4.651   3.212  10.992  0.1919 -0.6108  0.4523
  560TMC3     C 8309   4.443   3.388  10.687 -0.2750 -0.3017  0.6478
  560TMC3     O 8310   4.468   3.472  10.603 -0.2799  0.0016 -0.2587
  560TMC3     H 8311   4.530   3.134  10.687  0.6041 -1.3738  0.5430
  560TMC3    H1 8312   4.571   3.519  10.863  0.5178  0.2262 -0.1600
  560TMC3    H2 8313   4.673   3.151  11.079 -0.7384  1.3955  2.0847
  560TMC3    C7 8314   4.678   3.424  11.095  0.0058 -0.3663  0.1615
  560TMC3    C8 8315   4.601   2.990  10.889  0.0107 -0.0204 -0.6269
  560TMC3    O1 8316   4.685   3.360  11.205  0.0618 -0.1401  0.0764
  560TMC3    O2 8317   4.618   2.943  10.779  0.0277 -0.0584 -0.2920
  561TMC3    C1 8318   1.725   2.332  11.038 -0.1901  0.2094  0.0665
  561TMC3    C2 8319   1.629   2.274  11.108  0.3297  0.0000 -0.4622
  561TMC3    C3 8320   1.540   2.349  11.168 -0.1845  0.0688 -0.2800
  561TMC3    C4 8321   1.740   2.470  11.029  0.6989  0.3614  0.2799
  561TMC3    C5 8322   1.631   2.544  11.074 -0.4766  0.0590  0.1700
  561TMC3    C6 8323   1.536   2.486  11.152 -0.4351 -1.0437  0.7884
  561TMC3     C 8324   1.839   2.246  11.019  0.2819  0.5260 -0.0441
  561TMC3     O 8325   1.854   2.157  11.104 -0.7403  0.4194 -0.5181
  561TMC3     H 8326   1.639   2.167  11.114 -0.9791  0.0040  1.7380
  561TMC3    H1 8327   1.824   2.504  10.970 -0.5409  2.7064 -0.1417
  561TMC3    H2 8328   1.452   2.544  11.189 -0.5343 -0.1784 -0.7918
  561TMC3    C7 8329   1.640   2.685  11.087 -0.1194  0.0247  0.2214
  561TMC3    C8 8330   1.452   2.275  11.259  0.0627 -0.1925  0.0471
  561TMC3    O1 8331   1.548   2.749  11.143  0.0132  0.6988  0.0287
  561TMC3    O2 8332   1.456   2.153  11.263 -0.0464  0.1306 -0.1646
  562TMC3    C1 8333   2.665   4.463  16.292  0.4037  0.0438 -0.6433
  562TMC3    C2 8334   2.574   4.566  16.273 -0.5362 -0.5402  0.4437
  562TMC3    C3 8335   2.461   4.539  16.208 -0.1358 -0.0407  0.0153
  562TMC3    C4 8336   2.638   4.336  16.250  0.0946 -0.0803 -0.0960
  562TMC3    C5 8337   2.520   4.312  16.191  0.3393  0.4950 -0.2666
  562TMC3    C6 8338   2.424   4.409  16.176 -0.3012  0.0605 -0.7026
  562TMC3     C 8339   2.800   4.486  16.353 -0.1479  0.3561 -0.2931
  562TMC3     O 8340   2.877   4.390  16.364  0.2181 -0.1941  0.0007
  562TMC3     H 8341   2.607   4.670  16.272  0.5382 -0.8884 -0.6852
  562TMC3    H1 8342   2.711   4.257  16.244 -0.1693 -0.3864  0.6175
  562TMC3    H2 8343   2.327   4.388  16.134 -0.0666 -1.1494 -0.6315
  562TMC3    C7 8344   2.503   4.196  16.106  0.1297 -0.4306  0.3358
  562TMC3    C8 8345   2.360   4.638  16.221 -0.0271 -0.7786  0.0268
  562TMC3    O1 8346   2.439   4.205  16.002 -0.0394  0.1481 -0.0510
  562TMC3    O2 8347   2.366   4.711  16.318 -0.1680 -0.3404  0.1280
  563MPD2     C 8348   0.156   0.619  16.315 -0.7166  0.7143  0.4719
  563MPD2    C1 8349   0.193   0.745  16.274  0.1933  0.0412  0.0394
  563MPD2    C2 8350   0.320   0.783  16.297  0.3282 -0.1250 -0.7461
  563MPD2    C3 8351   0.420   0.692  16.348 -0.6850  0.2405  0.5352
  563MPD2    C4 8352   0.378   0.569  16.387  0.0208 -0.9170  0.0079
  563MPD2    C5 8353   0.245   0.541  16.377  0.5320 -1.2587  0.2417
  563MPD2     H 8354   0.349   0.882  16.265 -0.0196  0.4944  0.8709
  563MPD2    H1 8355   0.451   0.490  16.401  1.8512  0.5469 -1.3863
  563MPD2    H2 8356   0.055   0.584  16.302 -0.3370  0.0603 -0.7369
  563MPD2    H3 8357   0.218   0.438  16.394 -0.6322 -0.9446  0.3354
  563MPD2     N 8358   0.548   0.739  16.364  0.2969  0.5468 -0.6294
  563MPD2    H5 8359   0.562   0.838  16.349  0.4968  0.3991 -1.4130
  563MPD2    N1 8360   0.091   0.831  16.220  0.0236 -0.0294  0.3416
  563MPD2    H7 8361   4.719   0.806  16.225  0.0549 -0.2104 -0.0002
  564TMC3    C1 8362   0.012   1.043  16.185 -0.3109 -0.3193  0.9919
  564TMC3    C2 8363   4.617   0.980  16.211 -0.2315  0.7933 -0.1129
  564TMC3    C3 8364   4.539   1.030  16.309  0.6479  0.0399  1.2302
  564TMC3    C4 8365   0.055   1.134  16.277 -0.1713 -0.2494 -0.1836
  564TMC3    C5 8366   4.720   1.139  16.404 -0.6769 -0.3208  0.4417
  564TMC3    C6 8367   4.594   1.103  16.411  0.3038 -0.3090  0.0237
  564TMC3     C 8368   0.120   0.949  16.163 -0.3713 -0.3436  0.8887
  564TMC3     O 8369   0.227   0.996  16.120  0.3167  0.4382  0.6962
  564TMC3     H 8370   4.576   0.913  16.136 -0.4639  0.8572 -0.0417
  564TMC3    H1 8371   0.161   1.150  16.264 -0.1802 -0.4213 -0.4744
  564TMC3    H2 8372   4.530   1.149  16.486 -0.7506  0.3099 -1.2602
  564TMC3    C7 8373   0.074   1.084  16.505 -0.2471 -0.0739 -0.6397
  564TMC3    C8 8374   4.454   0.924  16.366  0.1557  0.2371  0.4949
  564TMC3    O1 8375   0.184   1.125  16.529  0.0439  0.5173 -0.5159
  564TMC3    O2 8376   4.457   0.932  16.487 -0.6205 -0.1947  0.0336
  565TMC3    C1 8377   0.989   1.841   9.519 -0.2074  0.1985 -0.1553
  565TMC3    C2 8378   1.061   1.766   9.609 -0.0310  0.4201  0.4002
  565TMC3    C3 8379   0.989   1.694   9.702 -0.3706 -0.1440  0.0569
  565TMC3    C4 8380   0.854   1.839   9.530 -0.3041 -0.1067 -0.5580
  565TMC3    C5 8381   0.789   1.762   9.617 -0.3254  0.0554 -0.5937
  565TMC3    C6 8382   0.854   1.675   9.695  0.0392  0.6755  0.3373
  565TMC3     C 8383   1.046   1.963   9.479 -0.2540  0.4209 -0.4863
  565TMC3     O 8384   0.979   2.023   9.396  0.1255 -0.3641 -0.7620
  565TMC3     H 8385   1.169   1.758   9.613 -0.1134 -0.2774  1.1803
  565TMC3    H1 8386   0.792   1.906   9.471  1.9948  0.1764 -2.6567
  565TMC3    H2 8387   0.801   1.621   9.773  1.1364  0.0191  0.6243
  565TMC3    C7 8388   0.643   1.780   9.639 -0.3300 -0.4191 -0.4495
  565TMC3    C8 8389   1.072   1.599   9.791  0.2053  0.3250  0.2699
  565TMC3    O1 8390   0.585   1.851   9.564  0.3610 -0.1591  0.2433
  565TMC3    O2 8391   1.173   1.637   9.851  0.2182 -0.1586 -0.0138
  566MPD2     C 8392   2.260   3.615  14.155  0.2302 -0.1425  0.5824
  566MPD2    C1 8393   2.320   3.674  14.048  0.1777  0.0147  0.2354
  566MPD2    C2 8394   2.337   3.592  13.936 -0.1207 -0.5167 -0.3209
  566MPD2    C3 8395   2.290   3.465  13.923  0.2503  0.9341  0.9239
  566MPD2    C4 8396   2.223   3.414  14.028 -0.0156  0.6555 -0.0944
  566MPD2    C5 8397   2.219   3.486  14.150  0.4584 -0.0878  0.2452
  566MPD2     H 8398   2.402   3.621  13.854 -0.4964  1.8334  0.2103
  566MPD2    H1 8399   2.185   3.312  14.030 -0.0068  0.7035  2.1386
  566MPD2    H2 8400   2.247   3.674  14.245  0.6401 -0.0127  0.5542
  566MPD2    H3 8401   2.179   3.441  14.240  0.2652  0.3482  0.3771
  566MPD2     N 8402   2.308   3.380  13.808  0.1436 -0.5533  0.3059
  566MPD2    H5 8403   2.275   3.285  13.818  2.4266 -1.3471  0.3301
  566MPD2    N1 8404   2.370   3.805  14.056  0.7490 -0.8558  0.2743
  566MPD2    H7 8405   2.378   3.844  14.149 -0.1665 -2.9748  1.2318
  567TMC3    C1 8406   2.487   4.003  13.977  0.8759  0.7895  0.3089
  567TMC3    C2 8407   2.567   4.060  13.874  0.3577  0.2151 -0.2999
  567TMC3    C3 8408   2.666   4.146  13.906 -0.0417  0.2832 -0.7668
  567TMC3    C4 8409   2.506   4.040  14.110  0.6942  0.4130  0.7018
  567TMC3    C5 8410   2.610   4.130  14.128  0.1208  0.1407 -0.2701
  567TMC3    C6 8411   2.686   4.193  14.032  0.3815 -0.2978  0.2809
  567TMC3     C 8412   2.434   3.867  13.951 -0.1590 -0.8317 -0.3854
  567TMC3     O 8413   2.450   3.831  13.836  0.1931  0.1077  0.1417
  567TMC3     H 8414   2.552   4.028  13.771 -2.6938  1.8063 -0.3535
  567TMC3    H1 8415   2.446   3.999  14.191 -0.3671 -1.1061 -0.8560
  567TMC3    H2 8416   2.748   4.277  14.060 -1.2230  1.4760 -1.4885
  567TMC3    C7 8417   2.656   4.148  14.269  0.1914  1.1571  0.2246
  567TMC3    C8 8418   2.765   4.159  13.795 -0.4442 -0.0975  0.3305
  567TMC3    O1 8419   2.734   4.241  14.282 -0.2443 -0.0935 -0.4606
  567TMC3    O2 8420   2.721   4.175  13.681 -0.0402  0.1450  0.0154
  568MPD2     C 8421   0.212   4.638  17.029  0.1990 -0.3475 -0.3032
  568MPD2    C1 8422   0.074   4.614  17.046 -0.2362 -0.5174 -0.2443
  568MPD2    C2 8423   4.715   4.724  17.030  1.1122  0.8304 -0.3160
  568MPD2    C3 8424   0.043   0.126  17.017  0.3410  0.6093 -0.1888
  568MPD2    C4 8425   0.183   0.141  17.002  0.0739 -0.8904 -0.0269
  568MPD2    C5 8426   0.266   0.033  17.003 -0.7168 -0.2455 -0.1696
  568MPD2     H 8427   4.607   4.717  17.030  1.1459  0.3632  0.3841
  568MPD2    H1 8428   0.234   0.232  16.972 -1.6830  0.2668  0.5088
  568MPD2    H2 8429   0.273   4.548  17.026  0.1414 -0.4712  1.9523
  568MPD2    H3 8430   0.373   0.041  16.987 -0.6587  0.4886  0.5826
  568MPD2     N 8431   4.675   0.225  16.998  0.7829 -0.5529  0.2665
  568MPD2    H5 8432   4.579   0.199  17.020  0.8636  0.7762  2.2014
  568MPD2    N1 8433   0.024   4.482  17.075 -0.3201 -0.4394 -0.7273
  568MPD2    H7 8434   0.084   4.405  17.103 -0.1675  0.2845  0.9162
  569TMC3    C1 8435   4.578   0.425  16.975  0.5602  0.3025  0.7626
  569TMC3    C2 8436   4.589   0.561  17.000  0.6643  0.6358  0.7196
  569TMC3    C3 8437   4.476   0.637  16.981 -0.4011 -0.2463 -0.0417
  569TMC3    C4 8438   4.471   0.365  16.910  0.7709  0.3358  0.2785
  569TMC3    C5 8439   4.365   0.450  16.878 -0.1134  0.4019  0.1224
  569TMC3    C6 8440   4.366   0.579  16.929 -0.0588  0.4588  0.5000
  569TMC3     C 8441   4.700   0.357  16.993  0.4778 -0.4362 -0.6115
  569TMC3     O 8442   0.079   0.416  17.007  0.2272  0.0522  0.7064
  569TMC3     H 8443   4.681   0.588  17.051  1.6143  0.5968 -0.9943
  569TMC3    H1 8444   4.460   0.264  16.873  1.6822  0.0584  0.7780
  569TMC3    H2 8445   4.281   0.645  16.912  1.8774  2.7652 -0.1528
  569TMC3    C7 8446   4.314   0.427  16.746  0.3195  0.3712 -0.2279
  569TMC3    C8 8447   4.487   0.774  16.952 -0.1312 -0.4865  0.5992
  569TMC3    O1 8448   4.318   0.319  16.691 -0.1516  0.2500  0.1113
  569TMC3    O2 8449   4.441   0.809  16.844  0.7726 -0.2167  0.0809
  570TMC3    C1 8450   3.869   3.092  15.935  0.0346 -0.2607 -0.1726
  570TMC3    C2 8451   3.960   3.101  15.830 -0.3348 -0.2686  0.1794
  570TMC3    C3 8452   4.079   3.160  15.858  0.6007 -0.7101 -0.2596
  570TMC3    C4 8453   3.896   3.159  16.054  0.0317 -0.5025 -0.0823
  570TMC3    C5 8454   4.018   3.211  16.082  0.6358 -0.1545 -0.3161
  570TMC3    C6 8455   4.113   3.204  15.984  0.2368  0.2535 -0.1004
  570TMC3     C 8456   3.728   3.061  15.900  0.0948  1.4944  0.4647
  570TMC3     O 8457   3.697   3.037  15.782 -0.7262 -0.0108  0.0670
  570TMC3     H 8458   3.936   3.067  15.730  0.9312  2.2788 -0.9876
  570TMC3    H1 8459   3.822   3.182  16.130  0.6074 -0.4113  0.4536
  570TMC3    H2 8460   4.216   3.228  16.007  0.8611 -1.0893 -1.5312
  570TMC3    C7 8461   4.038   3.268  16.208 -0.2954 -0.6872  0.5900
  570TMC3    C8 8462   4.191   3.169  15.765 -0.9390 -0.2073  1.1702
  570TMC3    O1 8463   3.973   3.236  16.307 -0.4138  0.0805  0.0793
  570TMC3    O2 8464   4.297   3.210  15.813  0.0505  0.2901 -0.1591
  571MPD2     C 8465   2.201   0.248   0.341  0.3475 -0.2806  0.1401
  571MPD2    C1 8466   2.077   0.217   0.291 -0.1370 -0.3946 -0.5139
  571MPD2    C2 8467   1.964   0.258   0.363 -0.1846 -0.3052  0.3400
  571MPD2    C3 8468   1.973   0.340   0.474  0.3980 -0.2202  0.1122
  571MPD2    C4 8469   2.098   0.361   0.529  0.5216 -0.8205 -0.5083
  571MPD2    C5 8470   2.204   0.314   0.461 -0.0100  0.2571 -0.1329
  571MPD2     H 8471   1.871   0.250   0.308  0.2971 -0.0768 -0.5110
  571MPD2    H1 8472   2.110   0.419   0.620  0.7400  1.3738 -1.9496
  571MPD2    H2 8473   2.290   0.214   0.290  2.1418  3.1842  0.9231
  571MPD2    H3 8474   2.300   0.343   0.501 -0.5468  3.4063 -1.1328
  571MPD2     N 8475   1.859   0.402   0.527  0.0935 -0.3786 -0.0241
  571MPD2    H5 8476   1.883   0.481   0.586 -0.4043 -0.7339  0.6507
  571MPD2    N1 8477   2.070   0.149   0.165  0.3476 -0.0703  0.0540
  571MPD2    H7 8478   2.156   0.101   0.139  0.8385  0.9060 -0.1236
  572TMC3    C1 8479   1.632   0.435   0.585 -0.0678 -0.2543  0.6849
  572TMC3    C2 8480   1.507   0.404   0.539 -1.2002 -0.0696 -0.3507
  572TMC3    C3 8481   1.406   0.496   0.571  0.3123 -0.2146 -0.5752
  572TMC3    C4 8482   1.654   0.542   0.664  0.0304 -0.5131  0.1452
  572TMC3    C5 8483   1.555   0.635   0.689 -0.8193 -0.6092 -0.6963
  572TMC3    C6 8484   1.427   0.608   0.647  0.1339  0.6006  0.6661
  572TMC3     C 8485   1.734   0.351   0.529 -0.1110  0.9792  0.4458
  572TMC3     O 8486   1.696   0.255   0.471  0.2553 -0.3578  0.9095
  572TMC3     H 8487   1.492   0.332   0.459 -3.5776 -0.1282  0.1353
  572TMC3    H1 8488   1.741   0.538   0.729 -0.3352 -1.8371  0.5588
  572TMC3    H2 8489   1.352   0.684   0.661  0.7674  1.2210  0.6759
  572TMC3    C7 8490   1.574   0.767   0.744 -0.5589 -0.4698  0.4067
  572TMC3    C8 8491   1.280   0.481   0.496 -0.0028  0.1278 -0.3192
  572TMC3    O1 8492   1.475   0.831   0.774 -0.1154  0.4967  0.3348
  572TMC3    O2 8493   1.272   0.386   0.420  0.1376  0.2532  0.7445
  573MPD2     C 8494   3.041   0.547   0.732  0.0675 -0.0456 -0.0766
  573MPD2    C1 8495   3.083   0.679   0.741  0.2042 -0.1836  0.3642
  573MPD2    C2 8496   3.148   0.735   0.634  0.1402 -0.4241 -0.6442
  573MPD2    C3 8497   3.167   0.667   0.515 -0.6202  0.1947  0.2757
  573MPD2    C4 8498   3.123   0.537   0.513  0.5577  0.0245  0.7534
  573MPD2    C5 8499   3.056   0.481   0.614 -0.3324 -0.2016  0.0216
  573MPD2     H 8500   3.163   0.842   0.621 -0.4734 -0.5548 -2.4274
  573MPD2    H1 8501   3.125   0.469   0.428 -0.6611  0.8877  0.0307
  573MPD2    H2 8502   3.003   0.499   0.822  2.2581 -0.1938  0.7777
  573MPD2    H3 8503   3.020   0.378   0.613 -0.5421 -0.1198 -0.4966
  573MPD2     N 8504   3.236   0.716   0.404 -0.1978 -0.1499 -0.1248
  573MPD2    H5 8505   3.218   0.676   0.313 -1.0740  0.4766 -0.2302
  573MPD2    N1 8506   3.043   0.752   0.855  0.2576 -0.3799  0.1630
  573MPD2    H7 8507   2.975   0.708   0.916 -0.0029 -3.0725 -2.0389
  574TMC3    C1 8508   3.335   0.897   0.283  0.3661  0.3570 -0.0904
  574TMC3    C2 8509   3.257   0.870   0.175 -0.1206  0.4467  0.3558
  574TMC3    C3 8510   3.274   0.952   0.063 -0.3053  0.7465 -0.3594
  574TMC3    C4 8511   3.454   0.972   0.275  0.3084 -0.3139  0.2930
  574TMC3    C5 8512   3.471   1.048   0.164  0.2047  0.2779  0.4110
  574TMC3    C6 8513   3.384   1.031   0.056  0.8502  0.1964 -0.1971
  574TMC3     C 8514   3.306   0.837   0.411  0.3335  0.3493  0.5532
  574TMC3     O 8515   3.358   0.888   0.509  0.1758 -0.2175  0.3907
  574TMC3     H 8516   3.169   0.808   0.190 -0.2230  0.6120  0.4324
  574TMC3    H1 8517   3.531   0.962   0.351  0.9503  1.5773 -0.1091
  574TMC3    H2 8518   3.384   1.098  17.676 -3.2363 -0.3069 -0.5751
  574TMC3    C7 8519   3.595   1.119   0.140 -0.2793 -0.3135 -0.4145
  574TMC3    C8 8520   3.157   1.016  17.703  1.0609 -0.3852  0.1197
  574TMC3    O1 8521   3.648   1.114   0.031  0.2093 -0.1430 -0.0974
  574TMC3    O2 8522   3.164   1.035  17.585  0.5468  0.0488 -0.2301
  575TMC3    C1 8523   1.569   1.473  10.482  0.1067 -0.2963 -0.5308
  575TMC3    C2 8524   1.546   1.364  10.563  0.8305 -0.0713 -0.0380
  575TMC3    C3 8525   1.499   1.252  10.506 -0.0439  0.1011  0.1092
  575TMC3    C4 8526   1.521   1.492  10.355  0.5936 -0.3224 -0.7087
  575TMC3    C5 8527   1.468   1.375  10.301  0.4059 -0.3109  0.1729
  575TMC3    C6 8528   1.452   1.257  10.379  0.0298  0.3339 -0.0496
  575TMC3     C 8529   1.637   1.573  10.553 -0.4410 -0.2908 -0.1002
  575TMC3     O 8530   1.656   1.568  10.677 -0.1182  0.4257 -0.0513
  575TMC3     H 8531   1.608   1.355  10.652  4.1621  0.6233 -2.3066
  575TMC3    H1 8532   1.544   1.570  10.283  0.7005  1.2199  0.9832
  575TMC3    H2 8533   1.394   1.174  10.343  0.4508  0.2455 -0.5316
  575TMC3    C7 8534   1.374   1.394  10.189 -0.0735 -1.2792 -0.3256
  575TMC3    C8 8535   1.512   1.128  10.584  0.5454 -0.1066 -0.3744
  575TMC3    O1 8536   1.360   1.505  10.143 -0.2554 -0.5397 -0.2870
  575TMC3    O2 8537   1.505   1.146  10.704  0.2834  0.7885  0.5087
  576MPD2     C 8538   0.676   2.981  12.305  0.2649 -0.2790  0.4988
  576MPD2    C1 8539   0.680   3.028  12.174 -0.2455  0.4360 -0.0372
  576MPD2    C2 8540   0.596   3.136  12.138 -0.5906  0.1352  0.1706
  576MPD2    C3 8541   0.507   3.196  12.226  0.4235 -0.5201 -0.5647
  576MPD2    C4 8542   0.503   3.141  12.353 -0.3237  0.0235  0.2397
  576MPD2    C5 8543   0.588   3.042  12.388 -0.0307 -0.0795  0.0750
  576MPD2     H 8544   0.604   3.173  12.037 -0.2704 -0.6786 -0.1013
  576MPD2    H1 8545   0.432   3.178  12.426 -0.4489 -0.2508  0.2560
  576MPD2    H2 8546   0.748   2.909  12.342  1.8793  0.9795 -0.1979
  576MPD2    H3 8547   0.576   2.997  12.485  3.5294 -0.7115  0.2342
  576MPD2     N 8548   0.404   3.286  12.173  0.0507  0.0009 -0.5791
  576MPD2    H5 8549   0.385   3.289  12.073 -0.6539 -0.8592 -0.4655
  576MPD2    N1 8550   0.775   2.972  12.086 -0.1228  0.1739 -0.2417
  576MPD2    H7 8551   0.789   3.018  11.996 -1.2826 -2.2367 -1.6494
  577TMC3    C1 8552   0.953   2.840  12.002  0.2120  0.5095  0.0812
  577TMC3    C2 8553   0.996   2.708  11.973  0.1539 -0.3162  0.5606
  577TMC3    C3 8554   1.099   2.686  11.884 -0.6586 -0.2862  0.2507
  577TMC3    C4 8555   1.029   2.943  11.962  0.3270 -0.2847  0.0346
  577TMC3    C5 8556   1.139   2.914  11.890 -0.5304 -0.7169 -1.0230
  577TMC3    C6 8557   1.178   2.790  11.842 -0.3980  0.0221 -0.0994
  577TMC3     C 8558   0.855   2.863  12.106  1.3871  0.1467  0.5180
  577TMC3     O 8559   0.834   2.775  12.188  0.4078 -0.5591 -0.0387
  577TMC3     H 8560   0.937   2.626  12.012  0.1426 -0.1707  0.8488
  577TMC3    H1 8561   1.006   3.044  11.995  2.7492  0.4081 -0.3873
  577TMC3    H2 8562   1.268   2.773  11.783 -0.1284  0.2948  0.2343
  577TMC3    C7 8563   1.220   3.022  11.836  0.3952  0.2087 -0.4063
  577TMC3    C8 8564   1.134   2.554  11.840 -0.3680  0.6580  0.4700
  577TMC3    O1 8565   1.336   3.002  11.810  0.0185 -0.2530 -0.1480
  577TMC3    O2 8566   1.073   2.464  11.892  0.2858 -0.1851 -0.2021
  578MPD2     C 8567   2.295   3.837   0.948 -0.0284 -0.5381  0.1689
  578MPD2    C1 8568   2.379   3.745   0.891  0.3802 -0.4371  0.2170
  578MPD2    C2 8569   2.500   3.729   0.947 -0.4489 -0.8237  0.3093
  578MPD2    C3 8570   2.545   3.794   1.063 -0.2672 -0.1534 -0.6114
  578MPD2    C4 8571   2.460   3.883   1.121  0.0031  0.3395  0.2498
  578MPD2    C5 8572   2.344   3.905   1.059  0.1256 -0.0712 -0.0727
  578MPD2     H 8573   2.564   3.659   0.894 -2.3308 -2.2441 -0.0567
  578MPD2    H1 8574   2.480   3.934   1.215 -1.7974  0.7956  0.3695
  578MPD2    H2 8575   2.200   3.873   0.909  1.4656  1.6925 -1.3806
  578MPD2    H3 8576   2.277   3.982   1.095 -1.4427 -1.7060  0.5419
  578MPD2     N 8577   2.675   3.764   1.100  0.5702 -0.4159  0.5927
  578MPD2    H5 8578   2.731   3.702   1.042  0.1986 -2.8430  2.8772
  578MPD2    N1 8579   2.345   3.682   0.765  0.5796 -0.9609 -0.5488
  578MPD2    H7 8580   2.274   3.734   0.714  0.0821 -2.0527 -0.9651
  579TMC3    C1 8581   2.886   3.823   1.189 -0.7152 -0.0782  0.4907
  579TMC3    C2 8582   2.964   3.923   1.239 -0.7312 -0.3301  0.4458
  579TMC3    C3 8583   3.093   3.895   1.270 -0.1457  0.5677 -0.7807
  579TMC3    C4 8584   2.939   3.701   1.154 -0.4543 -0.1218 -0.3506
  579TMC3    C5 8585   3.063   3.674   1.193  0.6197 -0.0750  0.1983
  579TMC3    C6 8586   3.141   3.774   1.248  0.3665  0.5943  0.4783
  579TMC3     C 8587   2.742   3.838   1.197  0.0440  0.0073  0.5646
  579TMC3     O 8588   2.698   3.918   1.275 -0.6893  0.5555 -0.1970
  579TMC3     H 8589   2.924   4.023   1.245  2.2974  0.7811  1.9552
  579TMC3    H1 8590   2.878   3.626   1.104 -0.0201 -0.4506 -0.3851
  579TMC3    H2 8591   3.235   3.750   1.295  1.1799  0.7599 -1.0705
  579TMC3    C7 8592   3.110   3.533   1.206  0.0330 -0.4824  0.4916
  579TMC3    C8 8593   3.180   4.006   1.303 -0.4974 -0.1519  0.7282
  579TMC3    O1 8594   3.189   3.503   1.295  0.1694  0.2923  0.4625
  579TMC3    O2 8595   3.123   4.113   1.319  0.7558  0.0551 -0.1473
  580TMC3    C1 8596   3.492   1.840  11.638  0.3982  0.6004  0.0787
  580TMC3    C2 8597   3.577   1.943  11.677 -0.4393 -0.3197  0.7486
  580TMC3    C3 8598   3.601   1.961  11.806  0.0573  0.0924 -0.1298
  580TMC3    C4 8599   3.426   1.765  11.730 -0.3559 -0.1254 -0.0983
  580TMC3    C5 8600   3.472   1.778  11.861 -0.4756  0.4182  0.8296
  580TMC3    C6 8601   3.560   1.874  11.904  0.4466  0.0243  0.0115
  580TMC3     C 8602   3.420   1.869  11.519 -0.5339  0.2404  0.3764
  580TMC3     O 8603   3.471   1.944  11.436 -0.0808 -0.0917 -0.2402
  580TMC3     H 8604   3.600   2.013  11.597 -0.3538 -1.3192 -0.0931
  580TMC3    H1 8605   3.360   1.682  11.708 -1.5511  0.7272  0.2884
  580TMC3    H2 8606   3.594   1.902  12.003 -0.0867 -0.0980  0.2323
  580TMC3    C7 8607   3.421   1.692  11.964  0.1694 -0.4753  0.2660
  580TMC3    C8 8608   3.709   2.046  11.850  0.8980 -0.5066  0.3211
  580TMC3    O1 8609   3.430   1.732  12.078  0.0219  0.1423 -0.1599
  580TMC3    O2 8610   3.701   2.107  11.957  0.1112  0.2812  0.3789
  581MPD2     C 8611   1.365   1.776  14.974  0.5672 -0.1139  0.7333
  581MPD2    C1 8612   1.266   1.830  15.059  0.5041 -0.5916  1.2809
  581MPD2    C2 8613   1.162   1.894  15.005  0.3449 -0.3401 -0.3791
  581MPD2    C3 8614   1.157   1.909  14.865  0.2614 -0.6487  0.0369
  581MPD2    C4 8615   1.251   1.859  14.787 -0.4331  0.1094 -0.0466
  581MPD2    C5 8616   1.362   1.809  14.841 -0.4341  0.4550 -0.0229
  581MPD2     H 8617   1.087   1.946  15.064 -0.1463 -1.2569 -0.1834
  581MPD2    H1 8618   1.240   1.852  14.679 -0.4156  1.1236 -0.1083
  581MPD2    H2 8619   1.452   1.720  15.007  0.9920  0.5381  0.7346
  581MPD2    H3 8620   1.441   1.767  14.779  0.5013  3.1965 -0.6941
  581MPD2     N 8621   1.044   1.971  14.813  0.2753  0.0560 -0.0757
  581MPD2    H5 8622   0.965   1.971  14.878  0.6264 -1.0952  0.3443
  581MPD2    N1 8623   1.279   1.819  15.199  0.0920 -0.2172  0.0543
  581MPD2    H7 8624   1.364   1.775  15.233  0.5859  0.9815  0.3647
  582TMC3    C1 8625   1.205   1.780  15.413 -0.7637 -0.2508  0.5111
  582TMC3    C2 8626   1.136   1.841  15.514  0.0447  0.1562  0.5244
  582TMC3    C3 8627   1.063   1.763  15.600 -0.1208  0.1693  0.1224
  582TMC3    C4 8628   1.199   1.649  15.395  0.7443 -0.4024 -0.0206
  582TMC3    C5 8629   1.108   1.582  15.478  0.2746  0.7323 -0.0748
  582TMC3    C6 8630   1.046   1.631  15.584 -0.3095  0.2344 -0.3620
  582TMC3     C 8631   1.191   1.860  15.294 -0.4667  0.5163  0.4401
  582TMC3     O 8632   1.118   1.960  15.296  0.0207 -0.5939 -0.5576
  582TMC3     H 8633   1.130   1.948  15.528 -1.1300  0.1240  0.2815
  582TMC3    H1 8634   1.264   1.598  15.325 -0.4164 -2.4401  0.3745
  582TMC3    H2 8635   0.965   1.570  15.619 -1.3760  0.9892 -1.5266
  582TMC3    C7 8636   1.071   1.438  15.452 -0.7253 -0.3327  0.1362
  582TMC3    C8 8637   1.012   1.823  15.718  0.1280  0.4490  0.1988
  582TMC3    O1 8638   1.066   1.368  15.555 -0.4667 -0.2658 -0.1828
  582TMC3    O2 8639   1.001   1.944  15.727  0.1589  0.1839 -0.4157
  583MPD2     C 8640   1.224   3.856  17.193  0.6973 -0.3088  0.0133
  583MPD2    C1 8641   1.257   3.954  17.105  0.3844  0.1201  0.2669
  583MPD2    C2 8642   1.230   4.079  17.143 -0.6665 -0.0080 -0.8592
  583MPD2    C3 8643   1.168   4.108  17.260 -0.0380 -0.2236 -0.1838
  583MPD2    C4 8644   1.144   4.013  17.353 -0.1746  0.2686 -0.5065
  583MPD2    C5 8645   1.175   3.886  17.319  0.1542  1.0079  0.5218
  583MPD2     H 8646   1.247   4.164  17.078 -0.5682  0.6841  0.0877
  583MPD2    H1 8647   1.094   4.032  17.448  1.7831 -0.3383  0.6307
  583MPD2    H2 8648   1.250   3.752  17.178  2.7610  0.3708 -1.2390
  583MPD2    H3 8649   1.148   3.808  17.390  1.3038  0.6374  0.5641
  583MPD2     N 8650   1.139   4.245  17.290 -0.1536 -0.4497 -0.1167
  583MPD2    H5 8651   1.145   4.303  17.207  0.7221 -0.6561 -0.2047
  583MPD2    N1 8652   1.311   3.933  16.978 -0.2921 -0.1594 -0.0450
  583MPD2    H7 8653   1.311   4.016  16.920  0.5811 -0.5833 -0.6574
  584TMC3    C1 8654   1.040   4.435  17.390 -0.1417  0.3240  0.1188
  584TMC3    C2 8655   1.117   4.524  17.317 -0.7290  0.5233 -0.5896
  584TMC3    C3 8656   1.078   4.656  17.315 -0.8415  0.4194  0.8512
  584TMC3    C4 8657   0.933   4.473  17.456 -0.1883 -0.5948  0.5136
  584TMC3    C5 8658   0.896   4.607  17.451 -0.1018  0.2673  0.6385
  584TMC3    C6 8659   0.964   4.699  17.383  0.3787 -0.5307  0.0259
  584TMC3     C 8660   1.073   4.294  17.402 -0.5938  0.6230 -0.2157
  584TMC3     O 8661   1.032   4.238  17.505 -0.1347 -0.1260 -0.0107
  584TMC3     H 8662   1.199   4.489  17.256 -1.9773 -3.6236  0.0943
  584TMC3    H1 8663   0.877   4.411  17.525  3.0804 -1.7022  2.2042
  584TMC3    H2 8664   0.920   0.071  17.363  2.2985  0.2982 -0.1404
  584TMC3    C7 8665   0.776   4.647  17.526 -0.0529 -1.1400 -0.1638
  584TMC3    C8 8666   1.166   0.022  17.239  0.4500 -0.1113  0.2445
  584TMC3    O1 8667   0.697   4.559  17.553 -0.0993 -0.2738  0.3810
  584TMC3    O2 8668   1.233   4.688  17.153  0.1520  0.1844  0.0330
  585MPD2     C 8669   4.621   3.329   0.925 -0.2176 -0.2760 -0.2234
  585MPD2    C1 8670   0.006   3.373   0.860 -0.3542  0.2799 -0.2938
  585MPD2    C2 8671   0.065   3.288   0.764 -0.2586  0.0945 -0.2849
  585MPD2    C3 8672   0.010   3.161   0.750 -0.9070  0.6437  0.0688
  585MPD2    C4 8673   4.626   3.117   0.822  0.2080  0.3608 -0.5540
  585MPD2    C5 8674   4.569   3.201   0.910  0.2979 -0.1806  0.2545
  585MPD2     H 8675   0.135   3.328   0.692  1.5624 -3.1368 -0.2974
  585MPD2    H1 8676   4.588   3.016   0.828  3.9814 -1.1287 -1.6169
  585MPD2    H2 8677   4.565   3.396   0.989 -0.1156 -0.6607  0.2712
  585MPD2    H3 8678   4.484   3.166   0.968  1.8823 -2.9937  0.8779
  585MPD2     N 8679   0.047   3.059   0.657  0.5284 -0.2047  1.0715
  585MPD2    H5 8680   4.723   2.971   0.667 -0.2968  0.1396  0.0200
  585MPD2    N1 8681   0.047   3.507   0.874 -0.0612 -0.2262 -0.1092
  585MPD2    H7 8682   4.713   3.570   0.927 -0.6734 -1.1704  0.3255
  586TMC3    C1 8683   0.127   2.988   0.454  0.6598 -0.4086 -0.2534
  586TMC3    C2 8684   0.235   2.924   0.413  0.6339  0.2796 -0.6817
  586TMC3    C3 8685   0.221   2.825   0.316  0.4289 -0.4106 -0.5647
  586TMC3    C4 8686   0.008   2.982   0.390 -1.2408 -0.0049 -0.5600
  586TMC3    C5 8687   4.719   2.879   0.302  0.1319  0.2695 -0.3682
  586TMC3    C6 8688   0.097   2.794   0.265  0.3810 -0.0703 -0.1532
  586TMC3     C 8689   0.147   3.075   0.570  0.0943 -0.7297  0.5148
  586TMC3     O 8690   0.234   3.163   0.570 -0.3978 -0.1625  0.2135
  586TMC3     H 8691   0.333   2.938   0.458 -0.8101  0.3900  2.4165
  586TMC3    H1 8692   4.658   3.052   0.424 -0.6047  1.0403 -1.3090
  586TMC3    H2 8693   0.070   2.712   0.199 -2.2718  1.0422 -0.4665
  586TMC3    C7 8694   4.590   2.833   0.263  0.1739 -0.9364 -0.2566
  586TMC3    C8 8695   0.314   2.716   0.318 -0.1673  0.5315  0.9996
  586TMC3    O1 8696   4.571   2.711   0.275 -0.3472  0.3678 -0.1471
  586TMC3    O2 8697   0.397   2.716   0.408  0.8050 -0.1723  0.2547
  587TMC3    C1 8698   1.328   1.811  15.935 -0.1281  0.1168 -0.4164
  587TMC3    C2 8699   1.317   1.743  16.050 -0.4117 -0.1305  1.3041
  587TMC3    C3 8700   1.360   1.616  16.054 -0.5532  1.1859 -0.7823
  587TMC3    C4 8701   1.385   1.757  15.822  0.0802  0.6421  0.6782
  587TMC3    C5 8702   1.435   1.630  15.834  0.2316  0.1054  0.4111
  587TMC3    C6 8703   1.421   1.561  15.950 -0.0850  0.6498  0.1566
  587TMC3     C 8704   1.301   1.959  15.938 -0.0735 -0.1735 -0.9418
  587TMC3     O 8705   1.277   2.009  15.833  0.3304 -0.7820 -0.3383
  587TMC3     H 8706   1.251   1.786  16.125  1.2843  2.7767  1.1202
  587TMC3    H1 8707   1.380   1.810  15.728 -1.0189 -1.0700 -0.2332
  587TMC3    H2 8708   1.467   1.464  15.969  0.8961  0.5065 -2.8414
  587TMC3    C7 8709   1.477   1.576  15.707 -0.2747 -0.5888  0.8290
  587TMC3    C8 8710   1.363   1.549  16.192 -0.0808 -1.2150  0.4681
  587TMC3    O1 8711   1.493   1.655  15.617  0.1542 -0.1970  0.1527
  587TMC3    O2 8712   1.402   1.430  16.195 -0.0571 -0.3965 -0.3234
  588TMC3    C1 8713   0.702   3.665   9.512 -0.3924 -0.5512  0.2791
  588TMC3    C2 8714   0.673   3.535   9.483 -0.8059  0.3168  0.0440
  588TMC3    C3 8715   0.693   3.446   9.586  0.2885 -0.2341 -0.3049
  588TMC3    C4 8716   0.744   3.704   9.630 -0.4388 -0.7755  0.2659
  588TMC3    C5 8717   0.762   3.614   9.730 -0.1825 -0.4992  0.3537
  588TMC3    C6 8718   0.736   3.478   9.709 -0.4026 -0.0902 -0.6563
  588TMC3     C 8719   0.704   3.762   9.399 -0.2810  0.3947  0.2758
  588TMC3     O 8720   0.626   3.747   9.306 -0.1915  0.5130 -0.4737
  588TMC3     H 8721   0.640   3.498   9.386  0.6456 -1.0315  0.0793
  588TMC3    H1 8722   0.739   3.809   9.657  1.8936  0.2180 -3.2438
  588TMC3    H2 8723   0.734   3.406   9.790  1.2433  0.6347  0.0267
  588TMC3    C7 8724   0.820   3.661   9.858 -0.3246 -0.2756  0.3784
  588TMC3    C8 8725   0.666   3.302   9.550  0.0127 -0.8859 -0.1419
  588TMC3    O1 8726   0.791   3.594   9.955 -0.4522 -0.0475 -0.0027
  588TMC3    O2 8727   0.612   3.288   9.443  1.0709 -0.0787  0.5578
  589TMC3    C1 8728   3.947   1.426   1.445  0.1962  0.1402 -0.5220
  589TMC3    C2 8729   3.989   1.521   1.539  0.2610  0.4686  0.1051
  589TMC3    C3 8730   4.088   1.485   1.629  0.6508 -0.0009 -0.0182
  589TMC3    C4 8731   3.998   1.305   1.441  1.2139 -1.0382 -0.1598
  589TMC3    C5 8732   4.095   1.271   1.531  0.3815  0.0166 -0.1491
  589TMC3    C6 8733   4.149   1.357   1.622 -0.0605 -0.1703  0.4690
  589TMC3     C 8734   3.870   1.469   1.329  0.6079 -0.0086 -0.2691
  589TMC3     O 8735   3.846   1.384   1.244  0.4190  0.2305 -0.4567
  589TMC3     H 8736   3.977   1.627   1.519 -0.1882  0.2172 -0.9547
  589TMC3    H1 8737   3.970   1.238   1.360 -1.0942  1.2271 -1.2308
  589TMC3    H2 8738   4.208   1.327   1.708  0.7520 -0.6656 -0.2588
  589TMC3    C7 8739   4.152   1.136   1.512 -0.5542 -0.3239  0.2633
  589TMC3    C8 8740   4.135   1.583   1.721  0.3754  0.3716 -0.4245
  589TMC3    O1 8741   4.092   1.055   1.444  0.0713  0.6316 -0.2920
  589TMC3    O2 8742   4.071   1.688   1.730  0.3171 -0.3858 -0.0656
  590MPD2     C 8743   3.503   0.589  17.173 -0.7476 -0.0371  0.2891
  590MPD2    C1 8744   3.466   0.693  17.093 -0.1807  0.4697  0.4144
  590MPD2    C2 8745   3.521   0.701  16.966 -0.1707  0.0480 -0.8853
  590MPD2    C3 8746   3.608   0.604  16.913 -0.0699 -0.4863  0.1063
  590MPD2    C4 8747   3.632   0.497  16.992 -0.6511  0.3831 -0.7951
  590MPD2    C5 8748   3.589   0.492  17.120 -0.5721  0.1168 -0.2229
  590MPD2     H 8749   3.502   0.788  16.905 -1.9983  0.8051  0.7370
  590MPD2    H1 8750   3.692   0.414  16.960  0.7694  0.1673  2.4048
  590MPD2    H2 8751   3.457   0.571  17.269 -0.3218 -0.1155  0.4790
  590MPD2    H3 8752   3.620   0.407  17.179 -1.7053  0.8236  1.3807
  590MPD2     N 8753   3.637   0.602  16.775  0.1787 -0.1774  0.2121
  590MPD2    H5 8754   3.614   0.683  16.717 -0.8773 -0.5252  0.1440
  590MPD2    N1 8755   3.361   0.782  17.125  0.0707  0.2530 -0.1126
  590MPD2    H7 8756   3.323   0.828  17.042  0.2844  1.0152  0.2224
  591TMC3    C1 8757   3.757   0.558  16.571 -1.2373  0.0314  0.0384
  591TMC3    C2 8758   3.808   0.468  16.489 -0.4200  0.1460  0.0697
  591TMC3    C3 8759   3.816   0.501  16.358 -0.3221 -0.4710  0.1240
  591TMC3    C4 8760   3.732   0.689  16.535  0.7052  0.0097 -0.0189
  591TMC3    C5 8761   3.770   0.724  16.407  0.6410  0.1342  1.2660
  591TMC3    C6 8762   3.798   0.624  16.313 -0.3305 -0.6525  0.0644
  591TMC3     C 8763   3.716   0.513  16.704 -0.4845  0.7834 -0.1399
  591TMC3     O 8764   3.752   0.401  16.731  0.1924  0.3343  0.1590
  591TMC3     H 8765   3.810   0.363  16.515 -2.2955 -0.0220 -0.4322
  591TMC3    H1 8766   3.689   0.761  16.603 -0.1746 -0.8879  0.3714
  591TMC3    H2 8767   3.810   0.645  16.207 -2.8573 -1.3184 -0.3569
  591TMC3    C7 8768   3.726   0.853  16.355  0.2349 -0.2704 -0.4950
  591TMC3    C8 8769   3.860   0.394  16.268 -0.2720  0.2301 -0.5493
  591TMC3    O1 8770   3.655   0.914  16.437  0.0279 -0.1857  0.3384
  591TMC3    O2 8771   3.839   0.276  16.287 -0.0839 -0.2328  0.4372
  592MPD2     C 8772   0.168   1.466  11.206  0.1449  0.2582  0.1722
  592MPD2    C1 8773   0.129   1.554  11.303 -1.0751 -0.2102  0.1183
  592MPD2    C2 8774   0.039   1.512  11.393  0.4503 -0.3981 -0.3270
  592MPD2    C3 8775   4.692   1.392  11.373 -0.1505 -0.0743 -0.1334
  592MPD2    C4 8776   0.008   1.309  11.275 -0.5227  0.5589 -1.1084
  592MPD2    C5 8777   0.110   1.343  11.196 -0.1617  0.1389 -0.0726
  592MPD2     H 8778   0.004   1.567  11.480  0.9251  2.2413 -1.8012
  592MPD2    H1 8779   4.695   1.208  11.271 -1.1176  0.7734 -0.7694
  592MPD2    H2 8780   0.253   1.490  11.144 -0.1609  1.9634  0.4071
  592MPD2    H3 8781   0.139   1.273  11.118  1.3033 -1.3643  1.8055
  592MPD2     N 8782   4.598   1.352  11.467 -0.2390 -0.1862  0.6104
  592MPD2    H5 8783   4.596   1.396  11.558 -1.8983 -1.7482  1.3314
  592MPD2    N1 8784   0.194   1.678  11.302  0.3610  0.0364 -0.4453
  592MPD2    H7 8785   0.242   1.715  11.220  1.9351 -1.4204 -0.1807
  593TMC3    C1 8786   0.257   1.894  11.390 -0.5833 -0.0535  0.3441
  593TMC3    C2 8787   0.227   1.992  11.484  0.1460  0.4468 -0.2453
  593TMC3    C3 8788   0.220   2.121  11.447 -0.0718 -0.0492  0.3193
  593TMC3    C4 8789   0.277   1.934  11.261  0.5792 -0.0300 -0.2238
  593TMC3    C5 8790   0.270   2.063  11.223 -0.1640  0.5532 -0.6724
  593TMC3    C6 8791   0.245   2.159  11.319 -0.2473  0.0657 -0.0827
  593TMC3     C 8792   0.195   1.764  11.410 -0.4795 -0.2161 -1.0794
  593TMC3     O 8793   0.136   1.751  11.516 -0.0825  0.6941  0.3292
  593TMC3     H 8794   0.196   1.960  11.583 -0.7450  2.9303  0.2896
  593TMC3    H1 8795   0.314   1.871  11.181  0.1499  1.4844 -1.6213
  593TMC3    H2 8796   0.235   2.263  11.291 -0.8161 -0.1462 -0.6526
  593TMC3    C7 8797   0.339   2.120  11.106 -0.1481  0.3652 -0.5266
  593TMC3    C8 8798   0.141   2.214  11.529 -0.2184  0.0400  0.6580
  593TMC3    O1 8799   0.392   2.230  11.116  0.0686  0.8356  0.4017
  593TMC3    O2 8800   0.050   2.277  11.469  0.1348 -0.2035  0.2899
  594MPD2     C 8801   2.425   0.480  13.981  0.3600  0.1339 -0.4351
  594MPD2    C1 8802   2.427   0.471  14.119 -0.0720  0.4948 -0.0814
  594MPD2    C2 8803   2.521   0.540  14.191 -0.8492 -0.1289 -0.1227
  594MPD2    C3 8804   2.631   0.582  14.125  0.3698  0.3286 -0.9362
  594MPD2    C4 8805   2.638   0.565  13.988 -0.6300  0.4622 -0.0428
  594MPD2    C5 8806   2.535   0.526  13.914 -0.1109 -0.0696  0.0645
  594MPD2     H 8807   2.506   0.575  14.292 -0.8621 -0.1518 -0.1167
  594MPD2    H1 8808   2.730   0.595  13.939  0.6483  0.5012  2.3990
  594MPD2    H2 8809   2.362   0.410  13.926  2.0028 -2.4560  0.9514
  594MPD2    H3 8810   2.557   0.511  13.809  0.6520  1.7744 -0.0394
  594MPD2     N 8811   2.733   0.642  14.200 -0.3390  0.2981 -0.0126
  594MPD2    H5 8812   2.713   0.641  14.300 -1.1230 -1.5061 -0.1844
  594MPD2    N1 8813   2.316   0.398  14.169 -0.4646 -0.1059 -0.1794
  594MPD2    H7 8814   2.250   0.368  14.098 -2.7758  1.7588  1.1347
  595TMC3    C1 8815   3.130   0.860  14.326  0.0240  0.2903  0.1623
  595TMC3    C2 8816   3.068   0.773  14.239  0.2961 -0.1644  0.1789
  595TMC3    C3 8817   2.935   0.754  14.270 -0.4338  0.2013 -0.4168
  595TMC3    C4 8818   3.074   0.910  14.436 -0.0525 -0.5509 -0.2818
  595TMC3    C5 8819   2.948   0.870  14.469  0.2088  0.2732  0.6151
  595TMC3    C6 8820   2.878   0.789  14.390  0.3657  0.4185 -0.2288
  595TMC3     C 8821   3.278   0.890  14.311 -0.4685  0.0132 -0.2075
  595TMC3     O 8822   3.334   0.946  14.401  0.0118  0.0718 -0.2945
  595TMC3     H 8823   3.105   0.759  14.138  1.6450  0.4341  0.5834
  595TMC3    H1 8824   3.134   0.977  14.497 -0.6366 -0.6195  0.3712
  595TMC3    H2 8825   2.778   0.763  14.423  1.2078 -0.4806  1.6438
  595TMC3    C7 8826   2.883   0.922  14.588  0.2090  0.0987  0.1040
  595TMC3    C8 8827   2.857   0.690  14.160  0.0343  0.2774 -0.2389
  595TMC3    O1 8828   2.761   0.918  14.591 -0.4351 -0.2094  0.1401
  595TMC3    O2 8829   2.909   0.670  14.054  0.3868 -0.6950  0.7610
  596MPD2     C 8830   1.990   3.790  17.211 -0.8687 -0.0007  1.0066
  596MPD2    C1 8831   1.968   3.891  17.115 -0.2446 -0.4211  0.3683
  596MPD2    C2 8832   1.965   3.855  16.980 -0.1453 -0.0630  0.3664
  596MPD2    C3 8833   1.998   3.724  16.944  0.3079 -0.6991  0.0650
  596MPD2    C4 8834   2.021   3.622  17.039  0.0401 -0.9009  0.5388
  596MPD2    C5 8835   2.011   3.657  17.175  0.0323  0.6197  0.4957
  596MPD2     H 8836   1.953   3.939  16.913 -1.2545  0.5609  1.3418
  596MPD2    H1 8837   2.029   3.518  17.010  2.3613 -0.6312  0.1875
  596MPD2    H2 8838   1.988   3.806  17.318  1.6841 -1.4577  1.2697
  596MPD2    H3 8839   2.025   3.578  17.248 -1.3861 -0.1007 -0.0144
  596MPD2     N 8840   2.016   3.680  16.805 -0.0603 -0.2407  0.3687
  596MPD2    H5 8841   2.020   3.581  16.784 -0.6646 -0.1033 -0.4041
  596MPD2    N1 8842   1.939   4.025  17.149 -0.0098  0.4412 -0.4820
  596MPD2    H7 8843   1.932   4.094  17.075 -2.4578  0.8450  0.1316
  597TMC3    C1 8844   1.909   4.216  17.290  0.2413 -0.1062 -0.5144
  597TMC3    C2 8845   1.976   4.293  17.207  0.4978  0.1392  0.0440
  597TMC3    C3 8846   1.981   4.430  17.223  0.3920 -0.1543 -0.1591
  597TMC3    C4 8847   1.831   4.270  17.387 -0.5152 -0.8283  0.3344
  597TMC3    C5 8848   1.839   4.403  17.405  0.0712  0.4308  0.8005
  597TMC3    C6 8849   1.908   4.486  17.322 -0.0773 -1.1639 -0.8408
  597TMC3     C 8850   1.907   4.070  17.275 -0.2025  0.0630 -0.0256
  597TMC3     O 8851   1.882   4.012  17.378  0.1165 -0.1495  0.2031
  597TMC3     H 8852   2.043   4.246  17.135  1.1947  0.4394  0.4966
  597TMC3    H1 8853   1.769   4.207  17.451  1.0476 -1.0013  1.6990
  597TMC3    H2 8854   1.909   4.593  17.332 -0.4038 -1.3296  0.8681
  597TMC3    C7 8855   1.735   4.461  17.495 -0.1788 -0.0264  0.3697
  597TMC3    C8 8856   2.036   4.518  17.127 -0.3180 -0.2533 -0.2285
  597TMC3    O1 8857   1.674   4.388  17.573 -0.0557 -0.6769 -0.1858
  597TMC3    O2 8858   2.011   4.635  17.147 -0.1388 -0.4151 -0.1125
  598TMC3    C1 8859   0.100   0.645  15.584  0.0390  1.0732 -0.1377
  598TMC3    C2 8860   0.053   0.535  15.651  0.6776 -0.2112 -0.7793
  598TMC3    C3 8861   0.100   0.415  15.604 -0.4043 -0.0159 -0.9069
  598TMC3    C4 8862   0.200   0.639  15.485 -0.0679 -0.2974  0.3904
  598TMC3    C5 8863   0.236   0.517  15.442 -0.3373  0.1222  0.9129
  598TMC3    C6 8864   0.197   0.402  15.503  0.5416  0.1632 -0.3277
  598TMC3     C 8865   0.036   0.777  15.599 -0.0015  1.2085  0.3871
  598TMC3     O 8866   0.090   0.866  15.546 -0.5390 -0.6625 -0.2329
  598TMC3     H 8867   4.719   0.537  15.741  2.4518 -2.4369  0.4566
  598TMC3    H1 8868   0.238   0.726  15.432 -2.0597 -0.1058 -0.7202
  598TMC3    H2 8869   0.243   0.309  15.473 -1.0849 -0.8066  0.1585
  598TMC3    C7 8870   0.334   0.499  15.338  0.0461  0.3080  0.4621
  598TMC3    C8 8871   0.073   0.287  15.664  0.1378  0.2567 -0.0702
  598TMC3    O1 8872   0.324   0.399  15.269  0.2438 -0.1741 -0.2141
  598TMC3    O2 8873   0.133   0.189  15.621  0.1543  0.6547 -0.1200
  599MPD2     C 8874   0.179   3.099  15.837 -0.0463 -0.5764 -0.1635
  599MPD2    C1 8875   0.138   2.969  15.821  0.3219 -0.4881 -0.4497
  599MPD2    C2 8876   0.007   2.933  15.865 -0.1869 -0.1657 -0.4533
  599MPD2    C3 8877   4.646   3.032  15.911  0.1963 -0.0884  0.5906
  599MPD2    C4 8878   4.691   3.160  15.917 -0.4268 -0.2637  0.0385
  599MPD2    C5 8879   0.096   3.197  15.883 -0.7821  0.0867 -0.8803
  599MPD2     H 8880   4.686   2.835  15.875 -1.7729  0.6233 -0.0992
  599MPD2    H1 8881   4.627   3.243  15.945  0.7944  1.8332 -3.2137
  599MPD2    H2 8882   0.281   3.121  15.807 -0.1568  0.1913  0.0206
  599MPD2    H3 8883   0.122   3.301  15.900 -1.4819  0.3019 -1.1189
  599MPD2     N 8884   4.514   3.012  15.953  0.2652 -0.3476 -0.5035
  599MPD2    H5 8885   4.465   3.089  15.998  0.6495 -0.1564 -0.4105
  599MPD2    N1 8886   0.232   2.872  15.781  0.4253 -0.0053 -0.2254
  599MPD2    H7 8887   0.326   2.900  15.753  0.1198 -0.5745 -1.8235
  600TMC3    C1 8888   4.304   2.911  15.970 -0.0363 -0.0491  0.1016
  600TMC3    C2 8889   4.204   2.847  15.906 -0.5020 -0.8400  0.2248
  600TMC3    C3 8890   4.110   2.788  15.980  0.1343 -0.2276 -0.6492
  600TMC3    C4 8891   4.289   2.934  16.103  0.6437 -0.6940 -0.1842
  600TMC3    C5 8892   4.191   2.870  16.173  0.8989 -0.0986  0.4469
  600TMC3    C6 8893   4.108   2.780  16.116  0.2617  0.7796 -0.1034
  600TMC3     C 8894   4.437   2.912  15.909 -0.2905 -0.3450 -0.0631
  600TMC3     O 8895   4.455   2.824  15.829  0.7817  0.1700  0.2681
  600TMC3     H 8896   4.211   2.827  15.800 -0.5772  1.1881 -0.1773
  600TMC3    H1 8897   4.363   2.988  16.162  1.7674 -2.6971  0.2212
  600TMC3    H2 8898   4.032   2.730  16.175 -0.4024  1.3017 -0.5159
  600TMC3    C7 8899   4.200   2.881  16.323 -0.2135 -1.2344 -0.2499
  600TMC3    C8 8900   4.005   2.713  15.916 -0.0743 -0.4523  0.2330
  600TMC3    O1 8901   4.249   2.987  16.359  0.6079 -0.2148 -0.0691
  600TMC3    O2 8902   3.950   2.755  15.816  0.3086 -0.2547  0.2170
  601MPD2     C 8903   1.832   1.192   0.761 -0.0594 -0.0904  0.6382
  601MPD2    C1 8904   1.702   1.177   0.741 -0.0870 -0.8323 -0.3805
  601MPD2    C2 8905   1.664   1.047   0.743  0.6000  0.9291 -0.1747
  601MPD2    C3 8906   1.745   0.937   0.766  0.3740  0.7408  0.4779
  601MPD2    C4 8907   1.880   0.959   0.790 -0.7531 -0.0127 -1.0172
  601MPD2    C5 8908   1.920   1.087   0.786 -0.6154 -0.2392 -0.2560
  601MPD2     H 8909   1.558   1.027   0.738  0.9369 -0.9572  0.2136
  601MPD2    H1 8910   1.948   0.876   0.797  0.9918  1.8184  3.4500
  601MPD2    H2 8911   1.874   1.292   0.766 -2.0733  0.7962 -0.2010
  601MPD2    H3 8912   2.025   1.110   0.798 -0.9069 -0.1038  1.9703
  601MPD2     N 8913   1.706   0.804   0.745  0.1733 -0.2312 -0.0927
  601MPD2    H5 8914   1.771   0.727   0.727  0.0395 -0.2399 -0.5370
  601MPD2    N1 8915   1.617   1.278   0.697 -0.0367 -0.2963 -0.3195
  601MPD2    H7 8916   1.518   1.265   0.679 -0.5995  1.7805  1.2127
  602TMC3    C1 8917   1.569   1.462   0.565  0.6909  0.1829  0.6622
  602TMC3    C2 8918   1.609   1.589   0.541  0.6342  0.4540 -0.6255
  602TMC3    C3 8919   1.569   1.648   0.425  0.5684 -0.1764  0.1923
  602TMC3    C4 8920   1.503   1.382   0.468 -0.7865 -0.4233 -0.0400
  602TMC3    C5 8921   1.456   1.449   0.358  0.8227  0.0605 -0.3240
  602TMC3    C6 8922   1.484   1.580   0.337 -0.6440 -0.5259 -0.1119
  602TMC3     C 8923   1.648   1.404   0.671  0.2360 -0.0672  0.3340
  602TMC3     O 8924   1.747   1.465   0.707 -0.5286 -0.1114 -0.1263
  602TMC3     H 8925   1.665   1.644   0.616  0.4268  2.7998 -2.1858
  602TMC3    H1 8926   1.471   1.282   0.493 -1.8868 -0.3654 -1.2222
  602TMC3    H2 8927   1.473   1.616   0.236 -0.1978  0.8884  0.3416
  602TMC3    C7 8928   1.368   1.373   0.268  0.7861  0.3742  0.2812
  602TMC3    C8 8929   1.570   1.793   0.414 -0.1713  0.5676  0.6652
  602TMC3    O1 8930   1.342   1.254   0.292  0.0644  0.2256  0.3513
  602TMC3    O2 8931   1.639   1.869   0.482 -0.1175  0.6984  0.4436
  603TMC3    C1 8932   1.207   0.764  10.954  0.4756  0.1863  0.0063
  603TMC3    C2 8933   1.170   0.787  11.084 -0.1987 -0.3700 -0.0230
  603TMC3    C3 8934   1.095   0.898  11.104 -0.2428  0.5236  0.7356
  603TMC3    C4 8935   1.186   0.855  10.852 -0.0922  0.2943  0.3450
  603TMC3    C5 8936   1.116   0.969  10.892  0.3517 -0.1735 -0.4817
  603TMC3    C6 8937   1.062   0.984  11.011  0.4121  0.3978  0.8474
  603TMC3     C 8938   1.242   0.626  10.929 -0.6556 -1.0178  0.0985
  603TMC3     O 8939   1.275   0.555  11.024 -0.2168 -0.4800 -0.3240
  603TMC3     H 8940   1.189   0.726  11.171  0.3948  1.5246  1.1668
  603TMC3    H1 8941   1.248   0.851  10.763  0.5197 -1.2852  0.8365
  603TMC3    H2 8942   1.030   1.086  11.030 -2.3062 -0.3886  0.4572
  603TMC3    C7 8943   1.130   1.086  10.805 -0.5182  0.1533 -0.9194
  603TMC3    C8 8944   1.056   0.916  11.242 -0.2786  0.1535 -0.0917
  603TMC3    O1 8945   1.129   1.187  10.868  0.1588  0.7719 -0.0566
  603TMC3    O2 8946   1.122   0.867  11.333 -0.4049  0.1750  0.1124
  604MPD2     C 8947   1.194   0.313  16.828  0.1718  0.5404 -0.5362
  604MPD2    C1 8948   1.094   0.345  16.737 -0.0981 -0.1991  0.3499
  604MPD2    C2 8949   1.109   0.307  16.604  0.0866 -0.2669  0.6528
  604MPD2    C3 8950   1.228   0.249  16.560  0.1744 -0.6354  0.1987
  604MPD2    C4 8951   1.329   0.217  16.658  0.2220  0.1920 -0.4898
  604MPD2    C5 8952   1.307   0.252  16.785  0.0101 -0.0534  0.0109
  604MPD2     H 8953   1.032   0.326  16.530  2.2085 -0.6936 -1.6396
  604MPD2    H1 8954   1.422   0.175  16.620 -0.6309 -3.8480  1.9544
  604MPD2    H2 8955   1.186   0.330  16.935 -1.5536 -2.7118 -0.1557
  604MPD2    H3 8956   1.380   0.224  16.859 -0.6289  0.4498  0.8323
  604MPD2     N 8957   1.235   0.228  16.417  0.2531  0.4546  0.5423
  604MPD2    H5 8958   1.152   0.261  16.368  1.8268  2.1671 -0.9549
  604MPD2    N1 8959   1.002   0.441  16.777  0.0571 -0.2817 -0.7328
  604MPD2    H7 8960   1.014   0.495  16.862 -0.4025 -0.1417 -0.7549
  605TMC3    C1 8961   0.829   0.597  16.752 -1.0026 -1.1227 -0.2489
  605TMC3    C2 8962   0.918   0.692  16.800 -0.2802  0.0002  0.0018
  605TMC3    C3 8963   0.855   0.811  16.836  0.4883 -0.0688  0.1059
  605TMC3    C4 8964   0.690   0.625  16.738  0.4694 -0.3876 -0.9192
  605TMC3    C5 8965   0.638   0.751  16.771 -0.1082  0.5759 -0.6001
  605TMC3    C6 8966   0.723   0.839  16.827  0.2142 -0.3499  0.0007
  605TMC3     C 8967   0.885   0.469  16.714  0.0728 -0.6758 -0.8167
  605TMC3     O 8968   0.828   0.405  16.623  0.3073  0.5334 -0.8671
  605TMC3     H 8969   1.026   0.684  16.801 -0.1286  1.5952 -2.6503
  605TMC3    H1 8970   0.621   0.551  16.699  0.4933 -1.2305  0.6392
  605TMC3    H2 8971   0.696   0.942  16.845 -2.1187 -0.6061 -1.9773
  605TMC3    C7 8972   0.510   0.807  16.721  0.8223 -0.9073  0.4389
  605TMC3    C8 8973   0.942   0.904  16.914  0.5607 -0.3366 -0.7545
  605TMC3    O1 8974   0.499   0.930  16.730 -0.1516  0.6750  1.0258
  605TMC3    O2 8975   1.060   0.872  16.908  0.0617 -0.1080  0.3803
  606TMC3    C1 8976   2.128   2.275  17.609 -0.4728  0.1146  0.5259
  606TMC3    C2 8977   2.213   2.374  17.554 -0.2044  0.2187  0.2315
  606TMC3    C3 8978   2.228   2.483  17.630  0.3365  0.5356 -0.1963
  606TMC3    C4 8979   2.061   2.281   0.020  0.5232 -0.2997  0.1765
  606TMC3    C5 8980   2.077   2.400   0.087 -0.6558  1.0576  0.1042
  606TMC3    C6 8981   2.157   2.501   0.045 -0.5206  0.5318  0.3541
  606TMC3     C 8982   2.103   2.159  17.524  0.4249 -0.2003 -0.8721
  606TMC3     O 8983   2.102   2.054  17.583  0.1630 -0.0357  0.4327
  606TMC3     H 8984   2.275   2.360  17.466  0.3008 -1.9281  0.9268
  606TMC3    H1 8985   2.006   2.199   0.065  1.2473 -1.0430 -0.2837
  606TMC3    H2 8986   2.162   2.590   0.107 -1.3950  0.5303  0.4318
  606TMC3    C7 8987   1.961   2.430   0.173 -0.1868  0.2863  0.1656
  606TMC3    C8 8988   2.316   2.592  17.604  0.4394 -0.3136 -0.4073
  606TMC3    O1 8989   1.929   2.339   0.251 -0.5484  0.5473  0.0058
  606TMC3    O2 8990   2.339   2.662  17.701 -0.2417  0.1793 -0.2506
  607MPD2     C 8991   0.191   1.221  11.708 -0.7452  0.3207 -0.4569
  607MPD2    C1 8992   0.252   1.325  11.780 -0.0747 -0.2537  0.4364
  607MPD2    C2 8993   0.213   1.334  11.920 -1.5831 -0.0284 -0.0564
  607MPD2    C3 8994   0.126   1.236  11.977 -0.3633 -0.1314 -0.0849
  607MPD2    C4 8995   0.073   1.140  11.901  1.1801  0.4827  0.3536
  607MPD2    C5 8996   0.106   1.138  11.764  0.1135  0.3272  0.3029
  607MPD2     H 8997   0.251   1.417  11.979 -1.5339  0.7492 -1.1827
  607MPD2    H1 8998   0.011   1.064  11.947 -1.2182  0.3233 -3.1287
  607MPD2    H2 8999   0.202   1.212  11.600  0.5924  2.1247 -0.4679
  607MPD2    H3 9000   0.051   1.062  11.709 -1.5042  0.9387  1.0631
  607MPD2     N 9001   0.109   1.255  12.119 -0.4812  0.6207  0.2253
  607MPD2    H5 9002   0.167   1.331  12.153  0.8654 -0.1192 -0.4186
  607MPD2    N1 9003   0.358   1.407  11.725 -0.1657 -0.7350  0.1323
  607MPD2    H7 9004   0.406   1.474  11.783  1.9472 -0.5135 -1.9065
  608TMC3    C1 9005   0.499   1.502  11.574  0.1221 -0.6880 -0.2798
  608TMC3    C2 9006   0.543   1.566  11.686 -0.2453 -0.0360  0.1136
  608TMC3    C3 9007   0.565   1.706  11.670 -0.3398  0.0528  0.3344
  608TMC3    C4 9008   0.503   1.555  11.451  0.0535  0.7964 -0.2250
  608TMC3    C5 9009   0.555   1.683  11.449 -0.3313 -0.1375  0.4339
  608TMC3    C6 9010   0.574   1.767  11.551  0.4626  0.2811 -0.1281
  608TMC3     C 9011   0.408   1.400  11.595 -0.8686  0.3071  0.3047
  608TMC3     O 9012   0.385   1.327  11.502  0.5092  0.1122  0.1461
  608TMC3     H 9013   0.559   1.518  11.782  1.7542  1.0347  0.3197
  608TMC3    H1 9014   0.466   1.492  11.371  1.6132 -1.1969  0.6162
  608TMC3    H2 9015   0.603   1.871  11.550  1.9910 -0.1659 -2.2445
  608TMC3    C7 9016   0.614   1.721  11.321  0.0904 -0.3457 -0.5098
  608TMC3    C8 9017   0.489   1.788  11.751  0.1960 -0.0997  0.3156
  608TMC3    O1 9018   0.589   1.636  11.235  0.2625 -0.6379 -0.6531
  608TMC3    O2 9019   0.452   1.899  11.710 -0.0617  0.7516  0.2396
  609TMC3    C1 9020   3.366   4.626   8.947 -0.1703 -0.1183 -0.3035
  609TMC3    C2 9021   3.250   4.604   8.876 -0.3114  0.3779  0.2962
  609TMC3    C3 9022   3.266   4.546   8.756 -0.3738  0.2898 -0.2513
  609TMC3    C4 9023   3.488   4.591   8.900  0.9649  0.7316  0.4905
  609TMC3    C5 9024   3.497   4.517   8.787  0.2630  0.0945 -0.1292
  609TMC3    C6 9025   3.391   4.497   8.703  0.5686  1.0062 -0.2672
  609TMC3     C 9026   3.354   4.673   9.082  0.0099  0.2197  0.8136
  609TMC3     O 9027   3.433   4.627   9.161  0.5865 -0.0956 -0.3143
  609TMC3     H 9028   3.149   4.614   8.915  0.6259  0.3280  2.7537
  609TMC3    H1 9029   3.574   4.604   8.965  0.3771  0.5322  1.3076
  609TMC3    H2 9030   3.399   4.458   8.603 -0.7882 -0.4198  0.1721
  609TMC3    C7 9031   3.615   4.442   8.762  1.0785 -0.2412  0.3479
  609TMC3    C8 9032   3.157   4.537   8.666  0.4990  0.0901 -0.4512
  609TMC3    O1 9033   3.716   4.490   8.812 -0.8340  0.4037  0.1012
  609TMC3    O2 9034   3.142   4.437   8.598 -0.4319  0.4679 -0.0266
  610TMC3    C1 9035   0.338   1.277  12.799  1.3706 -0.5735 -0.5181
  610TMC3    C2 9036   0.398   1.392  12.757 -0.0262  0.2171 -0.0033
  610TMC3    C3 9037   0.534   1.376  12.725  0.2529  0.1239  0.4639
  610TMC3    C4 9038   0.395   1.151  12.792  0.6320 -0.2649  0.3764
  610TMC3    C5 9039   0.527   1.148  12.753  0.3013  0.1738 -0.3545
  610TMC3    C6 9040   0.601   1.254  12.726  0.2315 -0.1915 -0.6723
  610TMC3     C 9041   0.203   1.296  12.846  0.4087 -0.1411 -0.2444
  610TMC3     O 9042   0.136   1.363  12.765 -0.2656  0.0697  0.0638
  610TMC3     H 9043   0.346   1.487  12.763 -0.1723  0.2284 -1.3774
  610TMC3    H1 9044   0.340   1.060  12.814  1.8658 -1.0949  0.0343
  610TMC3    H2 9045   0.705   1.255  12.693 -0.5118 -1.4680 -3.0495
  610TMC3    C7 9046   0.579   1.008  12.733 -0.1767  0.0479 -0.4044
  610TMC3    C8 9047   0.615   1.493  12.754 -0.4173 -0.1937  0.3915
  610TMC3    O1 9048   0.530   0.920  12.804 -0.2277  0.4544  0.1967
  610TMC3    O2 9049   0.574   1.568  12.839 -0.0288 -0.2258 -0.1823
  611MPD2     C 9050   0.487   0.470  10.189 -0.4790  0.2270  0.0980
  611MPD2    C1 9051   0.386   0.549  10.132  0.0630 -0.0675 -0.4966
  611MPD2    C2 9052   0.425   0.681  10.093 -0.0390 -0.3120  0.1042
  611MPD2    C3 9053   0.554   0.726  10.110 -0.2652 -0.0570 -0.2280
  611MPD2    C4 9054   0.644   0.646  10.169  0.0018  1.0364  0.0901
  611MPD2    C5 9055   0.610   0.517  10.213 -0.3062 -0.9175 -0.1493
  611MPD2     H 9056   0.352   0.748  10.049  1.4748  1.4212  0.2358
  611MPD2    H1 9057   0.748   0.677  10.167  0.7775 -1.4105  2.4962
  611MPD2    H2 9058   0.469   0.367  10.219  0.8142 -0.8202 -2.6828
  611MPD2    H3 9059   0.689   0.454  10.254  1.8096  1.3397 -0.7789
  611MPD2     N 9060   0.598   0.849  10.068 -0.0559  0.2546 -0.9437
  611MPD2    H5 9061   0.698   0.868  10.070  0.4595 -2.2213 -2.2826
  611MPD2    N1 9062   0.265   0.484  10.098  0.3204 -0.2278  0.5349
  611MPD2    H7 9063   0.261   0.385  10.118  2.3342 -0.8762 -2.2819
  612TMC3    C1 9064   0.593   1.073  10.002 -0.4576  0.1639  0.1514
  612TMC3    C2 9065   0.689   1.101  10.094 -0.2367  0.0215 -0.4689
  612TMC3    C3 9066   0.775   1.208  10.071  0.4576  0.5059  0.0542
  612TMC3    C4 9067   0.571   1.152   9.891 -0.1707  0.0642 -0.3797
  612TMC3    C5 9068   0.653   1.259   9.879 -0.8689 -0.4928  0.2873
  612TMC3    C6 9069   0.759   1.282   9.958 -0.1281  0.5544 -0.4978
  612TMC3     C 9070   0.526   0.940  10.000  0.4099 -0.3021  0.4747
  612TMC3     O 9071   0.417   0.935   9.939 -0.1580 -0.3703 -0.5415
  612TMC3     H 9072   0.695   1.041  10.184  0.8867 -1.9279 -1.8390
  612TMC3    H1 9073   0.513   1.109   9.810  0.3471  1.1708 -1.3437
  612TMC3    H2 9074   0.823   1.368   9.941  1.9276 -1.1245 -1.1868
  612TMC3    C7 9075   0.650   1.335   9.757 -0.3961  0.9017 -0.0712
  612TMC3    C8 9076   0.856   1.261  10.174  0.7999 -0.5613  0.1537
  612TMC3    O1 9077   0.754   1.386   9.721  0.1355 -0.1227 -0.3141
  612TMC3    O2 9078   0.878   1.382  10.159  0.4915  0.2718 -0.0577
  613MPD2     C 9079   3.074   3.969  16.716 -0.0964  0.3225  0.7712
  613MPD2    C1 9080   3.181   3.909  16.654  0.1503  0.8254 -0.1373
  613MPD2    C2 9081   3.170   3.768  16.617  0.3220  0.5139  0.4940
  613MPD2    C3 9082   3.041   3.710  16.623 -0.7526  0.4046  0.0850
  613MPD2    C4 9083   2.934   3.773  16.688  1.2508 -0.0489 -0.0594
  613MPD2    C5 9084   2.959   3.902  16.734  0.5501  0.3651  0.5619
  613MPD2     H 9085   3.240   3.714  16.554 -0.1526  1.4494 -0.8421
  613MPD2    H1 9086   2.834   3.732  16.683  1.3427 -0.3513  0.6728
  613MPD2    H2 9087   3.084   4.073  16.747 -0.4343  0.5498  0.0982
  613MPD2    H3 9088   2.883   3.951  16.794 -2.3479 -2.8372 -0.4592
  613MPD2     N 9089   3.005   3.592  16.547 -0.0026 -0.3472 -0.3861
  613MPD2    H5 9090   2.905   3.579  16.534 -0.1796  0.8999 -0.2657
  613MPD2    N1 9091   3.297   3.990  16.622  0.4998  0.3812  0.4802
  613MPD2    H7 9092   3.286   4.091  16.628  0.5473  0.4591 -0.7186
  614TMC3    C1 9093   3.490   4.021  16.479  0.6476 -0.1867  0.9329
  614TMC3    C2 9094   3.548   3.936  16.392  0.6198 -0.6563  0.7905
  614TMC3    C3 9095   3.525   3.952  16.259 -0.8767  0.0548 -0.1925
  614TMC3    C4 9096   3.409   4.128  16.429  0.9226  0.2329  0.5850
  614TMC3    C5 9097   3.387   4.132  16.294 -0.2835  0.0021  0.6779
  614TMC3    C6 9098   3.445   4.047  16.204  0.0165 -0.3855 -0.4686
  614TMC3     C 9099   3.414   3.935  16.577  0.7675 -0.1971  0.4061
  614TMC3     O 9100   3.457   3.820  16.578 -0.0292 -0.0868 -0.0504
  614TMC3     H 9101   3.614   3.853  16.417 -0.2085 -0.9991  1.8555
  614TMC3    H1 9102   3.377   4.209  16.494  0.1234 -0.0937  0.5960
  614TMC3    H2 9103   3.419   4.049  16.099  0.1005  1.3374 -0.4565
  614TMC3    C7 9104   3.272   4.210  16.257  0.3994  0.9544 -0.2811
  614TMC3    C8 9105   3.533   3.830  16.179  0.6523  0.5938 -0.0936
  614TMC3    O1 9106   3.268   4.326  16.294 -0.0042 -0.2731  0.8457
  614TMC3    O2 9107   3.515   3.733  16.248 -0.3214 -0.5509 -0.2324
  615MPD2     C 9108   2.470   0.772  16.629 -0.1563 -0.0378  0.5823
  615MPD2    C1 9109   2.504   0.877  16.543  0.0177 -0.8952 -0.0282
  615MPD2    C2 9110   2.444   0.871  16.413  1.5218 -0.2459  0.0843
  615MPD2    C3 9111   2.372   0.765  16.376 -0.0620  0.5722  0.2946
  615MPD2    C4 9112   2.352   0.661  16.459 -0.1696  0.3287 -0.4637
  615MPD2    C5 9113   2.404   0.661  16.588  0.2399  0.3055 -0.0325
  615MPD2     H 9114   2.443   0.957  16.347  1.2727  1.4204  2.2450
  615MPD2    H1 9115   2.285   0.580  16.432  1.1743 -1.0382  0.2575
  615MPD2    H2 9116   2.514   0.774  16.728 -1.8620 -0.4192  1.3501
  615MPD2    H3 9117   2.371   0.581  16.653  2.1462 -1.4622 -1.2411
  615MPD2     N 9118   2.319   0.753  16.246 -0.0389  0.0202  0.0799
  615MPD2    H5 9119   2.245   0.683  16.239  2.4043 -2.7497  2.2067
  615MPD2    N1 9120   2.582   0.990  16.572 -0.4520 -0.3365  0.6050
  615MPD2    H7 9121   2.606   1.045  16.490  0.8178  1.7021  2.3120
  616TMC3    C1 9122   2.713   1.142  16.707  0.4789 -0.3533 -0.0195
  616TMC3    C2 9123   2.767   1.198  16.593 -0.0473 -0.9013  0.0760
  616TMC3    C3 9124   2.860   1.301  16.607  0.1025  0.1724 -0.5705
  616TMC3    C4 9125   2.737   1.200  16.829  0.5802  0.3936  0.5309
  616TMC3    C5 9126   2.820   1.311  16.839  0.4475 -0.0618  0.4453
  616TMC3    C6 9127   2.885   1.364  16.730  0.2635 -0.1050  0.4986
  616TMC3     C 9128   2.631   1.021  16.703  0.1084  0.2329 -0.0433
  616TMC3     O 9129   2.602   0.964  16.804 -0.5423 -0.3499 -0.0436
  616TMC3     H 9130   2.749   1.159  16.493 -3.7437 -1.3506  0.9448
  616TMC3    H1 9131   2.684   1.167  16.917 -0.3820  1.0233  0.1893
  616TMC3    H2 9132   2.958   1.443  16.741 -2.0922  1.9974  1.0721
  616TMC3    C7 9133   2.822   1.374  16.969  0.1447 -0.6927  0.1562
  616TMC3    C8 9134   2.906   1.375  16.488 -0.3164 -0.0508 -0.1544
  616TMC3    O1 9135   2.926   1.436  17.001 -0.4599 -0.0909 -0.4634
  616TMC3    O2 9136   2.818   1.401  16.404 -0.5728  0.5404 -0.1506
  617MPD2     C 9137   0.773   2.683  13.632 -0.6574 -1.0551  0.3654
  617MPD2    C1 9138   0.805   2.680  13.768  0.5652  0.1286  0.6400
  617MPD2    C2 9139   0.717   2.732  13.863  0.1709 -0.2996 -0.0450
  617MPD2    C3 9140   0.600   2.796  13.820  0.2834 -0.6138  0.2599
  617MPD2    C4 9141   0.577   2.808  13.682 -0.3581 -0.2819 -0.2674
  617MPD2    C5 9142   0.658   2.747  13.594 -0.9127  0.0331 -0.2170
  617MPD2     H 9143   0.744   2.730  13.968 -1.6708 -1.2440  0.4087
  617MPD2    H1 9144   0.494   2.870  13.650 -0.3153 -0.0705  0.0274
  617MPD2    H2 9145   0.839   2.644  13.556  2.1041 -1.4215  2.9401
  617MPD2    H3 9146   0.644   2.775  13.490 -1.5344  1.2599  0.2044
  617MPD2     N 9147   0.496   2.846  13.912  0.7478  0.4385 -0.0750
  617MPD2    H5 9148   0.419   2.895  13.867  1.4335  0.4021 -1.2998
  617MPD2    N1 9149   0.943   2.657  13.810  0.1804  0.6946  0.8627
  617MPD2    H7 9150   0.963   2.685  13.905 -0.3454  0.1484  1.1430
  618TMC3    C1 9151   1.168   2.610  13.790  0.0339  0.0121 -0.0246
  618TMC3    C2 9152   1.264   2.525  13.743  0.3321 -0.3698  0.0528
  618TMC3    C3 9153   1.397   2.559  13.754 -0.3520 -0.5129  0.5520
  618TMC3    C4 9154   1.205   2.736  13.843 -0.0256 -0.1503  0.2145
  618TMC3    C5 9155   1.333   2.764  13.853  0.0849  0.0579 -0.1849
  618TMC3    C6 9156   1.435   2.678  13.813 -0.3456 -0.4028 -0.2339
  618TMC3     C 9157   1.038   2.594  13.735  0.3792 -0.0870  0.3184
  618TMC3     O 9158   1.011   2.511  13.649  0.1933 -0.2570  0.2904
  618TMC3     H 9159   1.218   2.447  13.685 -2.3570 -0.2242  1.9986
  618TMC3    H1 9160   1.136   2.817  13.863 -1.8299 -1.4219 -0.8837
  618TMC3    H2 9161   1.536   2.708  13.839  0.4144 -3.7346  0.7592
  618TMC3    C7 9162   1.349   2.905  13.885 -0.0969 -0.2887 -0.4869
  618TMC3    C8 9163   1.480   2.486  13.661  0.1276  0.1344 -0.5071
  618TMC3    O1 9164   1.314   2.937  13.998  0.1415  0.0085  0.4585
  618TMC3    O2 9165   1.429   2.396  13.597 -0.0452 -0.3255  0.0332
  619MPD2     C 9166   2.332   4.310  14.206  0.3605 -0.4547  0.3562
  619MPD2    C1 9167   2.266   4.290  14.088  0.5835 -0.4843  0.5780
  619MPD2    C2 9168   2.151   4.213  14.097  0.5388  1.2384 -0.1199
  619MPD2    C3 9169   2.098   4.161  14.211  0.1934  0.9585 -0.5017
  619MPD2    C4 9170   2.165   4.192  14.329  0.6013 -0.1537  0.4589
  619MPD2    C5 9171   2.275   4.266  14.321  0.0432 -0.7085 -0.1515
  619MPD2     H 9172   2.086   4.195  14.012  1.2725 -0.2177 -0.3803
  619MPD2    H1 9173   2.139   4.156  14.428 -1.0615  0.6219  0.3079
  619MPD2    H2 9174   2.434   4.346  14.207  0.3015 -0.2830 -0.3607
  619MPD2    H3 9175   2.328   4.305  14.406 -1.8387 -0.1672  0.7880
  619MPD2     N 9176   1.998   4.057  14.216 -0.1488  0.6891  0.7679
  619MPD2    H5 9177   1.969   4.030  14.309 -0.3417  0.6065  0.6850
  619MPD2    N1 9178   2.301   4.334  13.962 -0.0315 -0.0817 -0.6421
  619MPD2    H7 9179   2.245   4.293  13.889 -1.1750  0.1206  0.1190
  620TMC3    C1 9180   2.388   4.458  13.796  0.3137  0.6190 -0.0859
  620TMC3    C2 9181   2.318   4.384  13.703 -0.2174 -0.1883  0.1740
  620TMC3    C3 9182   2.283   4.444  13.585  1.1231  0.8643  0.1948
  620TMC3    C4 9183   2.422   4.588  13.768  0.3074 -0.4106 -0.8013
  620TMC3    C5 9184   2.364   4.648  13.659 -0.1224 -0.1693  0.0161
  620TMC3    C6 9185   2.298   4.578  13.562 -0.0225 -0.2131  0.1796
  620TMC3     C 9186   2.404   4.422  13.935 -0.1260 -0.7268  0.3291
  620TMC3     O 9187   2.466   4.489  14.018 -0.1099 -0.3682  0.8432
  620TMC3     H 9188   2.325   4.276  13.713  0.3907 -0.0918  0.7379
  620TMC3    H1 9189   2.468   4.653  13.840 -1.1597  0.7158 -0.8613
  620TMC3    H2 9190   2.265   4.624  13.469 -2.2747  0.6034  1.3923
  620TMC3    C7 9191   2.377   0.069  13.658  0.1580  0.3254  0.0927
  620TMC3    C8 9192   2.183   4.374  13.502  0.8062  0.2222 -0.0656
  620TMC3    O1 9193   2.458   0.129  13.730 -0.7016  0.0264 -0.2931
  620TMC3    O2 9194   2.114   4.438  13.425 -0.1746 -0.5919  0.0617
  621MPD2     C 9195   3.427   3.523  10.514  0.3764  0.4811 -0.3186
  621MPD2    C1 9196   3.476   3.506  10.380  0.6233 -0.0831 -0.2584
  621MPD2    C2 9197   3.526   3.621  10.316 -0.4200 -0.3199 -0.3463
  621MPD2    C3 9198   3.515   3.747  10.377  0.6962 -0.1074 -0.1834
  621MPD2    C4 9199   3.464   3.755  10.508  0.0499  0.1412 -0.0180
  621MPD2    C5 9200   3.426   3.647  10.577 -0.8195 -0.5082  0.0136
  621MPD2     H 9201   3.572   3.600  10.220  0.3907  0.2324 -0.0747
  621MPD2    H1 9202   3.462   3.841  10.574  0.9426  1.0704 -1.2108
  621MPD2    H2 9203   3.391   3.439  10.572  0.5444  1.0075  0.5428
  621MPD2    H3 9204   3.383   3.650  10.677 -0.6687 -0.5863  0.0826
  621MPD2     N 9205   3.573   3.855  10.318  0.6357 -0.4518 -0.1964
  621MPD2    H5 9206   3.612   3.837  10.226  0.8193  2.0940 -0.6368
  621MPD2    N1 9207   3.452   3.398  10.293 -0.3939  0.7798 -0.3258
  621MPD2    H7 9208   3.483   3.419  10.199 -1.8624 -0.0330 -0.9983
  622TMC3    C1 9209   3.325   3.224  10.209 -0.0178  0.8543 -0.7990
  622TMC3    C2 9210   3.290   3.095  10.232  0.0101 -0.0363  0.5245
  622TMC3    C3 9211   3.169   3.063  10.178  0.1292  0.4301  0.2366
  622TMC3    C4 9212   3.250   3.308  10.130  0.4793 -0.0913 -0.0147
  622TMC3    C5 9213   3.143   3.260  10.060 -0.4306  0.2120 -0.1450
  622TMC3    C6 9214   3.099   3.129  10.080 -0.2219 -0.8525  0.1033
  622TMC3     C 9215   3.395   3.279  10.326  0.1156 -0.5082  0.7773
  622TMC3     O 9216   3.374   3.229  10.437  0.1540  0.1387 -0.0336
  622TMC3     H 9217   3.326   3.032  10.313  0.3155 -0.3457  0.1489
  622TMC3    H1 9218   3.278   3.411  10.108 -0.7187  0.2996  0.2727
  622TMC3    H2 9219   3.006   3.097  10.034  0.1188 -2.4286  0.4952
  622TMC3    C7 9220   3.050   3.345   9.993 -0.5576  0.3027 -0.0279
  622TMC3    C8 9221   3.105   2.947  10.245 -0.0849  0.4637 -0.4638
  622TMC3    O1 9222   2.938   3.305   9.972 -0.5100  0.0284 -0.2700
  622TMC3    O2 9223   3.168   2.844  10.263 -0.0628 -0.7528 -0.0629
  623MPD2     C 9224   1.374   0.594  16.597 -0.3473 -0.3629  0.1145
  623MPD2    C1 9225   1.316   0.717  16.620  0.0245  0.1442  0.1638
  623MPD2    C2 9226   1.366   0.797  16.720  0.1382  0.3513  0.8383
  623MPD2    C3 9227   1.475   0.759  16.796  0.1690 -1.2111 -0.4502
  623MPD2    C4 9228   1.536   0.637  16.768 -0.0560  0.1400 -0.6970
  623MPD2    C5 9229   1.487   0.561  16.665  0.7684 -0.9398 -0.0888
  623MPD2     H 9230   1.322   0.897  16.727 -2.4445 -0.7422  0.3467
  623MPD2    H1 9231   1.630   0.600  16.807  0.6464 -0.7401 -3.1890
  623MPD2    H2 9232   1.342   0.522  16.523 -1.5672  0.6408 -0.3446
  623MPD2    H3 9233   1.541   0.472  16.634 -2.0489 -2.3072 -1.0454
  623MPD2     N 9234   1.520   0.856  16.887  0.1961 -0.5029 -0.4365
  623MPD2    H5 9235   1.459   0.937  16.898 -2.0571 -2.4028  1.3463
  623MPD2    N1 9236   1.197   0.751  16.553 -0.0744  0.0360  0.0460
  623MPD2    H7 9237   1.156   0.840  16.578  0.4736  0.4508 -0.5234
  624TMC3    C1 9238   1.737   1.086  17.227  0.0057  0.4860 -0.0028
  624TMC3    C2 9239   1.620   1.130  17.287 -0.3461 -0.0642 -0.4777
  624TMC3    C3 9240   1.502   1.090  17.235 -0.7462  0.2968  0.6359
  624TMC3    C4 9241   1.734   0.994  17.132  0.0281 -0.3948 -0.0697
  624TMC3    C5 9242   1.612   0.940  17.091  0.0526  0.4476 -0.1819
  624TMC3    C6 9243   1.501   0.998  17.135 -0.0622 -0.2592  0.5865
  624TMC3     C 9244   1.856   1.107  17.302 -0.0164 -0.2094 -0.0749
  624TMC3     O 9245   1.845   1.144  17.419 -0.2350  0.1453  0.0821
  624TMC3     H 9246   1.628   1.215  17.354 -1.6667 -1.7856  1.8621
  624TMC3    H1 9247   1.825   0.939  17.110 -0.2664  0.0370 -2.4236
  624TMC3    H2 9248   1.412   0.947  17.098 -1.5397 -0.1425  4.0310
  624TMC3    C7 9249   1.618   0.841  16.983  0.0561  0.3138  0.0495
  624TMC3    C8 9250   1.379   1.150  17.281 -0.1965 -0.3248  0.5653
  624TMC3    O1 9251   1.720   0.772  16.976 -0.2854  0.4499 -0.4528
  624TMC3    O2 9252   1.373   1.195  17.396  0.6423  0.3031  0.3149
  625MPD2     C 9253   0.952   1.248   0.754 -0.6134  0.1119 -0.6475
  625MPD2    C1 9254   1.008   1.288   0.877 -0.2539  0.1141  0.4503
  625MPD2    C2 9255   1.061   1.188   0.962 -0.5133  0.3315  0.2020
  625MPD2    C3 9256   1.064   1.055   0.924  0.7168 -0.2976  0.4071
  625MPD2    C4 9257   1.026   1.023   0.797 -0.0293 -0.9115 -0.9661
  625MPD2    C5 9258   0.967   1.113   0.719  0.4040 -0.7734 -0.1016
  625MPD2     H 9259   1.089   1.209   1.065  2.5961  1.9304 -0.9617
  625MPD2    H1 9260   1.023   0.925   0.752 -1.2200 -1.2377 -0.2056
  625MPD2    H2 9261   0.919   1.323   0.684 -0.5633  1.2729  0.5901
  625MPD2    H3 9262   0.921   1.086   0.624 -1.7153 -1.9212  1.2501
  625MPD2     N 9263   1.120   0.958   1.012 -0.2327  0.5277 -0.3890
  625MPD2    H5 9264   1.162   0.990   1.099 -2.9814 -1.4952  1.6476
  625MPD2    N1 9265   0.999   1.430   0.914 -0.3795 -0.3800 -0.3705
  625MPD2    H7 9266   1.040   1.455   1.004  0.1202 -0.5397 -0.5537
  626TMC3    C1 9267   0.979   1.661   0.888  0.4387 -0.6495  0.4662
  626TMC3    C2 9268   0.979   1.778   0.807 -0.0046 -0.3023 -0.0841
  626TMC3    C3 9269   1.031   1.902   0.852  0.3795 -0.1338  0.1346
  626TMC3    C4 9270   1.039   1.675   1.011 -0.1802 -0.3406 -0.1265
  626TMC3    C5 9271   1.087   1.799   1.049  0.3569  0.8942  0.4771
  626TMC3    C6 9272   1.077   1.911   0.978 -0.0465 -1.0963 -0.3331
  626TMC3     C 9273   0.959   1.533   0.831 -0.6282  0.3910  0.4640
  626TMC3     O 9274   0.907   1.543   0.721  0.1527  0.3249  0.0331
  626TMC3     H 9275   0.943   1.787   0.705 -1.0348 -0.5713  0.2639
  626TMC3    H1 9276   1.033   1.598   1.087  1.6187  1.2844  1.6608
  626TMC3    H2 9277   1.124   2.006   1.003  0.1501 -0.7586 -2.0084
  626TMC3    C7 9278   1.174   1.809   1.161 -0.2402  0.0918 -0.7451
  626TMC3    C8 9279   1.019   2.021   0.765  0.1533 -0.6512 -0.0993
  626TMC3    O1 9280   1.211   1.696   1.187  0.1761 -0.4707 -0.2457
  626TMC3    O2 9281   1.007   1.994   0.646  0.7666  0.5805 -0.9242
  627MPD2     C 9282   0.503   1.775  14.234  0.2601  0.0872 -0.4863
  627MPD2    C1 9283   0.478   1.798  14.369  0.3739  0.0618 -0.4869
  627MPD2    C2 9284   0.376   1.723  14.439 -0.5439 -0.0679  0.2936
  627MPD2    C3 9285   0.304   1.625  14.361  0.3706 -0.4328 -0.0438
  627MPD2    C4 9286   0.335   1.608  14.228 -0.5251 -0.5189  0.1527
  627MPD2    C5 9287   0.433   1.677  14.166 -0.1454 -0.1433  0.9543
  627MPD2     H 9288   0.364   1.731  14.546 -1.2439  2.8464 -0.0111
  627MPD2    H1 9289   0.287   1.528  14.173 -1.0775 -0.8269  1.0925
  627MPD2    H2 9290   0.573   1.836  14.178 -0.5327  2.5574  1.2192
  627MPD2    H3 9291   0.461   1.657  14.063  0.6306 -1.1422  1.3700
  627MPD2     N 9292   0.214   1.539  14.433 -0.7100 -0.1553 -0.1625
  627MPD2    H5 9293   0.212   1.555  14.533 -2.0333 -0.5866 -0.1295
  627MPD2    N1 9294   0.569   1.898  14.431  0.1606  0.2184 -0.8680
  627MPD2    H7 9295   0.641   1.934  14.370  0.0881  1.5177 -0.1791
  628TMC3    C1 9296   0.665   2.046  14.564  0.0935 -0.6794  0.7522
  628TMC3    C2 9297   0.791   1.988  14.576  0.1950  0.0723 -0.0818
  628TMC3    C3 9298   0.876   2.043  14.671  0.6615 -0.6263 -0.3353
  628TMC3    C4 9299   0.623   2.157  14.635  0.5873 -0.2583  0.6521
  628TMC3    C5 9300   0.719   2.206  14.726  0.2030 -0.8544  0.8108
  628TMC3    C6 9301   0.835   2.139  14.756  0.2062  0.3320 -0.6070
  628TMC3     C 9302   0.561   1.947  14.554  0.3416 -0.0884 -0.9475
  628TMC3     O 9303   0.475   1.939  14.636 -0.3099  0.1880 -0.0545
  628TMC3     H 9304   0.827   1.902  14.519 -2.0110 -2.1073  1.7876
  628TMC3    H1 9305   0.518   2.184  14.635  0.4257 -0.8802  1.1996
  628TMC3    H2 9306   0.910   2.178  14.825 -0.2326  1.5151 -0.8103
  628TMC3    C7 9307   0.717   2.345  14.764  0.4726  0.0117  0.2425
  628TMC3    C8 9308   1.009   1.990  14.683  0.0157  0.2389 -0.1175
  628TMC3    O1 9309   0.780   2.378  14.864  0.0221  0.0441 -0.5149
  628TMC3    O2 9310   1.047   1.936  14.582 -0.4146  0.0844  0.5061
  629MPD2     C 9311   3.249   1.606  16.191  0.1094  0.2046 -0.0615
  629MPD2    C1 9312   3.313   1.561  16.304  0.5046  0.4760  0.3127
  629MPD2    C2 9313   3.238   1.503  16.410  0.4235 -0.0178 -0.3383
  629MPD2    C3 9314   3.103   1.483  16.391 -0.4167  0.4488 -0.2447
  629MPD2    C4 9315   3.051   1.512  16.266 -0.2430 -0.8559  0.2897
  629MPD2    C5 9316   3.119   1.572  16.174 -0.3688 -0.3863  0.3182
  629MPD2     H 9317   3.273   1.492  16.512 -1.7057  0.0234  0.3866
  629MPD2    H1 9318   2.944   1.504  16.247  0.1112 -2.4838 -1.0108
  629MPD2    H2 9319   3.299   1.659  16.111  3.6954 -0.2003  1.9253
  629MPD2    H3 9320   3.072   1.594  16.079  1.1918  0.5227 -0.2292
  629MPD2     N 9321   3.029   1.426  16.496  0.4126 -0.4486  0.1249
  629MPD2    H5 9322   3.090   1.397  16.572  1.0330  2.2712  0.6497
  629MPD2    N1 9323   3.449   1.581  16.313  0.8152 -0.6770  0.1666
  629MPD2    H7 9324   3.482   1.624  16.227 -1.1693  0.6511  0.0634
  630TMC3    C1 9325   3.670   1.554  16.389 -0.1054  0.8101  0.8951
  630TMC3    C2 9326   3.712   1.680  16.342 -0.0426 -0.7317 -0.0809
  630TMC3    C3 9327   3.837   1.722  16.382 -0.1710  0.2057 -0.0205
  630TMC3    C4 9328   3.756   1.467  16.451 -0.2421 -0.0005 -0.9082
  630TMC3    C5 9329   3.878   1.506  16.487 -0.7041 -0.3109  0.2236
  630TMC3    C6 9330   3.927   1.625  16.438  0.7520 -0.0898  0.1179
  630TMC3     C 9331   3.529   1.528  16.409 -1.1446  0.0067 -0.7869
  630TMC3     O 9332   3.502   1.465  16.512  0.1862  0.2788  0.1856
  630TMC3     H 9333   3.631   1.750  16.324  0.4028  0.4024  2.3189
  630TMC3    H1 9334   3.707   1.386  16.504  1.2841 -0.5166 -0.2681
  630TMC3    H2 9335   4.026   1.661  16.461  0.5285 -0.2720  1.3432
  630TMC3    C7 9336   3.922   1.464  16.616  0.3253 -0.4452 -0.0001
  630TMC3    C8 9337   3.842   1.832  16.472  0.4959  0.7165 -0.0573
  630TMC3    O1 9338   3.900   1.348  16.657 -0.0767  0.5857  0.2393
  630TMC3    O2 9339   3.896   1.812  16.578  0.3083  0.1316 -0.3014
  631MPD2     C 9340   1.502   0.534  15.951  0.2039 -0.1787  0.3320
  631MPD2    C1 9341   1.538   0.594  15.836 -0.3389 -0.2866 -0.5205
  631MPD2    C2 9342   1.675   0.616  15.801  0.0402  0.4827  0.1631
  631MPD2    C3 9343   1.768   0.564  15.892 -0.1111 -0.3918  0.2668
  631MPD2    C4 9344   1.734   0.498  16.009  0.5180  0.4819 -0.7270
  631MPD2    C5 9345   1.603   0.481  16.040  0.1607  0.3698  0.0775
  631MPD2     H 9346   1.693   0.677  15.713  2.5585  0.6163  0.7812
  631MPD2    H1 9347   1.811   0.455  16.072  0.2011 -0.2622 -0.8418
  631MPD2    H2 9348   1.398   0.516  15.975 -0.6028  1.8201 -1.7155
  631MPD2    H3 9349   1.583   0.437  16.137  0.2419  0.9990  0.3776
  631MPD2     N 9350   1.896   0.597  15.860  0.2440  0.3915 -0.8559
  631MPD2    H5 9351   1.913   0.632  15.767  0.6040  0.8836 -0.6032
  631MPD2    N1 9352   1.432   0.625  15.748 -0.3769  0.3151 -0.1083
  631MPD2    H7 9353   1.341   0.621  15.791 -1.7552  2.2634 -2.8424
  632TMC3    C1 9354   1.326   0.684  15.544  0.2344  0.1436 -0.1750
  632TMC3    C2 9355   1.241   0.770  15.607  0.2027  0.3422 -0.0130
  632TMC3    C3 9356   1.144   0.830  15.525  0.2105  0.6766  0.0086
  632TMC3    C4 9357   1.327   0.653  15.410  0.0281  0.1597 -0.4588
  632TMC3    C5 9358   1.238   0.730  15.338 -0.5601  0.6888 -0.0250
  632TMC3    C6 9359   1.139   0.812  15.390 -0.2922 -0.4695  0.6665
  632TMC3     C 9360   1.451   0.649  15.612 -0.6974  0.8352 -1.0441
  632TMC3     O 9361   1.545   0.631  15.540 -0.5261 -0.1576  0.0706
  632TMC3     H 9362   1.259   0.799  15.710 -1.7542  3.4573 -0.5562
  632TMC3    H1 9363   1.418   0.611  15.369  0.5720  1.7277 -0.8430
  632TMC3    H2 9364   1.075   0.875  15.329  1.2288 -1.3519 -1.8441
  632TMC3    C7 9365   1.225   0.706  15.195 -0.3967  1.0416  0.2967
  632TMC3    C8 9366   1.044   0.906  15.588  0.3214  0.4173 -0.3683
  632TMC3    O1 9367   1.175   0.792  15.124 -0.0222  0.1318  0.0903
  632TMC3    O2 9368   1.071   0.952  15.696 -0.6459  0.5349  0.0525
  633MPD2     C 9369   1.479   3.862   0.100  0.0663 -0.8380  0.2050
  633MPD2    C1 9370   1.448   3.775  17.702  0.0248 -0.2144 -0.1852
  633MPD2    C2 9371   1.398   3.655   0.031 -0.3255 -0.0363  0.2548
  633MPD2    C3 9372   1.374   3.619   0.162 -0.4615  0.7176  0.0333
  633MPD2    C4 9373   1.414   3.701   0.263 -0.2577 -0.3454  0.4545
  633MPD2    C5 9374   1.471   3.822   0.237 -0.7429  0.1746 -0.0654
  633MPD2     H 9375   1.383   3.582  17.656  0.4900  0.5634 -0.4482
  633MPD2    H1 9376   1.408   3.672   0.367 -1.6128  1.4277  0.8657
  633MPD2    H2 9377   1.526   3.955   0.068  1.4698 -2.1632 -1.5505
  633MPD2    H3 9378   1.501   3.894   0.311 -0.5036  1.1481 -1.1093
  633MPD2     N 9379   1.328   3.485   0.197 -0.2458  0.7341  1.2622
  633MPD2    H5 9380   1.337   3.445   0.290 -2.4206  1.0499  1.6098
  633MPD2    N1 9381   1.465   3.790  17.562  0.2909  0.4501 -0.4657
  633MPD2    H7 9382   1.437   3.708  17.510  0.8007  0.5721 -0.9349
  634TMC3    C1 9383   1.525   3.891  17.350  0.0232 -0.3288 -0.8459
  634TMC3    C2 9384   1.557   3.769  17.293  0.3468  0.0353 -0.0524
  634TMC3    C3 9385   1.604   3.775  17.163 -0.1280 -0.5740 -0.6826
  634TMC3    C4 9386   1.545   4.005  17.283  1.1850  0.6730 -0.3929
  634TMC3    C5 9387   1.609   4.000  17.157 -0.3901  0.2529 -0.5937
  634TMC3    C6 9388   1.629   3.887  17.089  0.2590 -0.2649  0.6901
  634TMC3     C 9389   1.491   3.903  17.497 -0.6405 -0.0824  0.0856
  634TMC3     O 9390   1.516   4.014  17.546 -0.0518 -0.3313 -0.1545
  634TMC3     H 9391   1.549   3.677  17.349  2.1571 -1.0334 -1.5690
  634TMC3    H1 9392   1.510   4.098  17.327  0.0483 -1.0889  2.3871
  634TMC3    H2 9393   1.678   3.891  16.992 -1.1203  2.3958  0.1069
  634TMC3    C7 9394   1.598   4.120  17.074 -0.2102  0.3074  0.0923
  634TMC3    C8 9395   1.621   3.645  17.099  0.6662 -0.0305 -0.9480
  634TMC3    O1 9396   1.658   4.115  16.963  0.0109 -0.3236 -0.6583
  634TMC3    O2 9397   1.604   3.547  17.168  0.0926 -0.3270 -0.1181
  635TMC3    C1 9398   2.006   0.121  17.650  0.3126 -0.1604 -0.5239
  635TMC3    C2 9399   2.113   0.042  17.632 -0.0770  0.2310 -0.4102
  635TMC3    C3 9400   2.151   0.021  17.505 -0.2541 -0.5106 -0.1555
  635TMC3    C4 9401   1.954   0.185  17.545 -0.1564  0.0904  0.6363
  635TMC3    C5 9402   1.989   0.160  17.416 -0.3726 -0.1848 -0.5804
  635TMC3    C6 9403   2.085   0.069  17.392 -0.8236  0.1801  0.2298
  635TMC3     C 9404   1.967   0.166   0.077 -0.3930 -0.4973 -0.1608
  635TMC3     O 9405   1.855   0.220   0.089  0.0014  0.6002  0.2471
  635TMC3     H 9406   2.144   4.702   0.008  0.3286  0.0852 -0.6894
  635TMC3    H1 9407   1.872   0.254  17.562  0.5836  0.6480  1.9234
  635TMC3    H2 9408   2.124   0.065  17.291 -1.4018 -2.2736  0.0903
  635TMC3    C7 9409   1.909   0.227  17.315 -0.0989 -0.5520 -0.1571
  635TMC3    C8 9410   2.235   4.633  17.473 -0.4260  0.4406  0.0619
  635TMC3    O1 9411   1.839   0.323  17.346 -0.0643 -0.7697  0.3782
  635TMC3    O2 9412   2.241   4.615  17.351 -0.0058 -0.4076  0.0772
  636MPD2     C 9413   2.527   3.935  15.979  0.9189 -0.0431 -0.9218
  636MPD2    C1 9414   2.600   3.970  16.094 -0.4572 -0.6354 -0.2195
  636MPD2    C2 9415   2.688   3.879  16.146  0.0351 -0.0434  0.3455
  636MPD2    C3 9416   2.711   3.757  16.094 -0.4346  0.1297  0.0095
  636MPD2    C4 9417   2.643   3.725  15.974  0.9833  0.1587  0.0834
  636MPD2    C5 9418   2.555   3.814  15.918 -0.3004  0.3604 -0.8166
  636MPD2     H 9419   2.743   3.907  16.235  0.2192  0.7710 -0.0235
  636MPD2    H1 9420   2.661   3.636  15.916  1.9629  1.7122 -1.9840
  636MPD2    H2 9421   2.446   3.997  15.942  0.9403  0.9306  0.6299
  636MPD2    H3 9422   2.502   3.797  15.825  1.1141  0.6391 -1.6683
  636MPD2     N 9423   2.811   3.671  16.147 -0.1889 -0.3191 -0.3775
  636MPD2    H5 9424   2.864   3.701  16.228 -0.3356  1.6989 -1.0185
  636MPD2    N1 9425   2.575   4.088  16.160 -0.0405 -0.2737  0.2967
  636MPD2    H7 9426   2.617   4.098  16.252 -2.1559  1.1820  1.0773
  637TMC3    C1 9427   2.927   3.459  16.167  0.2401  0.4032 -0.4737
  637TMC3    C2 9428   2.938   3.482  16.305  0.1936 -0.4280 -0.0547
  637TMC3    C3 9429   3.047   3.426  16.377  0.6316 -0.3652 -0.3966
  637TMC3    C4 9430   3.028   3.393  16.098 -0.0120  0.0097  0.2421
  637TMC3    C5 9431   3.139   3.356  16.160  0.3550  0.2253 -0.3989
  637TMC3    C6 9432   3.144   3.368  16.298  0.2740  0.0955  0.1511
  637TMC3     C 9433   2.848   3.553  16.091 -0.2517 -0.2570 -0.0414
  637TMC3     O 9434   2.860   3.545  15.966  0.4497  0.0755 -0.1429
  637TMC3     H 9435   2.863   3.539  16.359  2.5967  0.8563  1.8871
  637TMC3    H1 9436   3.014   3.365  15.995 -2.5550 -0.4302  0.7091
  637TMC3    H2 9437   3.240   3.347  16.345  0.6302 -1.1490 -1.1480
  637TMC3    C7 9438   3.257   3.405  16.098 -0.4461 -0.4915 -0.4882
  637TMC3    C8 9439   3.095   3.501  16.496 -0.2327 -0.0378  0.4875
  637TMC3    O1 9440   3.366   3.410  16.159 -0.2055  0.0420 -0.4007
  637TMC3    O2 9441   3.216   3.507  16.515  0.2290 -0.2116  0.0866
  638MPD2     C 9442   2.596   2.549  14.905  0.3909 -0.0053 -0.0658
  638MPD2    C1 9443   2.595   2.415  14.870  0.1535  0.9019  1.0024
  638MPD2    C2 9444   2.537   2.327  14.963 -0.1312 -0.1808 -0.6270
  638MPD2    C3 9445   2.495   2.370  15.084  0.5684 -0.3082 -0.8521
  638MPD2    C4 9446   2.491   2.508  15.113 -0.0990 -0.0907 -0.1326
  638MPD2    C5 9447   2.548   2.591  15.021 -0.3717 -0.0598 -0.1951
  638MPD2     H 9448   2.516   2.226  14.930  1.9424 -1.0206  0.6363
  638MPD2    H1 9449   2.474   2.546  15.214 -1.6736 -1.3296  0.0580
  638MPD2    H2 9450   2.647   2.622  14.843  0.4184  1.1037  1.2696
  638MPD2    H3 9451   2.547   2.699  15.031  0.9672 -0.1127  0.3916
  638MPD2     N 9452   2.442   2.272  15.172 -0.3154  0.2852 -0.2358
  638MPD2    H5 9453   2.470   2.178  15.149  0.8418  0.9584 -1.5735
  638MPD2    N1 9454   2.652   2.370  14.745  0.1358  0.7424  0.7860
  638MPD2    H7 9455   2.673   2.440  14.674 -0.0007  1.0969  1.0950
  639TMC3    C1 9456   2.298   2.175  15.337  0.8626  0.0947 -0.2070
  639TMC3    C2 9457   2.223   2.103  15.256  0.6092 -0.0373 -0.3612
  639TMC3    C3 9458   2.255   1.976  15.230 -0.5050  0.0259 -0.0916
  639TMC3    C4 9459   2.386   2.113  15.422 -0.2315  0.0359 -0.3537
  639TMC3    C5 9460   2.412   1.979  15.407 -1.1273 -0.2907  0.1554
  639TMC3    C6 9461   2.355   1.908  15.302  0.2785  0.2185  0.5005
  639TMC3     C 9462   2.350   2.299  15.276 -0.5601 -0.3170 -0.5094
  639TMC3     O 9463   2.300   2.406  15.306 -0.5597  0.5816 -0.2663
  639TMC3     H 9464   2.160   2.159  15.188 -0.4749  0.9108  1.4169
  639TMC3    H1 9465   2.451   2.177  15.481  0.9825 -1.8867  0.4040
  639TMC3    H2 9466   2.379   1.805  15.277  0.0165  0.0977  0.7423
  639TMC3    C7 9467   2.539   1.930  15.457 -0.7626 -0.4153 -0.2488
  639TMC3    C8 9468   2.181   1.903  15.125  0.0257  0.0233  0.5079
  639TMC3    O1 9469   2.561   1.951  15.577 -0.7240  0.3381 -0.3649
  639TMC3    O2 9470   2.238   1.820  15.055  0.3328  0.1619  0.7584
  640MPD2     C 9471   3.489   0.199   9.825  0.3619  0.2361 -0.2454
  640MPD2    C1 9472   3.471   0.308   9.744  0.2730 -0.1713  0.0154
  640MPD2    C2 9473   3.415   0.422   9.801 -0.1725  0.2830 -0.5226
  640MPD2    C3 9474   3.388   0.423   9.940 -0.3700  0.5157 -0.1827
  640MPD2    C4 9475   3.417   0.315  10.013 -0.5285 -0.1462 -0.1949
  640MPD2    C5 9476   3.452   0.202   9.954 -0.0849  0.1281 -0.7684
  640MPD2     H 9477   3.392   0.509   9.740 -0.8835 -0.1824 -0.9277
  640MPD2    H1 9478   3.389   0.311  10.117  0.7999  0.7778  0.1905
  640MPD2    H2 9479   3.515   0.102   9.787  2.2273  0.8754 -0.5929
  640MPD2    H3 9480   3.464   0.118  10.021 -1.9430 -0.1798 -0.8020
  640MPD2     N 9481   3.340   0.537  10.009 -0.5064  0.5553 -0.0634
  640MPD2    H5 9482   3.302   0.535  10.103  0.4457  1.3125  0.3448
  640MPD2    N1 9483   3.506   0.295   9.608 -0.0144 -0.3604 -0.3232
  640MPD2    H7 9484   3.535   0.203   9.577  0.2554 -0.0327 -1.0398
  641TMC3    C1 9485   3.539   0.355   9.385 -0.3609  0.2895  0.4183
  641TMC3    C2 9486   3.657   0.286   9.387 -0.2143 -0.3712 -0.3582
  641TMC3    C3 9487   3.688   0.233   9.266 -0.0484  0.0759 -0.2907
  641TMC3    C4 9488   3.452   0.375   9.284  0.5773  0.3025  0.7409
  641TMC3    C5 9489   3.492   0.326   9.162 -0.1395  0.6096  0.2316
  641TMC3    C6 9490   3.604   0.246   9.158  0.2812  0.0772 -0.3452
  641TMC3     C 9491   3.494   0.394   9.515 -0.3727 -0.3769  0.0482
  641TMC3     O 9492   3.439   0.502   9.506  0.2122  0.5322  0.5241
  641TMC3     H 9493   3.721   0.274   9.474  0.1117  0.1814 -0.5229
  641TMC3    H1 9494   3.369   0.444   9.291 -0.8136 -1.3313  0.2863
  641TMC3    H2 9495   3.625   0.194   9.065 -0.8842 -0.1529 -0.4783
  641TMC3    C7 9496   3.445   0.380   9.038 -0.0821  0.5885 -0.3627
  641TMC3    C8 9497   3.801   0.150   9.238 -0.3219  0.3865 -0.3997
  641TMC3    O1 9498   3.500   0.346   8.938 -0.0481  0.0201 -0.4838
  641TMC3    O2 9499   3.802   0.086   9.126  0.1190  0.4541 -0.0121
  642TMC3    C1 9500   4.198   2.124  12.104 -0.2181  0.7144 -0.1095
  642TMC3    C2 9501   4.072   2.061  12.095 -0.4938  0.2912 -0.0857
  642TMC3    C3 9502   4.072   1.943  12.025  0.4088 -0.6254 -0.0621
  642TMC3    C4 9503   4.314   2.085  12.039  0.5373  0.0982 -0.6697
  642TMC3    C5 9504   4.302   1.965  11.971  0.6175 -0.7870  0.1835
  642TMC3    C6 9505   4.187   1.901  11.957  0.1444 -0.4991 -0.3976
  642TMC3     C 9506   4.196   2.264  12.132  0.2274 -0.5728 -1.1878
  642TMC3     O 9507   4.294   2.332  12.099 -0.5771  0.0731  0.8825
  642TMC3     H 9508   3.984   2.104  12.142  0.7208 -0.0410  2.4600
  642TMC3    H1 9509   4.406   2.125  12.077  0.5081  0.8727 -1.4094
  642TMC3    H2 9510   4.187   1.805  11.907 -0.0758 -0.0228 -1.3109
  642TMC3    C7 9511   4.410   1.871  11.967 -0.1201  0.1311  0.1780
  642TMC3    C8 9512   3.954   1.863  12.049 -0.3654 -0.1074 -0.1577
  642TMC3    O1 9513   4.410   1.824  11.855  0.1842  0.0047  0.0633
  642TMC3    O2 9514   3.868   1.893  12.129  0.1156 -0.0934 -0.4919
  643TMC3    C1 9515   3.162   1.948   0.302  0.2938  0.4020  0.3025
  643TMC3    C2 9516   3.092   2.000   0.201  0.5845 -0.4279 -0.0735
  643TMC3    C3 9517   3.032   1.916   0.116 -0.0686  0.4806 -0.2801
  643TMC3    C4 9518   3.203   1.815   0.284 -0.2101 -0.0488 -0.0442
  643TMC3    C5 9519   3.148   1.734   0.191 -0.4809 -0.4686 -0.5534
  643TMC3    C6 9520   3.040   1.782   0.113 -0.2786  0.1831 -0.8267
  643TMC3     C 9521   3.254   2.037   0.369 -0.2203  0.3222 -0.4696
  643TMC3     O 9522   3.262   2.156   0.337 -0.1255 -0.4891 -0.3103
  643TMC3     H 9523   3.070   2.106   0.206 -0.4616 -0.6263 -0.4211
  643TMC3    H1 9524   3.278   1.771   0.348  0.7127 -1.2431 -1.9421
  643TMC3    H2 9525   2.984   1.724   0.041  1.1410 -1.2127 -0.8147
  643TMC3    C7 9526   3.149   1.593   0.226  0.1697 -0.3119  0.2424
  643TMC3    C8 9527   2.977   1.983  17.704  0.5565  0.7153 -0.7148
  643TMC3    O1 9528   3.139   1.571   0.345  0.1153 -0.4847 -0.1923
  643TMC3    O2 9529   2.895   1.911  17.646  0.7210  0.4649 -0.7106
  644MPD2     C 9530   3.999   1.698   9.309 -0.2777 -0.0089  0.2900
  644MPD2    C1 9531   4.011   1.561   9.336  0.4528  0.9180 -0.8214
  644MPD2    C2 9532   3.894   1.500   9.347  0.5732 -0.3881 -0.0589
  644MPD2    C3 9533   3.770   1.562   9.358 -0.5016 -0.1863 -0.0336
  644MPD2    C4 9534   3.766   1.701   9.344 -0.5290 -0.0192 -0.1380
  644MPD2    C5 9535   3.884   1.766   9.310  0.9097 -0.1996  0.2915
  644MPD2     H 9536   3.892   1.392   9.347 -4.0185 -0.2800 -0.6669
  644MPD2    H1 9537   3.676   1.762   9.338 -0.8601 -0.4520  0.4414
  644MPD2    H2 9538   4.090   1.753   9.287  0.8469 -1.3502  1.6003
  644MPD2    H3 9539   3.889   1.873   9.293  0.1659  0.1260  2.1937
  644MPD2     N 9540   3.652   1.485   9.378 -0.1861 -0.0334  0.6290
  644MPD2    H5 9541   3.670   1.385   9.365  0.4117  0.5118 -2.6950
  644MPD2    N1 9542   4.139   1.502   9.334 -0.4432 -0.5259  0.0029
  644MPD2    H7 9543   4.213   1.572   9.342 -1.3272  0.3499  0.5980
  645TMC3    C1 9544   3.417   1.418   9.373 -0.2889  0.0752  0.1181
  645TMC3    C2 9545   3.455   1.301   9.306  0.5527  0.4181  0.0828
  645TMC3    C3 9546   3.353   1.213   9.289  0.4742 -0.5281 -0.9081
  645TMC3    C4 9547   3.299   1.441   9.431 -0.3820 -0.1141 -0.2209
  645TMC3    C5 9548   3.211   1.338   9.415  0.6610 -0.6206  0.0655
  645TMC3    C6 9549   3.229   1.230   9.342  0.1993 -0.1597  0.4280
  645TMC3     C 9550   3.523   1.520   9.402 -0.0426 -0.0114 -0.5056
  645TMC3     O 9551   3.493   1.635   9.439  0.2898 -0.2602 -0.0898
  645TMC3     H 9552   3.546   1.288   9.248  0.3858  1.7037 -0.4687
  645TMC3    H1 9553   3.283   1.535   9.482 -3.4103  0.0033 -1.4126
  645TMC3    H2 9554   3.152   1.154   9.338  0.2783 -0.1636 -1.0302
  645TMC3    C7 9555   3.091   1.348   9.497  0.2116  0.3392  0.6173
  645TMC3    C8 9556   3.375   1.092   9.215 -0.1892 -0.0743  0.4048
  645TMC3    O1 9557   3.052   1.462   9.521  0.0289  0.6133  0.4473
  645TMC3    O2 9558   3.274   1.028   9.187 -0.0466  0.1923  0.4465
  646MPD2     C 9559   2.456   1.003  14.742 -0.0438  0.2589  0.2481
  646MPD2    C1 9560   2.357   1.022  14.833 -0.2749 -0.1571  0.0197
  646MPD2    C2 9561   2.248   1.098  14.797 -0.6017 -0.6463  0.1856
  646MPD2    C3 9562   2.236   1.156  14.674 -0.3171  0.1314 -0.6081
  646MPD2    C4 9563   2.338   1.132  14.581 -0.2848 -0.0797  0.0547
  646MPD2    C5 9564   2.451   1.055  14.616  0.1686  0.0502  0.2465
  646MPD2     H 9565   2.179   1.110  14.881  0.1263 -0.0038  0.6925
  646MPD2    H1 9566   2.336   1.174  14.481 -0.5387 -1.1525 -0.3980
  646MPD2    H2 9567   2.550   0.954  14.767 -0.4907 -1.5612 -1.6363
  646MPD2    H3 9568   2.530   1.036  14.545 -0.3713  0.6389 -0.5027
  646MPD2     N 9569   2.122   1.230  14.642  0.2789  0.0449  0.5693
  646MPD2    H5 9570   2.045   1.237  14.709  0.3862  2.9197  0.3759
  646MPD2    N1 9571   2.379   0.982  14.965  0.0327  0.4694 -0.0848
  646MPD2    H7 9572   2.462   0.924  14.965 -1.3570 -1.5487  1.4916
  647TMC3    C1 9573   2.401   0.976  15.190 -0.2832  0.2850  0.0105
  647TMC3    C2 9574   2.357   0.976  15.321 -0.2781 -0.2891  0.6414
  647TMC3    C3 9575   2.450   0.975  15.422 -0.3363 -0.7496 -0.5917
  647TMC3    C4 9576   2.533   0.955  15.169  0.0452 -0.6723  0.4001
  647TMC3    C5 9577   2.616   0.946  15.275  0.0724  0.5206 -0.1549
  647TMC3    C6 9578   2.579   0.973  15.406  0.1380  0.1037  0.4039
  647TMC3     C 9579   2.315   1.007  15.080  0.1252  1.2133 -1.2356
  647TMC3     O 9580   2.199   1.045  15.097  0.1080  0.0071  0.5508
  647TMC3     H 9581   2.250   0.985  15.332 -0.1493  0.2224  1.4411
  647TMC3    H1 9582   2.576   0.967  15.070 -0.3710  0.5460  0.3698
  647TMC3    H2 9583   2.648   0.957  15.489  0.7476  0.6829  0.0067
  647TMC3    C7 9584   2.755   0.896  15.255  0.0056  0.4786  0.0549
  647TMC3    C8 9585   2.410   0.903  15.542 -0.2331 -0.1599  0.3923
  647TMC3    O1 9586   2.835   0.898  15.348  0.7549 -0.1875  0.6098
  647TMC3    O2 9587   2.467   0.935  15.643 -0.2212 -0.3134 -0.0315
  648TMC3    C1 9588   2.021   3.688  16.565 -0.7914 -0.1458 -0.1136
  648TMC3    C2 9589   2.053   3.553  16.560 -0.1588  0.4599  0.0101
  648TMC3    C3 9590   2.034   3.483  16.443 -0.0829 -0.1229 -0.0642
  648TMC3    C4 9591   1.983   3.757  16.451  0.2141 -0.0929  0.1134
  648TMC3    C5 9592   1.974   3.681  16.334 -1.2304 -0.1350  0.3616
  648TMC3    C6 9593   1.990   3.548  16.329 -0.2476 -0.1910 -0.1198
  648TMC3     C 9594   2.023   3.763  16.693  0.0613 -0.1971 -0.3822
  648TMC3     O 9595   2.038   3.885  16.693 -0.1758 -0.1132  0.2198
  648TMC3     H 9596   2.102   3.498  16.639  1.6352 -1.5428 -2.5049
  648TMC3    H1 9597   1.969   3.865  16.458 -0.9946 -0.1869 -0.8938
  648TMC3    H2 9598   1.956   3.484  16.247  0.5675  0.4349 -0.9478
  648TMC3    C7 9599   1.873   3.721  16.234  0.2497  0.4871  0.0395
  648TMC3    C8 9600   2.108   3.355  16.444  0.2076  0.1813 -0.4499
  648TMC3    O1 9601   1.833   3.641  16.150  0.1087  0.3698 -0.1854
  648TMC3    O2 9602   2.107   3.299  16.555  0.4439  0.1618 -0.0485
  649TMC3    C1 9603   1.125   3.892  13.168  0.1093 -0.1870  1.0737
  649TMC3    C2 9604   1.252   3.849  13.203  0.2161 -0.4016 -0.7043
  649TMC3    C3 9605   1.264   3.740  13.286  0.7743 -0.4078 -0.0450
  649TMC3    C4 9606   1.011   3.832  13.226 -0.3021 -0.3110  0.2178
  649TMC3    C5 9607   1.030   3.722  13.309  0.3135  0.5430  0.1099
  649TMC3    C6 9608   1.155   3.681  13.343  0.0313  0.3014  1.0765
  649TMC3     C 9609   1.103   4.007  13.085 -0.0871  0.4764  0.3133
  649TMC3     O 9610   1.011   4.080  13.113  0.2525  0.3695 -0.5478
  649TMC3     H 9611   1.342   3.902  13.173 -1.1792  1.5699 -1.3775
  649TMC3    H1 9612   0.912   3.853  13.189 -0.3271  1.8863  1.5051
  649TMC3    H2 9613   1.163   3.590  13.400 -0.7727 -1.0323 -0.9465
  649TMC3    C7 9614   0.919   3.688  13.398  0.9466  0.1713  0.4525
  649TMC3    C8 9615   1.393   3.684  13.309  0.1032  0.0579 -0.0257
  649TMC3    O1 9616   0.833   3.778  13.403 -0.3737  0.4421 -0.2800
  649TMC3    O2 9617   1.387   3.590  13.386 -0.0076  0.0019  0.9904
  650TMC3    C1 9618   3.384   1.428  12.712  0.3823 -0.1347  0.4656
  650TMC3    C2 9619   3.365   1.561  12.703 -0.0538  0.5226 -0.1895
  650TMC3    C3 9620   3.263   1.608  12.628  0.0197 -0.2506  0.3739
  650TMC3    C4 9621   3.294   1.336  12.659 -0.3835  0.7621 -0.3168
  650TMC3    C5 9622   3.206   1.382  12.569 -0.0964 -0.2696 -0.2797
  650TMC3    C6 9623   3.189   1.512  12.554  0.3685 -0.5822 -0.2487
  650TMC3     C 9624   3.519   1.389  12.763 -0.2574 -0.2168  0.4609
  650TMC3     O 9625   3.592   1.471  12.819  0.1011 -0.2726  0.1157
  650TMC3     H 9626   3.427   1.629  12.761  0.5157  2.0530 -2.6078
  650TMC3    H1 9627   3.307   1.229  12.654  0.1672  0.7902  0.5667
  650TMC3    H2 9628   3.108   1.550  12.492 -0.9577 -1.1055  1.1461
  650TMC3    C7 9629   3.222   1.316  12.435  0.7321 -0.5105 -0.1022
  650TMC3    C8 9630   3.245   1.750  12.612 -0.2412 -0.2425 -0.0042
  650TMC3    O1 9631   3.246   1.198  12.443  0.4621 -0.2716  0.1120
  650TMC3    O2 9632   3.343   1.821  12.637  0.3681  0.2787 -0.4410
  651MPD2     C 9633   2.863   2.768  10.563 -0.5984  0.5433  0.5632
  651MPD2    C1 9634   2.870   2.892  10.623  0.2798  0.1539 -0.2360
  651MPD2    C2 9635   2.984   2.956  10.648  1.0875 -0.2032 -0.6866
  651MPD2    C3 9636   3.097   2.891  10.608 -0.3897  0.2520 -0.2543
  651MPD2    C4 9637   3.097   2.760  10.556 -0.3397 -0.5519  0.1488
  651MPD2    C5 9638   2.975   2.699  10.539 -0.2854 -0.3370  0.3089
  651MPD2     H 9639   2.977   3.058  10.684 -0.0050 -0.1787 -0.9833
  651MPD2    H1 9640   3.190   2.706  10.541 -1.8463 -3.4762  1.2060
  651MPD2    H2 9641   2.762   2.731  10.546 -0.5894  0.1083  1.4598
  651MPD2    H3 9642   2.970   2.599  10.498  0.5438  0.5102 -1.8227
  651MPD2     N 9643   3.215   2.959  10.648  0.2889 -0.2479 -0.0557
  651MPD2    H5 9644   3.202   3.044  10.701  1.8376 -0.0945  0.0834
  651MPD2    N1 9645   2.749   2.959  10.665 -0.0085 -0.4595  0.5487
  651MPD2    H7 9646   2.760   3.058  10.683  0.7741 -0.3991 -0.2610
  652TMC3    C1 9647   3.647   3.132  10.622 -0.3013 -0.2662 -0.5881
  652TMC3    C2 9648   3.553   3.043  10.581  0.7530 -0.2340 -0.1423
  652TMC3    C3 9649   3.439   3.028  10.655 -0.0958 -0.7467 -0.4523
  652TMC3    C4 9650   3.621   3.216  10.727 -0.8959 -0.2229 -0.2911
  652TMC3    C5 9651   3.504   3.198  10.793 -0.1940 -0.6468 -0.0037
  652TMC3    C6 9652   3.424   3.093  10.774 -0.5764 -0.0359 -0.8862
  652TMC3     C 9653   3.756   3.168  10.536 -0.6080 -0.7263 -0.3237
  652TMC3     O 9654   3.757   3.139  10.420  0.1781 -0.2511 -0.0148
  652TMC3     H 9655   3.558   2.981  10.492  1.0496 -0.8812  0.3233
  652TMC3    H1 9656   3.692   3.292  10.757  1.9089 -1.7983 -2.9335
  652TMC3    H2 9657   3.336   3.067  10.833 -0.9935 -1.8840 -2.3132
  652TMC3    C7 9658   3.495   3.262  10.921 -0.2749  0.0919 -0.1137
  652TMC3    C8 9659   3.343   2.933  10.609 -0.2763 -0.6170  0.1900
  652TMC3    O1 9660   3.415   3.204  10.994  0.0062 -0.1446 -0.7204
  652TMC3    O2 9661   3.382   2.844  10.533  0.0119  0.6519 -0.0513
  653MPD2     C 9662   1.089   3.927   0.191  0.1894 -0.0262 -0.3879
  653MPD2    C1 9663   0.970   3.999   0.172  0.5244  0.5224 -0.4913
  653MPD2    C2 9664   0.849   3.934   0.165 -0.0114 -0.5787 -0.1158
  653MPD2    C3 9665   0.849   3.797   0.184 -0.1551 -0.0891 -0.7370
  653MPD2    C4 9666   0.966   3.724   0.214 -0.4595  0.6324  0.0233
  653MPD2    C5 9667   1.083   3.794   0.215  0.1019 -0.5359  0.1407
  653MPD2     H 9668   0.761   3.997   0.167 -0.4886 -1.2587  0.6157
  653MPD2    H1 9669   0.973   3.620   0.243  1.7294  0.3333 -1.5859
  653MPD2    H2 9670   1.187   3.972   0.206  1.5634 -3.3354  0.5814
  653MPD2    H3 9671   1.168   3.732   0.238  1.6291  1.1987 -0.8694
  653MPD2     N 9672   0.724   3.736   0.183 -0.1252  0.1945 -0.1808
  653MPD2    H5 9673   0.646   3.799   0.169  2.3351  3.1989 -0.1436
  653MPD2    N1 9674   0.968   4.145   0.166  0.5413  0.3973 -0.8261
  653MPD2    H7 9675   0.876   4.185   0.147  0.3123  0.8750  1.3186
  654TMC3    C1 9676   0.552   3.576   0.183 -0.0103 -0.6831  0.0090
  654TMC3    C2 9677   0.471   3.681   0.147  0.5115 -0.2811 -0.2682
  654TMC3    C3 9678   0.341   3.652   0.125 -0.3412  0.3542 -0.0824
  654TMC3    C4 9679   0.512   3.446   0.198 -0.3436  0.3264 -0.0758
  654TMC3    C5 9680   0.386   3.422   0.163 -0.5757  0.0193 -0.3009
  654TMC3    C6 9681   0.302   3.522   0.125 -0.6624 -0.2973 -0.7877
  654TMC3     C 9682   0.698   3.599   0.187 -0.7779 -0.0119  0.1894
  654TMC3     O 9683   0.772   3.500   0.190 -0.7450 -0.1272 -0.1715
  654TMC3     H 9684   0.513   3.768   0.099  0.4272  0.4731  1.0328
  654TMC3    H1 9685   0.579   3.364   0.224  1.7768  1.7111 -1.1458
  654TMC3    H2 9686   0.199   3.495   0.105 -0.8764  0.3135 -0.4983
  654TMC3    C7 9687   0.387   3.309   0.072  0.4225 -0.4345  0.0008
  654TMC3    C8 9688   0.279   3.719   0.012 -0.7984  0.5205 -0.1588
  654TMC3    O1 9689   0.347   3.333  17.664 -0.4232 -0.1336 -0.0686
  654TMC3    O2 9690   0.277   3.841   0.008 -0.8691  0.7641  0.1519
  655MPD2     C 9691   2.260   3.671  15.758 -0.5418 -0.5945 -0.0369
  655MPD2    C1 9692   2.242   3.793  15.695 -0.1761  0.0296  0.2670
  655MPD2    C2 9693   2.271   3.794  15.560  0.0250 -0.7015  0.0870
  655MPD2    C3 9694   2.293   3.674  15.486  0.1762 -0.2990  0.0173
  655MPD2    C4 9695   2.286   3.549  15.550  0.1307  0.6391  0.0311
  655MPD2    C5 9696   2.285   3.555  15.686 -0.7746  0.1095  0.8585
  655MPD2     H 9697   2.258   3.879  15.495  0.1096  0.2490  1.3075
  655MPD2    H1 9698   2.279   3.455  15.497  0.1054 -0.0903  1.3364
  655MPD2    H2 9699   2.264   3.659  15.866 -0.8995 -0.5052 -0.0122
  655MPD2    H3 9700   2.272   3.458  15.733 -0.2553  0.9400  2.6874
  655MPD2     N 9701   2.295   3.675  15.344 -0.0338 -0.0117  0.4679
  655MPD2    H5 9702   2.295   3.583  15.302  2.2220  0.5520 -0.7834
  655MPD2    N1 9703   2.210   3.910  15.770 -0.3287 -0.1967 -0.8620
  655MPD2    H7 9704   2.200   3.991  15.710 -1.2278 -0.6946 -1.3927
  656TMC3    C1 9705   2.135   4.040  15.958  0.4156 -0.3593  0.0107
  656TMC3    C2 9706   2.126   4.047  16.094  0.0819  0.0342 -0.0252
  656TMC3    C3 9707   2.076   4.160  16.146 -0.0287 -0.5331  0.0243
  656TMC3    C4 9708   2.109   4.147  15.874 -0.5570  0.3617 -0.4356
  656TMC3    C5 9709   2.056   4.257  15.938  0.3840 -0.4514  1.1516
  656TMC3    C6 9710   2.029   4.266  16.070  0.3904 -0.0663 -0.2252
  656TMC3     C 9711   2.165   3.909  15.903 -0.0548 -0.0939  0.0758
  656TMC3     O 9712   2.143   3.814  15.978  0.6349 -0.2951  1.0636
  656TMC3     H 9713   2.145   3.954  16.147 -1.7401 -0.8182 -0.8836
  656TMC3    H1 9714   2.100   4.140  15.766 -1.9656 -4.3946 -0.0331
  656TMC3    H2 9715   1.973   4.349  16.111 -0.4381 -1.1664  0.8662
  656TMC3    C7 9716   2.005   4.362  15.849 -0.2023 -0.3168  0.4621
  656TMC3    C8 9717   2.027   4.149  16.282  0.4996  0.5892 -0.1113
  656TMC3    O1 9718   2.044   4.347  15.738  0.0205 -0.1767 -0.2192
  656TMC3    O2 9719   2.032   4.043  16.344 -0.5374 -1.1929  0.0130
  657TMC3    C1 9720   1.369   3.140  14.598  0.2057  0.2424  0.3685
  657TMC3    C2 9721   1.373   3.173  14.731 -0.6402 -0.5055 -0.0236
  657TMC3    C3 9722   1.292   3.276  14.775  0.0303  0.1555 -0.1319
  657TMC3    C4 9723   1.276   3.189  14.510  0.5452 -0.5468  0.1647
  657TMC3    C5 9724   1.202   3.297  14.550 -0.3377 -0.4964  0.4607
  657TMC3    C6 9725   1.219   3.348  14.676 -0.1270  0.2022 -0.5518
  657TMC3     C 9726   1.474   3.060  14.535  0.0924 -0.1160  0.1152
  657TMC3     O 9727   1.468   3.046  14.412 -0.1017  0.2759 -0.0172
  657TMC3     H 9728   1.437   3.119  14.800 -0.9403 -1.3829 -0.4332
  657TMC3    H1 9729   1.266   3.146  14.411 -0.6530  1.2456 -0.4947
  657TMC3    H2 9730   1.172   3.443  14.700 -0.7142  0.3528 -2.2708
  657TMC3    C7 9731   1.095   3.350  14.476 -0.0128  0.5741 -0.4656
  657TMC3    C8 9732   1.281   3.315  14.913  0.5558 -0.0021 -0.7389
  657TMC3    O1 9733   1.038   3.448  14.525 -0.1844 -0.3955 -0.0711
  657TMC3    O2 9734   1.218   3.410  14.948  0.4067 -0.2258  0.1463
  658MPD2     C 9735   2.624   4.130  14.789 -0.2877 -0.0925  0.1291
  658MPD2    C1 9736   2.581   4.004  14.738 -0.5889 -0.5440 -0.1587
  658MPD2    C2 9737   2.570   3.990  14.596 -0.5039  0.6953  0.0971
  658MPD2    C3 9738   2.602   4.091  14.508 -0.4185  0.3349 -0.4712
  658MPD2    C4 9739   2.634   4.215  14.562  0.3430  0.1361  0.0921
  658MPD2    C5 9740   2.649   4.234  14.700 -0.2889  0.3010  0.3365
  658MPD2     H 9741   2.531   3.904  14.543 -2.1489 -0.6308  3.4653
  658MPD2    H1 9742   2.669   4.294  14.497  0.1848  0.5622  0.5255
  658MPD2    H2 9743   2.653   4.132  14.893  0.3214 -0.4756 -0.0376
  658MPD2    H3 9744   2.684   4.328  14.741  3.2405 -1.5927  1.7640
  658MPD2     N 9745   2.603   4.068  14.366 -0.0535 -0.3058 -0.3531
  658MPD2    H5 9746   2.562   3.980  14.336 -1.2690  0.8222 -2.0411
  658MPD2    N1 9747   2.527   3.904  14.829 -0.3329  0.1980 -0.5029
  658MPD2    H7 9748   2.543   3.909  14.929  0.8769  1.1191 -0.7476
  659TMC3    C1 9749   2.396   3.720  14.907  0.3397 -0.1441 -0.0293
  659TMC3    C2 9750   2.386   3.776  15.030 -0.6071 -0.4218 -0.1947
  659TMC3    C3 9751   2.318   3.716  15.126 -0.2152 -0.2771  0.0075
  659TMC3    C4 9752   2.313   3.611  14.879  0.2586  0.3078 -0.4637
  659TMC3    C5 9753   2.224   3.569  14.974  0.2039 -0.4688 -0.7613
  659TMC3    C6 9754   2.228   3.614  15.100  0.2827 -0.1798  0.4048
  659TMC3     C 9755   2.444   3.801  14.793 -0.4524  0.5799 -0.1558
  659TMC3     O 9756   2.423   3.751  14.681  0.5508 -0.5741  0.4767
  659TMC3     H 9757   2.440   3.868  15.048 -0.7197 -0.1322 -1.3517
  659TMC3    H1 9758   2.297   3.569  14.781 -0.7281  0.3877 -0.3343
  659TMC3    H2 9759   2.157   3.578  15.174 -0.0464  0.6277  0.4768
  659TMC3    C7 9760   2.089   3.513  14.934  0.2769 -0.3455  0.6323
  659TMC3    C8 9761   2.310   3.772  15.254  0.6017 -0.9411  0.2972
  659TMC3    O1 9762   1.999   3.534  15.007  1.0934 -0.1015 -0.6905
  659TMC3    O2 9763   2.341   3.889  15.267  0.3189 -0.1157 -0.1830
  660MPD2     C 9764   0.466   2.152  12.935 -0.0476  0.0276  0.5932
  660MPD2    C1 9765   0.339   2.131  12.885 -0.2514 -0.1513 -0.4030
  660MPD2    C2 9766   0.240   2.073  12.965  0.2857 -0.0452  0.9285
  660MPD2    C3 9767   0.263   2.063  13.105  0.3994 -0.4106  0.0766
  660MPD2    C4 9768   0.386   2.101  13.159  0.1801  0.4645 -0.4635
  660MPD2    C5 9769   0.482   2.139  13.066  0.0880  0.0350 -0.2737
  660MPD2     H 9770   0.142   2.054  12.923  1.6715 -1.0025 -1.9167
  660MPD2    H1 9771   0.392   2.110  13.267 -0.1358  2.9568 -0.6533
  660MPD2    H2 9772   0.551   2.189  12.879  1.2285 -1.0484  1.8335
  660MPD2    H3 9773   0.581   2.149  13.109 -0.4090  0.9600  0.6601
  660MPD2     N 9774   0.158   2.027  13.195 -0.2302 -0.2346 -0.1919
  660MPD2    H5 9775   0.181   2.044  13.292 -1.6782 -3.0706  0.6297
  660MPD2    N1 9776   0.322   2.156  12.751  0.0387 -0.1962  0.5645
  660MPD2    H7 9777   0.404   2.185  12.700  0.4822  0.5159  1.6907
  661TMC3    C1 9778   0.218   2.171  12.540  0.2634 -0.8164 -0.0366
  661TMC3    C2 9779   0.331   2.115  12.484 -0.1958 -0.1111 -0.8514
  661TMC3    C3 9780   0.329   2.060  12.356 -0.4219 -0.3556  0.6917
  661TMC3    C4 9781   0.094   2.172  12.475 -0.2561  0.5152  0.3829
  661TMC3    C5 9782   0.099   2.122  12.348  0.2929  0.0421  0.6928
  661TMC3    C6 9783   0.210   2.056  12.292  0.4086  0.2402 -0.3154
  661TMC3     C 9784   0.202   2.150  12.681 -0.7501  0.0905  0.0279
  661TMC3     O 9785   0.086   2.129  12.712  0.2387 -0.4709  0.1042
  661TMC3     H 9786   0.429   2.118  12.529  0.2718  1.3655 -1.9765
  661TMC3    H1 9787   0.014   2.238  12.506 -2.7639 -1.9434 -0.8444
  661TMC3    H2 9788   0.210   2.006  12.196  2.4236  0.7981 -0.6046
  661TMC3    C7 9789   0.010   2.183  12.248  1.0049 -0.2260 -0.1207
  661TMC3    C8 9790   0.441   2.095  12.268  0.6932 -0.1102 -0.0600
  661TMC3    O1 9791   4.615   2.198  12.269  0.9597  0.3135 -0.4862
  661TMC3    O2 9792   0.421   2.090  12.146 -0.0719  0.1828 -0.1818
  662MPD2     C 9793   0.495   2.261   0.133 -0.1233  1.2726 -0.0641
  662MPD2    C1 9794   0.493   2.307   0.261 -0.0000 -0.3750  0.1152
  662MPD2    C2 9795   0.423   2.427   0.287 -0.3794  0.3789 -0.0308
  662MPD2    C3 9796   0.366   2.502   0.191 -0.3206  0.1827 -0.2686
  662MPD2    C4 9797   0.377   2.457   0.058  0.3901  0.0709 -0.0857
  662MPD2    C5 9798   0.449   2.344   0.035  0.1279 -0.7346  0.2141
  662MPD2     H 9799   0.425   2.461   0.390  0.7148  4.6925 -1.4895
  662MPD2    H1 9800   0.333   2.510  17.679 -0.4838 -2.2336 -1.0731
  662MPD2    H2 9801   0.530   2.166   0.094  0.3494  1.2891  0.3094
  662MPD2    H3 9802   0.464   2.315  17.636  1.2711 -0.8432  0.4059
  662MPD2     N 9803   0.303   2.631   0.205 -0.3849  0.0466 -0.5219
  662MPD2    H5 9804   0.241   2.663   0.131  0.8650  0.2929 -1.4590
  662MPD2    N1 9805   0.543   2.235   0.366  0.1190  0.4054  0.0322
  662MPD2    H7 9806   0.564   2.284   0.453 -0.7969 -2.1301  1.7101
  663TMC3    C1 9807   0.613   2.055   0.488 -0.7765 -0.9581  0.8336
  663TMC3    C2 9808   0.707   2.135   0.554 -0.5183  0.0639 -0.3590
  663TMC3    C3 9809   0.701   2.145   0.687 -0.2350 -0.6219  0.5248
  663TMC3    C4 9810   0.529   1.975   0.552  0.8191  0.2853 -0.1030
  663TMC3    C5 9811   0.530   1.967   0.691  0.2098 -0.1530  0.1045
  663TMC3    C6 9812   0.622   2.053   0.757 -0.1833  0.5502 -0.2214
  663TMC3     C 9813   0.566   2.101   0.361 -0.4732 -0.1276  0.2112
  663TMC3     O 9814   0.533   2.009   0.285 -0.0990 -0.4404  0.2289
  663TMC3     H 9815   0.757   2.218   0.504 -0.8206 -0.0097 -0.7913
  663TMC3    H1 9816   0.464   1.912   0.492  1.7313 -1.4761  0.7326
  663TMC3    H2 9817   0.598   2.066   0.862  1.2952 -1.8926  0.4122
  663TMC3    C7 9818   0.429   1.907   0.766 -0.5211  0.7196 -0.1040
  663TMC3    C8 9819   0.677   2.282   0.720  0.0607  0.5366 -0.4699
  663TMC3    O1 9820   0.415   1.945   0.882  0.4522  0.1705  0.1549
  663TMC3    O2 9821   0.631   2.359   0.639  0.0598  0.2238  0.2430
  664MPD2     C 9822   3.653   0.669  17.499 -0.4439  0.6859  0.1825
  664MPD2    C1 9823   3.701   0.773  17.576 -0.5435 -0.4473 -0.0953
  664MPD2    C2 9824   3.699   0.756   0.006  0.2501  0.0426 -0.0441
  664MPD2    C3 9825   3.651   0.641   0.073 -0.8641 -0.4266  0.0048
  664MPD2    C4 9826   3.596   0.546  17.694  0.9272 -0.5566  0.5970
  664MPD2    C5 9827   3.606   0.560  17.555 -0.4662 -0.2665 -0.2187
  664MPD2     H 9828   3.734   0.839   0.066 -1.0154  0.1016  0.6175
  664MPD2    H1 9829   3.569   0.450   0.031 -1.5433 -0.0258  0.1923
  664MPD2    H2 9830   3.648   0.674  17.391 -2.8301 -1.9435  0.1435
  664MPD2    H3 9831   3.568   0.482  17.490 -1.2493 -0.2113  0.1764
  664MPD2     N 9832   3.644   0.641   0.213 -0.1023  0.1229  0.0959
  664MPD2    H5 9833   3.682   0.720   0.263  2.1665 -1.2672  0.5693
  664MPD2    N1 9834   3.738   0.897  17.520  0.1856 -0.1217  0.5985
  664MPD2    H7 9835   3.740   0.975  17.585  1.0188  1.2226 -1.0216
  665TMC3    C1 9836   3.644   0.561   0.429  0.2188 -0.7546 -1.0316
  665TMC3    C2 9837   3.542   0.521   0.517  0.1559 -0.0468 -0.5497
  665TMC3    C3 9838   3.538   0.571   0.640 -0.6603 -0.3803  0.4140
  665TMC3    C4 9839   3.738   0.655   0.469  0.7492 -0.3285  0.2293
  665TMC3    C5 9840   3.718   0.714   0.592 -0.1857 -0.6403 -0.4239
  665TMC3    C6 9841   3.630   0.661   0.681  0.5665 -0.3100 -0.8378
  665TMC3     C 9842   3.612   0.534   0.289  0.3710  0.5294  0.2859
  665TMC3     O 9843   3.561   0.429   0.262  0.4322 -0.0765  0.0059
  665TMC3     H 9844   3.475   0.444   0.480  0.4205 -0.0836 -0.9511
  665TMC3    H1 9845   3.822   0.687   0.408 -0.2029  1.0187 -0.3787
  665TMC3    H2 9846   3.622   0.688   0.786  1.6529  2.3908 -1.4516
  665TMC3    C7 9847   3.794   0.829   0.632  0.2614  0.3396  0.3987
  665TMC3    C8 9848   3.435   0.522   0.730 -0.0105  0.5136 -0.7873
  665TMC3    O1 9849   3.885   0.865   0.551  0.1416  0.2071 -0.0473
  665TMC3    O2 9850   3.409   0.405   0.719  0.1616 -0.4221  0.1678
  666TMC3    C1 9851   3.650   4.071  10.275 -0.0687 -0.2933  0.6499
  666TMC3    C2 9852   3.782   4.036  10.273  0.8734  0.8837 -0.2154
  666TMC3    C3 9853   3.870   4.108  10.194  0.1124 -0.3758  0.0070
  666TMC3    C4 9854   3.605   4.186  10.232 -0.0223  0.0326  0.2557
  666TMC3    C5 9855   3.697   4.270  10.171  0.1819 -0.2391 -0.0999
  666TMC3    C6 9856   3.829   4.233  10.153  0.1065 -0.4392 -0.5762
  666TMC3     C 9857   3.564   3.989  10.360  0.1542 -0.0801  0.5675
  666TMC3     O 9858   3.486   4.053  10.430  0.5499  0.6527 -0.1563
  666TMC3     H 9859   3.812   3.942  10.316 -0.3391  0.7133  0.2688
  666TMC3    H1 9860   3.500   4.212  10.242 -0.0885 -0.2147  0.2116
  666TMC3    H2 9861   3.907   4.296  10.110  0.8060 -0.8453  0.1099
  666TMC3    C7 9862   3.655   4.407  10.183  0.1803  0.2513  0.4713
  666TMC3    C8 9863   4.006   4.109  10.251  0.0796 -0.3361 -1.0866
  666TMC3    O1 9864   3.579   4.441  10.273  0.6158 -0.2968  0.1695
  666TMC3    O2 9865   4.092   4.149  10.176 -0.3233  0.0976  0.7494
  667MPD2     C 9866   0.510   0.255  14.712 -0.3980  0.2058 -0.3509
  667MPD2    C1 9867   0.399   0.311  14.764 -0.1512 -0.1178  0.0938
  667MPD2    C2 9868   0.297   0.227  14.795 -0.3134 -0.0858  0.2558
  667MPD2    C3 9869   0.302   0.093  14.766  0.2012 -0.7070  0.2317
  667MPD2    C4 9870   0.422   0.041  14.722  0.1625 -0.3441  0.0129
  667MPD2    C5 9871   0.526   0.124  14.691  0.7139 -0.0785 -0.4504
  667MPD2     H 9872   0.207   0.276  14.829 -0.6401 -0.0315 -0.6831
  667MPD2    H1 9873   0.414   4.659  14.716 -1.7528 -0.1833 -0.2811
  667MPD2    H2 9874   0.592   0.316  14.674 -0.1014 -0.3178 -0.5489
  667MPD2    H3 9875   0.621   0.097  14.646  1.3366 -0.2741  1.0113
  667MPD2     N 9876   0.194   0.004  14.785 -0.4485 -0.0217  0.2550
  667MPD2    H5 9877   0.203   4.629  14.772 -1.2028 -0.0621  0.0327
  667MPD2    N1 9878   0.387   0.449  14.801  0.1002  0.7052 -0.4767
  667MPD2    H7 9879   0.301   0.479  14.846  0.1414 -0.8269  0.6296
  668TMC3    C1 9880   0.403   0.679  14.787 -0.1050 -0.5444 -0.1792
  668TMC3    C2 9881   0.472   0.795  14.751  0.1902 -0.0075  0.3810
  668TMC3    C3 9882   0.442   0.910  14.816  0.0531 -0.3838 -0.0447
  668TMC3    C4 9883   0.297   0.682  14.877 -0.0021 -0.3685  0.0740
  668TMC3    C5 9884   0.266   0.802  14.938  0.2397  0.7549 -0.4976
  668TMC3    C6 9885   0.339   0.916  14.906 -0.6888 -0.4106  0.2154
  668TMC3     C 9886   0.456   0.553  14.742 -0.6392  0.6628  0.2007
  668TMC3     O 9887   0.552   0.550  14.666 -0.1138  0.0428  0.1958
  668TMC3     H 9888   0.555   0.793  14.681  0.7056 -0.2909  0.9950
  668TMC3    H1 9889   0.237   0.594  14.898  0.7141 -1.1095 -1.0312
  668TMC3    H2 9890   0.327   1.001  14.971  1.4758 -1.2658  1.7190
  668TMC3    C7 9891   0.148   0.830  15.024 -0.5176 -0.0242  0.1575
  668TMC3    C8 9892   0.455   1.030  14.739  0.7904 -0.0835 -0.2960
  668TMC3    O1 9893   0.126   0.948  15.056  0.4715 -0.7573  0.2592
  668TMC3    O2 9894   0.416   1.132  14.799  0.2822 -0.5714 -0.1504
  669TMC3    C1 9895   2.097   0.135  14.489 -0.6545 -0.2337 -0.5568
  669TMC3    C2 9896   1.993   0.102  14.409  0.0410  0.3544 -0.0659
  669TMC3    C3 9897   1.981   0.168  14.291  0.3433  0.0461  0.5046
  669TMC3    C4 9898   2.193   0.233  14.461 -0.5543 -0.0577  0.3960
  669TMC3    C5 9899   2.183   0.285  14.341  0.3038  0.0459  0.1354
  669TMC3    C6 9900   2.085   0.248  14.256  0.3883  0.0762  0.1236
  669TMC3     C 9901   2.073   0.116  14.630 -0.2052  0.7315 -0.1365
  669TMC3     O 9902   2.121   0.200  14.704 -0.4465 -0.9744 -0.7016
  669TMC3     H 9903   1.921   0.034  14.454  0.5786 -1.8022 -2.4439
  669TMC3    H1 9904   2.284   0.244  14.519 -1.6443 -0.0292  2.0934
  669TMC3    H2 9905   2.070   0.305  14.166  0.5091  0.8163  0.5675
  669TMC3    C7 9906   2.292   0.389  14.306  0.1978 -0.5278  0.1063
  669TMC3    C8 9907   1.888   0.119  14.199 -0.2294  0.0417  0.6676
  669TMC3    O1 9908   2.376   0.415  14.392 -0.1903 -0.3471 -0.6933
  669TMC3    O2 9909   1.855   0.003  14.209 -0.4307 -0.7244 -0.6550
  670MPD2     C 9910   0.644   2.397  13.221 -1.4824  0.0845 -0.3644
  670MPD2    C1 9911   0.737   2.406  13.326  0.0136  0.3930 -0.7011
  670MPD2    C2 9912   0.686   2.431  13.454 -1.3298  0.3662  1.2585
  670MPD2    C3 9913   0.554   2.446  13.481  0.4562  0.4140  0.5179
  670MPD2    C4 9914   0.468   2.432  13.375  0.0538 -0.2039  0.6811
  670MPD2    C5 9915   0.518   2.415  13.246 -0.0824  0.2180 -0.3644
  670MPD2     H 9916   0.758   2.451  13.533 -0.1357 -0.3841  0.3540
  670MPD2    H1 9917   0.360   2.441  13.377  0.2587  2.1073  1.5865
  670MPD2    H2 9918   0.681   2.378  13.121 -0.5158  0.8298 -0.1578
  670MPD2    H3 9919   0.453   2.406  13.160 -0.3807 -1.0166 -0.0026
  670MPD2     N 9920   0.516   2.455  13.616  0.2185  0.2265  0.1065
  670MPD2    H5 9921   0.593   2.486  13.674  1.8914 -1.3037 -1.2917
  670MPD2    N1 9922   0.883   2.418  13.307 -0.0590  0.1350  0.3481
  670MPD2    H7 9923   0.936   2.465  13.379  2.8618  1.4675 -2.6594
  671TMC3    C1 9924   0.388   2.453  13.797 -0.1538 -0.4931 -0.3471
  671TMC3    C2 9925   0.503   2.467  13.869 -0.1012 -1.1556  0.5250
  671TMC3    C3 9926   0.494   2.463  14.008 -0.4402  0.0858  0.3519
  671TMC3    C4 9927   0.269   2.435  13.856 -0.3705  0.6118 -0.4464
  671TMC3    C5 9928   0.260   2.424  13.993 -0.3610  1.2466 -0.3720
  671TMC3    C6 9929   0.374   2.439  14.069 -0.7287 -0.9569 -0.3140
  671TMC3     C 9930   0.390   2.456  13.655 -0.1813 -0.1137  0.5742
  671TMC3     O 9931   0.284   2.459  13.599  0.3421  0.6589  0.3623
  671TMC3     H 9932   0.604   2.465  13.830 -0.2421 -0.1801  0.1244
  671TMC3    H1 9933   0.181   2.438  13.793  1.0107  0.0787 -2.4077
  671TMC3    H2 9934   0.378   2.450  14.177  1.0228 -0.9836 -0.3781
  671TMC3    C7 9935   0.168   2.317  14.027 -0.0914 -0.8772  0.2226
  671TMC3    C8 9936   0.607   2.408  14.082  0.2514  0.0320  0.4237
  671TMC3    O1 9937   0.066   2.311  13.958  0.0461 -0.2046 -0.1836
  671TMC3    O2 9938   0.668   2.330  14.013  0.1252  0.1467 -0.2401
  672MPD2     C 9939   0.940   4.131   0.579 -0.8089  0.2425  0.0251
  672MPD2    C1 9940   0.957   4.014   0.651  0.5263 -0.1441 -0.6512
  672MPD2    C2 9941   1.033   4.010   0.765  0.6587 -0.1664 -0.1026
  672MPD2    C3 9942   1.097   4.129   0.802  0.2518  0.0090 -0.2209
  672MPD2    C4 9943   1.080   4.245   0.727 -0.5320  0.0282  0.5937
  672MPD2    C5 9944   0.997   4.246   0.622  0.5280  0.2629 -0.1454
  672MPD2     H 9945   1.047   3.920   0.822 -1.4851 -0.9708 -0.8557
  672MPD2    H1 9946   1.138   4.333   0.752 -0.8643 -0.0332  1.5788
  672MPD2    H2 9947   0.878   4.142   0.491  1.9126 -2.9061 -2.3251
  672MPD2    H3 9948   0.993   4.334   0.558 -0.8220  0.3260  0.0087
  672MPD2     N 9949   1.179   4.140   0.915 -0.2854 -0.0411 -0.3658
  672MPD2    H5 9950   1.190   4.236   0.947 -1.0515 -0.0107 -0.1973
  672MPD2    N1 9951   0.887   3.905   0.597  0.2416 -0.0348  0.1144
  672MPD2    H7 9952   0.835   3.925   0.512  1.0076  0.0390 -0.3355
  673TMC3    C1 9953   0.843   3.685   0.553 -0.1122  0.1415 -0.3377
  673TMC3    C2 9954   0.904   3.564   0.526 -0.4508 -0.3849  0.1762
  673TMC3    C3 9955   0.820   3.459   0.511 -0.4055  0.1802  0.4573
  673TMC3    C4 9956   0.709   3.705   0.549  0.8235  0.0088  0.2526
  673TMC3    C5 9957   0.626   3.595   0.532 -0.1532  0.0294  0.6302
  673TMC3    C6 9958   0.686   3.479   0.506  0.8815 -0.1990 -0.6092
  673TMC3     C 9959   0.921   3.773   0.630 -0.8310  0.2316  0.2293
  673TMC3     O 9960   1.005   3.727   0.702  0.1852  0.2651 -0.2551
  673TMC3     H 9961   1.013   3.562   0.524 -0.5021 -0.4675 -2.6074
  673TMC3    H1 9962   0.667   3.794   0.595 -0.4034  0.1432 -1.1286
  673TMC3    H2 9963   0.623   3.392   0.493  0.0262  0.0048  2.1926
  673TMC3    C7 9964   0.486   3.605   0.516  0.4725  0.1267 -0.6315
  673TMC3    C8 9965   0.877   3.326   0.478  0.3106 -0.0796 -1.1161
  673TMC3    O1 9966   0.415   3.503   0.522  0.1288  0.8076  0.4667
  673TMC3    O2 9967   0.798   3.245   0.429  0.5387  0.1870  0.1553
  674MPD2     C 9968   0.875   3.894   1.133 -0.4320 -0.7878  0.5201
  674MPD2    C1 9969   0.866   3.768   1.072  0.7426  0.0920  0.5529
  674MPD2    C2 9970   0.771   3.760   0.968 -0.4227  0.7098  0.6811
  674MPD2    C3 9971   0.679   3.856   0.942  0.1258 -0.0390 -0.2732
  674MPD2    C4 9972   0.687   3.977   1.010  0.1183  0.6017  0.2328
  674MPD2    C5 9973   0.792   3.994   1.092  0.0440 -0.0594 -0.5132
  674MPD2     H 9974   0.766   3.670   0.909 -3.4092  1.0647  0.3919
  674MPD2    H1 9975   0.604   4.047   1.010 -2.3059 -2.2803 -0.1576
  674MPD2    H2 9976   0.952   3.927   1.202 -2.3307  1.6839  1.4574
  674MPD2    H3 9977   0.810   4.096   1.122  0.7357  0.9134 -4.2484
  674MPD2     N 9978   0.578   3.836   0.847 -0.1130  0.3011 -0.3468
  674MPD2    H5 9979   0.575   3.738   0.820 -0.9259  0.8367 -2.1810
  674MPD2    N1 9980   0.944   3.654   1.102 -0.2760 -0.3253  0.6489
  674MPD2    H7 9981   0.924   3.569   1.051  1.5647 -1.6290  2.0818
  675TMC3    C1 9982   1.031   3.495   1.247 -0.1491 -0.0839 -0.0266
  675TMC3    C2 9983   1.049   3.464   1.384 -0.7511 -0.5155 -0.8096
  675TMC3    C3 9984   1.106   3.343   1.413 -0.2694 -0.1310  0.7841
  675TMC3    C4 9985   1.072   3.409   1.147  1.0638  0.5471 -0.2922
  675TMC3    C5 9986   1.128   3.291   1.184 -0.2941  0.2048  0.8106
  675TMC3    C6 9987   1.152   3.260   1.312  0.6198 -0.2590 -0.2034
  675TMC3     C 9988   1.002   3.634   1.227 -0.3130  0.5084  0.1419
  675TMC3     O 9989   1.013   3.712   1.320 -0.3141 -0.4728 -0.1098
  675TMC3     H 9990   1.018   3.534   1.461  1.6534 -1.9323  1.4678
  675TMC3    H1 9991   1.058   3.434   1.042 -3.7377 -0.9414 -0.0322
  675TMC3    H2 9992   1.205   3.168   1.331  0.6986 -0.3205 -0.7172
  675TMC3    C7 9993   1.148   3.200   1.075  0.0975  0.3217  0.2673
  675TMC3    C8 9994   1.133   3.304   1.555 -0.0025  0.5789  0.1580
  675TMC3    O1 9995   1.133   3.244   0.961  0.0396 -0.1719 -0.1003
  675TMC3    O2 9996   1.135   3.397   1.633  0.5711 -0.3531 -0.1343
  676MPD2     C 9997   4.161   0.828  10.901  0.6350 -0.1243  0.2834
  676MPD2    C1 9998   4.064   0.788  10.983 -0.3567  1.0896  0.2426
  676MPD2    C2 9999   4.016   0.658  10.973  0.7501  0.0746  0.1098
  676MPD2    C310000   4.068   0.572  10.880 -0.1787  0.1426 -0.0026
  676MPD2    C410001   4.171   0.619  10.801  0.6191 -0.5475 -0.6366
  676MPD2    C510002   4.217   0.743  10.814 -0.2408  0.0347 -0.2323
  676MPD2     H10003   3.934   0.621  11.034  1.1794 -0.2561  0.4951
  676MPD2    H110004   4.212   0.550  10.728  2.1258 -0.1769 -0.1417
  676MPD2    H210005   4.211   0.924  10.905 -1.1993  0.9236 -1.2493
  676MPD2    H310006   4.292   0.785  10.748  0.9837  0.1580  1.2445
  676MPD2     N10007   4.028   0.439  10.863  0.0878 -0.2768 -0.0648
  676MPD2    H510008   4.074   0.392  10.785 -1.4858 -0.2771 -0.9912
  676MPD2    N110009   4.013   0.865  11.080  0.3156  0.1624 -0.2007
  676MPD2    H710010   3.931   0.828  11.129 -0.8639  1.3357 -1.2864
  677TMC3    C110011   3.948   1.052  11.201 -0.1328  0.2687  0.7179
  677TMC3    C210012   3.834   0.984  11.246  0.5041  0.0529 -0.4920
  677TMC3    C310013   3.754   1.047  11.332  0.4335 -0.1484  0.7219
  677TMC3    C410014   3.980   1.174  11.246 -0.0659  0.0100  0.3641
  677TMC3    C510015   3.890   1.239  11.331  0.5196 -0.9343  0.1429
  677TMC3    C610016   3.775   1.177  11.373  0.7449 -0.6241 -0.0737
  677TMC3     C10017   4.050   0.989  11.119 -0.4729 -0.3336 -0.4813
  677TMC3     O10018   4.144   1.057  11.076 -0.2773  0.2347 -0.2190
  677TMC3     H10019   3.796   0.885  11.223 -1.9912  0.7610  0.6424
  677TMC3    H110020   4.069   1.222  11.206 -0.8607  1.2926  0.1420
  677TMC3    H210021   3.701   1.223  11.437  1.6537 -0.8381  1.1306
  677TMC3    C710022   3.940   1.330  11.429  0.2420  0.1134 -0.4426
  677TMC3    C810023   3.639   0.976  11.380 -0.4086  0.1213  0.3268
  677TMC3    O110024   3.859   1.355  11.514 -0.4116  0.3641  0.5396
  677TMC3    O210025   3.580   0.900  11.304  0.2711 -0.3204  0.5554
  678MPD2     C10026   4.535   1.793   1.964 -0.1904 -0.1311  0.0070
  678MPD2    C110027   4.585   1.712   1.868  0.4399  0.1506 -0.3578
  678MPD2    C210028   4.496   1.633   1.794  0.6245  0.1827 -0.0757
  678MPD2    C310029   4.359   1.661   1.803 -0.3788 -0.3103  0.3441
  678MPD2    C410030   4.310   1.752   1.895  0.5046 -0.7444 -0.0906
  678MPD2    C510031   4.399   1.817   1.971 -0.4334  0.3551 -0.4536
  678MPD2     H10032   4.522   1.563   1.716 -2.1317 -0.4328 -0.4459
  678MPD2    H110033   4.207   1.781   1.904  1.0770  1.4180 -0.5438
  678MPD2    H210034   4.599   1.852   2.029  1.0559 -1.1886 -0.2343
  678MPD2    H310035   4.347   1.881   2.041 -1.5747  0.0384 -1.0063
  678MPD2     N10036   4.269   1.579   1.723  0.2031 -0.4258 -0.5068
  678MPD2    H510037   4.317   1.501   1.678  0.0393 -0.7448 -0.1320
  678MPD2    N110038   4.723   1.693   1.838 -0.7770 -0.0916  0.1252
  678MPD2    H710039   0.031   1.624   1.772  1.6466  0.9745  0.2684
  679TMC3    C110040   0.373   1.555   1.878  0.1022 -0.1410  0.1214
  679TMC3    C210041   0.245   1.592   1.903 -0.0120  0.2217 -0.3576
  679TMC3    C310042   0.217   1.725   1.918 -0.2670 -0.3895  0.0341
  679TMC3    C410043   0.475   1.645   1.883 -0.2522 -0.1385 -0.4924
  679TMC3    C510044   0.445   1.779   1.908  0.2348 -0.5144  0.1636
  679TMC3    C610045   0.316   1.821   1.931  0.7319 -0.0943 -0.3277
  679TMC3     C10046   0.404   1.416   1.856  1.1875  1.1882  0.1341
  679TMC3     O10047   0.317   1.341   1.811 -0.4964  0.4643  0.2439
  679TMC3     H10048   0.164   1.521   1.911  1.8427 -1.6610  1.7023
  679TMC3    H110049   0.573   1.621   1.844  0.0277 -1.7320  1.2152
  679TMC3    H210050   0.295   1.922   1.965  1.3082  0.0181 -0.3148
  679TMC3    C710051   0.553   1.868   1.911 -0.4587  0.2222  0.2496
  679TMC3    C810052   0.085   1.785   1.896 -0.1634 -0.8555 -0.8710
  679TMC3    O110053   0.520   1.984   1.885  0.5782 -0.5579 -0.1122
  679TMC3    O210054   0.069   1.902   1.936 -0.2051 -0.1563 -0.5020
  680MPD2     C10055   0.139   4.160  13.606  0.2223 -0.3221  0.6410
  680MPD2    C110056   0.241   4.101  13.680  0.1892 -0.2640  0.9835
  680MPD2    C210057   0.339   4.182  13.726 -0.3219  0.0073  0.8592
  680MPD2    C310058   0.325   4.319  13.730 -0.3942  0.0205 -0.1275
  680MPD2    C410059   0.219   4.376  13.654  0.7339 -0.1650 -0.8011
  680MPD2    C510060   0.136   4.294  13.586 -0.3448 -0.0834  0.0041
  680MPD2     H10061   0.428   4.135  13.764  0.8298  1.3919 -0.1132
  680MPD2    H110062   0.208   4.483  13.642 -0.3773 -0.2303 -0.3550
  680MPD2    H210063   0.056   4.102  13.568 -0.4047  1.3574 -0.5138
  680MPD2    H310064   0.058   4.336  13.524 -0.5573 -1.6576 -0.7825
  680MPD2     N10065   0.425   4.401  13.792 -0.6310 -0.2580  0.0005
  680MPD2    H510066   0.416   4.500  13.771 -2.0510 -0.5474 -0.7089
  680MPD2    N110067   0.244   3.963  13.723  0.1133 -0.6679  0.1882
  680MPD2    H710068   0.333   3.938  13.765 -0.7985 -1.1243  1.7945
  681TMC3    C110069   0.177   3.773  13.809  0.3722  0.8454 -0.0515
  681TMC3    C210070   0.111   3.772  13.929 -0.3603  0.6184 -0.3437
  681TMC3    C310071   0.194   3.748  14.043 -0.0089  0.1612  0.1340
  681TMC3    C410072   0.311   3.740  13.794 -0.2656 -0.3633 -0.4781
  681TMC3    C510073   0.380   3.717  13.910  0.1714 -0.1900  0.0810
  681TMC3    C610074   0.327   3.729  14.035  0.4059 -0.3103  0.4184
  681TMC3     C10075   0.136   3.876  13.727 -0.0469  0.8313  0.9602
  681TMC3     O10076   0.018   3.906  13.699  0.0814  0.1412 -0.2486
  681TMC3     H10077   0.007   3.797  13.948 -0.1055  0.4180  1.3428
  681TMC3    H110078   0.353   3.729  13.695  0.1160 -3.1311  0.0069
  681TMC3    H210079   0.377   3.703  14.128 -0.5449 -0.8244  0.7813
  681TMC3    C710080   0.502   3.633  13.898  0.1168 -0.1563  0.4715
  681TMC3    C810081   0.152   3.810  14.165  0.0721  0.7326 -0.8543
  681TMC3    O110082   0.518   3.553  13.991 -0.0268 -0.1368 -0.4087
  681TMC3    O210083   0.040   3.772  14.208  0.1969 -0.3009 -0.2257
  682MPD2     C10084   3.217   0.937  10.603 -0.3102  0.0789  0.0567
  682MPD2    C110085   3.148   0.818  10.597 -0.3004 -0.4685  0.4183
  682MPD2    C210086   3.027   0.814  10.666  0.5322  0.1017  0.0799
  682MPD2    C310087   2.977   0.929  10.727  0.9374  0.1313  0.1561
  682MPD2    C410088   3.051   1.040  10.730  1.3041  0.1252 -0.6674
  682MPD2    C510089   3.168   1.049  10.665  0.4964  0.6164  0.1250
  682MPD2     H10090   2.971   0.722  10.668  2.6068 -1.1740 -0.4388
  682MPD2    H110091   3.017   1.129  10.781 -0.8346 -0.0365 -1.8269
  682MPD2    H210092   3.315   0.938  10.557 -1.2240  2.2381 -1.8323
  682MPD2    H310093   3.225   1.141  10.667 -0.9003  1.4713  0.3430
  682MPD2     N10094   2.848   0.923  10.783 -0.3523 -0.2917  0.2563
  682MPD2    H510095   2.805   0.831  10.770 -0.3027 -0.2431 -0.2654
  682MPD2    N110096   3.200   0.698  10.536  0.4885  0.3643  0.3033
  682MPD2    H710097   3.147   0.614  10.558 -1.2464  1.4605  0.2813
  683TMC3    C110098   2.526   0.970  11.122 -0.1845  0.9489 -0.5940
  683TMC3    C210099   2.445   0.871  11.068 -0.3524  0.9025  0.0263
  683TMC3    C310100   2.479   0.831  10.945  0.6321 -0.4542 -0.5567
  683TMC3    C410101   2.644   1.017  11.058  0.2510  0.5314  0.2041
  683TMC3    C510102   2.673   0.963  10.934  0.1733 -0.7562 -0.3267
  683TMC3    C610103   2.587   0.870  10.875 -0.5696 -0.7147  0.6276
  683TMC3     C10104   2.502   1.020  11.258  0.1136 -1.0264  0.2877
  683TMC3     O10105   2.600   1.083  11.304 -0.4214  0.3070  0.0585
  683TMC3     H10106   2.353   0.837  11.114 -0.0840  0.1548  0.0050
  683TMC3    H110107   2.708   1.094  11.101  1.1694  0.0069 -0.2253
  683TMC3    H210108   2.600   0.851  10.769 -0.0228  0.2380  0.5204
  683TMC3    C710109   2.793   1.015  10.873  0.2659  0.3803  0.0521
  683TMC3    C810110   2.390   0.739  10.877 -0.9362 -0.2271  0.5955
  683TMC3    O110111   2.804   1.139  10.879 -0.0350  0.0466  0.4352
  683TMC3    O210112   2.411   0.733  10.753 -0.3020 -0.1436 -0.5648
  684MPD2     C10113   0.866   1.218  16.794  0.4699  0.4417 -1.2033
  684MPD2    C110114   0.781   1.206  16.682  0.0527 -0.1855  0.9412
  684MPD2    C210115   0.681   1.294  16.670 -0.0171 -0.0485  0.2317
  684MPD2    C310116   0.677   1.399  16.760  0.1403 -0.3804 -0.2081
  684MPD2    C410117   0.764   1.402  16.865  0.2577  0.1835  0.2552
  684MPD2    C510118   0.860   1.315  16.887 -0.6271  0.2818  0.0535
  684MPD2     H10119   0.616   1.283  16.583  1.1960  0.4481 -0.7338
  684MPD2    H110120   0.764   1.484  16.937  2.4140  0.1369  0.3279
  684MPD2    H210121   0.949   1.149  16.804  0.4465  0.4209 -1.1540
  684MPD2    H310122   0.908   1.327  16.983 -3.5672 -2.5540  1.8830
  684MPD2     N10123   0.591   1.510  16.752 -0.6272  0.3460  0.2860
  684MPD2    H510124   0.604   1.579  16.826  0.7487 -0.7633  1.0863
  684MPD2    N110125   0.786   1.105  16.582 -0.3209  0.0753  0.5903
  684MPD2    H710126   0.716   1.098  16.508  2.1021  0.4195 -1.7586
  685TMC3    C110127   0.887   0.937  16.452 -0.0008 -0.7681  0.2909
  685TMC3    C210128   0.774   0.864  16.455 -0.6496  0.4912  0.3343
  685TMC3    C310129   0.779   0.737  16.411  0.6584  0.1630 -0.5828
  685TMC3    C410130   1.005   0.879  16.420  1.1274 -0.2550 -0.1283
  685TMC3    C510131   1.015   0.746  16.394  0.1393  1.2359 -0.0164
  685TMC3    C610132   0.903   0.675  16.383 -0.1362  0.3646  0.1337
  685TMC3     C10133   0.903   1.040  16.553 -0.5657 -0.1408 -0.7462
  685TMC3     O10134   1.013   1.045  16.601  0.0428  0.2080 -0.3041
  685TMC3     H10135   0.684   0.898  16.505 -0.4781 -2.0207  2.3567
  685TMC3    H110136   1.093   0.943  16.420  1.4779 -0.7263  0.7318
  685TMC3    H210137   0.904   0.578  16.334  1.5014 -0.2335  1.3552
  685TMC3    C710138   1.130   0.677  16.456  0.4266  0.1105  0.2805
  685TMC3    C810139   0.658   0.659  16.380  0.2196 -0.3907  0.2472
  685TMC3    O110140   1.152   0.562  16.419 -0.1214 -0.4552 -0.0157
  685TMC3    O210141   0.664   0.538  16.357 -0.5906  0.0430  0.4686
  686MPD2     C10142   1.669   1.218  16.041  0.5178  1.4033 -0.0841
  686MPD2    C110143   1.673   1.083  16.065  0.0699  0.3893 -0.8684
  686MPD2    C210144   1.768   1.011  16.003 -0.3101  0.5996 -0.1715
  686MPD2    C310145   1.859   1.070  15.926  0.4371 -0.1195  0.1548
  686MPD2    C410146   1.857   1.207  15.895  1.0172 -0.4703  0.2156
  686MPD2    C510147   1.755   1.281  15.952  0.0524  0.5005  0.5346
  686MPD2     H10148   1.774   0.904  16.025  1.0444  0.3825 -1.5724
  686MPD2    H110149   1.923   1.262  15.829 -0.7170  2.0847  0.6200
  686MPD2    H210150   1.597   1.282  16.089 -0.1355 -1.2529  2.5211
  686MPD2    H310151   1.744   1.388  15.935  0.8009  0.2991 -1.1828
  686MPD2     N10152   1.966   0.980  15.885  0.2632 -0.3487 -0.4107
  686MPD2    H510153   1.953   0.882  15.907 -0.4052 -0.7326 -2.4952
  686MPD2    N110154   1.602   1.028  16.169 -0.3286  0.5157 -0.1433
  686MPD2    H710155   1.622   0.930  16.183  0.4948  0.3854 -2.2851
  687TMC3    C110156   2.173   0.894  15.844 -0.2743 -0.9401  1.0622
  687TMC3    C210157   2.102   0.781  15.824 -0.0590 -0.2560  0.0337
  687TMC3    C310158   2.126   0.669  15.905 -0.6229 -0.0625  0.0858
  687TMC3    C410159   2.272   0.904  15.943 -0.4982 -0.5115  0.1978
  687TMC3    C510160   2.292   0.792  16.017  0.3261 -0.6585  0.0502
  687TMC3    C610161   2.223   0.671  16.004  0.0990 -0.1430  0.1715
  687TMC3     C10162   2.088   1.017  15.835  0.1963 -0.2482 -0.2390
  687TMC3     O10163   2.141   1.124  15.849 -0.3067  0.1523 -0.1178
  687TMC3     H10164   2.028   0.767  15.745 -1.0715 -0.3442  0.9915
  687TMC3    H110165   2.306   1.003  15.972 -2.6220  0.4069 -0.4710
  687TMC3    H210166   2.247   0.592  16.074 -1.5802  0.6498  1.6394
  687TMC3    C710167   2.364   0.821  16.136 -0.3192  0.0800  0.2871
  687TMC3    C810168   2.011   0.581  15.938 -0.6469  0.6085 -0.5716
  687TMC3    O110169   2.462   0.893  16.122 -0.0968  0.3709 -0.4947
  687TMC3    O210170   2.020   0.526  16.046 -0.8917 -0.1611  0.2169
  688MPD2     C10171   1.386   0.105  17.581 -0.1547 -0.5264  0.6560
  688MPD2    C110172   1.395   4.702  17.621  0.0149  0.0427 -0.5033
  688MPD2    C210173   1.508   4.629  17.579  0.2213  0.2416  0.2639
  688MPD2    C310174   1.606   4.681  17.499 -0.6782 -0.0878  0.5676
  688MPD2    C410175   1.591   0.084  17.453  0.1064 -0.0892 -0.1057
  688MPD2    C510176   1.482   0.155  17.503  1.0356 -0.5640 -0.2282
  688MPD2     H10177   1.498   4.524  17.603  2.6545 -0.1200 -0.3382
  688MPD2    H110178   1.660   0.139  17.390 -1.3182  1.1930 -0.5361
  688MPD2    H210179   1.302   0.172  17.595  1.9177  2.4315 -1.0402
  688MPD2    H310180   1.478   0.259  17.472  0.5047 -0.3407  0.5769
  688MPD2     N10181   1.708   4.598  17.457  0.2628 -0.1792 -0.6460
  688MPD2    H510182   1.779   4.635  17.394  1.9672 -0.9197  0.8415
  688MPD2    N110183   1.288   4.629  17.686  0.6755  0.0279  0.4438
  688MPD2    H710184   1.303   4.529  17.695  0.8973 -0.1355 -1.7527
  689TMC3    C110185   1.095   4.590   0.103 -0.0296 -0.2543 -0.0357
  689TMC3    C210186   0.998   4.637   0.185  0.3055  0.2710 -0.5900
  689TMC3    C310187   0.930   4.546   0.265 -0.5141 -0.1200  0.1352
  689TMC3    C410188   1.122   4.453   0.097  0.5683  0.2403  0.5442
  689TMC3    C510189   1.048   4.364   0.171  0.0883  0.2803  0.5963
  689TMC3    C610190   0.956   4.408   0.260  0.0591 -0.3703  0.0519
  689TMC3     C10191   1.174   4.691   0.035  0.3134  0.3188  0.0927
  689TMC3     O10192   1.127   0.074   0.016 -0.4210 -0.1900 -0.2922
  689TMC3     H10193   1.001   0.019   0.201  0.0737  0.8336 -4.4213
  689TMC3    H110194   1.205   4.410   0.042 -0.7127  1.6684 -2.5063
  689TMC3    H210195   0.915   4.333   0.327  0.3703 -1.7047 -1.2496
  689TMC3    C710196   1.079   4.228   0.165  0.2355  0.6417  0.0367
  689TMC3    C810197   0.870   4.591   0.390 -0.5290 -0.1263  0.0141
  689TMC3    O110198   1.200   4.200   0.172 -0.3931 -0.4547 -0.4474
  689TMC3    O210199   0.792   4.512   0.445 -0.1502 -1.0098  0.3597
  690MPD2     C10200   3.711   1.605  15.911  0.5807  0.2847 -0.1450
  690MPD2    C110201   3.694   1.532  15.794 -0.2431 -0.3144 -0.9553
  690MPD2    C210202   3.793   1.530  15.700 -0.2471  0.8005  0.1589
  690MPD2    C310203   3.916   1.596  15.726 -0.6160 -0.2026 -0.0864
  690MPD2    C410204   3.931   1.663  15.839  0.3229  0.0518 -0.1427
  690MPD2    C510205   3.841   1.655  15.936 -0.6213  0.7178 -0.8418
  690MPD2     H10206   3.784   1.463  15.615  1.3874 -1.3277  1.6924
  690MPD2    H110207   4.025   1.714  15.860 -0.9095  1.5431  1.7078
  690MPD2    H210208   3.634   1.610  15.987 -0.8319 -0.2569 -1.5689
  690MPD2    H310209   3.856   1.704  16.031 -2.7825 -2.9618  1.3749
  690MPD2     N10210   4.014   1.595  15.620  0.0926  0.0993  0.6353
  690MPD2    H510211   3.987   1.562  15.528 -0.9437 -1.1224  1.3968
  690MPD2    N110212   3.575   1.468  15.757  0.1220 -0.1148  0.1036
  690MPD2    H710213   3.574   1.420  15.667 -0.1824 -1.0862  0.6212
  691TMC3    C110214   3.358   1.373  15.788  0.2017  0.0153 -0.5921
  691TMC3    C210215   3.225   1.402  15.808 -0.3773 -0.4654  0.2353
  691TMC3    C310216   3.142   1.314  15.754  0.4608  0.9167 -0.1192
  691TMC3    C410217   3.401   1.262  15.718 -0.0027 -0.8254  0.2980
  691TMC3    C510218   3.305   1.176  15.677 -0.4489 -0.2222  0.3939
  691TMC3    C610219   3.172   1.207  15.678 -0.0885  0.0858  0.2273
  691TMC3     C10220   3.458   1.473  15.833  0.2312 -0.7939 -0.4117
  691TMC3     O10221   3.426   1.533  15.936 -0.0257  0.0641 -0.5705
  691TMC3     H10222   3.199   1.504  15.834  1.8198  0.0761  0.2934
  691TMC3    H110223   3.506   1.236  15.727 -0.1632 -1.1761  1.1151
  691TMC3    H210224   3.090   1.145  15.642 -0.0044  0.3885 -0.4900
  691TMC3    C710225   3.338   1.042  15.724  0.1431 -0.6531  0.3253
  691TMC3    C810226   3.038   1.282  15.840  0.2919 -0.1469 -0.2461
  691TMC3    O110227   3.456   1.001  15.725 -0.3840  0.3338 -0.5963
  691TMC3    O210228   3.030   1.161  15.865  0.1526 -0.3713  0.8572
  692TMC3    C110229   0.344   2.675  15.790  0.0744  0.8798  0.3364
  692TMC3    C210230   0.448   2.747  15.840  0.1637  0.1149  0.3538
  692TMC3    C310231   0.531   2.682  15.931 -0.5770  0.5125  0.4076
  692TMC3    C410232   0.326   2.542  15.813  0.8447  0.1538 -0.3843
  692TMC3    C510233   0.404   2.483  15.907 -0.0156 -0.3245 -0.4500
  692TMC3    C610234   0.501   2.550  15.966 -0.0877  0.1855  0.3035
  692TMC3     C10235   0.215   2.736  15.783 -0.2072 -0.0402  0.1275
  692TMC3     O10236   0.117   2.668  15.813 -0.0059  0.6146  0.4212
  692TMC3     H10237   0.461   2.854  15.828 -0.1302  0.2346  1.1122
  692TMC3    H110238   0.245   2.485  15.768  0.3925 -0.3275  1.0335
  692TMC3    H210239   0.580   2.492  16.012 -0.4053 -2.1741 -2.1331
  692TMC3    C710240   0.425   2.341  15.901 -0.4933  0.3154  0.3339
  692TMC3    C810241   0.567   2.773  16.036 -0.4159  0.4117  0.3698
  692TMC3    O110242   0.419   2.290  15.786 -0.1701  0.0826 -0.0187
  692TMC3    O210243   0.574   2.894  16.011 -1.0785 -0.0098  0.7423
  693MPD2     C10244   0.536   0.423  10.582 -0.3245 -0.3232 -0.3600
  693MPD2    C110245   0.488   0.304  10.523  0.0965  0.1281 -0.4584
  693MPD2    C210246   0.583   0.204  10.497 -0.1433  0.0268  0.2561
  693MPD2    C310247   0.717   0.217  10.532  0.0438 -0.0931 -0.4490
  693MPD2    C410248   0.762   0.339  10.581 -0.6590  1.1865 -0.4735
  693MPD2    C510249   0.672   0.433  10.609 -0.4374  0.1535 -0.6091
  693MPD2     H10250   0.546   0.109  10.460  0.1512 -0.6739  1.7658
  693MPD2    H110251   0.863   0.355  10.614 -1.1330  1.6962  0.7052
  693MPD2    H210252   0.476   0.504  10.622 -2.0719 -0.7141 -2.1816
  693MPD2    H310253   0.709   0.524  10.656  0.2830 -1.2401  1.5480
  693MPD2     N10254   0.807   0.106  10.541 -0.0126  0.0274  0.3038
  693MPD2    H510255   0.898   0.130  10.579 -1.0736  1.5866  1.9096
  693MPD2    N110256   0.349   0.283  10.501  0.1666 -0.1340  0.2198
  693MPD2    H710257   0.296   0.368  10.514 -0.8355 -0.8651  0.8318
  694TMC3    C110258   0.155   0.151  10.530  0.5577 -0.1992 -0.7266
  694TMC3    C210259   0.085   0.037  10.486 -0.6618 -0.5955 -0.1976
  694TMC3    C310260   0.034   4.678  10.574 -0.4170 -0.8040 -0.1598
  694TMC3    C410261   0.149   0.185  10.664 -0.6765  0.3041  0.0521
  694TMC3    C510262   0.103   0.089  10.754 -0.6682 -0.4103  0.1894
  694TMC3    C610263   0.044   4.701  10.711 -0.1138 -0.3133  0.2521
  694TMC3     C10264   0.288   0.164  10.479  0.3967 -0.0335 -0.6402
  694TMC3     O10265   0.328   0.055  10.445  0.1330 -0.4497  0.2302
  694TMC3     H10266   0.111   0.011  10.384  2.4623  0.1656  0.3898
  694TMC3    H110267   0.189   0.274  10.709  1.0338 -1.9134  2.9111
  694TMC3    H210268   0.020   4.625  10.784 -1.4646  0.2791  0.4405
  694TMC3    C710269   0.102   0.131  10.892 -0.2608  0.2956 -0.6063
  694TMC3    C810270   4.711   4.555  10.524 -0.1800  0.8330 -0.6904
  694TMC3    O110271   0.079   0.248  10.921  0.2395  0.2973 -0.4401
  694TMC3    O210272   4.714   4.462  10.604 -0.3130  0.6209 -0.0846
  695MPD2     C10273   0.715   1.944  13.566  0.5753 -0.3921  0.5121
  695MPD2    C110274   0.682   1.944  13.703 -0.2085 -0.3986  0.0434
  695MPD2    C210275   0.553   1.974  13.739  0.0010  0.0895 -0.2167
  695MPD2    C310276   0.457   2.014  13.651 -0.0915 -0.4953  0.3266
  695MPD2    C410277   0.490   2.015  13.514 -0.1653  0.1032  0.0914
  695MPD2    C510278   0.619   1.986  13.474  0.2035 -1.0091 -0.1251
  695MPD2     H10279   0.533   1.975  13.845  0.8800  2.0109 -0.0607
  695MPD2    H110280   0.414   2.038  13.439 -1.2940  3.2553  2.1614
  695MPD2    H210281   0.815   1.926  13.528  0.8743  0.1692  1.0342
  695MPD2    H310282   0.645   1.997  13.370  0.1861  0.8539  0.0657
  695MPD2     N10283   0.329   2.040  13.699  0.1079 -0.7401 -0.1603
  695MPD2    H510284   0.318   2.020  13.798 -1.9766 -0.0988 -0.2758
  695MPD2    N110285   0.770   1.903  13.807  0.5442 -0.5651 -0.1818
  695MPD2    H710286   0.730   1.893  13.900  2.5980  2.4826  1.0261
  696TMC3    C110287   0.102   2.098  13.709 -0.2226  0.4294 -0.5459
  696TMC3    C210288   0.072   1.991  13.792  0.5233  0.5470  0.2013
  696TMC3    C310289   4.657   1.988  13.827  0.5499 -0.0233 -0.2953
  696TMC3    C410290   0.011   2.177  13.654  0.2644 -0.1090 -0.3131
  696TMC3    C510291   4.603   2.156  13.677  0.5504  0.0464 -0.6575
  696TMC3    C610292   4.560   2.076  13.785  0.0556 -0.5614 -0.6089
  696TMC3     C10293   0.222   2.089  13.625 -0.1118 -0.2619 -0.0008
  696TMC3     O10294   0.210   2.094  13.503 -0.1134 -0.0887  0.5109
  696TMC3     H10295   0.147   1.924  13.834  0.6327  0.4906 -0.0902
  696TMC3    H110296   0.036   2.243  13.572 -0.1066 -0.3859 -0.6494
  696TMC3    H210297   4.461   2.064  13.825  0.3660  0.8109  0.5562
  696TMC3    C710298   4.532   2.280  13.662 -0.2711  0.0958 -0.3965
  696TMC3    C810299   4.607   1.883  13.914  0.1184 -0.1250 -0.2309
  696TMC3    O110300   4.445   2.285  13.573  0.1756  0.5868  0.1541
  696TMC3    O210301   4.511   1.826  13.869  0.1575  0.4490 -0.4016
  697MPD2     C10302   0.253   3.808  15.761  0.0008  0.4498 -0.6453
  697MPD2    C110303   0.265   3.769  15.630 -0.1157  0.4388  0.6368
  697MPD2    C210304   0.273   3.865  15.530 -0.2186  0.8562 -0.1016
  697MPD2    C310305   0.265   3.998  15.573 -0.1705 -0.3796 -0.4918
  697MPD2    C410306   0.255   4.035  15.703 -0.2619 -0.6777 -0.3980
  697MPD2    C510307   0.256   3.939  15.799 -0.3189  0.7065 -0.0863
  697MPD2     H10308   0.270   3.831  15.427  0.0615  2.8826 -0.7986
  697MPD2    H110309   0.242   4.136  15.741 -0.2445 -0.6015 -0.5950
  697MPD2    H210310   0.247   3.738  15.843 -0.3155 -0.6846 -1.6461
  697MPD2    H310311   0.266   3.958  15.905  2.4600  0.3581 -0.3084
  697MPD2     N10312   0.240   4.085  15.460 -0.2960  0.8376 -0.3238
  697MPD2    H510313   0.235   4.031  15.374  1.3599  0.7310 -0.3477
  697MPD2    N110314   0.276   3.631  15.590  0.0092 -0.5690 -0.2024
  697MPD2    H710315   0.271   3.613  15.491 -2.5826 -0.7343 -0.0336
  698TMC3    C110316   0.182   4.288  15.354 -0.0792 -0.3875  0.2868
  698TMC3    C210317   0.210   4.418  15.364  0.4422 -0.3427  0.3289
  698TMC3    C310318   0.193   4.492  15.252  0.0680 -0.3639 -0.2117
  698TMC3    C410319   0.125   4.234  15.248  0.0415  0.7442  0.7389
  698TMC3    C510320   0.116   4.304  15.134  0.5762 -0.9354  0.4933
  698TMC3    C610321   0.145   4.436  15.142 -0.2096  0.3574 -0.6384
  698TMC3     C10322   0.210   4.218  15.471 -0.1760  0.2055  0.6569
  698TMC3     O10323   0.179   4.277  15.574  0.2984  0.1009  0.6981
  698TMC3     H10324   0.255   4.461  15.452 -0.4933  0.2360  0.5322
  698TMC3    H110325   0.117   4.126  15.236 -0.4502  0.8881 -0.2505
  698TMC3    H210326   0.132   4.488  15.048  0.8729 -1.0891 -1.6019
  698TMC3    C710327   0.056   4.241  15.013 -0.1333  0.1310 -0.3772
  698TMC3    C810328   0.288   4.600  15.222  0.2953 -0.5181  0.1267
  698TMC3    O110329   0.076   4.305  14.912  0.4282  0.1053 -0.2044
  698TMC3    O210330   0.308   4.624  15.104  0.7368  0.2934  0.0490
  699TMC3    C110331   4.668   1.970  13.269 -0.0617  0.0202 -0.2785
  699TMC3    C210332   4.714   1.911  13.378 -0.5852 -0.1335 -0.3443
  699TMC3    C310333   4.630   1.826  13.445  0.2504  0.0129 -0.0181
  699TMC3    C410334   4.535   1.967  13.240 -0.7415 -0.1620  0.1769
  699TMC3    C510335   4.452   1.888  13.312 -0.2159 -0.0357 -0.4802
  699TMC3    C610336   4.498   1.819  13.417  0.2659 -0.5719  1.1179
  699TMC3     C10337   0.029   1.983  13.156  0.0810 -0.2576 -0.0108
  699TMC3     O10338   4.708   1.950  13.049 -0.0846 -0.6234  0.3545
  699TMC3     H10339   0.095   1.897  13.395 -0.9342 -3.3525 -0.8754
  699TMC3    H110340   4.508   2.027  13.154 -0.4981 -1.2087 -0.6174
  699TMC3    H210341   4.429   1.759  13.476  1.1519 -1.9570  0.7620
  699TMC3    C710342   4.304   1.899  13.312 -0.3997  0.3750 -0.3299
  699TMC3    C810343   4.676   1.715  13.531  0.0274 -0.7657 -0.2480
  699TMC3    O110344   4.255   1.886  13.426  0.2922  0.3989 -0.0922
  699TMC3    O210345   4.597   1.620  13.542  0.1895  0.0933 -0.1671
  700TMC3    C110346   3.922   0.352  17.303  0.1906  0.2638 -0.1816
  700TMC3    C210347   3.932   0.218  17.299 -0.1193 -0.2827 -0.0528
  700TMC3    C310348   3.949   0.150  17.419 -0.8286 -0.6565 -0.2539
  700TMC3    C410349   3.908   0.421  17.422 -0.1459 -0.4364  0.2230
  700TMC3    C510350   3.922   0.350  17.541 -0.6564 -0.2442 -0.3899
  700TMC3    C610351   3.950   0.218  17.540 -0.1041 -0.1668 -0.3639
  700TMC3     C10352   3.925   0.424  17.178 -0.4981  0.4041  0.4702
  700TMC3     O10353   3.907   0.354  17.079 -0.1385  0.6820 -0.0200
  700TMC3     H10354   3.935   0.170  17.201 -1.2149  1.1977 -0.8230
  700TMC3    H110355   3.885   0.527  17.423 -1.0520 -0.6185 -1.3380
  700TMC3    H210356   3.964   0.167  17.635 -1.5930  1.7560  0.9046
  700TMC3    C710357   3.949   0.422  17.666  0.4061 -0.3479  0.3781
  700TMC3    C810358   4.014   0.019  17.415  0.3520 -1.3084 -0.3630
  700TMC3    O110359   3.923   0.362   0.066  0.5163 -0.3684 -0.4611
  700TMC3    O210360   4.089   0.005  17.317 -0.5857 -0.0377  0.5900
  701TMC3    C110361   4.061   3.467  15.551  0.0340 -0.1698 -0.2985
  701TMC3    C210362   4.024   3.466  15.413  0.5885 -0.0388 -0.4747
  701TMC3    C310363   4.120   3.478  15.319  0.5621 -0.2916  0.1443
  701TMC3    C410364   4.194   3.486  15.587  0.7878 -0.2218 -0.0385
  701TMC3    C510365   4.284   3.517  15.487 -0.3515  0.0367  0.2722
  701TMC3    C610366   4.249   3.505  15.351  0.2146  0.3733 -0.0909
  701TMC3     C10367   3.969   3.462  15.655  0.3883 -0.8595  0.0954
  701TMC3     O10368   4.007   3.479  15.770  0.1608  0.4338 -0.7138
  701TMC3     H10369   3.921   3.490  15.386 -0.0869 -0.2492  1.9636
  701TMC3    H110370   4.223   3.481  15.692  0.3937 -2.9937 -0.0548
  701TMC3    H210371   4.322   3.522  15.273  2.2529  0.7762  1.9138
  701TMC3    C710372   4.402   3.593  15.519 -0.5170  0.2075  0.2929
  701TMC3    C810373   4.089   3.484  15.176 -0.8229  0.7097 -0.0014
  701TMC3    O110374   4.497   3.597  15.440 -0.0702  0.5064 -0.3927
  701TMC3    O210375   4.175   3.543  15.108  0.1154  0.0487  0.1794
  702MPD2     C10376   4.244   4.619  10.469  0.5308  0.1139 -0.0542
  702MPD2    C110377   4.253   0.008  10.542 -0.1405 -0.7866  0.1057
  702MPD2    C210378   4.355   0.098  10.514  0.3101 -0.3580  0.6074
  702MPD2    C310379   4.440   0.086  10.402 -0.4066  0.7484  0.3334
  702MPD2    C410380   4.429   4.687  10.330  0.2236 -0.5416 -0.0770
  702MPD2    C510381   4.333   4.591  10.368  0.1777 -0.4575 -0.0246
  702MPD2     H10382   4.356   0.189  10.574  0.0240  1.4576 -2.1517
  702MPD2    H110383   4.482   4.671  10.237 -1.7472  0.8147 -1.4502
  702MPD2    H210384   4.165   4.550  10.497  0.3683 -0.1774 -1.2339
  702MPD2    H310385   4.331   4.496  10.315  1.1300 -1.3247  1.4926
  702MPD2     N10386   4.516   0.201  10.355 -0.5423 -0.3247 -0.1658
  702MPD2    H510387   4.510   0.286  10.409  0.8318 -3.2064  4.5313
  702MPD2    N110388   4.154   0.037  10.640  0.3121 -0.2161  0.5473
  702MPD2    H710389   4.182   0.117  10.696  1.0467 -0.9341  1.1989
  703TMC3    C110390   4.626   0.354  10.196  0.3979  0.2276 -0.4205
  703TMC3    C210391   4.536   0.449  10.228  0.3323  0.2861  0.6504
  703TMC3    C310392   4.543   0.567  10.158  0.6792  0.3705 -0.3247
  703TMC3    C410393   0.015   0.376  10.128 -0.0011 -0.3777  0.2895
  703TMC3    C510394   0.022   0.496  10.065  0.3297 -0.2348 -0.5423
  703TMC3    C610395   4.648   0.591  10.072 -0.6092  0.0742  0.8761
  703TMC3     C10396   4.599   0.214  10.239 -0.5220  0.0617  0.5444
  703TMC3     O10397   4.629   0.134  10.149 -0.0412  0.8233  0.0640
  703TMC3     H10398   4.453   0.423  10.293 -0.4451  3.0230  0.7370
  703TMC3    H110399   0.095   0.303  10.122  1.5606  1.3000  0.5858
  703TMC3    H210400   4.657   0.689  10.025 -1.7830 -0.1834  0.1147
  703TMC3    C710401   0.158   0.543  10.034 -0.0155  0.2134  0.8016
  703TMC3    C810402   4.503   0.677  10.242  0.2367 -0.1712 -0.0039
  703TMC3    O110403   0.158   0.657   9.995 -0.0261  0.4640  0.4716
  703TMC3    O210404   4.593   0.753  10.272  0.5075 -0.0748  0.4030
  704TMC3    C110405   1.437   3.581  12.270  0.5697 -0.0017  0.4431
  704TMC3    C210406   1.559   3.633  12.290  0.0400 -0.1496  0.0029
  704TMC3    C310407   1.662   3.548  12.325  0.7832  0.0165  1.0691
  704TMC3    C410408   1.405   3.449  12.297 -0.7480 -1.0125 -0.5301
  704TMC3    C510409   1.500   3.372  12.360  0.5606  0.7864  0.1769
  704TMC3    C610410   1.632   3.425  12.365  0.7065  0.4818  0.1973
  704TMC3     C10411   1.384   3.632  12.149 -0.2264 -0.5909  0.5924
  704TMC3     O10412   1.266   3.607  12.135 -0.0902  0.3199  0.3987
  704TMC3     H10413   1.582   3.732  12.252  1.3741 -1.1716 -1.8704
  704TMC3    H110414   1.317   3.399  12.259 -2.0894  1.9027 -1.2086
  704TMC3    H210415   1.706   3.348  12.384  0.1272  0.4451  2.2553
  704TMC3    C710416   1.486   3.227  12.320  1.0287 -0.6844 -0.5399
  704TMC3    C810417   1.776   3.559  12.235  0.1258 -0.0846 -0.0995
  704TMC3    O110418   1.585   3.182  12.263  0.2281 -0.7926 -0.0978
  704TMC3    O210419   1.751   3.624  12.129 -0.3377 -0.2117 -0.1898
  705MPD2     C10420   0.730   2.710  16.792 -0.6024  0.0133 -0.3650
  705MPD2    C110421   0.652   2.609  16.749  0.7408 -0.3806 -0.5839
  705MPD2    C210422   0.535   2.575  16.820  0.4899 -0.5965 -1.0025
  705MPD2    C310423   0.497   2.631  16.939 -0.8685  0.4172  0.4574
  705MPD2    C410424   0.583   2.725  16.982  0.6860 -0.8893 -0.4808
  705MPD2    C510425   0.692   2.767  16.911  0.8287  0.2272  0.3563
  705MPD2     H10426   0.469   2.505  16.769  2.9004 -2.9472 -0.8652
  705MPD2    H110427   0.572   2.778  17.076 -0.6253 -2.8061  0.4581
  705MPD2    H210428   0.814   2.744  16.733  0.3854 -1.6137  0.1004
  705MPD2    H310429   0.766   2.828  16.962  2.2629 -0.1484 -1.2429
  705MPD2     N10430   0.372   2.611  17.013  0.0293 -0.0271 -0.3613
  705MPD2    H510431   0.355   2.675  17.089  0.6026  0.5015 -0.6746
  705MPD2    N110432   0.683   2.544  16.627  0.3587 -0.2715 -0.4009
  705MPD2    H710433   0.761   2.585  16.575  0.8155  0.2192  0.6650
  706TMC3    C110434   0.761   2.190  16.325 -0.0534 -0.3636  0.4350
  706TMC3    C210435   0.783   2.282  16.222 -0.7175  0.4744 -0.4519
  706TMC3    C310436   0.777   2.413  16.252 -0.4631  0.5592 -0.0726
  706TMC3    C410437   0.706   2.238  16.441 -0.4227  0.2365 -0.1096
  706TMC3    C510438   0.695   2.373  16.465  0.2899 -0.0158  0.2095
  706TMC3    C610439   0.737   2.465  16.373 -0.0532 -0.3099  0.2879
  706TMC3     C10440   0.801   2.052  16.318  0.0563 -0.3072  0.4066
  706TMC3     O10441   0.786   1.980  16.415  0.4039  0.5898 -0.3146
  706TMC3     H10442   0.805   2.251  16.121  0.1528  1.4198 -0.5485
  706TMC3    H110443   0.699   2.166  16.522 -0.0063 -0.0476 -0.3284
  706TMC3    H210444   0.717   2.570  16.391 -0.9268 -0.3641 -0.3695
  706TMC3    C710445   0.650   2.416  16.597 -0.4878 -0.5146  0.1922
  706TMC3    C810446   0.826   2.498  16.147 -0.1318 -0.0285 -0.0151
  706TMC3    O110447   0.593   2.334  16.669 -0.2885  0.8918 -0.7949
  706TMC3    O210448   0.826   2.453  16.034  0.4859  0.3084 -0.2214
  707TMC3    C110449   2.148   0.482   1.364 -0.4234  0.0242 -0.1614
  707TMC3    C210450   2.199   0.356   1.359  0.2991 -0.4948  0.4822
  707TMC3    C310451   2.112   0.255   1.364  0.0329  1.0238  0.3747
  707TMC3    C410452   2.011   0.519   1.367  0.7560 -0.4756 -0.4887
  707TMC3    C510453   1.928   0.410   1.372  0.2859 -0.2440 -0.0027
  707TMC3    C610454   1.976   0.280   1.369 -0.2395 -0.3179  0.3812
  707TMC3     C10455   2.246   0.580   1.320  0.6973 -0.2488  0.5583
  707TMC3     O10456   2.352   0.538   1.274  0.4916  0.4085 -0.5228
  707TMC3     H10457   2.304   0.343   1.386 -0.0127 -0.3822  1.7716
  707TMC3    H110458   1.969   0.618   1.363 -0.9707 -1.2027 -0.1979
  707TMC3    H210459   1.902   0.201   1.360  0.9994 -1.3924 -0.3956
  707TMC3    C710460   1.786   0.438   1.373  0.1325 -1.0336  0.5733
  707TMC3    C810461   2.164   0.117   1.369 -0.8762 -0.1647 -0.1434
  707TMC3    O110462   1.763   0.543   1.437  0.9562 -0.0278  0.1111
  707TMC3    O210463   2.079   0.033   1.393 -0.0717  0.0176 -0.5260
  708MPD2     C10464   4.380   0.672  14.303 -0.2589  0.2948  0.3379
  708MPD2    C110465   4.319   0.566  14.246  0.1028  0.1206  0.0930
  708MPD2    C210466   4.365   0.439  14.277 -0.5060 -0.5181 -0.0761
  708MPD2    C310467   4.475   0.420  14.358  0.6419 -0.8132 -0.2280
  708MPD2    C410468   4.533   0.532  14.414  0.3954 -0.3873  0.3275
  708MPD2    C510469   4.479   0.656  14.395  0.4608 -0.2105  0.2210
  708MPD2     H10470   4.317   0.351  14.235 -2.9649  0.0952  1.4045
  708MPD2    H110471   4.614   0.522  14.485  2.0719 -0.3281 -1.5753
  708MPD2    H210472   4.335   0.771  14.303 -0.7021  0.1058  3.2312
  708MPD2    H310473   4.509   0.742  14.454 -0.0226  0.3838 -0.3962
  708MPD2     N10474   4.523   0.299  14.403 -0.0022  0.1187 -0.1835
  708MPD2    H510475   4.608   0.296  14.459 -0.2994  0.4598  0.2879
  708MPD2    N110476   4.211   0.574  14.158  0.9794  0.5286  0.1050
  708MPD2    H710477   4.163   0.486  14.145  0.6286  0.5643  1.2388
  709TMC3    C110478   4.050   0.635  14.006  0.3360  0.5583  0.2606
  709TMC3    C210479   4.075   0.602  13.877 -0.5365  0.4826 -0.0999
  709TMC3    C310480   4.035   0.484  13.831  0.1307  0.2178  0.1662
  709TMC3    C410481   3.975   0.542  14.079 -0.1914  0.1757 -0.2664
  709TMC3    C510482   3.950   0.415  14.035 -0.2491 -1.1251 -0.0115
  709TMC3    C610483   3.976   0.385  13.904  0.7971 -0.8125 -0.2031
  709TMC3     C10484   4.166   0.679  14.078  0.2599  0.2261 -0.0572
  709TMC3     O10485   4.198   0.798  14.081 -0.1515 -0.5533 -0.1946
  709TMC3     H10486   4.126   0.676  13.816  0.4945  0.4418  0.7160
  709TMC3    H110487   3.962   0.564  14.185  2.3765 -1.3716  0.3595
  709TMC3    H210488   3.939   0.294  13.859  1.3895 -0.6985 -0.9179
  709TMC3    C710489   3.987   0.308  14.123 -0.0158 -0.6506  0.4425
  709TMC3    C810490   4.038   0.470  13.690 -0.3707 -0.4861  0.4841
  709TMC3    O110491   4.047   0.346  14.223 -0.4585 -0.0948  0.6447
  709TMC3    O210492   4.055   0.559  13.612  0.2753  0.2488 -0.0003
  710TMC3    C110493   0.938   2.609   1.630  0.0993 -0.1288  0.4494
  710TMC3    C210494   0.898   2.580   1.501 -0.5198 -0.4247  0.0793
  710TMC3    C310495   0.909   2.452   1.467  0.2814  0.2752 -0.2890
  710TMC3    C410496   0.972   2.514   1.725 -0.1053  0.1528 -0.1100
  710TMC3    C510497   0.966   2.384   1.682  0.1755  0.3373 -0.2867
  710TMC3    C610498   0.942   2.345   1.553 -0.1522 -0.3930 -0.3364
  710TMC3     C10499   0.940   2.753   1.664  0.3834  0.6675  0.8235
  710TMC3     O10500   0.938   2.831   1.569  0.1526  0.6319  0.1059
  710TMC3     H10501   0.898   2.662   1.430  1.3664 -0.0709  0.5062
  710TMC3    H110502   1.016   2.542   1.820 -1.4759 -1.9469  1.1449
  710TMC3    H210503   0.951   2.245   1.514 -2.0536 -0.1461 -1.4145
  710TMC3    C710504   1.014   2.283   1.769 -0.6402 -0.3482  0.0457
  710TMC3    C810505   0.869   2.416   1.332 -0.0167 -0.0740  0.1752
  710TMC3    O110506   1.106   2.310   1.846 -0.0300 -0.2793  0.3369
  710TMC3    O210507   0.891   2.301   1.302 -0.0030  0.0351 -0.2338
  711TMC3    C110508   4.592   2.804  14.698 -0.1678 -0.3964  0.7543
  711TMC3    C210509   4.643   2.915  14.761 -0.6180 -0.1317 -0.1718
  711TMC3    C310510   0.041   2.913  14.811  0.0620  0.2916 -0.4113
  711TMC3    C410511   4.678   2.697  14.665  0.3364  0.0058  0.4971
  711TMC3    C510512   0.081   2.713  14.704  0.8431 -0.1822 -0.4765
  711TMC3    C610513   0.129   2.820  14.774 -0.1768 -0.5811 -0.0426
  711TMC3     C10514   4.458   2.770  14.729  0.0719  0.0547 -0.2141
  711TMC3     O10515   4.424   2.659  14.693  0.0893  0.3448  0.5886
  711TMC3     H10516   4.583   3.003  14.781  1.9844  1.6302 -0.0160
  711TMC3    H110517   4.631   2.606  14.630 -0.6893  0.7623 -0.0642
  711TMC3    H210518   0.235   2.833  14.792 -0.7220  1.3898  1.7268
  711TMC3    C710519   0.156   2.590  14.735  0.0254 -0.2094  0.5512
  711TMC3    C810520   0.032   2.928  14.958  0.6253 -0.3519  0.7334
  711TMC3    O110521   0.235   2.602  14.823  0.2651  0.2572 -0.4598
  711TMC3    O210522   4.660   2.986  15.004  0.0185 -0.2707 -0.0831
  712MPD2     C10523   1.897   3.307  13.584  0.5687  0.4413 -0.5427
  712MPD2    C110524   1.773   3.360  13.595 -0.2687 -0.1101  0.3483
  712MPD2    C210525   1.739   3.431  13.707  0.0574  0.5357  0.4512
  712MPD2    C310526   1.841   3.473  13.797 -0.0643  0.1032  0.1256
  712MPD2    C410527   1.971   3.428  13.775 -0.4618 -0.0528  0.3999
  712MPD2    C510528   1.989   3.333  13.680 -0.0803  0.0862  0.0385
  712MPD2     H10529   1.634   3.453  13.728 -0.1667 -0.8787  0.8525
  712MPD2    H110530   2.055   3.456  13.837  1.8737 -2.7430 -1.5471
  712MPD2    H210531   1.935   3.242  13.506  1.7356  1.0096 -0.4433
  712MPD2    H310532   2.085   3.291  13.653  0.4877  2.9284 -2.2828
  712MPD2     N10533   1.817   3.567  13.900 -0.3420  0.4831 -0.4353
  712MPD2    H510534   1.891   3.596  13.963 -2.0368  2.7623  0.5015
  712MPD2    N110535   1.676   3.331  13.504 -0.0562 -0.4250  0.2494
  712MPD2    H710536   1.584   3.365  13.528 -0.4202 -1.0184 -0.3072
  713TMC3    C110537   1.723   3.737  14.022  0.3980 -0.5987 -0.2532
  713TMC3    C210538   1.847   3.783  14.050  0.2532 -0.7844  0.3033
  713TMC3    C310539   1.857   3.883  14.146  0.0901 -0.1103 -0.3382
  713TMC3    C410540   1.610   3.792  14.065  0.2185  0.3192 -0.0448
  713TMC3    C510541   1.626   3.889  14.160  0.1909  0.0839  0.8959
  713TMC3    C610542   1.745   3.931  14.210 -0.2702  0.5809 -0.1659
  713TMC3     C10543   1.702   3.627  13.927  0.8433  0.0432 -0.4477
  713TMC3     O10544   1.589   3.613  13.884  0.3310 -0.4821  0.1058
  713TMC3     H10545   1.942   3.753  14.005  0.3575  0.1957 -0.1190
  713TMC3    H110546   1.514   3.745  14.048 -1.0158  2.6615  0.3525
  713TMC3    H210547   1.753   4.024  14.266 -2.7865  0.3845  0.5147
  713TMC3    C710548   1.502   3.953  14.205 -0.4461 -0.8464 -0.7437
  713TMC3    C810549   1.957   3.978  14.110  0.5072  0.2761 -0.1456
  713TMC3    O110550   1.518   4.024  14.304 -0.1793 -0.2369 -0.2750
  713TMC3    O210551   1.999   3.981  13.996  0.3502  0.0955 -0.3989
  714MPD2     C10552   3.015   3.084   1.529 -0.3071  0.4925 -0.0011
  714MPD2    C110553   3.054   2.991   1.438  0.4530 -0.0192  0.4128
  714MPD2    C210554   2.969   2.967   1.332  0.4272 -0.0474  0.0636
  714MPD2    C310555   2.845   3.033   1.318 -0.2487 -0.2389 -0.3440
  714MPD2    C410556   2.808   3.119   1.412 -0.3738  0.0453  0.3254
  714MPD2    C510557   2.893   3.141   1.520  1.3309 -0.4539  0.4067
  714MPD2     H10558   3.006   2.904   1.253  1.5167  1.5131 -0.6819
  714MPD2    H110559   2.720   3.182   1.406  1.0154  1.8526 -1.2842
  714MPD2    H210560   3.078   3.108   1.614  0.7961 -1.3330 -0.2885
  714MPD2    H310561   2.867   3.225   1.583 -2.9981  0.2793 -2.2996
  714MPD2     N10562   2.772   3.014   1.193  0.1214 -0.0322  0.0498
  714MPD2    H510563   2.805   2.935   1.138 -2.8208 -0.9117 -0.4637
  714MPD2    N110564   3.177   2.923   1.459 -0.2743 -0.4920 -0.3762
  714MPD2    H710565   3.229   2.953   1.541  0.0573  0.1582 -0.8248
  715TMC3    C110566   3.363   2.790   1.400  0.1553 -0.0702  1.0921
  715TMC3    C210567   3.402   2.659   1.386  0.2410  0.6304 -0.5656
  715TMC3    C310568   3.525   2.618   1.425  0.1102 -0.3846  0.0885
  715TMC3    C410569   3.440   2.890   1.461 -0.1209 -0.6218 -0.6464
  715TMC3    C510570   3.566   2.844   1.496 -0.4312  0.0576  0.6631
  715TMC3    C610571   3.601   2.714   1.489  0.2553  0.2935 -0.3378
  715TMC3     C10572   3.223   2.816   1.386 -0.3717 -0.8220 -0.1030
  715TMC3     O10573   3.174   2.763   1.284 -0.1101  0.0935  0.0921
  715TMC3     H10574   3.339   2.588   1.333  1.0668 -0.1697 -0.4555
  715TMC3    H110575   3.410   2.994   1.471 -0.2938 -0.6511 -0.8772
  715TMC3    H210576   3.701   2.683   1.516  1.0660  0.8520 -2.7291
  715TMC3    C710577   3.671   2.944   1.542 -0.1114  0.2326  0.1815
  715TMC3    C810578   3.570   2.481   1.409 -0.4130 -0.3116 -0.2849
  715TMC3    O110579   3.788   2.908   1.535 -0.6163  0.3352  0.5078
  715TMC3    O210580   3.529   2.421   1.311  0.4457 -0.1347  0.1094
  716MPD2     C10581   4.120   0.159   9.409 -0.3613  0.2419 -0.5205
  716MPD2    C110582   4.034   0.117   9.316  0.7465 -0.0461  0.3699
  716MPD2    C210583   4.069   0.010   9.233 -0.7831 -0.2173  0.2378
  716MPD2    C310584   4.202   4.687   9.223  0.2690  0.0739 -0.0478
  716MPD2    C410585   4.290   0.011   9.312 -0.2192 -0.4777  0.2726
  716MPD2    C510586   4.250   0.104   9.405 -0.1330  0.2850 -0.1732
  716MPD2     H10587   4.004   4.692   9.158 -1.6893 -0.2391  1.0404
  716MPD2    H110588   4.392   4.703   9.319 -0.6509 -1.8669 -0.1983
  716MPD2    H210589   4.104   0.244   9.474 -1.7209 -0.0911 -0.4312
  716MPD2    H310590   4.320   0.153   9.472 -0.6089  0.2418  0.3519
  716MPD2     N10591   4.233   4.592   9.120  0.1486 -0.1835 -0.5137
  716MPD2    H510592   4.153   4.567   9.064  0.3784  2.7347 -2.1483
  716MPD2    N110593   3.903   0.172   9.325  0.4079  0.1401 -0.3170
  716MPD2    H710594   3.888   0.252   9.386 -3.3336  0.5419 -1.7245
  717TMC3    C110595   4.365   4.466   8.974  0.4892 -0.6036 -0.0842
  717TMC3    C210596   4.253   4.402   8.933  0.5281  0.3433  0.5437
  717TMC3    C310597   4.245   4.366   8.797  0.1604 -0.2852  0.4243
  717TMC3    C410598   4.475   4.478   8.888 -0.3053  0.8182  0.7205
  717TMC3    C510599   4.471   4.433   8.761 -0.1926 -0.0970 -0.4233
  717TMC3    C610600   4.350   4.384   8.710 -0.2846  0.1493 -0.0632
  717TMC3     C10601   4.360   4.554   9.081 -0.7111  0.2275  0.0594
  717TMC3     O10602   4.469   4.597   9.118 -0.2655 -0.1129 -0.3376
  717TMC3     H10603   4.174   4.390   9.007  1.0186 -0.8603  0.8667
  717TMC3    H110604   4.566   4.528   8.918  1.0803 -1.7158  0.7196
  717TMC3    H210605   4.346   4.353   8.607 -1.9211  0.6320 -0.1390
  717TMC3    C710606   4.579   4.473   8.667 -0.1286  0.7522 -0.0613
  717TMC3    C810607   4.115   4.320   8.753 -0.5657  0.3833  1.1979
  717TMC3    O110608   4.677   4.516   8.722  0.6760 -0.0538 -0.1154
  717TMC3    O210609   4.047   4.265   8.833 -0.0056  0.2481  0.5346
  718MPD2     C10610   3.405   0.117  12.462 -0.3044  0.3157  0.4640
  718MPD2    C110611   3.272   0.162  12.466 -0.8915  0.0724 -0.5605
  718MPD2    C210612   3.174   0.071  12.447  0.1696  0.1174  0.2934
  718MPD2    C310613   3.203   4.663  12.423  0.1026  0.0110 -0.0739
  718MPD2    C410614   3.328   4.609  12.437  0.6194  0.4582 -0.2242
  718MPD2    C510615   3.429   4.705  12.450 -0.2707 -1.0088  0.6112
  718MPD2     H10616   3.072   0.106  12.438 -0.0154 -0.2206  1.0592
  718MPD2    H110617   3.360   4.510  12.408 -1.7067 -0.8115  1.5979
  718MPD2    H210618   3.480   0.191  12.489  0.0373 -0.6148  2.0511
  718MPD2    H310619   3.530   4.665  12.452  0.5450  1.1594  2.1229
  718MPD2     N10620   3.091   4.589  12.373  0.6198  0.1720 -0.4285
  718MPD2    H510621   3.003   4.639  12.373  0.1218 -0.7032  0.4186
  718MPD2    N110622   3.254   0.299  12.467 -0.0627  0.3027  0.2951
  718MPD2    H710623   3.338   0.355  12.475  0.7402 -0.9134  0.4743
  719TMC3    C110624   3.166   0.496  12.404 -0.3384 -0.1175 -0.1146
  719TMC3    C210625   3.098   0.516  12.289  0.4100  0.2388  0.3947
  719TMC3    C310626   3.165   0.517  12.171 -0.9345  0.0431  0.0967
  719TMC3    C410627   3.300   0.522  12.405 -0.5300 -0.3397 -0.4058
  719TMC3    C510628   3.360   0.533  12.282  0.7329  0.1300  0.0769
  719TMC3    C610629   3.296   0.525  12.159 -0.8232  0.5563 -0.7184
  719TMC3     C10630   3.133   0.366  12.461 -0.7461  0.3979 -0.1689
  719TMC3     O10631   3.017   0.326  12.460  0.1264 -0.1467 -0.1265
  719TMC3     H10632   2.990   0.504  12.292  0.3779  0.6792  1.0195
  719TMC3    H110633   3.355   0.509  12.498 -2.2268 -2.8745  0.2850
  719TMC3    H210634   3.338   0.544  12.061  0.1921  0.1223 -0.3634
  719TMC3    C710635   3.507   0.530  12.264  0.4904 -0.1545 -0.1399
  719TMC3    C810636   3.113   0.420  12.079 -0.1766  0.3833  0.7301
  719TMC3    O110637   3.552   0.498  12.154 -0.1344 -0.3629 -0.4547
  719TMC3    O210638   3.194   0.342  12.031 -0.0586 -0.0050 -0.0886
  720MPD2     C10639   1.000   1.311  14.086 -0.0358  0.6055  0.1713
  720MPD2    C110640   1.089   1.257  13.993 -0.1538  0.1484  0.9853
  720MPD2    C210641   1.181   1.160  14.039  0.1571  0.4718 -0.5911
  720MPD2    C310642   1.178   1.114  14.169  0.0182 -0.6480  0.1275
  720MPD2    C410643   1.073   1.154  14.256 -0.1319  0.3477  0.0103
  720MPD2    C510644   0.988   1.247  14.207  0.4549  0.4660 -0.0722
  720MPD2     H10645   1.256   1.117  13.973 -1.1405 -1.1524 -1.0098
  720MPD2    H110646   1.048   1.120  14.356 -0.7876 -1.4377 -0.7605
  720MPD2    H210647   0.934   1.396  14.071 -2.4650 -1.6933 -2.2090
  720MPD2    H310648   0.928   1.290  14.286 -1.5552  0.1976 -1.4617
  720MPD2     N10649   1.279   1.023  14.207  0.3807 -0.1195  0.6129
  720MPD2    H510650   1.348   0.993  14.138 -0.5465  0.3130 -0.5042
  720MPD2    N110651   1.093   1.316  13.860 -0.6110  0.4611 -0.2848
  720MPD2    H710652   1.147   1.267  13.789  0.0331 -2.6653  2.3517
  721TMC3    C110653   1.430   0.906  14.360  0.4007  0.3187 -0.1891
  721TMC3    C210654   1.435   0.835  14.476  0.2818  0.0433 -0.4202
  721TMC3    C310655   1.543   0.757  14.497 -0.1171 -0.2252 -0.2357
  721TMC3    C410656   1.528   0.911  14.264 -0.1477  0.0153  0.4767
  721TMC3    C510657   1.647   0.836  14.291 -0.1491  0.1272 -0.1423
  721TMC3    C610658   1.643   0.749  14.401  0.8563 -0.0964  0.3082
  721TMC3     C10659   1.309   0.981  14.333  0.1730  0.1948  0.0803
  721TMC3     O10660   1.251   1.000  14.439  0.0999  0.1955  0.2200
  721TMC3     H10661   1.352   0.827  14.544 -2.0104  1.7016 -3.0390
  721TMC3    H110662   1.530   0.985  14.186 -1.7327  0.1848  0.6048
  721TMC3    H210663   1.724   0.681  14.423 -1.0087 -2.1904  0.6261
  721TMC3    C710664   1.779   0.849  14.222  0.2342 -0.2391 -0.4196
  721TMC3    C810665   1.512   0.639  14.581 -0.1965  0.3403 -0.2828
  721TMC3    O110666   1.871   0.770  14.238  0.1703 -0.3197  0.0850
  721TMC3    O210667   1.533   0.528  14.535  0.2928 -0.3642  0.6559
  722MPD2     C10668   0.460   3.807  13.456 -0.6029  0.2757 -0.4933
  722MPD2    C110669   0.440   3.942  13.439 -0.1105  0.7904 -0.7982
  722MPD2    C210670   0.334   3.988  13.366  0.3798  0.0057  0.8238
  722MPD2    C310671   0.238   3.904  13.314  0.9728  1.0509 -0.6062
  722MPD2    C410672   0.253   3.769  13.340  0.4540 -0.4462 -0.0303
  722MPD2    C510673   0.364   3.720  13.403  0.2087 -0.0117 -1.1867
  722MPD2     H10674   0.320   4.095  13.365 -0.6507 -0.1239  0.6216
  722MPD2    H110675   0.181   3.695  13.307  0.6996 -0.8415  0.3220
  722MPD2    H210676   0.546   3.766  13.508 -2.4903 -2.6895  0.3161
  722MPD2    H310677   0.369   3.612  13.402 -1.9549 -0.1334  0.7293
  722MPD2     N10678   0.124   3.952  13.245  0.1896 -0.2350  0.2489
  722MPD2    H510679   0.056   3.884  13.213 -1.0726  1.0171  0.2639
  722MPD2    N110680   0.521   4.044  13.500  0.7794 -0.1948 -0.3990
  722MPD2    H710681   0.500   4.142  13.486 -3.3220 -1.0170 -0.0552
  723TMC3    C110682   4.692   4.110  13.156  0.2895  0.3215  0.0038
  723TMC3    C210683   4.664   4.022  13.051 -0.6330 -0.5202  0.6351
  723TMC3    C310684   4.574   4.060  12.952 -0.3334 -0.5069 -0.6234
  723TMC3    C410685   4.641   4.240  13.161  0.7060 -0.1158  0.1665
  723TMC3    C510686   4.555   4.272  13.060  0.5492  0.3857  0.0004
  723TMC3    C610687   4.517   4.186  12.959  0.9623  0.5166  0.2503
  723TMC3     C10688   0.086   4.082  13.247 -0.2099  0.5899  0.1298
  723TMC3     O10689   0.123   4.181  13.303 -0.2432 -0.2112  0.3186
  723TMC3     H10690   0.000   3.933  13.043  1.2727  0.9349 -0.6770
  723TMC3    H110691   4.672   4.309  13.239 -1.3734  0.6286  0.3478
  723TMC3    H210692   4.430   4.196  12.895  0.3473 -0.1491  0.9767
  723TMC3    C710693   4.503   4.406  13.045 -0.0657  0.3553  0.6961
  723TMC3    C810694   4.595   4.012  12.815 -0.9409 -0.7628 -0.3495
  723TMC3    O110695   4.494   4.475  13.148 -0.6089  0.1343  0.2101
  723TMC3    O210696   4.564   4.096  12.730 -0.4547  0.0832 -0.1085
  724TMC3    C110697   1.053   2.438   9.650 -0.0069  0.1449  0.0260
  724TMC3    C210698   0.971   2.536   9.609 -0.1320  0.5320  0.6772
  724TMC3    C310699   1.032   2.648   9.561  0.0843  0.8078 -0.2942
  724TMC3    C410700   1.190   2.446   9.655 -0.7182  0.4794  0.2342
  724TMC3    C510701   1.243   2.560   9.603 -0.0998 -0.9286  0.4866
  724TMC3    C610702   1.168   2.669   9.556 -0.4590 -0.9136 -0.4838
  724TMC3     C10703   0.989   2.309   9.676 -0.3396 -0.1960  0.6182
  724TMC3     O10704   0.877   2.307   9.631 -0.0757  0.1368  0.2067
  724TMC3     H10705   0.866   2.518   9.587 -0.3453 -0.1113  2.2221
  724TMC3    H110706   1.243   2.352   9.655 -0.0070  0.8840 -1.0329
  724TMC3    H210707   1.224   2.756   9.525  1.1903 -0.8589  2.6854
  724TMC3    C710708   1.385   2.569   9.608 -0.0695  0.0421 -0.6993
  724TMC3    C810709   0.948   2.746   9.489  0.6211  0.3540 -0.2695
  724TMC3    O110710   1.425   2.648   9.526 -0.5859  0.1709 -0.8623
  724TMC3    O210711   0.841   2.711   9.442 -0.7189 -0.7880  0.5729
  725TMC3    C110712   1.775   1.381  12.749 -0.6286  0.6295 -0.5645
  725TMC3    C210713   1.768   1.369  12.610  0.5041 -0.6118 -0.1164
  725TMC3    C310714   1.765   1.240  12.565 -0.3217 -0.8884  0.3815
  725TMC3    C410715   1.778   1.268  12.833  0.5088 -0.4390  0.2115
  725TMC3    C510716   1.755   1.142  12.781  0.3623 -0.1402  0.8213
  725TMC3    C610717   1.754   1.129  12.643  0.0195  0.2629  0.0195
  725TMC3     C10718   1.793   1.517  12.810  0.2254  0.1308 -0.3807
  725TMC3     O10719   1.832   1.609  12.742 -0.3905  0.0960  0.0559
  725TMC3     H10720   1.785   1.459  12.552  0.5447 -0.8853 -0.5294
  725TMC3    H110721   1.797   1.266  12.939  0.1039 -0.3726  0.2857
  725TMC3    H210722   1.726   1.035  12.597  2.6039 -1.6775  2.4080
  725TMC3    C710723   1.832   1.033  12.842  0.8080 -0.3489 -0.3518
  725TMC3    C810724   1.853   1.211  12.452  0.1014  0.7176  0.3608
  725TMC3    O110725   1.822   1.025  12.965  0.3332  0.1419  0.4607
  725TMC3    O210726   1.874   1.090  12.444 -0.0854 -0.2795  0.2253
  726MPD2     C10727   0.287   2.663   9.855 -0.0042 -0.4082 -0.2780
  726MPD2    C110728   0.377   2.656   9.954 -0.1747  0.3358 -0.2243
  726MPD2    C210729   0.370   2.559  10.051  0.1982  0.2745 -0.2114
  726MPD2    C310730   0.264   2.466  10.033  0.5837  1.0668  0.2386
  726MPD2    C410731   0.177   2.469   9.919  0.4541  0.0188 -0.0034
  726MPD2    C510732   0.193   2.572   9.832  0.2322  0.3965 -0.0413
  726MPD2     H10733   0.439   2.549  10.134  1.5219  3.7498 -0.9132
  726MPD2    H110734   0.104   2.389   9.911  0.2999  0.1777 -0.1584
  726MPD2    H210735   0.303   2.742   9.783 -1.4290  0.6397  0.5636
  726MPD2    H310736   0.111   2.590   9.763  0.3175  0.7596 -0.0479
  726MPD2     N10737   0.235   2.374  10.131 -0.4251  0.4890 -0.4588
  726MPD2    H510738   0.157   2.313  10.112  0.5674 -0.0203 -2.7902
  726MPD2    N110739   0.461   2.770   9.961  0.0540  0.4367 -0.4227
  726MPD2    H710740   0.438   2.846   9.899 -2.2851  1.2405  1.4499
  727TMC3    C110741   0.572   2.949  10.073 -0.9448 -0.1050  0.5159
  727TMC3    C210742   0.684   2.991  10.145 -0.9805  0.8527  0.4337
  727TMC3    C310743   0.719   3.125  10.119 -0.6233 -0.4570  0.2304
  727TMC3    C410744   0.494   3.034  10.005  0.3747 -0.4115 -0.1554
  727TMC3    C510745   0.529   3.166   9.994  0.1996  0.6803 -0.0054
  727TMC3    C610746   0.650   3.211  10.042  0.6405 -0.0968  0.3968
  727TMC3     C10747   0.536   2.800  10.065 -0.0877 -0.1210  0.2616
  727TMC3     O10748   0.604   2.721  10.132 -0.1575 -0.6635  0.2281
  727TMC3     H10749   0.723   2.944  10.235 -0.5250 -2.2521 -1.3751
  727TMC3    H110750   0.404   2.994   9.961 -1.8213  2.5617  1.6538
  727TMC3    H210751   0.677   3.315  10.026  3.8579 -1.2353 -1.5148
  727TMC3    C710752   0.445   3.237   9.900  0.0992  0.6941  1.4117
  727TMC3    C810753   0.810   3.186  10.216 -0.1689  0.2702 -0.5670
  727TMC3    O110754   0.375   3.168   9.827 -0.8229  0.0873 -0.2315
  727TMC3    O210755   0.904   3.119  10.262 -0.6029 -0.1707 -0.2921
  728TMC3    C110756   4.230   1.570  15.536 -0.0251  0.5011 -0.6758
  728TMC3    C210757   4.347   1.496  15.558  0.3415  0.1103 -0.1137
  728TMC3    C310758   4.411   1.461  15.448 -0.0747 -0.4007  1.1673
  728TMC3    C410759   4.181   1.592  15.413  0.0061  0.0642 -0.1171
  728TMC3    C510760   4.255   1.560  15.304 -0.9603  0.6086 -0.8270
  728TMC3    C610761   4.367   1.487  15.321  1.0808  0.7897 -0.6379
  728TMC3     C10762   4.145   1.608  15.650 -0.8638  0.0122  0.6190
  728TMC3     O10763   4.191   1.603  15.760  0.1751 -0.5505  0.3892
  728TMC3     H10764   4.374   1.468  15.660  0.4140  1.4355  0.2333
  728TMC3    H110765   4.098   1.662  15.405 -0.7320 -0.7878  0.1569
  728TMC3    H210766   4.417   1.457  15.230  1.3229 -1.1265  0.1200
  728TMC3    C710767   4.197   1.577  15.169 -0.2111  0.2978 -0.5854
  728TMC3    C810768   4.540   1.400  15.453 -1.1310 -0.0109  0.2303
  728TMC3    O110769   4.222   1.482  15.094  0.5904 -0.1254  0.1612
  728TMC3    O210770   4.570   1.337  15.350  0.2046 -0.7238  0.5593
  729MPD2     C10771   0.990   2.769  17.245  0.1019 -0.4331 -0.2984
  729MPD2    C110772   1.095   2.857  17.240 -0.1625  0.3666 -0.0798
  729MPD2    C210773   1.136   2.922  17.357 -0.2753  0.4187  0.0142
  729MPD2    C310774   1.064   2.907  17.477  0.3012 -0.3139 -0.0656
  729MPD2    C410775   0.948   2.836  17.473 -0.2359  0.1073 -0.4585
  729MPD2    C510776   0.919   2.762  17.358 -0.2135  0.0791  0.4377
  729MPD2     H10777   1.224   2.985  17.352  0.9139 -1.0123  3.1982
  729MPD2    H110778   0.904   2.802  17.567 -1.8653  0.0544 -1.2423
  729MPD2    H210779   0.974   2.691  17.171 -1.6575  1.2976 -1.7559
  729MPD2    H310780   0.860   2.675  17.382 -1.8012  0.7266 -1.1026
  729MPD2     N10781   1.117   2.960  17.599  0.0614 -0.5618 -0.2163
  729MPD2    H510782   1.067   2.939  17.685  0.1999  1.7017  0.4207
  729MPD2    N110783   1.164   2.863  17.125 -0.4955 -0.3207  0.3032
  729MPD2    H710784   1.137   2.794  17.055 -0.4248  1.3647 -1.3913
  730TMC3    C110785   1.283   3.045   0.040  0.0664 -0.1288  0.5897
  730TMC3    C210786   1.403   3.014   0.083  0.4796  0.1282 -0.1993
  730TMC3    C310787   1.471   3.100   0.163  0.2389  0.5448 -0.2660
  730TMC3    C410788   1.230   3.167   0.077 -0.2405  0.8439  0.1292
  730TMC3    C510789   1.299   3.258   0.158  0.4783  0.1309 -0.0418
  730TMC3    C610790   1.421   3.218   0.204 -0.1799  0.0216  0.0989
  730TMC3     C10791   1.249   3.005  17.613  0.3296 -0.1037  1.1752
  730TMC3     O10792   1.346   2.995  17.536 -0.4022 -0.2026 -0.3999
  730TMC3     H10793   1.446   2.920   0.050  1.0735  0.0774  0.7055
  730TMC3    H110794   1.140   3.200   0.028 -0.7582 -0.5027  0.1899
  730TMC3    H210795   1.462   3.291   0.273 -0.4686  1.2257 -1.0015
  730TMC3    C710796   1.286   3.392   0.110  0.3386 -0.0700  0.4696
  730TMC3    C810797   1.579   3.049   0.240 -0.1160  0.0632  0.1271
  730TMC3    O110798   1.251   3.392  17.696  0.1452 -0.6572  0.4400
  730TMC3    O210799   1.599   3.093   0.349 -0.0744  0.2955  0.1726
  731MPD2     C10800   1.848   1.022  11.736 -0.8893 -0.1595 -0.6151
  731MPD2    C110801   1.787   0.903  11.717 -0.3618 -0.3425  0.1466
  731MPD2    C210802   1.712   0.859  11.820 -0.3243  0.0882  0.2043
  731MPD2    C310803   1.695   0.932  11.933  0.3055 -0.1357  1.0139
  731MPD2    C410804   1.743   1.058  11.944  0.1881  0.3364 -0.0344
  731MPD2    C510805   1.829   1.104  11.844 -0.2217 -0.0309  0.8071
  731MPD2     H10806   1.652   0.769  11.808 -2.0399  0.9736  2.1543
  731MPD2    H110807   1.728   1.123  12.030  0.3489  0.4728 -0.1097
  731MPD2    H210808   1.913   1.060  11.658  1.2798  0.5323  1.4897
  731MPD2    H310809   1.882   1.198  11.858  0.5214 -0.3408  0.0488
  731MPD2     N10810   1.617   0.871  12.032 -0.2175 -0.4124  0.6466
  731MPD2    H510811   1.566   0.788  12.005 -2.0121  0.8100  0.2822
  731MPD2    N110812   1.824   0.827  11.602  0.6260 -0.2680 -0.2684
  731MPD2    H710813   1.902   0.860  11.546  1.2831 -1.3089  0.0197
  732TMC3    C110814   1.823   0.652  11.437  0.0541 -0.6876  0.2335
  732TMC3    C210815   1.763   0.544  11.382  0.4823  0.1579 -0.0185
  732TMC3    C310816   1.842   0.450  11.326 -0.0000  0.0195  0.1578
  732TMC3    C410817   1.955   0.681  11.412  0.5541  0.2722  0.0785
  732TMC3    C510818   2.033   0.587  11.348  0.4955 -0.0081 -0.4959
  732TMC3    C610819   1.975   0.468  11.305 -0.3437 -0.0963  0.6464
  732TMC3     C10820   1.749   0.730  11.538  0.0569 -0.4086 -0.1922
  732TMC3     O10821   1.636   0.695  11.578  0.0374 -0.6098 -0.1870
  732TMC3     H10822   1.655   0.531  11.392  0.9046 -2.3716  1.3912
  732TMC3    H110823   2.009   0.753  11.472 -0.2112 -0.5192  1.7099
  732TMC3    H210824   2.029   0.379  11.274  1.2108  0.3284  2.1902
  732TMC3    C710825   2.163   0.576  11.402  0.2114  0.5968 -0.4931
  732TMC3    C810826   1.802   0.314  11.354 -1.3042  0.6838  0.0593
  732TMC3    O110827   2.250   0.626  11.332 -0.6626 -0.0952  0.2279
  732TMC3    O210828   1.815   0.234  11.259 -1.1071  0.1920 -0.2339
  733TMC3    C110829   2.767   4.311  12.211  0.9876  1.0257  0.0104
  733TMC3    C210830   2.890   4.319  12.276 -0.2097  0.3578  0.2819
  733TMC3    C310831   2.969   4.428  12.253  0.3742 -0.4711 -0.7952
  733TMC3    C410832   2.712   4.417  12.141 -0.8058 -0.4524  0.2171
  733TMC3    C510833   2.800   4.526  12.123  0.1143  0.0905  0.4038
  733TMC3    C610834   2.932   4.533  12.170 -0.5581 -0.7383 -0.3509
  733TMC3     C10835   2.663   4.220  12.261 -0.0438  0.1185  0.6084
  733TMC3     O10836   2.550   4.266  12.278  0.1910 -0.5822 -0.3110
  733TMC3     H10837   2.929   4.241  12.341  1.0305 -1.3207 -2.4516
  733TMC3    H110838   2.610   4.412  12.105 -0.7345  0.3602 -0.1019
  733TMC3    H210839   2.992   4.623  12.161 -1.1335 -0.1489  1.7748
  733TMC3    C710840   2.734   4.638  12.063  0.1398  0.2987 -0.2293
  733TMC3    C810841   3.092   4.456  12.330 -0.8829 -0.0750 -0.4273
  733TMC3    O110842   2.611   4.654  12.081 -0.4510  0.0873 -0.1300
  733TMC3    O210843   3.174   4.363  12.349 -0.4193 -0.0278  0.9917
  734MPD2     C10844   0.111   1.779  12.115  0.1903  0.0761  0.1676
  734MPD2    C110845   0.208   1.687  12.145 -0.5361 -0.4887 -1.3256
  734MPD2    C210846   0.320   1.674  12.063 -0.5608 -0.5503 -0.3983
  734MPD2    C310847   0.335   1.744  11.949  0.6699  0.4897 -0.4746
  734MPD2    C410848   0.230   1.831  11.921  0.4787  0.0073 -0.2502
  734MPD2    C510849   0.122   1.851  12.001  0.2683 -0.5601 -0.6899
  734MPD2     H10850   0.396   1.599  12.081  0.6599  0.9276  0.5362
  734MPD2    H110851   0.232   1.883  11.826  2.5524 -0.3708 -0.4231
  734MPD2    H210852   0.021   1.793  12.173  0.3468  0.5524  0.2993
  734MPD2    H310853   0.048   1.924  11.969 -0.2388 -1.0301 -0.5873
  734MPD2     N10854   0.454   1.723  11.871  0.8741  0.2758 -0.2403
  734MPD2    H510855   0.521   1.651  11.895  0.8220  0.0209 -0.8485
  734MPD2    N110856   0.190   1.610  12.258  0.3243 -0.6409 -0.1069
  734MPD2    H710857   0.100   1.621  12.304 -0.0410 -2.1566 -0.4682
  735TMC3    C110858   0.209   1.414  12.383 -0.2835 -0.1278 -0.3501
  735TMC3    C210859   0.087   1.374  12.335  0.1508  0.1315 -0.1243
  735TMC3    C310860   0.054   1.242  12.340  0.4870 -1.0213 -0.0229
  735TMC3    C410861   0.289   1.320  12.446 -0.0304 -1.2569  0.0205
  735TMC3    C510862   0.242   1.193  12.465  0.2553 -0.6547  0.5056
  735TMC3    C610863   0.123   1.148  12.410  0.0642  0.2296 -0.8246
  735TMC3     C10864   0.277   1.523  12.318  0.6431 -0.3850 -0.7053
  735TMC3     O10865   0.395   1.499  12.293 -0.0995  0.0289  0.3236
  735TMC3     H10866   0.024   1.433  12.269  2.6123  0.1333 -2.4746
  735TMC3    H110867   0.383   1.349  12.491 -0.5572  0.2890  0.1446
  735TMC3    H210868   0.116   1.045  12.377 -1.1274  0.1068 -0.1759
  735TMC3    C710869   0.348   1.097  12.455  0.4083  0.5256  0.1415
  735TMC3    C810870   0.025   1.190  12.208  0.4644 -0.5277  0.3487
  735TMC3    O110871   0.462   1.138  12.419  0.0409 -0.9165 -0.5874
  735TMC3    O210872   4.679   1.092  12.188  0.2393 -0.0031 -0.7635
  736MPD2     C10873   0.336   0.728  12.526 -0.4227  0.5525  0.8650
  736MPD2    C110874   0.378   0.849  12.469 -0.1115 -0.1024  0.1544
  736MPD2    C210875   0.482   0.846  12.381  0.0848 -0.6064 -0.2524
  736MPD2    C310876   0.526   0.726  12.334  0.5718 -0.3665 -0.3271
  736MPD2    C410877   0.488   0.614  12.391 -0.3882  0.3330 -0.2831
  736MPD2    C510878   0.398   0.610  12.497  0.1544  0.3076 -0.6935
  736MPD2     H10879   0.512   0.937  12.330 -1.0035 -1.4651 -2.3787
  736MPD2    H110880   0.527   0.517  12.364 -2.6982 -0.7068  0.1000
  736MPD2    H210881   0.260   0.724  12.603  0.0485  0.6346  1.3409
  736MPD2    H310882   0.389   0.517  12.551 -1.6430  1.6007  1.2510
  736MPD2     N10883   0.619   0.709  12.225  0.3944  0.1852 -0.6612
  736MPD2    H510884   0.647   0.614  12.203 -0.5165 -0.7715  2.3471
  736MPD2    N110885   0.303   0.967  12.495  0.7298 -0.1371 -0.2837
  736MPD2    H710886   0.218   0.961  12.550 -1.3621  1.0688 -3.3718
  737TMC3    C110887   0.775   0.772  12.063 -0.0424 -1.0590  0.0302
  737TMC3    C210888   0.812   0.861  11.960  0.3204  0.3628  0.0369
  737TMC3    C310889   0.919   0.823  11.889 -0.3312  0.3400 -0.1754
  737TMC3    C410890   0.827   0.649  12.075 -0.1097 -0.3323  0.4919
  737TMC3    C510891   0.920   0.607  11.981  0.4506  0.7196  0.5829
  737TMC3    C610892   0.979   0.699  11.896 -0.8160  0.3504 -0.4757
  737TMC3     C10893   0.667   0.813  12.148 -0.1762 -0.1671 -0.0018
  737TMC3     O10894   0.637   0.934  12.141 -0.3975 -0.1988 -0.3070
  737TMC3     H10895   0.798   0.967  11.977  2.7867  0.6113  0.4350
  737TMC3    H110896   0.806   0.580  12.156 -3.2901  1.2168  1.0039
  737TMC3    H210897   1.068   0.676  11.839  0.2915  1.2769  0.8608
  737TMC3    C710898   0.914   0.467  11.945  0.7775 -0.2406 -0.0526
  737TMC3    C810899   0.924   0.866  11.751 -0.0755 -0.2088  0.2405
  737TMC3    O110900   0.853   0.398  12.024 -0.9018  0.3751 -0.2983
  737TMC3    O210901   0.983   0.798  11.668 -0.4256  0.1747 -0.1305
  738MPD2     C10902   0.440   0.115  15.457  0.2903  0.3702 -0.1539
  738MPD2    C110903   0.434   0.036  15.344  0.2547  0.2469 -0.7814
  738MPD2    C210904   0.525   0.060  15.245 -0.3159  0.6475  0.0560
  738MPD2    C310905   0.628   0.148  15.265 -0.5740  0.1711 -0.5034
  738MPD2    C410906   0.644   0.216  15.382  0.5738 -0.3866  0.1458
  738MPD2    C510907   0.547   0.195  15.473  0.0294 -0.6641  0.0007
  738MPD2     H10908   0.511   0.000  15.156  0.1331  3.0990 -1.6750
  738MPD2    H110909   0.731   0.280  15.392  0.2539 -0.0961  1.0141
  738MPD2    H210910   0.367   0.108  15.537 -2.2454 -0.6224 -2.5384
  738MPD2    H310911   0.556   0.243  15.569  1.2468 -1.5209  0.3247
  738MPD2     N10912   0.731   0.160  15.175 -0.1551  0.2148 -0.8556
  738MPD2    H510913   0.813   0.212  15.205  0.8903 -2.2603  0.4848
  738MPD2    N110914   0.323   4.669  15.337  0.2983  0.2961 -0.1822
  738MPD2    H710915   0.264   4.655  15.419 -1.0057  0.8558 -1.0264
  739TMC3    C110916   0.870   0.092  14.997  0.5448 -0.4513 -0.9540
  739TMC3    C210917   0.879   0.046  14.873 -0.1549  0.8998 -0.0534
  739TMC3    C310918   0.992   4.710  14.836 -0.0357 -0.1588 -0.1290
  739TMC3    C410919   0.971   0.084  15.084 -0.8851 -0.0322 -0.7320
  739TMC3    C510920   1.087   0.043  15.037 -0.4503 -0.6595 -0.1988
  739TMC3    C610921   1.099   4.702  14.922 -0.4869 -0.1206  0.2866
  739TMC3     C10922   0.737   0.107  15.056  0.2102  0.3383  0.0096
  739TMC3     O10923   0.643   0.066  14.985  0.2575 -0.0515 -0.2578
  739TMC3     H10924   0.796   0.045  14.803 -1.4009  0.3066  1.4432
  739TMC3    H110925   0.952   0.090  15.191  1.9889  0.4814 -0.2555
  739TMC3    H210926   1.189   4.643  14.911  2.0382  3.0331  3.8758
  739TMC3    C710927   1.201   0.046  15.120  0.6675  0.1760 -0.7394
  739TMC3    C810928   0.998   4.642  14.709 -0.1443 -0.5908  0.3465
  739TMC3    O110929   1.292   4.697  15.095 -0.3432 -0.9056  0.0223
  739TMC3    O210930   0.884   4.619  14.668 -0.3903 -0.5706 -0.1558
  740TMC3    C110931   1.341   1.475  14.178  0.3120 -0.0671  0.4428
  740TMC3    C210932   1.399   1.398  14.279 -0.0687  1.0876 -0.4817
  740TMC3    C310933   1.507   1.324  14.233  0.3420 -0.4396  0.4558
  740TMC3    C410934   1.386   1.479  14.048  0.1909 -0.8187 -0.2097
  740TMC3    C510935   1.484   1.397  14.010  0.1617  0.3199 -1.2543
  740TMC3    C610936   1.546   1.318  14.102 -1.0415  0.0752  0.3799
  740TMC3     C10937   1.224   1.551  14.197  0.2837  0.3274 -0.2496
  740TMC3     O10938   1.186   1.606  14.095 -0.2920 -0.1713 -0.5264
  740TMC3     H10939   1.344   1.376  14.370  3.3941  0.0556  1.3534
  740TMC3    H110940   1.321   1.503  13.965  1.1054 -0.4947 -0.8337
  740TMC3    H210941   1.634   1.263  14.070  0.8755  4.9058 -2.6493
  740TMC3    C710942   1.469   1.338  13.874 -0.8042  0.4336  0.0182
  740TMC3    C810943   1.583   1.244  14.325  0.2738 -0.7234  0.0824
  740TMC3    O110944   1.455   1.215  13.872  0.1803 -0.3975 -0.6689
  740TMC3    O210945   1.675   1.179  14.286  0.0978  0.6625  0.3048
  741TMC3    C110946   0.761   0.766  13.617  0.4560 -0.0001  0.4095
  741TMC3    C210947   0.751   0.705  13.734 -0.4905  0.0756 -0.3031
  741TMC3    C310948   0.837   0.611  13.765 -0.5505 -0.8281 -0.4429
  741TMC3    C410949   0.863   0.748  13.533 -0.1278 -0.1816 -0.3721
  741TMC3    C510950   0.957   0.652  13.566  0.3187 -0.7921  0.7770
  741TMC3    C610951   0.939   0.580  13.682 -0.6546  0.0373 -0.1813
  741TMC3     C10952   0.648   0.845  13.567 -0.7902  0.8767 -0.1698
  741TMC3     O10953   0.678   0.927  13.479  0.3180  0.9562 -0.2548
  741TMC3     H10954   0.684   0.743  13.809 -1.1320 -0.0052 -0.8342
  741TMC3    H110955   0.855   0.802  13.439  0.9386  0.5238 -0.0654
  741TMC3    H210956   1.013   0.505  13.708 -0.4471  0.4075  0.2836
  741TMC3    C710957   1.046   0.605  13.467  0.5950  0.1618  0.6304
  741TMC3    C810958   0.820   0.540  13.887  0.1499 -0.4090 -0.3869
  741TMC3    O110959   1.093   0.495  13.470 -0.2347  0.2608  0.2109
  741TMC3    O210960   0.721   0.567  13.956 -0.1406  0.5856  0.2305
  742TMC3    C110961   0.642   4.189  15.192  0.0501 -0.3242 -0.1913
  742TMC3    C210962   0.569   4.141  15.088  0.1076 -0.3825 -0.1130
  742TMC3    C310963   0.623   4.048  15.006  0.2309  1.0997 -0.2725
  742TMC3    C410964   0.766   4.149  15.213  0.1518 -0.7213 -0.4981
  742TMC3    C510965   0.826   4.055  15.130  0.3761  0.4607  0.2073
  742TMC3    C610966   0.752   4.004  15.024  0.4301  0.6903  0.0465
  742TMC3     C10967   0.566   4.260  15.289  0.7516  0.2849 -0.3897
  742TMC3     O10968   0.484   4.336  15.245 -0.5649  0.1784  0.5155
  742TMC3     H10969   0.461   4.140  15.091  0.0868 -2.1512 -1.9485
  742TMC3    H110970   0.826   4.204  15.284  0.8318 -0.6647 -1.1146
  742TMC3    H210971   0.798   3.922  14.971 -0.0810 -0.0133  0.6972
  742TMC3    C710972   0.974   4.031  15.118  0.5849 -0.0746 -0.0582
  742TMC3    C810973   0.548   3.960  14.916 -0.0516 -0.3892 -0.5769
  742TMC3    O110974   1.022   4.013  15.008  0.0144 -0.3051  0.1896
  742TMC3    O210975   0.617   3.918  14.823 -0.2310 -0.7272  0.1635
  743MPD2     C10976   3.070   4.320   1.606  0.1415  0.0828 -0.2933
  743MPD2    C110977   3.137   4.434   1.592  0.0570  0.1641 -0.2270
  743MPD2    C210978   3.202   4.484   1.704  0.1299 -0.2410 -0.8383
  743MPD2    C310979   3.226   4.405   1.818  0.0473 -0.2162 -0.5383
  743MPD2    C410980   3.174   4.275   1.814 -0.2705 -0.2013  0.1891
  743MPD2    C510981   3.094   4.240   1.710 -0.9380 -0.4285  0.2356
  743MPD2     H10982   3.241   4.585   1.706 -3.5920  1.1684  2.1698
  743MPD2    H110983   3.201   4.201   1.888  2.4956 -1.2908 -1.9193
  743MPD2    H210984   3.010   4.281   1.526  2.0580 -0.7888 -1.2956
  743MPD2    H310985   3.045   4.143   1.715 -4.5663  1.2991 -2.6677
  743MPD2     N10986   3.317   4.449   1.922  0.9278  0.2598 -0.0371
  743MPD2    H510987   3.370   4.534   1.905  0.2352  0.9158  1.0414
  743MPD2    N110988   3.112   4.516   1.476  0.1162 -0.2025  0.7968
  743MPD2    H710989   3.090   4.468   1.390  1.3732 -0.4184  0.5902
  744TMC3    C110990   3.081   4.705   1.339 -0.1186  0.5373  0.3678
  744TMC3    C210991   2.961   4.647   1.301 -0.0468 -0.1578 -0.5742
  744TMC3    C310992   2.912   4.688   1.178 -0.5653  0.2009  0.8574
  744TMC3    C410993   3.144   0.069   1.266 -0.1749  0.0319 -0.4032
  744TMC3    C510994   3.093   0.103   1.140  0.5490  0.4479 -0.1991
  744TMC3    C610995   2.972   0.055   1.099 -0.0579  0.9011 -0.0117
  744TMC3     C10996   3.136   4.652   1.463 -0.2063  0.4885 -0.2685
  744TMC3     O10997   3.212   4.719   1.527  0.2016 -0.3739  0.2398
  744TMC3     H10998   2.904   4.584   1.367  0.0441  1.5251  1.1264
  744TMC3    H110999   3.247   0.090   1.291  0.4458 -1.6229 -1.4988
  744TMC3    H211000   2.928   0.088   1.005 -0.4067 -1.5618 -0.7214
  744TMC3    C711001   3.147   0.216   1.073 -0.5613  1.1779  0.3564
  744TMC3    C811002   2.763   4.695   1.157 -0.3738 -0.3909  0.7512
  744TMC3    O111003   3.105   0.241   0.963 -0.1562 -0.1844  0.7388
  744TMC3    O211004   2.719   0.062   1.090  0.4831 -0.0715  0.2430
  745TMC3    C111005   1.575   3.274  13.300 -0.1404 -0.3653 -0.1255
  745TMC3    C211006   1.479   3.192  13.351  0.2022 -0.5140  0.5170
  745TMC3    C311007   1.379   3.158  13.269  0.1399  0.5326  0.2297
  745TMC3    C411008   1.570   3.318  13.173 -1.0843 -0.3436 -0.0767
  745TMC3    C511009   1.465   3.282  13.095 -0.1539 -0.2692 -0.2689
  745TMC3    C611010   1.368   3.199  13.140 -0.2784  0.1619  0.2751
  745TMC3     C11011   1.698   3.282  13.376  0.1095 -0.0961 -0.1439
  745TMC3     O11012   1.802   3.266  13.317 -0.1395 -0.3651 -0.5576
  745TMC3     H11013   1.493   3.149  13.449  1.6382 -4.1124 -1.2869
  745TMC3    H111014   1.659   3.376  13.147  0.5002 -2.0814  1.4798
  745TMC3    H211015   1.282   3.165  13.084 -0.7642  0.2995  0.9335
  745TMC3    C711016   1.438   3.346  12.969 -0.0924 -0.5846 -0.2942
  745TMC3    C811017   1.257   3.108  13.330 -0.1250  0.3566 -0.5860
  745TMC3    O111018   1.324   3.329  12.926  0.2017 -0.4839 -0.5728
  745TMC3    O211019   1.170   3.060  13.253 -0.4338 -0.6440  0.1742
  746TMC3    C111020   3.916   0.229  10.906  1.1225  0.3705  0.7792
  746TMC3    C211021   3.978   0.174  10.792 -0.0924  0.4913  0.4819
  746TMC3    C311022   3.977   0.040  10.783 -0.6134 -0.3483 -0.1734
  746TMC3    C411023   3.862   0.155  11.007 -0.8059 -0.0443 -0.1563
  746TMC3    C511024   3.856   0.015  10.986  0.5650  0.0173 -0.2426
  746TMC3    C611025   3.902   4.693  10.867  0.2360 -0.1814 -0.2593
  746TMC3     C11026   3.941   0.370  10.947 -0.2314 -0.3483 -1.1066
  746TMC3     O11027   3.890   0.414  11.050 -0.5195 -0.0428 -0.2869
  746TMC3     H11028   4.024   0.222  10.706 -0.3748 -0.4701 -0.2018
  746TMC3    H111029   3.815   0.206  11.090  0.2710  0.4024  0.1810
  746TMC3    H211030   3.893   4.585  10.858 -2.6050  0.0646 -0.4079
  746TMC3    C711031   3.735   4.683  11.039 -0.1129  0.8299 -0.2778
  746TMC3    C811032   4.040   4.698  10.670  0.5833  0.2293 -0.0791
  746TMC3    O111033   3.678   4.612  10.960 -0.0647 -0.3248 -0.2430
  746TMC3    O211034   3.976   4.602  10.625  0.0595 -0.3971  0.4896
  747TMC3    C111035   1.340   0.083  11.042 -0.7103  0.1425  0.3165
  747TMC3    C211036   1.234   0.075  11.132 -0.0146 -0.8955 -0.0862
  747TMC3    C311037   1.250   0.129  11.258 -0.2533  0.3885  0.3999
  747TMC3    C411038   1.449   0.171  11.058  0.1822 -0.7631  0.0999
  747TMC3    C511039   1.444   0.244  11.170  0.8484  0.6168  0.2774
  747TMC3    C611040   1.352   0.223  11.271 -0.4923  0.5485  0.5320
  747TMC3     C11041   1.309   0.041  10.908  0.6190  0.8369  0.0975
  747TMC3     O11042   1.198   0.067  10.863  0.1719 -0.1846 -0.2410
  747TMC3     H11043   1.146   0.017  11.104 -1.2833  0.8657  0.2660
  747TMC3    H111044   1.520   0.185  10.977  1.2733 -0.6394  1.0814
  747TMC3    H211045   1.365   0.273  11.366  0.1905  1.6195 -0.1257
  747TMC3    C711046   1.491   0.377  11.169 -0.0172 -0.0193  0.2934
  747TMC3    C811047   1.154   0.125  11.360  0.2981 -0.2121 -0.5479
  747TMC3    O111048   1.457   0.450  11.261 -0.3956 -0.0952 -0.2813
  747TMC3    O211049   1.068   0.040  11.345  0.0052 -0.5486  0.0645
  748MPD2     C11050   2.140   2.393   1.730  0.3738  0.5436 -0.1474
  748MPD2    C111051   2.156   2.261   1.720 -0.2913  0.5219 -0.0272
  748MPD2    C211052   2.248   2.213   1.629  0.5453  0.0100 -0.0793
  748MPD2    C311053   2.324   2.302   1.550 -0.1291 -0.0117  0.2620
  748MPD2    C411054   2.288   2.433   1.545  0.3317 -0.5182  0.2907
  748MPD2    C511055   2.201   2.478   1.641  0.7600  0.8178 -0.4889
  748MPD2     H11056   2.267   2.106   1.622 -0.1128 -0.1554  0.7673
  748MPD2    H111057   2.338   2.510   1.488 -1.3380  0.6891  0.4786
  748MPD2    H211058   2.083   2.437   1.812  0.8750 -0.2349  0.6222
  748MPD2    H311059   2.173   2.583   1.647  2.0740  1.1097  0.5158
  748MPD2     N11060   2.424   2.249   1.468 -0.0851  0.4311  0.2180
  748MPD2    H511061   2.440   2.150   1.478  0.7354  0.6325  0.9383
  748MPD2    N111062   2.070   2.182   1.798 -0.4952  0.0462  0.1960
  748MPD2    H711063   1.994   2.227   1.848 -2.7070 -1.6897 -1.5747
  749TMC3    C111064   2.619   2.253   1.319  0.2976  0.9449  0.5277
  749TMC3    C211065   2.660   2.134   1.366  0.0767  0.1730 -0.0337
  749TMC3    C311066   2.767   2.075   1.301  0.6836  0.0832  0.0812
  749TMC3    C411067   2.655   2.303   1.201 -0.9165  0.1828 -0.4381
  749TMC3    C511068   2.755   2.239   1.137  0.1391 -0.4386 -0.3732
  749TMC3    C611069   2.816   2.127   1.187  0.6096 -0.2911  0.0724
  749TMC3     C11070   2.509   2.323   1.388  0.6211  0.1593  0.6890
  749TMC3     O11071   2.487   2.435   1.347  0.0525 -0.0863  0.0905
  749TMC3     H11072   2.622   2.101   1.462  0.2246  2.8184  0.9356
  749TMC3    H111073   2.605   2.387   1.154 -0.7330  0.2401 -0.5284
  749TMC3    H211074   2.912   2.085   1.159  0.6257  0.5457 -1.1388
  749TMC3    C711075   2.831   2.324   1.049 -0.7258  0.0096 -0.3748
  749TMC3    C811076   2.865   2.040   1.398 -0.5231 -0.7685 -0.3458
  749TMC3    O111077   2.836   2.445   1.081  0.1380  0.1800 -0.4306
  749TMC3    O211078   2.849   2.087   1.509 -0.2431 -0.4319  0.2460
  750MPD2     C11079   3.763   2.060  10.448  0.4240  0.2222  0.2813
  750MPD2    C111080   3.691   2.012  10.554 -0.7480 -0.0758 -0.0428
  750MPD2    C211081   3.766   1.926  10.636 -0.4200  0.3051 -0.1117
  750MPD2    C311082   3.896   1.884  10.607  0.2623 -0.2346  0.0142
  750MPD2    C411083   3.963   1.936  10.495  0.2687  0.0667  0.0501
  750MPD2    C511084   3.891   2.017  10.419 -0.4230  0.7302  0.1944
  750MPD2     H11085   3.710   1.882  10.717 -2.3152 -0.4070 -1.8112
  750MPD2    H111086   4.057   1.891  10.465 -0.1219  0.4047 -1.6738
  750MPD2    H211087   3.719   2.128  10.377 -2.1379 -0.1064  1.5586
  750MPD2    H311088   3.931   2.047  10.322 -1.6532  1.1198 -0.1955
  750MPD2     N11089   3.967   1.781  10.680 -0.1854  0.2558  0.4931
  750MPD2    H511090   4.047   1.737  10.636  1.4756  4.4476 -0.5865
  750MPD2    N111091   3.566   2.069  10.595 -0.1564 -0.3745 -0.1085
  750MPD2    H711092   3.507   2.108  10.522  3.0636  0.3087 -2.3435
  751TMC3    C111093   3.996   1.633  10.856  0.3550 -0.0738 -0.6517
  751TMC3    C211094   3.909   1.566  10.941  0.0129 -0.0095 -0.1385
  751TMC3    C311095   3.957   1.448  10.990  0.5872 -0.0323  0.1342
  751TMC3    C411096   4.111   1.593  10.800 -0.8308  0.6650  0.1030
  751TMC3    C511097   4.151   1.463  10.847 -0.4498  0.1766  0.4898
  751TMC3    C611098   4.082   1.405  10.953  0.7074  0.3934 -0.2984
  751TMC3     C11099   3.933   1.748  10.804 -0.0455  0.4245  0.3743
  751TMC3     O11100   3.846   1.796  10.879 -0.2308  0.1281  0.8480
  751TMC3     H11101   3.808   1.602  10.960 -0.5179 -0.5260 -2.0421
  751TMC3    H111102   4.170   1.644  10.725  2.9198 -1.7604  1.4028
  751TMC3    H211103   4.106   1.304  10.982 -3.6786 -1.0100 -1.4504
  751TMC3    C711104   4.251   1.378  10.780  0.0063 -0.5857  0.5239
  751TMC3    C811105   3.854   1.349  10.964 -0.1054 -0.5622  0.4460
  751TMC3    O111106   4.262   1.387  10.660  0.4681  0.6656 -0.1781
  751TMC3    O211107   3.883   1.267  10.880  0.0167 -0.3821  0.1809
  752TMC3    C111108   1.721   2.164  17.548 -0.5573 -0.9140  0.2740
  752TMC3    C211109   1.687   2.288  17.599  0.2660 -0.0715  0.6533
  752TMC3    C311110   1.676   2.284   0.034 -0.4662  0.2840  0.0278
  752TMC3    C411111   1.747   2.055  17.622 -0.0279 -0.2619  0.1235
  752TMC3    C511112   1.734   2.054   0.053 -0.7713  0.4992 -0.8325
  752TMC3    C611113   1.701   2.171   0.112  0.1847  0.0162  0.0339
  752TMC3     C11114   1.733   2.154  17.406 -0.3555 -0.2196 -0.4588
  752TMC3     O11115   1.743   2.037  17.362 -0.1214  0.0317  0.3084
  752TMC3     H11116   1.681   2.383  17.546 -1.5108 -0.6373 -0.1660
  752TMC3    H111117   1.779   1.965  17.571  2.9423  1.3385 -0.7865
  752TMC3    H211118   1.693   2.176   0.220 -2.4510  2.0888 -0.2390
  752TMC3    C711119   1.798   1.948   0.130 -0.2603 -0.6078  0.2300
  752TMC3    C811120   1.589   2.388   0.090 -0.6925 -0.0746 -0.5225
  752TMC3    O111121   1.852   1.985   0.230 -0.8467  0.4305  0.4558
  752TMC3    O211122   1.524   2.453   0.011  0.0661 -0.3708 -0.2230
  753TMC3    C111123   4.300   3.792  13.190  0.2857  0.2714 -0.4561
  753TMC3    C211124   4.324   3.748  13.316  1.1092 -0.6327  0.2967
  753TMC3    C311125   4.346   3.615  13.327  0.8357 -0.4716  0.1632
  753TMC3    C411126   4.287   3.706  13.084  0.8131  0.6060  0.0150
  753TMC3    C511127   4.301   3.570  13.103 -0.2468  0.0664  0.3872
  753TMC3    C611128   4.349   3.524  13.223  0.0865 -0.4099  0.3478
  753TMC3     C11129   4.244   3.918  13.167  0.6681  0.8285 -0.0234
  753TMC3     O11130   4.248   3.959  13.052 -0.0061  0.0284  0.0056
  753TMC3     H11131   4.310   3.810  13.404 -0.0475  0.5007 -0.6830
  753TMC3    H111132   4.241   3.743  12.993  2.2407  2.1729 -0.0688
  753TMC3    H211133   4.365   3.417  13.234  0.7888 -0.5103 -1.7970
  753TMC3    C711134   4.293   3.475  12.991 -0.5964  0.5394  0.0082
  753TMC3    C811135   4.366   3.549  13.455 -0.3894 -0.0697  0.4237
  753TMC3    O111136   4.308   3.357  13.009  0.9954 -0.5358 -0.8388
  753TMC3    O211137   4.398   3.433  13.455 -0.1823 -0.3217 -0.3617
  754MPD2     C11138   3.080   1.655  12.942 -0.0746 -0.8545 -0.0715
  754MPD2    C111139   2.976   1.586  12.903 -0.3226 -0.5673  0.7474
  754MPD2    C211140   2.855   1.649  12.866 -0.1647  0.1102  0.4829
  754MPD2    C311141   2.838   1.786  12.899 -0.2913  0.4781 -0.3952
  754MPD2    C411142   2.948   1.854  12.939  0.5210  0.6692  0.3746
  754MPD2    C511143   3.071   1.792  12.970  0.0945 -0.3500  0.0152
  754MPD2     H11144   2.776   1.596  12.814 -1.8308  3.0846 -0.0320
  754MPD2    H111145   2.944   1.961  12.950 -4.5705  0.7343 -1.9351
  754MPD2    H211146   3.169   1.602  12.976  1.3599  1.6641  0.1340
  754MPD2    H311147   3.146   1.854  13.018 -0.9304  1.2720 -0.4803
  754MPD2     N11148   2.720   1.861  12.877  0.3558 -0.4737 -0.0263
  754MPD2    H511149   2.713   1.959  12.901 -1.5675 -0.9390  1.3394
  754MPD2    N111150   2.988   1.446  12.885  0.0026  0.3196 -0.7818
  754MPD2    H711151   3.079   1.406  12.905 -0.4302  0.0576  0.7002
  755MPD2     C11152   2.642   2.606  13.140 -0.5852  0.3797  0.5418
  755MPD2    C111153   2.508   2.587  13.106 -0.1639 -0.2893 -0.2398
  755MPD2    C211154   2.480   2.477  13.028  0.1440 -0.2685  0.0605
  755MPD2    C311155   2.572   2.387  12.987  0.6263  0.7903  0.6676
  755MPD2    C411156   2.699   2.395  13.033 -0.3047 -0.0457  0.1966
  755MPD2    C511157   2.736   2.506  13.104 -0.1198  1.0706  0.0167
  755MPD2     H11158   2.380   2.471  12.988  0.5259 -2.8471 -0.4698
  755MPD2    H111159   2.773   2.317  13.025 -1.0087 -0.8046  1.1526
  755MPD2    H211160   2.682   2.681  13.207  0.6248  0.8512 -0.7061
  755MPD2    H311161   2.833   2.500  13.152  0.7376  0.5004 -1.7829
  755MPD2     N11162   2.534   2.262  12.916  0.4099 -0.2142  0.3900
  755MPD2    H511163   2.599   2.187  12.897  1.3016  0.7100 -0.1888
  755MPD2    N111164   2.408   2.671  13.149 -0.3967 -0.1291 -0.1906
  755MPD2    H711165   2.313   2.645  13.124 -0.7267  1.3447 -0.4412
  756MPD2     C11166   3.768   2.460   9.121  0.2930  0.2572  0.1410
  756MPD2    C111167   3.772   2.457   9.257  0.0748  0.6460  0.3616
  756MPD2    C211168   3.646   2.453   9.318  0.4270  0.7630  0.6016
  756MPD2    C311169   3.524   2.466   9.245  0.6084 -0.3508  0.3107
  756MPD2    C411170   3.527   2.480   9.106 -0.1119 -0.4176 -0.4543
  756MPD2    C511171   3.651   2.469   9.046  0.2997  0.0177 -0.1432
  756MPD2     H11172   3.626   2.444   9.424 -0.9891  2.8116  0.5039
  756MPD2    H111173   3.445   2.504   9.040 -0.2866 -0.8902 -0.4080
  756MPD2    H211174   3.861   2.452   9.066 -1.5038 -1.1933 -2.6827
  756MPD2    H311175   3.642   2.488   8.940 -0.0373 -0.8995 -0.2730
  756MPD2     N11176   3.397   2.478   9.307  0.7536 -0.6324  0.0938
  756MPD2    H511177   3.393   2.452   9.405  2.7605  1.1498  0.6549
  756MPD2    N111178   3.889   2.453   9.337 -0.2070  0.2285 -0.2146
  756MPD2    H711179   3.884   2.459   9.439 -0.2422 -3.0244 -0.0299
  757MPD2     C11180   3.209   1.913   9.869 -0.7169 -0.1531 -0.2818
  757MPD2    C111181   3.309   1.953   9.781 -0.0826  0.2390 -0.3003
  757MPD2    C211182   3.304   2.076   9.717 -0.1258  0.3807 -0.5964
  757MPD2    C311183   3.188   2.154   9.728 -0.0745 -0.0096 -0.1731
  757MPD2    C411184   3.083   2.110   9.814  0.0932 -0.8254  0.4018
  757MPD2    C511185   3.098   1.993   9.881 -0.3969 -0.0154  0.3410
  757MPD2     H11186   3.384   2.106   9.650 -0.9943 -0.3451 -1.9700
  757MPD2    H111187   2.988   2.162   9.823 -0.4756 -1.5348 -1.4720
  757MPD2    H211188   3.218   1.816   9.917  0.5307 -0.0907 -0.4017
  757MPD2    H311189   3.006   1.964   9.931 -1.3308 -2.4748 -2.8204
  757MPD2     N11190   3.193   2.277   9.661  0.1797  0.8495 -0.9086
  757MPD2    H511191   3.276   2.298   9.606 -0.5518  2.9407 -1.2291
  757MPD2    N111192   3.421   1.872   9.773 -0.0751 -0.0966 -0.1546
  757MPD2    H711193   3.421   1.783   9.821 -0.1832  1.3765  2.6047
  758MPD2     C11194   2.920   2.395  15.768  0.6785 -0.4548 -0.2106
  758MPD2    C111195   2.942   2.290  15.849 -0.0666  0.5944 -0.6965
  758MPD2    C211196   2.892   2.296  15.974  0.2160 -0.5450  0.5244
  758MPD2    C311197   2.832   2.402  16.033  0.3082 -0.5449 -0.1895
  758MPD2    C411198   2.817   2.513  15.952  0.1106 -0.3299 -0.0321
  758MPD2    C511199   2.858   2.508  15.821 -0.0483  0.4599 -0.2093
  758MPD2     H11200   2.911   2.204  16.029  2.0762 -0.2705  0.3330
  758MPD2    H111201   2.780   2.608  15.989  0.2604 -1.3708  2.7762
  758MPD2    H211202   2.949   2.393  15.663  2.1206  0.0540  0.1749
  758MPD2    H311203   2.824   2.594  15.763 -1.4204  0.7608  1.0673
  758MPD2     N11204   2.782   2.412  16.164  0.1033  0.1716 -0.3027
  758MPD2    H511205   2.737   2.499  16.190 -1.5297 -0.1279 -2.1116
  758MPD2    N111206   3.011   2.167  15.814  0.0155  0.3203 -0.7150
  758MPD2    H711207   3.001   2.085  15.872 -2.2838  1.9992  1.2372
  759MPD2     C11208   3.439   3.964   9.970 -0.3677 -0.4468  0.5602
  759MPD2    C111209   3.335   4.020  10.043  0.1143 -0.5544  0.0360
  759MPD2    C211210   3.319   4.152  10.028  1.0991 -0.5442  0.0396
  759MPD2    C311211   3.387   4.231   9.942 -0.4243 -0.4730 -0.5745
  759MPD2    C411212   3.483   4.174   9.862  0.3306  0.4200 -0.0156
  759MPD2    C511213   3.513   4.041   9.885  0.0243 -0.4928 -0.3177
  759MPD2     H11214   3.250   4.202  10.095  1.1419 -1.8573  1.0509
  759MPD2    H111215   3.545   4.237   9.799 -0.0595  0.1902 -0.6271
  759MPD2    H211216   3.462   3.858   9.975 -1.1048 -0.6677 -0.5766
  759MPD2    H311217   3.588   3.993   9.824  1.0844  2.3289 -1.2412
  759MPD2     N11218   3.358   4.368   9.948 -0.2652 -0.0011 -0.2215
  759MPD2    H511219   3.287   4.399  10.013 -0.2714 -0.1105 -0.1765
  759MPD2    N111220   3.247   3.950  10.128 -0.2747 -0.6576  0.5996
  759MPD2    H711221   3.175   4.006  10.172  0.3337  0.1535  0.5681
  760MPD2     C11222   1.717   2.383  11.572  0.3807 -0.6563 -0.0915
  760MPD2    C111223   1.851   2.393  11.541 -0.1599  0.3390  0.1901
  760MPD2    C211224   1.936   2.293  11.594  0.1878  0.1869  0.0620
  760MPD2    C311225   1.891   2.185  11.670 -0.5047  0.3369  0.4232
  760MPD2    C411226   1.757   2.181  11.704 -0.6692 -0.0514  0.4077
  760MPD2    C511227   1.671   2.279  11.654 -0.1396 -0.2685  0.0733
  760MPD2     H11228   2.044   2.296  11.577  0.1770 -0.0293 -0.0442
  760MPD2    H111229   1.720   2.092  11.752  0.2644 -0.1861  0.8868
  760MPD2    H211230   1.647   2.457  11.535 -0.3079 -1.1090  0.3098
  760MPD2    H311231   1.566   2.269  11.676  0.3516 -0.3663  2.3606
  760MPD2     N11232   1.988   2.085  11.695 -0.1501 -0.1720 -0.2138
  760MPD2    H511233   2.084   2.104  11.666 -0.5772  0.2912 -1.3439
  760MPD2    N111234   1.907   2.498  11.464  0.3244 -0.1240  0.2051
  760MPD2    H711235   2.004   2.491  11.435  0.6140  1.4586  0.8131
  761MPD2     C11236   3.430   1.074  11.068  0.9115 -0.0120  0.3419
  761MPD2    C111237   3.519   1.069  10.963 -0.1892 -0.8848  0.2455
  761MPD2    C211238   3.615   1.175  10.950  0.7459  0.1456 -0.0793
  761MPD2    C311239   3.628   1.270  11.042 -0.2542 -0.5515 -0.2915
  761MPD2    C411240   3.535   1.273  11.143  0.2370  0.1585 -0.6134
  761MPD2    C511241   3.435   1.176  11.150 -0.6803  0.0743  0.3026
  761MPD2     H11242   3.682   1.183  10.865  0.6304  0.4347 -0.1416
  761MPD2    H111243   3.531   1.347  11.222  2.2269 -1.4118  0.9728
  761MPD2    H211244   3.350   1.002  11.069  0.0490  0.9287 -0.6470
  761MPD2    H311245   3.366   1.180  11.234 -0.7419 -0.4728  0.2806
  761MPD2     N11246   3.739   1.363  11.043  0.4151 -0.9397  0.6085
  761MPD2    H511247   3.745   1.431  11.118 -0.4895  1.2554 -1.2849
  761MPD2    N111248   3.517   0.953  10.891 -0.1339  0.2316  0.0337
  761MPD2    H711249   3.498   0.861  10.931  0.0219  0.8071  1.4235
  762MPD2     C11250   4.185   0.940  10.539 -0.5351  0.0750 -0.0660
  762MPD2    C111251   4.109   0.832  10.499 -0.5606  0.0393 -0.6740
  762MPD2    C211252   4.170   0.747  10.410  0.8192 -0.2272 -0.1897
  762MPD2    C311253   4.298   0.763  10.367 -0.1090  0.2793 -0.1778
  762MPD2    C411254   4.373   0.868  10.421  0.3721  0.1817 -0.4933
  762MPD2    C511255   4.309   0.966  10.496  1.1113  0.0198  0.2329
  762MPD2     H11256   4.122   0.658  10.372 -1.4154  0.5655  0.7484
  762MPD2    H111257   4.475   0.896  10.399  0.4885 -0.4263 -0.7171
  762MPD2    H211258   4.139   1.007  10.610 -0.6107  0.1312 -0.1685
  762MPD2    H311259   4.365   1.054  10.523  1.3190  0.1720 -0.6913
  762MPD2     N11260   4.366   0.669  10.275  0.4007 -0.3001 -0.1381
  762MPD2    H511261   4.314   0.595  10.228  1.2832 -1.6480  1.0066
  762MPD2    N111262   3.980   0.815  10.556 -0.3071  0.4390 -0.4509
  762MPD2    H711263   3.946   0.893  10.611  1.6876  1.0179 -0.0387
  763MPD2     C11264   4.638   2.106  15.988  0.2547  0.5700 -0.1004
  763MPD2    C111265   0.042   2.116  16.033  0.7017 -0.0600 -0.3014
  763MPD2    C211266   0.071   2.198  16.145 -0.3414 -0.1124 -0.4284
  763MPD2    C311267   4.691   2.258  16.214  0.6425 -0.0431  0.7018
  763MPD2    C411268   4.563   2.234  16.172 -0.1266 -0.0393  0.8855
  763MPD2    C511269   4.540   2.160  16.065 -0.5713  0.0939  0.2075
  763MPD2     H11270   0.175   2.220  16.165 -0.9438  0.3679  2.1463
  763MPD2    H111271   4.474   2.270  16.222  0.4076  0.5329  1.4320
  763MPD2    H211272   4.614   2.042  15.904  0.1371  0.9145 -0.3265
  763MPD2    H311273   4.437   2.154  16.034  0.3281  1.3751 -2.9559
  763MPD2     N11274   4.717   2.332  16.334  0.2122  0.1574 -0.3813
  763MPD2    H511275   0.086   2.333  16.372  0.6983 -1.8713 -1.5552
  763MPD2    N111276   0.147   2.058  15.957  0.2495  0.0627 -0.4018
  763MPD2    H711277   0.240   2.096  15.970 -0.2037  0.8875  0.3797
  764MPD2     C11278   2.248   4.104  17.411  0.2913 -0.5872  0.1953
  764MPD2    C111279   2.308   4.006  17.336 -0.6147 -0.5780 -0.0800
  764MPD2    C211280   2.311   3.876  17.371  0.5989  0.1503 -0.3143
  764MPD2    C311281   2.246   3.842  17.483  0.8507  0.9384  0.7469
  764MPD2    C411282   2.193   3.941  17.566 -0.5834  0.2047 -0.3276
  764MPD2    C511283   2.198   4.068  17.527  0.0043  0.1490 -0.5643
  764MPD2     H11284   2.359   3.802  17.308 -1.8744 -1.9151  0.2116
  764MPD2    H111285   2.177   3.906  17.667  1.2674 -0.4973 -0.2708
  764MPD2    H211286   2.249   4.209  17.384 -1.5325 -1.1062 -1.8544
  764MPD2    H311287   2.168   4.150  17.591  0.3018  0.6036 -1.0123
  764MPD2     N11288   2.254   3.704  17.518 -0.2366 -0.0104  0.2895
  764MPD2    H511289   2.305   3.643  17.454 -1.1374 -0.1278 -0.3084
  764MPD2    N111290   2.356   4.032  17.207  0.0579 -0.1211 -0.6077
  764MPD2    H711291   2.411   3.956  17.169  0.3918 -0.0000 -0.3698
  765MPD2     C11292   2.587   1.380  16.062  0.0408  0.0501  0.1197
  765MPD2    C111293   2.646   1.497  16.029  0.3362 -0.2470  0.1829
  765MPD2    C211294   2.773   1.497  15.980  0.4602 -0.0472 -0.2951
  765MPD2    C311295   2.839   1.377  15.952 -0.4943 -0.2699  0.3499
  765MPD2    C411296   2.778   1.258  15.969  0.0730 -0.9861  0.2630
  765MPD2    C511297   2.653   1.260  16.024 -0.5147 -0.7030  0.4757
  765MPD2     H11298   2.824   1.590  15.956  1.6332 -0.1786  1.6630
  765MPD2    H111299   2.819   1.162  15.941 -0.8021 -1.0587 -0.7377
  765MPD2    H211300   2.482   1.380  16.088  0.1585 -0.0022  0.5839
  765MPD2    H311301   2.611   1.165  16.054  1.4803 -1.4977  0.7574
  765MPD2     N11302   2.964   1.389  15.878  0.5117  0.0012  0.2901
  765MPD2    H511303   3.001   1.478  15.847  3.0670 -0.3908  2.2544
  765MPD2    N111304   2.567   1.612  16.029 -0.0741  0.9214  0.4677
  765MPD2    H711305   2.473   1.606  16.067 -0.0617  0.3070  0.3996
  766MPD2     C11306   1.925   1.800  15.566  0.9676 -0.2469 -0.1117
  766MPD2    C111307   2.060   1.765  15.592  0.0033 -0.2675 -0.3034
  766MPD2    C211308   2.132   1.690  15.493  0.2274 -0.1233 -0.0588
  766MPD2    C311309   2.064   1.644  15.380  0.8234  0.1925  0.1609
  766MPD2    C411310   1.933   1.665  15.366  1.1207 -0.6854  0.1442
  766MPD2    C511311   1.870   1.750  15.455 -0.5146 -0.0600 -0.2186
  766MPD2     H11312   2.241   1.683  15.494  0.1587 -1.4153 -1.4787
  766MPD2    H111313   1.883   1.635  15.274  1.3062 -1.7964  0.4094
  766MPD2    H211314   1.872   1.870  15.630  2.3271 -0.7901  1.6091
  766MPD2    H311315   1.768   1.778  15.434 -0.9155 -0.4290  1.2229
  766MPD2     N11316   2.122   1.567  15.274  0.0141  0.4952 -0.2062
  766MPD2    H511317   2.059   1.534  15.202  0.2398  1.6435 -0.9203
  766MPD2    N111318   2.122   1.818  15.712  0.3909 -0.4527 -0.1537
  766MPD2    H711319   2.062   1.873  15.772 -1.4472 -1.1301 -1.3671
  767MPD2     C11320   1.815   1.896  15.094 -0.1690  0.4295 -1.3917
  767MPD2    C111321   1.946   1.870  15.063 -0.5214  0.4781  0.2080
  767MPD2    C211322   1.966   1.785  14.956  0.5587 -0.4694 -0.5520
  767MPD2    C311323   1.865   1.729  14.890  0.0802 -0.5001 -0.2064
  767MPD2    C411324   1.735   1.759  14.927  0.6676 -0.5061 -0.3615
  767MPD2    C511325   1.710   1.842  15.026 -0.0166 -0.3317  0.6313
  767MPD2     H11326   2.064   1.746  14.928 -0.0716 -1.0359 -1.9552
  767MPD2    H111327   1.653   1.712  14.874  1.3841 -0.6456 -1.3459
  767MPD2    H211328   1.784   1.964  15.174  0.5689  1.1523 -1.7200
  767MPD2    H311329   1.607   1.873  15.041  0.6675  1.8026  0.9402
  767MPD2     N11330   1.897   1.642  14.780 -0.2624  0.4609 -0.5731
  767MPD2    H511331   1.992   1.607  14.771 -1.3397 -2.6316  0.2064
  767MPD2    N111332   2.049   1.934  15.137 -0.1468  0.1892  0.8264
  767MPD2    H711333   2.022   2.003  15.206  1.9060 -0.3055  2.1136
  768MPD2     C11334   3.654   4.213  10.760 -0.4063 -0.3990  0.1107
  768MPD2    C111335   3.605   4.210  10.892  0.1842  0.0397 -0.3586
  768MPD2    C211336   3.686   4.251  10.994 -0.2406  0.2196 -0.3796
  768MPD2    C311337   3.817   4.283  10.967  0.5741 -0.8750 -0.5031
  768MPD2    C411338   3.859   4.294  10.838 -0.0335  0.1195 -1.1982
  768MPD2    C511339   3.784   4.251  10.732 -1.3293  0.1866 -1.1016
  768MPD2     H11340   3.651   4.260  11.096 -0.8813 -0.7235 -0.5211
  768MPD2    H111341   3.963   4.318  10.824  0.1729  0.3758  0.8699
  768MPD2    H211342   3.590   4.183  10.678 -0.0439  0.2541 -0.4114
  768MPD2    H311343   3.825   4.251  10.631 -1.3067 -1.7317 -1.0994
  768MPD2     N11344   3.909   4.310  11.067  0.8391 -0.0243  0.1989
  768MPD2    H511345   3.993   4.357  11.034  0.1938  1.1899  0.2731
  768MPD2    N111346   3.470   4.171  10.931  0.0535  0.2461  0.4606
  768MPD2    H711347   3.446   4.183  11.028 -2.3800 -0.1091 -0.1171
  769MPD2     C11348   3.875   3.272  14.775  0.3587 -0.5735 -0.0267
  769MPD2    C111349   3.806   3.225  14.885 -0.2862 -0.6491 -0.3315
  769MPD2    C211350   3.848   3.271  15.006 -0.1220 -0.5813 -0.5754
  769MPD2    C311351   3.952   3.361  15.016  0.2682  0.1959 -0.1386
  769MPD2    C411352   4.025   3.394  14.910 -0.0426  0.4574 -0.0565
  769MPD2    C511353   3.987   3.343  14.791  0.2614  0.3468 -0.0173
  769MPD2     H11354   3.793   3.242  15.095 -0.5583  3.2922  0.3958
  769MPD2    H111355   4.109   3.462  14.909 -0.1811  0.6335  0.1346
  769MPD2    H211356   3.841   3.251  14.674  1.6558  0.8259 -0.7431
  769MPD2    H311357   4.055   3.369  14.710 -0.4217 -1.0854 -1.0596
  769MPD2     N11358   3.984   3.403  15.149 -0.0450  0.4537 -0.3041
  769MPD2    H511359   3.940   3.359  15.229  2.3143 -1.5078 -0.0937
  769MPD2    N111360   3.715   3.119  14.866 -0.4347 -0.0397 -0.1607
  769MPD2    H711361   3.696   3.086  14.772 -0.6643 -1.5036  0.3953
  770MPD2     C11362   3.562   2.116  15.116  0.2008  0.1625 -0.1559
  770MPD2    C111363   3.457   2.141  15.030 -0.2990  0.8494 -0.1356
  770MPD2    C211364   3.422   2.270  15.003 -0.2189  0.7357 -0.1011
  770MPD2    C311365   3.475   2.375  15.072  0.5151 -0.5582 -0.2332
  770MPD2    C411366   3.572   2.347  15.165 -0.1347  0.5928 -0.7215
  770MPD2    C511367   3.615   2.220  15.189 -0.1762  0.3236  0.3511
  770MPD2     H11368   3.343   2.278  14.929  0.8060  0.1924 -1.2543
  770MPD2    H111369   3.628   2.421  15.221 -0.9268  0.1379  0.6619
  770MPD2    H211370   3.606   2.018  15.128  1.7321  0.9150  0.4557
  770MPD2    H311371   3.695   2.186  15.254 -0.3122 -1.6137 -0.4958
  770MPD2     N11372   3.437   2.512  15.031 -0.2877 -0.0824  0.5664
  770MPD2    H511373   3.370   2.522  14.955  1.1773 -0.9509 -0.8320
  770MPD2    N111374   3.398   2.032  14.962  0.2522  0.1765  0.1847
  770MPD2    H711375   3.448   1.943  14.966  1.2758  0.6570 -1.6946
  771MPD2     C11376   4.504   0.594  13.975 -0.3073 -0.1446  0.7937
  771MPD2    C111377   4.506   0.702  13.896 -0.0913 -0.0556 -0.8437
  771MPD2    C211378   4.484   0.693  13.762 -0.5500  0.6101  0.5727
  771MPD2    C311379   4.435   0.569  13.713  0.6016  0.0454  0.3511
  771MPD2    C411380   4.415   0.464  13.803  0.2648 -0.3977  0.2155
  771MPD2    C511381   4.456   0.477  13.930 -0.2170  0.0637  0.5310
  771MPD2     H11382   4.488   0.785  13.704  0.7553 -0.0422 -0.3829
  771MPD2    H111383   4.372   0.368  13.780 -2.6161  0.4276  2.2048
  771MPD2    H211384   4.544   0.592  14.075 -3.2324 -0.3492  1.9633
  771MPD2    H311385   4.439   0.394  13.998  2.0419 -0.6699  0.2127
  771MPD2     N11386   4.412   0.559  13.574  0.2101 -0.4762 -0.3460
  771MPD2    H511387   4.386   0.640  13.518  1.0881  0.0726  0.0336
  771MPD2    N111388   4.551   0.828  13.941 -0.2256 -0.1605 -0.1146
  771MPD2    H711389   4.563   0.903  13.873 -3.1828 -0.5136 -0.9996
  772MPD2     C11390   4.258   1.396  14.417  0.0379  0.8553 -0.8749
  772MPD2    C111391   4.238   1.298  14.316  0.2459  0.2374  0.3466
  772MPD2    C211392   4.110   1.270  14.265  0.1620  0.3840  0.2250
  772MPD2    C311393   3.999   1.335  14.318 -0.4127  0.4585  0.6136
  772MPD2    C411394   4.020   1.420  14.425 -0.1506  0.6160  0.0575
  772MPD2    C511395   4.145   1.458  14.466  0.3760  0.0798 -0.8788
  772MPD2     H11396   4.099   1.192  14.191 -1.4712  0.6285  0.2142
  772MPD2    H111397   3.936   1.472  14.467  0.1064  0.4187  0.8115
  772MPD2    H211398   4.359   1.422  14.448  0.6129 -0.9387 -1.2476
  772MPD2    H311399   4.154   1.532  14.544 -0.1525  0.8206 -1.5213
  772MPD2     N11400   3.858   1.317  14.281 -0.2811  0.7008 -0.3673
  772MPD2    H511401   3.786   1.381  14.313  1.1179  2.3976 -0.6157
  772MPD2    N111402   4.352   1.227  14.265 -0.0550  0.1966  0.3176
  772MPD2    H711403   4.338   1.152  14.199  0.1403 -0.7332  1.3432
  773MPD2     C11404   3.636   2.890   0.093  0.1424  0.6805 -0.5452
  773MPD2    C111405   3.533   2.798   0.078 -0.6387 -0.9295 -0.1695
  773MPD2    C211406   3.517   2.687   0.164 -0.1255 -0.3910  0.0765
  773MPD2    C311407   3.615   2.664   0.265  0.0384  0.0889  0.4102
  773MPD2    C411408   3.715   2.757   0.281 -0.2645  0.1408 -0.3142
  773MPD2    C511409   3.729   2.865   0.193  0.3426  0.6990  0.2633
  773MPD2     H11410   3.442   2.612   0.143 -1.2000  0.5383  0.6696
  773MPD2    H111411   3.784   2.759   0.365  0.2515  2.0715 -0.8066
  773MPD2    H211412   3.637   2.977   0.028 -0.9415  0.4002 -0.9383
  773MPD2    H311413   3.805   2.940   0.211  2.0950 -1.0511  0.1062
  773MPD2     N11414   3.599   2.548   0.342 -0.1440 -0.2339 -0.7144
  773MPD2    H511415   3.531   2.480   0.308  0.9168 -0.6842 -1.9618
  773MPD2    N111416   3.433   2.799  17.685 -0.0919 -0.8039  0.0078
  773MPD2    H711417   3.357   2.731  17.688 -0.4185 -0.4684 -0.5604
  774MPD2     C11418   2.610   0.626  13.242  1.0552 -0.0730 -0.2103
  774MPD2    C111419   2.575   0.735  13.319 -0.0354  0.5155 -0.2272
  774MPD2    C211420   2.550   0.856  13.254  0.2979 -0.1345 -0.0825
  774MPD2    C311421   2.568   0.863  13.116 -0.3172  1.0436  0.7396
  774MPD2    C411422   2.603   0.750  13.045 -0.1796  0.8767 -0.3258
  774MPD2    C511423   2.618   0.629  13.108  0.3449  0.1386  0.0571
  774MPD2     H11424   2.525   0.944  13.313 -3.0106 -2.1194  1.4312
  774MPD2    H111425   2.617   0.746  12.938 -0.8376  0.0625 -0.3830
  774MPD2    H211426   2.642   0.533  13.289  1.1670 -0.4677 -1.0716
  774MPD2    H311427   2.666   0.553  13.046  0.2719  1.2979 -1.4111
  774MPD2     N11428   2.566   0.991  13.062 -0.0853 -0.2552  0.2174
  774MPD2    H511429   2.560   1.067  13.129  0.0750 -1.5594  1.7394
  774MPD2    N111430   2.550   0.715  13.455  0.3584 -0.6622 -0.3285
  774MPD2    H711431   2.598   0.634  13.493 -1.5083 -1.2567  0.8178
  775MPD2     C11432   4.169   3.119  15.395  0.2987 -0.5236  0.1329
  775MPD2    C111433   4.228   3.150  15.520 -0.1019 -0.2367  0.5616
  775MPD2    C211434   4.353   3.199  15.521  0.1894 -0.2524 -0.5104
  775MPD2    C311435   4.430   3.217  15.410 -0.7942 -0.2056 -0.4563
  775MPD2    C411436   4.384   3.167  15.292  0.0784 -0.3046 -0.2182
  775MPD2    C511437   4.253   3.118  15.287  0.0129 -0.1983 -0.9007
  775MPD2     H11438   4.394   3.223  15.619  1.0128  0.0092 -0.9108
  775MPD2    H111439   4.445   3.176  15.203  0.8306  2.4879  0.5777
  775MPD2    H211440   4.074   3.070  15.379  0.2448 -0.6862  0.9295
  775MPD2    H311441   4.218   3.074  15.194  1.8907  0.5809 -1.9842
  775MPD2     N11442   4.566   3.265  15.416  0.1765  0.5206 -0.1783
  775MPD2    H511443   4.617   3.275  15.328 -0.3494  2.0991 -0.2944
  775MPD2    N111444   4.150   3.148  15.634  0.4675 -0.2360  0.0489
  775MPD2    H711445   4.067   3.092  15.618 -0.4092  0.9595  0.4937
  776MPD2     C11446   3.048   2.698  10.928  0.1925 -0.2699 -0.1811
  776MPD2    C111447   3.167   2.642  10.885 -0.2285  0.0211  1.1167
  776MPD2    C211448   3.279   2.713  10.910  0.8112  0.2230  0.6237
  776MPD2    C311449   3.277   2.826  10.975 -0.0447 -0.0406  0.0800
  776MPD2    C411450   3.157   2.885  11.021  0.1361  0.3797 -0.1290
  776MPD2    C511451   3.046   2.815  10.989 -0.0517 -0.1704  0.0308
  776MPD2     H11452   3.372   2.672  10.871  0.8408  2.2617 -1.5005
  776MPD2    H111453   3.156   2.976  11.080  0.3734  0.8673 -0.8801
  776MPD2    H211454   2.957   2.642  10.911 -0.0346  0.3511 -1.0429
  776MPD2    H311455   2.947   2.848  11.016 -0.3342 -0.3113 -0.8333
  776MPD2     N11456   3.387   2.894  11.024  0.1311  0.2201 -0.3521
  776MPD2    H511457   3.378   2.976  11.084 -0.1332  0.0300 -0.1317
  776MPD2    N111458   3.165   2.509  10.841 -0.3395  0.1512  0.7104
  776MPD2    H711459   3.074   2.465  10.835 -0.5249  0.5617  0.5232
  777MPD2     C11460   3.902   1.173   0.979  0.2066  0.4912 -0.1929
  777MPD2    C111461   3.765   1.152   0.985 -0.9448  0.2370  0.3653
  777MPD2    C211462   3.712   1.076   0.888  0.1490  0.1873  0.5086
  777MPD2    C311463   3.790   0.999   0.804 -0.3400 -0.0635 -0.1231
  777MPD2    C411464   3.927   1.020   0.804 -0.2944 -0.2803  0.2945
  777MPD2    C511465   3.976   1.114   0.884 -0.0451  0.3565  0.2731
  777MPD2     H11466   3.605   1.060   0.882  0.1768 -0.1506  0.9273
  777MPD2    H111467   3.996   0.966   0.740 -0.3636 -0.2090  0.1598
  777MPD2    H211468   3.952   1.247   1.039 -1.6766  1.2892  0.3950
  777MPD2    H311469   4.082   1.134   0.877 -0.3462  1.8200  0.0127
  777MPD2     N11470   3.729   0.905   0.720  0.1418  0.3202  0.2875
  777MPD2    H511471   3.630   0.887   0.732  0.2763  0.2307  1.2437
  777MPD2    N111472   3.697   1.209   1.090 -0.2042 -0.0430  0.2480
  777MPD2    H711473   3.758   1.255   1.158 -0.4707  2.2658 -1.0924
  778MPD2     C11474   0.502   1.263  14.550  1.5376 -0.1748  0.2461
  778MPD2    C111475   0.523   1.128  14.521 -0.2292  0.2606 -0.6887
  778MPD2    C211476   0.570   1.098  14.397 -0.3535 -0.4800 -0.1829
  778MPD2    C311477   0.591   1.198  14.300  0.0952 -0.4584 -0.2153
  778MPD2    C411478   0.578   1.330  14.336 -0.6640  0.7095  0.0283
  778MPD2    C511479   0.528   1.357  14.462  0.8614  0.2520  0.0456
  778MPD2     H11480   0.585   0.994  14.369 -2.9437 -1.5804  2.5162
  778MPD2    H111481   0.572   1.414  14.267 -2.6662 -0.7671 -1.6093
  778MPD2    H211482   0.476   1.294  14.650 -3.9398  1.8953 -1.8128
  778MPD2    H311483   0.507   1.459  14.494 -0.6927 -0.7430  2.2742
  778MPD2     N11484   0.632   1.162  14.170  0.0244  0.5978 -0.2783
  778MPD2    H511485   0.651   1.066  14.141  0.2945  0.4746  0.2977
  778MPD2    N111486   0.499   1.017  14.604  0.2264  0.5636  0.1259
  778MPD2    H711487   0.512   0.923  14.567  3.6286  0.8061  0.7686
  779MPD2     C11488   0.006   4.481  13.880  0.4425 -0.3860 -0.1562
  779MPD2    C111489   0.074   4.413  13.988 -0.2443  0.3057  0.5840
  779MPD2    C211490   0.162   4.497  14.061 -0.0365 -0.2836  0.2172
  779MPD2    C311491   0.187   4.626  14.031  0.9349  0.0181 -0.6574
  779MPD2    C411492   0.115   4.678  13.927 -0.0930  0.2373  0.3579
  779MPD2    C511493   0.028   4.610  13.843  0.0616  0.4822  0.0267
  779MPD2     H11494   0.203   4.457  14.153 -0.1714  0.0160  0.4072
  779MPD2    H111495   0.131   0.055  13.897 -0.1759  0.3861  0.8153
  779MPD2    H211496   4.652   4.426  13.832 -0.1000 -0.1574  0.4783
  779MPD2    H311497   4.710   4.649  13.752 -0.5649 -0.1865  0.0397
  779MPD2     N11498   0.261   4.716  14.106 -0.2798  0.4344 -0.4887
  779MPD2    H511499   0.259   0.089  14.086 -3.1669  0.9893  2.7877
  779MPD2    N111500   0.021   4.288  14.038 -0.1459  0.8847  0.4414
  779MPD2    H711501   4.670   4.259  13.978  0.6487 -2.0704  0.8532
  780MPD2     C11502   2.712   0.285   0.392 -0.2765 -0.0692 -0.5546
  780MPD2    C111503   2.781   0.200   0.478 -0.0621  0.8653  0.3958
  780MPD2    C211504   2.917   0.192   0.460 -0.3036  1.2306  0.1150
  780MPD2    C311505   2.984   0.252   0.356 -0.2127 -0.0664  0.3753
  780MPD2    C411506   2.919   0.336   0.273  0.1675 -0.9065  0.2197
  780MPD2    C511507   2.783   0.348   0.293 -0.1620 -0.0921 -0.4197
  780MPD2     H11508   2.976   0.140   0.535 -1.0026  1.2902  0.7006
  780MPD2    H111509   2.962   0.383   0.186  1.8431 -2.1973  0.3571
  780MPD2    H211510   2.603   0.287   0.389 -0.1971  2.3668 -1.5692
  780MPD2    H311511   2.728   0.409   0.222 -0.2231 -0.9371 -1.0939
  780MPD2     N11512   3.118   0.218   0.340 -0.3459 -0.0249  0.6087
  780MPD2    H511513   3.162   0.166   0.415  0.5471 -0.6883 -0.3750
  780MPD2    N111514   2.703   0.124   0.565 -0.5098  0.1028  0.6670
  780MPD2    H711515   2.603   0.128   0.549 -0.3470 -0.9726 -0.6442
  781MPD2     C11516   0.930   1.463  11.659  0.1451  0.0782  0.2113
  781MPD2    C111517   1.035   1.380  11.677 -0.1928 -0.3567 -0.1562
  781MPD2    C211518   1.104   1.337  11.571  0.4094  0.8714  0.0321
  781MPD2    C311519   1.060   1.355  11.443 -0.6701  0.2098 -0.6294
  781MPD2    C411520   0.945   1.434  11.428  0.7200 -0.4811  0.1093
  781MPD2    C511521   0.877   1.498  11.537  0.1463 -0.6636  0.2547
  781MPD2     H11522   1.201   1.290  11.585 -0.2670 -1.5367 -3.5355
  781MPD2    H111523   0.914   1.458  11.327 -0.6761 -0.7295  0.4798
  781MPD2    H211524   0.893   1.502  11.754  1.5641 -1.9287  1.5816
  781MPD2    H311525   0.789   1.561  11.528 -0.2891 -1.3579 -0.4323
  781MPD2     N11526   1.127   1.308  11.323  0.8354 -0.1870 -0.2819
  781MPD2    H511527   1.092   1.346  11.235 -1.6555  0.7026  1.1007
  781MPD2    N111528   1.083   1.336  11.806 -0.7132 -0.5591  0.7940
  781MPD2    H711529   1.170   1.285  11.806 -0.3144  0.0993 -1.0238
  782MPD2     C11530   4.681   1.513  10.016  0.1647  0.2971  0.0372
  782MPD2    C111531   0.015   1.490  10.139 -0.0582 -0.3823 -1.0852
  782MPD2    C211532   0.032   1.601  10.221 -0.4561  0.0358 -1.0411
  782MPD2    C311533   4.717   1.726  10.194  0.6636 -0.2405  0.4544
  782MPD2    C411534   4.650   1.747  10.074 -0.1032  0.1361  0.4928
  782MPD2    C511535   4.628   1.639   9.988  0.9223 -0.5867  0.4519
  782MPD2     H11536   0.102   1.588  10.303 -0.8999  2.6916 -0.2362
  782MPD2    H111537   4.617   1.844  10.042  3.5551  0.9733 -0.7364
  782MPD2    H211538   4.674   1.432   9.944 -2.1942  0.5068  0.0138
  782MPD2    H311539   4.579   1.655   9.893  0.2440 -0.2952  0.8442
  782MPD2     N11540   0.027   1.837  10.284 -0.5939 -0.1009 -0.3240
  782MPD2    H511541   0.077   1.806  10.367  2.7556  2.3221 -1.4413
  782MPD2    N111542   0.068   1.361  10.180  0.2529  0.3009  0.1783
  782MPD2    H711543   0.081   1.353  10.280 -0.2299  0.7110  0.2777
  783MPD2     C11544   4.473   1.140  10.948 -0.3201 -0.2508 -0.1397
  783MPD2    C111545   4.426   1.216  10.844  0.6961 -0.2490 -0.4526
  783MPD2    C211546   4.492   1.211  10.726  0.5886  0.0567 -0.0310
  783MPD2    C311547   4.590   1.117  10.705 -0.2561  0.4134  0.0327
  783MPD2    C411548   4.622   1.029  10.806 -0.0902 -0.4113 -0.2243
  783MPD2    C511549   4.574   1.052  10.931  1.0793  0.2484 -0.1348
  783MPD2     H11550   4.458   1.274  10.644 -1.1546  0.1151  0.7472
  783MPD2    H111551   4.702   0.957  10.798  0.9761  0.6914  0.4616
  783MPD2    H211552   4.433   1.143  11.049 -0.5175  1.8606 -0.2758
  783MPD2    H311553   4.608   0.990  11.014  1.9667 -0.2549 -0.8766
  783MPD2     N11554   4.645   1.100  10.575 -0.4433 -0.0655 -0.7678
  783MPD2    H511555   4.632   1.181  10.516 -1.5040  0.2442 -0.1117
  783MPD2    N111556   4.325   1.308  10.872  0.0981 -0.1814  0.1220
  783MPD2    H711557   4.306   1.322  10.971 -0.3916  1.8577 -0.2662
  784MPD2     C11558   1.281   3.002   0.500 -0.3355 -0.0274  0.4570
  784MPD2    C111559   1.304   3.108   0.582  0.2939 -1.1544  0.1311
  784MPD2    C211560   1.211   3.207   0.584  0.1413  0.2385  0.5376
  784MPD2    C311561   1.092   3.193   0.521 -0.5057  0.1537  0.6673
  784MPD2    C411562   1.070   3.082   0.441 -0.4837 -0.2601 -0.6656
  784MPD2    C511563   1.165   2.994   0.429 -0.6116 -0.0995  0.4275
  784MPD2     H11564   1.228   3.301   0.635  0.7709  0.4293 -0.0333
  784MPD2    H111565   0.981   3.070   0.379 -0.9524 -0.4643  0.0443
  784MPD2    H211566   1.351   2.920   0.490 -1.6995 -1.0663 -0.6886
  784MPD2    H311567   1.152   2.913   0.358 -1.4885  2.1602 -1.9968
  784MPD2     N11568   1.005   3.309   0.522  0.0037 -0.0368 -0.3450
  784MPD2    H511569   1.034   3.391   0.574  0.0109 -0.8440  0.9307
  784MPD2    N111570   1.412   3.130   0.677 -0.3838 -0.0257 -0.3415
  784MPD2    H711571   1.406   3.216   0.730 -0.8020 -0.4742  0.3333
  785MPD2     C11572   2.373   1.405  10.904  0.2592 -0.1950  0.0582
  785MPD2    C111573   2.281   1.459  10.819 -0.2142 -0.0369  0.1336
  785MPD2    C211574   2.170   1.390  10.788 -0.9236 -0.3551 -0.1579
  785MPD2    C311575   2.156   1.262  10.830  0.0253  0.6923  0.6355
  785MPD2    C411576   2.245   1.205  10.916 -0.4298  0.3135 -0.0231
  785MPD2    C511577   2.360   1.274  10.953  0.1188 -0.2559 -0.7431
  785MPD2     H11578   2.103   1.421  10.709  0.1396  1.4667 -0.3486
  785MPD2    H111579   2.234   1.106  10.960  0.0827 -0.2427 -1.1558
  785MPD2    H211580   2.471   1.447  10.925 -0.4734  0.5675  1.9453
  785MPD2    H311581   2.440   1.225  11.008 -0.2288 -0.9075 -0.8072
  785MPD2     N11582   2.040   1.191  10.792 -0.0191  0.2126  0.2541
  785MPD2    H511583   1.970   1.242  10.738  0.4113  0.0805 -0.4252
  785MPD2    N111584   2.305   1.585  10.761  0.1486 -0.0656  0.4811
  785MPD2    H711585   2.383   1.641  10.795 -0.0898 -0.6362  1.9856
  786MPD2     C11586   0.154   3.677  14.756  0.5455 -0.3667 -0.6351
  786MPD2    C111587   0.285   3.682  14.725 -0.5837 -0.6213 -0.3256
  786MPD2    C211588   0.375   3.758  14.793  0.4368  0.0019 -0.6599
  786MPD2    C311589   0.331   3.844  14.892  0.5649  0.3615 -0.0818
  786MPD2    C411590   0.197   3.849  14.922  0.3114 -0.1066 -0.0258
  786MPD2    C511591   0.114   3.762  14.861 -0.2926  0.8953  0.0120
  786MPD2     H11592   0.478   3.741  14.763  0.4109  0.3553 -0.9528
  786MPD2    H111593   0.151   3.920  14.989 -1.2692 -2.3554  1.3103
  786MPD2    H211594   0.083   3.621  14.695 -0.5823  1.5748 -1.1006
  786MPD2    H311595   0.007   3.771  14.878 -0.5387 -1.2890 -0.3848
  786MPD2     N11596   0.420   3.937  14.950  0.2447  0.0645  0.4175
  786MPD2    H511597   0.382   3.990  15.028 -0.1176  0.3500  0.0455
  786MPD2    N111598   0.332   3.600  14.612 -0.3830 -0.1394 -0.0963
  786MPD2    H711599   0.426   3.617  14.579 -0.0394  0.3115  1.1173
  787MPD2     C11600   0.812   3.208  14.728 -0.6912  0.1389  0.3098
  787MPD2    C111601   0.759   3.154  14.610 -0.1884 -1.0556 -0.2216
  787MPD2    C211602   0.827   3.055  14.542 -0.1644 -0.1023  0.3909
  787MPD2    C311603   0.946   3.005  14.595 -0.4814 -0.5290  0.1830
  787MPD2    C411604   1.001   3.057  14.712  0.6662  0.4585  0.0665
  787MPD2    C511605   0.927   3.154  14.773  0.2071 -0.5796 -0.3577
  787MPD2     H11606   0.769   3.015  14.459 -0.3833  0.0201  0.4852
  787MPD2    H111607   1.099   3.028  14.749  0.2989 -0.5844  0.2169
  787MPD2    H211608   0.761   3.283  14.788  1.0802  0.5330  1.3124
  787MPD2    H311609   0.966   3.184  14.870 -0.7692 -0.4439 -0.0044
  787MPD2     N11610   0.997   2.893  14.521 -0.5467 -0.5688 -0.1655
  787MPD2    H511611   0.943   2.872  14.438  2.3017 -1.7176 -1.7334
  787MPD2    N111612   0.641   3.211  14.567 -0.0114 -0.0373 -0.2664
  787MPD2    H711613   0.628   3.300  14.612 -0.8981 -0.0486 -0.4978
  788MPD2     C11614   1.626   1.066   1.561  0.2028  0.1129  0.2053
  788MPD2    C111615   1.544   1.078   1.454  0.0441  0.1664  0.0034
  788MPD2    C211616   1.526   1.206   1.399  0.0578 -0.3800 -0.0624
  788MPD2    C311617   1.599   1.312   1.444 -0.3970 -0.2292  0.0878
  788MPD2    C411618   1.683   1.300   1.559 -0.0036  0.3780  0.4013
  788MPD2    C511619   1.685   1.174   1.624  0.6327 -0.4329  0.5793
  788MPD2     H11620   1.459   1.211   1.314 -1.3126  5.4953  1.3573
  788MPD2    H111621   1.740   1.382   1.600  0.2286  0.6986 -0.5592
  788MPD2    H211622   1.650   0.969   1.604  1.3005 -0.2258 -1.1426
  788MPD2    H311623   1.737   1.163   1.718  1.6798  0.9827  0.1656
  788MPD2     N11624   1.602   1.438   1.375 -0.2513 -0.2451  0.2442
  788MPD2    H511625   1.658   1.514   1.413 -1.4797  1.5632 -1.5631
  788MPD2    N111626   1.483   0.960   1.407  0.2886 -0.4241 -0.9662
  788MPD2    H711627   1.486   0.873   1.460  1.5941 -0.1745 -0.6217
  789MPD2     C11628   1.348   1.488  16.477  0.1324  0.3102 -0.1302
  789MPD2    C111629   1.336   1.616  16.425  0.0734  1.5230  0.0603
  789MPD2    C211630   1.313   1.721  16.513  0.2250 -0.4318  0.0355
  789MPD2    C311631   1.315   1.711  16.650 -0.8892  0.4154  0.4566
  789MPD2    C411632   1.348   1.590  16.701  0.1372 -0.0264  0.2163
  789MPD2    C511633   1.364   1.478  16.619 -0.3789 -0.2011  0.6182
  789MPD2     H11634   1.310   1.815  16.459 -1.9086 -0.3806  0.2314
  789MPD2    H111635   1.358   1.582  16.808  1.7616 -0.6448  0.0149
  789MPD2    H211636   1.367   1.400  16.416 -0.9399  0.0675 -0.1292
  789MPD2    H311637   1.399   1.387  16.665 -0.9746 -0.9529 -0.4037
  789MPD2     N11638   1.295   1.819  16.741 -0.0759 -0.3198  0.7259
  789MPD2    H511639   1.289   1.798  16.840 -0.8802  0.2037  0.7906
  789MPD2    N111640   1.340   1.637  16.291  0.4164 -0.3522 -0.2164
  789MPD2    H711641   1.350   1.736  16.269  1.0812 -0.3288  0.1924
  790MPD2     C11642   3.635   3.417  13.346 -0.2288 -0.2433  0.1181
  790MPD2    C111643   3.708   3.299  13.328  0.2484 -0.6056 -0.0772
  790MPD2    C211644   3.728   3.261  13.196  0.4989 -0.1419  0.6241
  790MPD2    C311645   3.674   3.327  13.090  0.1195  0.8391  0.0987
  790MPD2    C411646   3.612   3.443  13.111 -0.5218 -0.2644 -0.2285
  790MPD2    C511647   3.589   3.491  13.238  0.5144 -0.0189  0.0683
  790MPD2     H11648   3.764   3.164  13.164  0.8896 -0.2538  1.4053
  790MPD2    H111649   3.582   3.504  13.026 -0.4474  1.2137  0.7930
  790MPD2    H211650   3.608   3.440  13.448  2.4554  1.4698  0.4307
  790MPD2    H311651   3.535   3.584  13.254  1.0534  0.5537 -1.4393
  790MPD2     N11652   3.690   3.266  12.961 -0.5678 -0.5117  0.6097
  790MPD2    H511653   3.727   3.172  12.956  0.8986  0.1787 -1.4564
  790MPD2    N111654   3.740   3.220  13.437 -0.6677 -0.3772 -0.1141
  790MPD2    H711655   3.720   3.260  13.528  0.6163  0.2283 -0.1048
  791MPD2     C11656   3.166   2.738  12.544  0.4690 -0.7153 -0.6019
  791MPD2    C111657   3.184   2.871  12.523  0.0087  0.4171  0.6243
  791MPD2    C211658   3.094   2.944  12.451 -0.4788  0.0557  0.5303
  791MPD2    C311659   2.982   2.878  12.400 -0.0315 -0.8910 -0.2140
  791MPD2    C411660   2.957   2.739  12.427  0.2633  0.4185 -0.6797
  791MPD2    C511661   3.050   2.672  12.499  0.1734  0.4798 -0.1870
  791MPD2     H11662   3.110   3.049  12.428  0.1158 -0.0992  0.2305
  791MPD2    H111663   2.868   2.686  12.394  1.0389  0.1591 -2.3652
  791MPD2    H211664   3.228   2.681  12.612  1.5537  2.3403  0.9745
  791MPD2    H311665   3.041   2.569  12.532 -2.2939  0.1458 -1.9103
  791MPD2     N11666   2.900   2.953  12.306 -0.4005 -0.1374 -0.1418
  791MPD2    H511667   2.931   3.038  12.260 -0.7790  1.6895  2.9064
  791MPD2    N111668   3.304   2.921  12.572  0.5795  0.4021 -0.2013
  791MPD2    H711669   3.364   2.850  12.613 -1.7285 -1.4333  0.0045
  792MPD2     C11670   4.384   2.786  11.095 -0.5497  0.3145 -0.4344
  792MPD2    C111671   4.478   2.810  11.000 -0.4012  0.2140  0.3334
  792MPD2    C211672   4.503   2.704  10.908  0.2112 -0.3333  0.0131
  792MPD2    C311673   4.428   2.586  10.913  0.4966  0.1388 -0.1651
  792MPD2    C411674   4.352   2.561  11.021 -0.1049 -0.0259  0.2858
  792MPD2    C511675   4.328   2.662  11.115 -0.9551  0.0676 -0.4042
  792MPD2     H11676   4.583   2.714  10.835 -0.5265 -1.3852 -0.9297
  792MPD2    H111677   4.297   2.468  11.030 -1.1564  0.6843  1.2471
  792MPD2    H211678   4.352   2.866  11.160 -1.2902  0.0214 -0.4383
  792MPD2    H311679   4.255   2.642  11.193 -1.3146  3.3221  0.0790
  792MPD2     N11680   4.442   2.480  10.819  0.0991 -0.3177 -0.1335
  792MPD2    H511681   4.398   2.391  10.839  2.1160 -1.2530  0.2235
  792MPD2    N111682   4.539   2.937  11.003  0.8175 -0.1651 -0.0004
  792MPD2    H711683   4.527   2.995  11.085 -1.6538 -1.2569  0.4083
  793MPD2     C11684   3.929   2.382   9.947  0.9006  0.3758  0.8934
  793MPD2    C111685   4.065   2.400   9.924 -0.0323  0.1822 -0.5273
  793MPD2    C211686   4.156   2.388  10.030  0.3934 -0.1443  0.3872
  793MPD2    C311687   4.105   2.347  10.158 -0.1819  0.4066 -0.8410
  793MPD2    C411688   3.974   2.321  10.176  0.8637  0.1825 -0.1578
  793MPD2    C511689   3.886   2.347  10.076 -0.1752  0.4123  0.0339
  793MPD2     H11690   4.262   2.389  10.008  0.2758 -1.0458 -0.2109
  793MPD2    H111691   3.938   2.303  10.276 -1.6000 -1.8316 -1.3895
  793MPD2    H211692   3.853   2.387   9.870  1.7436  1.4823  0.1252
  793MPD2    H311693   3.782   2.323  10.096  0.2047 -0.2628  1.2436
  793MPD2     N11694   4.191   2.324  10.265  0.0780  0.0961 -0.1813
  793MPD2    H511695   4.155   2.296  10.356  0.2157  0.1059 -0.1242
  793MPD2    N111696   4.095   2.438   9.790 -0.2099  0.2397  0.0903
  793MPD2    H711697   4.014   2.436   9.728  0.1577 -1.8319 -0.3402
  794MPD2     C11698   3.059   3.276  17.056  0.0458 -0.8463  0.2762
  794MPD2    C111699   3.021   3.140  17.052  0.5269 -0.2298 -0.1495
  794MPD2    C211700   2.942   3.101  16.944 -0.4202 -0.4986  0.3591
  794MPD2    C311701   2.903   3.195  16.852  0.3440 -0.6173  0.2932
  794MPD2    C411702   2.949   3.322  16.853 -0.3895 -0.0374 -0.2111
  794MPD2    C511703   3.022   3.362  16.962  0.1767  0.5110 -0.2299
  794MPD2     H11704   2.920   2.995  16.940 -0.7056 -0.4334  0.2086
  794MPD2    H111705   2.924   3.394  16.776  0.5227  0.8931  0.3606
  794MPD2    H211706   3.129   3.321  17.125  0.7492  0.0502 -1.0327
  794MPD2    H311707   3.063   3.463  16.965 -1.1329  1.0736 -1.1822
  794MPD2     N11708   2.817   3.156  16.745  0.2633  0.6355 -0.7110
  794MPD2    H511709   2.761   3.072  16.758  0.7747  0.5253  0.7939
  794MPD2    N111710   3.048   3.042  17.156 -0.3496  0.1159  0.2126
  794MPD2    H711711   3.018   2.947  17.140 -1.5505  0.6964 -0.9588
  795MPD2     C11712   1.092   4.217  14.130 -0.3277 -0.4709 -0.7277
  795MPD2    C111713   1.103   4.133  14.019  0.1631  0.3914 -0.2088
  795MPD2    C211714   1.198   4.032  14.025 -0.1731  0.1333 -0.3173
  795MPD2    C311715   1.278   4.018  14.133 -0.3764 -0.0519 -0.4985
  795MPD2    C411716   1.256   4.087  14.252 -0.1468 -0.0845 -0.0711
  795MPD2    C511717   1.166   4.196  14.242  0.1656  0.1369 -0.1037
  795MPD2     H11718   1.194   3.959  13.945  0.0813 -1.7829  1.4114
  795MPD2    H111719   1.307   4.062  14.344  0.0809 -0.3778 -0.2806
  795MPD2    H211720   1.010   4.288  14.141 -0.4769 -0.7187 -0.2276
  795MPD2    H311721   1.143   4.254  14.331 -1.5933 -2.0159  0.8507
  795MPD2     N11722   1.385   3.924  14.132  0.0566 -0.3553  0.2405
  795MPD2    H511723   1.386   3.856  14.057  5.0509  0.5453 -0.5609
  795MPD2    N111724   1.024   4.147  13.904  0.4587 -0.2944  0.2625
  795MPD2    H711725   1.027   4.074  13.833 -0.8443 -0.1966  0.1098
  796MPD2     C11726   0.541   1.883  16.074 -0.5261 -0.4198  0.7883
  796MPD2    C111727   0.490   1.959  16.183  0.5221  0.1364 -0.0933
  796MPD2    C211728   0.460   2.095  16.167 -0.4307  0.0787  0.6920
  796MPD2    C311729   0.471   2.152  16.046 -0.2867 -0.0050 -0.1343
  796MPD2    C411730   0.533   2.084  15.943  0.1860  0.4745  0.4362
  796MPD2    C511731   0.564   1.958  15.960  0.5138 -0.1577 -0.1656
  796MPD2     H11732   0.414   2.162  16.238  0.9080 -0.1361  1.7612
  796MPD2    H111733   0.554   2.120  15.843 -0.0188 -0.1440  0.1644
  796MPD2    H211734   0.562   1.778  16.093 -1.4310 -0.8877 -0.7441
  796MPD2    H311735   0.607   1.909  15.873  2.0558 -0.3240  0.7043
  796MPD2     N11736   0.427   2.286  16.021 -0.5531 -0.3753 -0.5396
  796MPD2    H511737   0.408   2.342  16.104  0.3052  0.0681 -0.6477
  796MPD2    N111738   0.487   1.896  16.307  0.3150 -0.3162  0.7241
  796MPD2    H711739   0.515   1.798  16.311 -1.6300 -0.9305 -0.7985
  797MPD2     C11740   1.143   1.322   0.070  0.4052  0.1188 -0.1783
  797MPD2    C111741   1.190   1.448   0.102  0.1924 -0.1522  0.4461
  797MPD2    C211742   1.125   1.562   0.051 -0.0337 -0.2000  0.0395
  797MPD2    C311743   1.014   1.544  17.671  0.5997 -0.4769 -0.4994
  797MPD2    C411744   0.961   1.417  17.646 -0.1850  0.1192  0.0899
  797MPD2    C511745   1.026   1.309  17.704  0.1145 -0.1963 -0.2947
  797MPD2     H11746   1.176   1.655   0.072 -1.0291  0.7228 -1.6489
  797MPD2    H111747   0.872   1.391  17.590  0.6855 -0.8747 -0.8503
  797MPD2    H211748   1.188   1.234   0.116  1.4631  1.0326  0.5593
  797MPD2    H311749   0.972   1.216  17.691 -2.2963  1.2206 -0.4574
  797MPD2     N11750   0.935   1.652  17.626  0.1986 -0.1071 -0.0911
  797MPD2    H511751   0.854   1.622  17.571 -0.8154 -2.0844  2.4494
  797MPD2    N111752   1.296   1.467   0.193  0.4826  0.1499 -0.1310
  797MPD2    H711753   1.322   1.564   0.203  1.3072  0.0359 -1.0270
  798MPD2     C11754   1.202   2.143   0.352  0.3966  0.2195 -0.4075
  798MPD2    C111755   1.182   2.037   0.266  0.1073  0.8694  0.3853
  798MPD2    C211756   1.268   1.927   0.259  0.5755 -0.3102  0.1738
  798MPD2    C311757   1.385   1.938   0.341 -0.1816 -0.5549 -0.0710
  798MPD2    C411758   1.399   2.039   0.432  0.9798 -0.3926 -0.4053
  798MPD2    C511759   1.309   2.142   0.435  0.7381  0.5312 -0.1589
  798MPD2     H11760   1.250   1.845   0.190  1.0526  0.8008 -1.2771
  798MPD2    H111761   1.479   2.037   0.505 -2.3455 -1.2029  3.2392
  798MPD2    H211762   1.133   2.226   0.355  0.4653  0.2999 -1.1837
  798MPD2    H311763   1.307   2.216   0.514  0.2160  0.0139  0.3183
  798MPD2     N11764   1.477   1.833   0.321 -0.3223  0.2694  0.0141
  798MPD2    H511765   1.459   1.774   0.240  0.7576 -0.1874  0.1078
  798MPD2    N111766   1.066   2.029   0.184  0.2565  0.1804 -0.1730
  798MPD2    H711767   1.064   1.950   0.120  1.1955 -0.4541  0.5802
  799MPD2     C11768   0.703   2.639  14.770 -0.1577 -0.8018 -0.4060
  799MPD2    C111769   0.625   2.557  14.698 -0.3985  0.1638  1.1499
  799MPD2    C211770   0.525   2.611  14.620 -0.4360 -0.3013  1.4540
  799MPD2    C311771   0.512   2.753  14.600 -0.3645 -0.0161  0.1270
  799MPD2    C411772   0.600   2.831  14.670 -0.1293  0.0834  0.2788
  799MPD2    C511773   0.686   2.778  14.760  0.3303  0.0121  0.0221
  799MPD2     H11774   0.461   2.541  14.569 -0.9458  0.7493  0.6440
  799MPD2    H111775   0.593   2.939  14.660 -0.0852 -0.0204 -0.8110
  799MPD2    H211776   0.778   2.593  14.833 -1.2752 -0.0515  1.4660
  799MPD2    H311777   0.752   2.846  14.813 -0.4573  0.6196  0.2256
  799MPD2     N11778   0.416   2.810  14.515  0.3380 -0.3165  0.4558
  799MPD2    H511779   0.433   2.905  14.482 -0.8871  0.4805  2.0770
  799MPD2    N111780   0.632   2.418  14.691 -0.0949 -0.1301  0.2545
  799MPD2    H711781   0.569   2.363  14.633  0.6424 -0.2964 -0.3803
  800MPD2     C11782   0.976   3.033  13.765 -0.0357  0.4233  0.3603
  800MPD2    C111783   1.087   3.119  13.789  0.8747 -0.6495  0.5443
  800MPD2    C211784   1.177   3.142  13.680 -0.5372 -0.4257 -0.3077
  800MPD2    C311785   1.158   3.087  13.561  0.1096  0.9208 -0.3413
  800MPD2    C411786   1.044   3.014  13.534 -1.3803  0.1713 -0.5108
  800MPD2    C511787   0.962   2.979  13.639 -0.6395 -0.1050  0.1630
  800MPD2     H11788   1.272   3.193  13.692 -1.4619  1.4420 -0.9327
  800MPD2    H111789   1.021   2.973  13.436  2.6789 -1.2931 -0.8548
  800MPD2    H211790   0.902   2.997  13.835 -0.0760 -1.1577 -0.5075
  800MPD2    H311791   0.865   2.935  13.618 -0.0916  0.0057 -2.6118
  800MPD2     N11792   1.257   3.121  13.465  0.0630  0.4995 -0.3598
  800MPD2    H511793   1.340   3.154  13.514 -1.4477  3.7707 -0.0413
  800MPD2    N111794   1.101   3.185  13.917  0.4409  0.9361 -0.9784
  800MPD2    H711795   1.024   3.174  13.983  1.2563 -0.2514 -0.2250
  801MPD2     C11796   0.782   3.843  14.058 -0.6855 -0.4488  0.5422
  801MPD2    C111797   0.885   3.838  14.153  0.5516  0.0730 -0.4535
  801MPD2    C211798   0.898   3.945  14.244 -0.0815 -0.0635  0.3000
  801MPD2    C311799   0.817   4.060  14.242 -0.2443  0.4141 -0.1788
  801MPD2    C411800   0.718   4.061  14.143  0.1069 -0.2956  0.3293
  801MPD2    C511801   0.695   3.952  14.061  0.0430  0.1372 -0.0003
  801MPD2     H11802   0.978   3.945  14.318  0.9214  0.1177 -0.7786
  801MPD2    H111803   0.643   4.140  14.138  0.4547  0.0904  1.2394
  801MPD2    H211804   0.765   3.766  13.984 -2.3461 -1.2171  1.7079
  801MPD2    H311805   0.605   3.946  14.001  0.3532  1.1807 -0.5622
  801MPD2     N11806   0.821   4.172  14.330  0.1540  0.3147 -0.2061
  801MPD2    H511807   0.760   4.252  14.315 -1.2713 -0.6934  0.2612
  801MPD2    N111808   0.981   3.737  14.156  0.8244 -0.1981  0.1460
  801MPD2    H711809   1.040   3.726  14.238  1.0036  1.2207  0.2124
  802MPD2     C11810   4.714   4.385  17.505 -0.6559 -1.5739 -0.2879
  802MPD2    C111811   4.693   4.519  17.474 -0.4450 -0.4256 -0.2059
  802MPD2    C211812   0.074   4.590  17.407  0.1441 -0.4992 -0.3403
  802MPD2    C311813   0.198   4.533  17.390  0.7202 -0.2633  0.0727
  802MPD2    C411814   0.214   4.398  17.428  0.0267 -0.2801 -0.1125
  802MPD2    C511815   0.110   4.327  17.482  0.4318 -0.1917  0.0584
  802MPD2     H11816   0.071   4.695  17.382  0.9508 -0.3695  0.1185
  802MPD2    H111817   0.312   4.352  17.429  0.3318  0.4098  2.3858
  802MPD2    H211818   4.636   4.328  17.555 -0.3739 -0.8397  0.9714
  802MPD2    H311819   0.121   4.226  17.521 -0.5154  0.3780  1.8148
  802MPD2     N11820   0.306   4.614  17.345  0.1833 -0.5134 -0.6432
  802MPD2    H511821   0.287   4.713  17.333  0.6881 -0.6160 -2.2531
  802MPD2    N111822   4.571   4.577  17.503  0.1830 -0.8721 -0.1948
  802MPD2    H711823   4.553   4.672  17.473  1.0943 -0.9150 -0.8763
  803MPD2     C11824   1.689   3.213  11.406  0.1292  0.2773  0.1671
  803MPD2    C111825   1.773   3.193  11.513 -0.3025  0.4702  0.3712
  803MPD2    C211826   1.746   3.099  11.610  0.0040  0.0139  0.0282
  803MPD2    C311827   1.628   3.028  11.602 -1.1198  0.0171 -0.0285
  803MPD2    C411828   1.531   3.069  11.513 -0.1473  0.5217  0.3069
  803MPD2    C511829   1.567   3.146  11.406 -0.3501 -0.3868 -0.2598
  803MPD2     H11830   1.827   3.073  11.677  1.0819  2.0857 -0.4588
  803MPD2    H111831   1.435   3.018  11.514  1.4596 -2.4534  0.4670
  803MPD2    H211832   1.710   3.287  11.330  0.4858  0.7438  0.7134
  803MPD2    H311833   1.494   3.164  11.329 -2.1041 -1.6933  1.0893
  803MPD2     N11834   1.620   2.905  11.671 -0.1491  0.1009  0.0991
  803MPD2    H511835   1.541   2.845  11.651  1.5747 -2.4579  0.9316
  803MPD2    N111836   1.894   3.268  11.533  0.2652  0.6358 -0.0628
  803MPD2    H711837   1.958   3.240  11.606 -1.1616  0.4277  1.0979
  804MPD2     C11838   1.374   0.217  17.152 -0.3870 -0.1897 -0.9055
  804MPD2    C111839   1.280   0.243  17.257  0.2506  1.0028 -0.5750
  804MPD2    C211840   1.279   0.368  17.318  0.1020  0.4805  0.4546
  804MPD2    C311841   1.365   0.469  17.273 -0.3347  0.0213  0.0780
  804MPD2    C411842   1.446   0.443  17.161 -0.0579 -0.3628  0.3042
  804MPD2    C511843   1.456   0.320  17.105 -0.5214 -0.5332 -0.3961
  804MPD2     H11844   1.203   0.385  17.393 -0.5169  1.0360 -0.3019
  804MPD2    H111845   1.511   0.524  17.131  0.2518 -0.7346 -0.0213
  804MPD2    H211846   1.375   0.127  17.090  0.4862 -0.3623 -0.6330
  804MPD2    H311847   1.517   0.308  17.016 -0.0413  2.6189 -0.5172
  804MPD2     N11848   1.379   0.600  17.329 -0.4108 -0.7556  0.0122
  804MPD2    H511849   1.452   0.657  17.288 -0.2025  0.5049  2.1321
  804MPD2    N111850   1.190   0.145  17.301 -0.5759 -0.1590 -0.0221
  804MPD2    H711851   1.128   0.170  17.377 -1.1747 -1.7850  0.0079
  805MPD2     C11852   0.055   2.919  15.253  0.5630  0.6005 -0.5904
  805MPD2    C111853   0.165   2.895  15.164 -0.2136  0.0503  0.0392
  805MPD2    C211854   0.288   2.879  15.217  1.0551 -0.2334 -0.2092
  805MPD2    C311855   0.312   2.908  15.349  0.2380 -0.0538 -0.0554
  805MPD2    C411856   0.208   2.933  15.434 -0.0536 -0.3758 -0.6050
  805MPD2    C511857   0.080   2.930  15.387 -0.2352 -0.2435  0.4977
  805MPD2     H11858   0.378   2.873  15.156  1.0047 -1.6544 -0.1509
  805MPD2    H111859   0.220   2.949  15.541 -0.7595 -2.3806 -0.2152
  805MPD2    H211860   4.675   2.917  15.232  0.5928 -1.5977 -0.4923
  805MPD2    H311861   4.718   2.923  15.451 -0.5740 -0.0524  0.0464
  805MPD2     N11862   0.449   2.922  15.388 -0.5894 -0.5261  0.3896
  805MPD2    H511863   0.517   2.917  15.314  1.5994 -0.5080  2.4058
  805MPD2    N111864   0.147   2.890  15.026 -0.1827  0.1155 -0.4754
  805MPD2    H711865   0.227   2.864  14.968 -2.6736  0.4794 -4.0677
  806MPD2     C11866   1.333   2.997   1.926 -0.0664  0.2518 -0.5642
  806MPD2    C111867   1.293   2.916   1.820  0.7487  0.7335  0.2176
  806MPD2    C211868   1.252   2.988   1.707  0.7002 -0.3545  0.0714
  806MPD2    C311869   1.223   3.124   1.698  0.2027  0.0240  0.5649
  806MPD2    C411870   1.255   3.198   1.814  0.4498  1.0403 -0.1137
  806MPD2    C511871   1.305   3.133   1.924 -0.6716  0.2126  0.5064
  806MPD2     H11872   1.211   2.933   1.623  1.2931 -1.8049  0.7392
  806MPD2    H111873   1.241   3.305   1.827 -0.9024  0.9889 -1.1589
  806MPD2    H211874   1.360   2.952   2.021  3.6115 -0.4001 -1.9070
  806MPD2    H311875   1.324   3.188   2.015  0.5568  0.1229  0.3072
  806MPD2     N11876   1.166   3.176   1.577  0.6400  0.2170  0.1501
  806MPD2    H511877   1.145   3.109   1.504 -0.7745  1.4666 -0.5820
  806MPD2    N111878   1.314   2.778   1.832  0.3112  0.3304 -0.2814
  806MPD2    H711879   1.352   2.747   1.921  0.0770 -0.7286 -0.5427
  807MPD2     C11880   1.174   2.272   2.348 -0.1050 -0.3155 -0.6830
  807MPD2    C111881   1.114   2.310   2.231 -1.1179 -0.5908  0.2154
  807MPD2    C211882   0.974   2.288   2.217  0.5739 -0.1615 -0.5283
  807MPD2    C311883   0.901   2.207   2.307  0.3034 -0.1118  0.0222
  807MPD2    C411884   0.968   2.169   2.420 -0.2066 -0.4844  0.4263
  807MPD2    C511885   1.103   2.200   2.442 -0.9396  0.1466 -0.0532
  807MPD2     H11886   0.928   2.315   2.122  0.6604  1.4925 -0.1014
  807MPD2    H111887   0.916   2.113   2.496  1.5701 -0.0315  1.9862
  807MPD2    H211888   1.279   2.294   2.364 -0.0142  0.1113 -1.9118
  807MPD2    H311889   1.141   2.162   2.535 -0.4878  1.8654  0.4644
  807MPD2     N11890   0.766   2.168   2.280  0.7786 -0.3454  0.3384
  807MPD2    H511891   0.718   2.216   2.205  0.6079 -0.2171  0.5307
  807MPD2    N111892   1.185   2.363   2.118  0.2983  0.3620  0.9931
  807MPD2    H711893   1.136   2.380   2.031 -0.1304 -0.0345  1.1577
  808MPD2     C11894   1.811   3.755   9.304 -0.6856 -0.4062 -0.1634
  808MPD2    C111895   1.757   3.800   9.420 -0.6250  0.2579  0.2320
  808MPD2    C211896   1.840   3.881   9.507  0.1322 -0.2916 -0.0767
  808MPD2    C311897   1.974   3.900   9.472  0.0810  0.2156  0.5301
  808MPD2    C411898   2.016   3.849   9.349 -0.4360 -0.1012  0.4635
  808MPD2    C511899   1.936   3.788   9.264 -0.9741  0.4788  0.7243
  808MPD2     H11900   1.796   3.924   9.597  0.5278  0.6640 -0.3428
  808MPD2    H111901   2.119   3.858   9.315 -0.4976 -1.7263 -0.1473
  808MPD2    H211902   1.751   3.716   9.223  1.5421 -3.6608 -0.2323
  808MPD2    H311903   1.974   3.742   9.174 -1.2879 -0.8465  1.2571
  808MPD2     N11904   2.075   3.955   9.562  0.4802  0.5375  0.7008
  808MPD2    H511905   2.171   3.965   9.528 -0.2341 -0.3220 -1.6059
  808MPD2    N111906   1.617   3.784   9.451 -0.5715  0.3562  0.2408
  808MPD2    H711907   1.581   3.804   9.544 -0.3771 -0.1986  0.4367
  809MPD2     C11908   2.852   4.564   9.545  0.3308  0.9941  0.5956
  809MPD2    C111909   2.840   4.428   9.537  1.1539 -0.2038  0.0406
  809MPD2    C211910   2.716   4.371   9.533  0.6384  0.2082 -1.0306
  809MPD2    C311911   2.604   4.450   9.556  0.6879  0.1202  0.3110
  809MPD2    C411912   2.613   4.584   9.572 -0.6654  1.2937  0.0944
  809MPD2    C511913   2.740   4.638   9.558  0.1665  0.7582 -0.0635
  809MPD2     H11914   2.699   4.265   9.547  0.4163  0.2824 -0.7348
  809MPD2    H111915   2.526   4.648   9.578 -1.2611  0.7210 -2.5590
  809MPD2    H211916   2.947   4.613   9.529 -0.6084  3.3125  2.0666
  809MPD2    H311917   2.751   0.018   9.575 -0.2611  1.4849 -4.3620
  809MPD2     N11918   2.483   4.394   9.600  0.0339  0.7107  0.0151
  809MPD2    H511919   2.409   4.459   9.625  2.1367  3.3604 -0.6629
  809MPD2    N111920   2.948   4.338   9.548 -0.3247  0.4724 -0.1554
  809MPD2    H711921   2.936   4.237   9.543  1.2361  0.1813  1.7391
  810MPD2     C11922   1.578   2.848  10.026  0.7359  0.6026  0.1177
  810MPD2    C111923   1.478   2.827  10.116  0.7846  0.3941 -0.2921
  810MPD2    C211924   1.468   2.906  10.229  0.1871 -0.3084  0.2889
  810MPD2    C311925   1.556   3.013  10.257  0.6262 -1.3263  0.2495
  810MPD2    C411926   1.657   3.026  10.168  0.2390 -0.4407 -0.2577
  810MPD2    C511927   1.670   2.942  10.055 -0.2475  0.7394  0.2992
  810MPD2     H11928   1.387   2.882  10.297 -1.5873  2.9614 -0.6955
  810MPD2    H111929   1.736   3.098  10.182  0.0040 -0.1092 -0.6422
  810MPD2    H211930   1.598   2.795   9.934  1.7438 -1.4837  1.5274
  810MPD2    H311931   1.753   2.960   9.987 -0.3223 -1.3403 -0.3437
  810MPD2     N11932   1.544   3.103  10.369 -0.3160 -0.4962  0.0257
  810MPD2    H511933   1.607   3.183  10.371 -1.8363  0.7404 -2.2523
  810MPD2    N111934   1.386   2.727  10.091  0.2541 -0.2960 -0.2300
  810MPD2    H711935   1.383   2.703   9.992  0.6137 -1.7958  0.1156
  811MPD2     C11936   0.645   2.798   9.675  0.4490  0.2762  0.0757
  811MPD2    C111937   0.746   2.860   9.749 -0.3244  0.0872 -0.0227
  811MPD2    C211938   0.763   2.997   9.744  0.9721  0.5843  0.9103
  811MPD2    C311939   0.702   3.070   9.647  0.2652  0.1998 -0.0551
  811MPD2    C411940   0.611   3.009   9.563 -0.1771 -0.3919  0.6526
  811MPD2    C511941   0.581   2.874   9.580  0.4870 -0.0636  0.7231
  811MPD2     H11942   0.830   3.045   9.815 -0.8326 -0.3919  3.2657
  811MPD2    H111943   0.560   3.059   9.482  0.9789  1.0379  0.8111
  811MPD2    H211944   0.625   2.692   9.691 -1.1869 -0.0193 -3.7951
  811MPD2    H311945   0.511   2.821   9.517 -0.2275  1.7413  0.0055
  811MPD2     N11946   0.720   3.208   9.641  0.1025 -0.1590  0.4581
  811MPD2    H511947   0.777   3.248   9.715 -1.3136  0.9359  0.9692
  811MPD2    N111948   0.810   2.775   9.838 -0.1167  0.4084 -0.3519
  811MPD2    H711949   0.775   2.680   9.848  1.4871 -0.1069  0.2462
  812MPD2     C11950   4.432   2.772  12.013 -0.4478 -0.2030 -0.5597
  812MPD2    C111951   4.421   2.855  12.124  0.2627 -0.1919  0.1893
  812MPD2    C211952   4.479   2.814  12.243  0.3930 -0.5330 -0.1273
  812MPD2    C311953   4.555   2.700  12.264 -0.8072  0.3046  0.4139
  812MPD2    C411954   4.568   2.623  12.146 -0.6943 -0.1875  0.1514
  812MPD2    C511955   4.509   2.662  12.027 -0.3759  0.0056 -0.1370
  812MPD2     H11956   4.474   2.883  12.326  0.6260 -0.7786  0.0912
  812MPD2    H111957   4.614   2.525  12.146  0.2733  0.2660 -1.0420
  812MPD2    H211958   4.398   2.809  11.917 -0.8617  0.3139 -0.2166
  812MPD2    H311959   4.529   2.605  11.937 -1.7992  2.7046 -2.1930
  812MPD2     N11960   4.610   2.669  12.390  0.1275 -1.0501  0.2807
  812MPD2    H511961   4.576   2.718  12.472  0.3771  0.3955 -0.4822
  812MPD2    N111962   4.362   2.977  12.107  1.2215  0.2709 -1.0093
  812MPD2    H711963   4.325   2.990  12.013  1.6008 -2.0358 -1.4804
  813MPD2     C11964   3.357   0.109  12.805 -0.0032  0.0677  0.1268
  813MPD2    C111965   3.349   0.236  12.869 -0.2200  0.1422 -0.5372
  813MPD2    C211966   3.236   0.279  12.928 -1.0887  0.2391  0.1491
  813MPD2    C311967   3.135   0.184  12.951  0.0946 -0.3999  0.0716
  813MPD2    C411968   3.144   0.058  12.890  0.5256 -0.5212  0.3727
  813MPD2    C511969   3.257   0.017  12.825 -0.3626  0.9763  0.3165
  813MPD2     H11970   3.222   0.383  12.958  2.2529  0.7610 -0.0912
  813MPD2    H111971   3.058   4.718  12.884 -1.3608  1.7886  2.0515
  813MPD2    H211972   3.447   0.079  12.752  1.2960  0.9819  1.7835
  813MPD2    H311973   3.262   4.649  12.771  0.5623  0.2741  1.6101
  813MPD2     N11974   3.028   0.237  13.030  0.1987 -0.2088  0.2152
  813MPD2    H511975   3.041   0.332  13.063 -0.0864  0.1394 -0.6673
  813MPD2    N111976   3.463   0.319  12.867  0.6495  0.2295 -0.0644
  813MPD2    H711977   3.444   0.418  12.874  0.5900  0.3189 -1.4384
  814MPD2     C11978   4.492   1.401  12.168  0.1266  0.1709 -0.6523
  814MPD2    C111979   4.512   1.451  12.036 -0.3089  0.8301 -0.0815
  814MPD2    C211980   4.500   1.584  12.013 -0.6881  0.4196  0.0270
  814MPD2    C311981   4.473   1.676  12.110 -0.1665 -0.5525 -0.4071
  814MPD2    C411982   4.468   1.631  12.240 -0.5460 -0.7383  0.0443
  814MPD2    C511983   4.470   1.497  12.268 -0.8181 -0.0328 -0.5548
  814MPD2     H11984   4.500   1.613  11.909  0.9261  0.9235  0.1549
  814MPD2    H111985   4.449   1.700  12.321  1.8095 -0.5233  0.4111
  814MPD2    H211986   4.476   1.297  12.194  2.4240 -0.2048 -0.7130
  814MPD2    H311987   4.465   1.471  12.373 -0.2178  2.5434  0.1185
  814MPD2     N11988   4.445   1.817  12.086 -0.1962 -0.4223  0.7175
  814MPD2    H511989   4.424   1.875  12.167  0.7255  1.3340 -0.2869
  814MPD2    N111990   4.511   1.360  11.930  1.0202  0.6330 -0.3919
  814MPD2    H711991   4.538   1.403  11.842  3.4992 -2.2214 -1.0479
  815MPD2     C11992   0.225   0.470  11.668 -0.2366  0.3125  0.1753
  815MPD2    C111993   0.179   0.339  11.687  0.5784 -0.2573 -0.4580
  815MPD2    C211994   0.077   0.314  11.777  0.5380 -0.1561  0.3475
  815MPD2    C311995   0.019   0.417  11.845  0.3375 -0.6360  0.1560
  815MPD2    C411996   0.049   0.547  11.814 -0.0488 -0.0288  0.2129
  815MPD2    C511997   0.154   0.574  11.726  0.6880 -0.2667 -0.3753
  815MPD2     H11998   0.032   0.217  11.787  0.9629 -0.2809  1.0528
  815MPD2    H111999   0.006   0.635  11.859  0.2357  0.4772 -0.4958
  815MPD2    H212000   0.310   0.503  11.611  0.3835 -1.9504 -0.2329
  815MPD2    H312001   0.182   0.679  11.720  0.5431 -0.1580  0.7222
  815MPD2     N12002   4.629   0.390  11.915  0.0977 -0.3097 -0.3095
  815MPD2    H512003   4.599   0.294  11.906 -1.1720 -0.0785  1.4415
  815MPD2    N112004   0.246   0.242  11.617 -0.1939  0.2282  0.1158
  815MPD2    H712005   0.310   0.280  11.548 -0.1581 -0.2509 -0.1144
  816MPD2     C12006   3.992   4.458  17.653  0.6102  0.3263 -0.6484
  816MPD2    C112007   4.032   4.530  17.541 -0.0387 -0.2551 -0.1164
  816MPD2    C212008   4.127   4.471  17.461  0.0656  0.3933 -0.4272
  816MPD2    C312009   4.183   4.349  17.492  1.3551 -0.1441 -0.0022
  816MPD2    C412010   4.140   4.280  17.605  0.4663 -0.5787 -0.0692
  816MPD2    C512011   4.046   4.337  17.686 -0.4379  0.6928  0.5577
  816MPD2     H12012   4.158   4.522  17.370  1.1278 -0.9915 -0.8464
  816MPD2    H112013   4.187   4.188  17.638  0.1705 -0.3655  0.9623
  816MPD2    H212014   3.922   4.491   0.025  0.8132 -0.9178  0.0878
  816MPD2    H312015   4.024   4.288   0.075  2.8848 -0.3707  0.7629
  816MPD2     N12016   4.277   4.301  17.403  0.2571  0.3809 -0.3816
  816MPD2    H512017   4.301   4.357  17.322 -2.6546  1.5180 -0.4699
  816MPD2    N112018   3.990   4.666  17.527 -0.3635 -0.1234  0.1834
  816MPD2    H712019   3.927   4.696  17.601  1.4980  0.8773  1.3569
  817MPD2     C12020   0.104   0.615   9.308 -0.2855  0.7581  0.0113
  817MPD2    C112021   0.111   0.700   9.421  0.2584 -0.2164  0.3852
  817MPD2    C212022   0.037   0.821   9.432  0.3348 -0.2011  0.2960
  817MPD2    C312023   4.672   0.851   9.333 -0.3994 -0.5999  0.6170
  817MPD2    C412024   4.660   0.770   9.223  0.4399  0.3864  0.3255
  817MPD2    C512025   0.007   0.650   9.220  0.5153  0.7954 -0.9471
  817MPD2     H12026   0.042   0.883   9.521 -1.3312 -0.2500  0.4252
  817MPD2    H112027   4.592   0.793   9.141 -2.4671  0.5429  2.7892
  817MPD2    H212028   0.158   0.522   9.295 -0.1811  0.7806  0.2792
  817MPD2    H312029   0.002   0.596   9.126 -0.6860  1.3295 -1.1946
  817MPD2     N12030   4.598   0.968   9.355 -0.3086  0.7310  0.0658
  817MPD2    H512031   4.627   1.029   9.431 -0.1300  0.9013 -0.1387
  817MPD2    N112032   0.187   0.666   9.534 -0.4306  0.1742  0.0543
  817MPD2    H712033   0.193   0.744   9.599 -1.9109 -0.1940  0.6257
  818MPD2     C12034   3.744   0.172  10.076 -0.4356 -0.1041  0.1022
  818MPD2    C112035   3.668   0.116  10.174 -0.3678 -0.2511 -0.3500
  818MPD2    C212036   3.662   4.708  10.185  0.1894  0.2261 -0.0298
  818MPD2    C312037   3.733   4.627  10.096 -0.7576  0.2513  0.6324
  818MPD2    C412038   3.821   4.678  10.007  0.6093 -0.2583 -0.0543
  818MPD2    C512039   3.823   0.084  10.002  0.0232 -0.5309  0.4665
  818MPD2     H12040   3.593   4.670  10.259 -1.6468  1.2796 -1.2169
  818MPD2    H112041   3.873   4.610   9.939  0.7248  0.3124 -0.5319
  818MPD2    H212042   3.743   0.278  10.053 -1.4166 -0.3766 -1.0665
  818MPD2    H312043   3.882   0.132   9.925 -2.2921  0.0946 -0.9270
  818MPD2     N12044   3.720   4.489  10.092 -0.5591 -0.0816 -0.3220
  818MPD2    H512045   3.780   4.436  10.029  0.0125 -0.0351  0.1776
  818MPD2    N112046   3.589   0.190  10.263 -0.6721  0.3504  0.2863
  818MPD2    H712047   3.510   0.147  10.311  0.7376 -2.0575  0.4107
  819MPD2     C12048   0.844   2.605  15.300 -0.0081  0.3075  0.3937
  819MPD2    C112049   0.865   2.477  15.338 -0.5055  1.0340 -0.0594
  819MPD2    C212050   0.938   2.454  15.460  0.2156 -0.2518 -0.3743
  819MPD2    C312051   1.007   2.557  15.522 -0.7001 -0.3670  0.3271
  819MPD2    C412052   0.982   2.685  15.475  0.5027 -0.0199  0.1615
  819MPD2    C512053   0.902   2.708  15.369 -0.0545  0.8556 -0.0591
  819MPD2     H12054   0.949   2.357  15.506  0.7466  0.7276  1.5723
  819MPD2    H112055   1.031   2.773  15.515 -1.5371  1.6955 -1.1258
  819MPD2    H212056   0.791   2.642  15.213 -1.5456 -0.6879  0.9075
  819MPD2    H312057   0.895   2.808  15.327  2.1226  1.0025 -0.0887
  819MPD2     N12058   1.097   2.531  15.628 -0.4705  0.4808  0.1482
  819MPD2    H512059   1.112   2.431  15.636 -0.9087  0.2990 -1.3856
  819MPD2    N112060   0.793   2.370  15.269 -0.4309 -0.1685 -0.3089
  819MPD2    H712061   0.736   2.407  15.193 -2.2565 -0.9510  0.6861
  820MPD2     C12062   0.108   2.244  14.604  0.4274 -0.2781  1.0910
  820MPD2    C112063   0.163   2.347  14.679 -0.0618 -0.0036 -0.1909
  820MPD2    C212064   0.244   2.302  14.780 -0.5366 -0.5701 -0.4638
  820MPD2    C312065   0.280   2.172  14.805  0.6601  0.6940 -0.1687
  820MPD2    C412066   0.211   2.076  14.743 -0.2188  0.1712  0.2749
  820MPD2    C512067   0.131   2.113  14.636  0.4520 -0.9258  0.6203
  820MPD2     H12068   0.290   2.375  14.846 -0.7656 -0.5356 -0.3396
  820MPD2    H112069   0.207   1.972  14.771  3.4464 -0.0624 -0.0024
  820MPD2    H212070   0.036   2.268  14.527  1.3246 -0.1070  0.3062
  820MPD2    H312071   0.084   2.033  14.581 -2.0779  0.8637  0.1671
  820MPD2     N12072   0.379   2.123  14.892 -0.5189  0.6105 -0.1785
  820MPD2    H512073   0.383   2.022  14.897 -0.4553  0.5038 -2.3169
  820MPD2    N112074   0.124   2.484  14.656  0.3904  0.0261  0.6507
  820MPD2    H712075   0.064   2.495  14.574  0.7358  1.5185  0.5952
  821MPD2     C12076   1.407   3.527  12.744 -0.4976 -0.0625 -0.7972
  821MPD2    C112077   1.517   3.525  12.828  0.3440 -0.7929 -0.1292
  821MPD2    C212078   1.621   3.614  12.803 -0.6645 -0.3295  0.4697
  821MPD2    C312079   1.621   3.709  12.696 -0.8161 -1.0378  0.2047
  821MPD2    C412080   1.513   3.705  12.608 -0.2685  0.0382 -1.0292
  821MPD2    C512081   1.404   3.619  12.637 -0.3897 -1.1152  0.0701
  821MPD2     H12082   1.711   3.607  12.863  0.0728 -0.6475 -0.6882
  821MPD2    H112083   1.505   3.775  12.525 -0.9254  1.4659  0.2225
  821MPD2    H212084   1.318   3.465  12.748  0.4974 -1.4170  0.4289
  821MPD2    H312085   1.317   3.608  12.573  0.5444 -2.2262 -1.0140
  821MPD2     N12086   1.726   3.798  12.676 -0.2441 -0.0540  0.0686
  821MPD2    H512087   1.720   3.862  12.598 -0.4973 -0.2454 -0.0681
  821MPD2    N112088   1.532   3.437  12.935 -0.1414 -0.3318  0.3806
  821MPD2    H712089   1.610   3.447  13.000 -0.9248  0.3218  1.2096
  822MPD2     C12090   1.610   3.837  16.159  0.6113  0.7540  0.0284
  822MPD2    C112091   1.713   3.908  16.202 -0.1690  0.4360  0.3007
  822MPD2    C212092   1.700   4.043  16.231  0.0640  0.2275 -0.3231
  822MPD2    C312093   1.573   4.099  16.215  0.1908 -0.8154 -0.3253
  822MPD2    C412094   1.464   4.028  16.168 -0.2912 -0.6228  0.0376
  822MPD2    C512095   1.487   3.897  16.136  0.0155  0.0902 -0.3382
  822MPD2     H12096   1.786   4.100  16.265 -1.1510  0.9823  1.5089
  822MPD2    H112097   1.365   4.067  16.149 -0.4713 -0.7778  0.6519
  822MPD2    H212098   1.627   3.732  16.137 -2.6047  0.1893  0.3169
  822MPD2    H312099   1.400   3.837  16.109 -0.8158  1.3704 -0.4744
  822MPD2     N12100   1.552   4.230  16.245 -0.5177 -0.3242 -0.2468
  822MPD2    H512101   1.458   4.260  16.266  0.3874  0.6586  2.4291
  822MPD2    N112102   1.844   3.857  16.237 -0.4337 -0.6455 -0.1550
  822MPD2    H712103   1.913   3.918  16.279 -1.6700  0.1875  0.6620
  823MPD2     C12104   1.528   4.633  16.969 -0.0252  0.1211  0.2420
  823MPD2    C112105   1.530   4.526  16.881  0.0407  0.4742 -0.2445
  823MPD2    C212106   1.526   4.395  16.931  0.3387 -0.4607  0.1238
  823MPD2    C312107   1.535   4.368  17.071 -0.5476 -0.2723 -0.5453
  823MPD2    C412108   1.539   4.473  17.156 -0.2407 -0.0359  0.2781
  823MPD2    C512109   1.518   4.601  17.101 -0.3601  0.1630 -0.3314
  823MPD2     H12110   1.524   4.309  16.864 -0.3438 -0.9751  0.8130
  823MPD2    H112111   1.542   4.452  17.262  0.5536 -0.5131  0.1582
  823MPD2    H212112   1.524   0.010  16.937 -0.1613  0.5634  1.7111
  823MPD2    H312113   1.511   4.686  17.168  1.4959  0.1642 -0.1358
  823MPD2     N12114   1.552   4.239  17.135  0.4677 -0.2888  0.4892
  823MPD2    H512115   1.528   4.234  17.234 -1.6441  0.8375  0.0259
  823MPD2    N112116   1.526   4.557  16.747  0.4514  0.1103 -0.1567
  823MPD2    H712117   1.540   4.656  16.731  0.5474  0.1886  0.4176
  824MPD2     C12118   2.205   3.091  16.384 -0.5775  0.3769  0.4726
  824MPD2    C112119   2.196   3.180  16.287 -0.0350 -0.0819 -0.2845
  824MPD2    C212120   2.251   3.156  16.161 -0.4300 -0.2662  0.3496
  824MPD2    C312121   2.332   3.044  16.136  0.3858 -0.4370  0.0771
  824MPD2    C412122   2.346   2.959  16.237  0.0916 -0.3973 -0.4637
  824MPD2    C512123   2.287   2.981  16.360  0.8318  0.2298  0.3714
  824MPD2     H12124   2.242   3.233  16.085 -1.0919  0.1617  0.8600
  824MPD2    H112125   2.414   2.875  16.225 -0.4144 -0.7589 -0.7715
  824MPD2    H212126   2.164   3.093  16.485 -0.8831  2.1831  0.3139
  824MPD2    H312127   2.298   2.906  16.437  0.0851  0.3726  0.6181
  824MPD2     N12128   2.385   3.033  16.001 -0.6528  0.2069 -0.1152
  824MPD2    H512129   2.367   3.107  15.934 -0.0910 -0.5056 -1.0521
  824MPD2    N112130   2.134   3.309  16.313  0.4334 -0.2918 -0.0549
  824MPD2    H712131   2.130   3.377  16.238  0.9621  0.7650  0.8666
  825MPD2     C12132   2.645   3.302  15.223  0.2448  0.1048 -0.4213
  825MPD2    C112133   2.607   3.325  15.351  0.3239  0.2600 -0.2625
  825MPD2    C212134   2.615   3.447  15.403 -0.7964 -0.0389  0.2853
  825MPD2    C312135   2.679   3.554  15.331  0.3318 -0.6921 -0.3546
  825MPD2    C412136   2.718   3.525  15.198  0.1390  0.1419 -0.6608
  825MPD2    C512137   2.693   3.407  15.141  0.5411  0.6171 -0.7033
  825MPD2     H12138   2.583   3.451  15.506  0.0928  2.5538  0.4790
  825MPD2    H112139   2.761   3.611  15.147  1.5646  0.1151  0.4705
  825MPD2    H212140   2.655   3.203  15.181 -0.6582  0.3091 -1.1134
  825MPD2    H312141   2.726   3.392  15.039  1.8238  0.2910 -0.2358
  825MPD2     N12142   2.698   3.681  15.378 -0.1684 -0.3911  0.6788
  825MPD2    H512143   2.738   3.751  15.316  0.4913 -2.5922 -1.3463
  825MPD2    N112144   2.556   3.197  15.418  0.2989 -0.8127 -0.4352
  825MPD2    H712145   2.558   3.111  15.364 -2.5196 -1.4541  0.4989
  826MPD2     C12146   2.297   2.558  13.603  0.4286  0.4049 -1.2266
  826MPD2    C112147   2.428   2.587  13.579  0.2226 -0.3788 -0.6284
  826MPD2    C212148   2.470   2.716  13.590  0.1648 -0.2792  0.0160
  826MPD2    C312149   2.381   2.814  13.623  0.0624 -0.9146  0.4902
  826MPD2    C412150   2.250   2.784  13.662  0.6379 -0.5161 -0.5042
  826MPD2    C512151   2.206   2.653  13.646 -0.8077  0.0774  0.5067
  826MPD2     H12152   2.573   2.743  13.572 -1.1025  2.7556 -2.7946
  826MPD2    H112153   2.175   2.856  13.694  2.0363  0.0276  1.5629
  826MPD2    H212154   2.256   2.460  13.583  1.8106 -0.2129 -1.0658
  826MPD2    H312155   2.100   2.632  13.639 -1.1110  2.5108 -2.3836
  826MPD2     N12156   2.421   2.946  13.623  0.2678 -0.4261  0.1565
  826MPD2    H512157   2.356   3.007  13.672 -2.2924 -1.8384 -1.5065
  826MPD2    N112158   2.504   2.475  13.532 -0.1819 -0.5431  0.6111
  826MPD2    H712159   2.448   2.390  13.527 -1.3819  0.2759  0.1819
  827MPD2     C12160   4.020   3.942   9.921 -0.2206 -0.2638  0.0596
  827MPD2    C112161   4.079   3.832   9.981  0.2985 -0.0098 -0.5270
  827MPD2    C212162   4.062   3.709   9.917 -0.4608 -0.3021 -0.4749
  827MPD2    C312163   4.002   3.705   9.791 -0.3109 -0.0304 -0.9111
  827MPD2    C412164   3.944   3.816   9.737 -0.4424  0.8251  1.3921
  827MPD2    C512165   3.952   3.936   9.798 -0.0961  0.3755 -0.4880
  827MPD2     H12166   4.094   3.615   9.962  2.1971  1.1635  0.6830
  827MPD2    H112167   3.894   3.826   9.641  0.9346  0.8046  0.6837
  827MPD2    H212168   4.039   4.038   9.967 -1.4859 -0.5459  1.1786
  827MPD2    H312169   3.905   4.022   9.752 -1.9665  0.2839  1.2603
  827MPD2     N12170   4.017   3.584   9.719 -0.1212 -0.0545 -0.2562
  827MPD2    H512171   4.056   3.513   9.780 -0.7769  0.0843  0.3183
  827MPD2    N112172   4.154   3.848  10.105  0.0321  0.1646  0.6017
  827MPD2    H712173   4.173   3.943  10.134 -0.2177 -0.4718  2.8200
  828MPD2     C12174   2.031   3.751  12.480  0.0146 -0.0648  0.4269
  828MPD2    C112175   2.058   3.840  12.386 -0.3988 -0.1352  0.5185
  828MPD2    C212176   2.189   3.834  12.333  0.1298 -0.2197 -0.7467
  828MPD2    C312177   2.287   3.748  12.381  0.2594 -0.0210 -0.0238
  828MPD2    C412178   2.249   3.666  12.478 -0.3045 -1.1664 -0.1460
  828MPD2    C512179   2.124   3.663  12.523 -0.1613 -0.6505 -0.7134
  828MPD2     H12180   2.204   3.908  12.255 -1.2408  0.9855  0.1210
  828MPD2    H112181   2.330   3.607  12.521  1.4640  0.6470 -0.9861
  828MPD2    H212182   1.931   3.752  12.522  0.1213 -0.1400  0.6794
  828MPD2    H312183   2.104   3.598  12.607 -1.2352  0.5955 -0.0024
  828MPD2     N12184   2.418   3.733  12.322  0.5328 -0.3530 -0.5006
  828MPD2    H512185   2.479   3.665  12.366 -0.4563 -1.7335 -1.2722
  828MPD2    N112186   1.974   3.931  12.318 -0.0151 -0.4813  0.4258
  828MPD2    H712187   2.018   3.986  12.245  1.3119 -3.6216 -1.1609
  829MPD2     C12188   2.208   4.091  11.531  0.2310  0.2847  1.2286
  829MPD2    C112189   2.075   4.091  11.507 -0.1826 -0.6843 -0.9003
  829MPD2    C212190   1.987   4.061  11.609 -0.3748  0.0641 -0.4574
  829MPD2    C312191   2.031   4.057  11.738  0.5244 -0.3658  0.0890
  829MPD2    C412192   2.160   4.065  11.765  0.1733 -1.0419 -0.0363
  829MPD2    C512193   2.249   4.075  11.662 -1.0192  0.3880  0.0138
  829MPD2     H12194   1.880   4.050  11.594 -0.4837  0.9837 -0.3963
  829MPD2    H112195   2.194   4.060  11.868 -2.2434 -0.8359  0.7826
  829MPD2    H212196   2.282   4.105  11.453 -0.4543 -2.4868  0.0861
  829MPD2    H312197   2.353   4.082  11.692 -1.4253 -1.3673  1.8142
  829MPD2     N12198   1.937   4.037  11.846  0.3781  0.4435  0.3670
  829MPD2    H512199   1.978   4.035  11.939  0.5964 -3.9341  0.2079
  829MPD2    N112200   2.035   4.117  11.370  0.3107 -0.1701  0.5730
  829MPD2    H712201   2.107   4.143  11.303 -0.0147 -1.3849 -0.2381
  830MPD2     C12202   1.913   2.327  15.795  0.0294  0.3210  0.2392
  830MPD2    C112203   1.816   2.379  15.711 -0.5053 -0.0244 -0.4842
  830MPD2    C212204   1.853   2.440  15.591 -0.9696  0.6538 -0.5119
  830MPD2    C312205   1.989   2.442  15.564 -0.0805  0.1765  0.7147
  830MPD2    C412206   2.093   2.396  15.648 -0.2943 -0.3806  0.0827
  830MPD2    C512207   2.049   2.339  15.765 -0.5207 -0.4899  0.0247
  830MPD2     H12208   1.772   2.474  15.527 -0.2240  1.0312 -1.2639
  830MPD2    H112209   2.197   2.400  15.619 -0.3336 -1.7518 -0.2615
  830MPD2    H212210   1.879   2.278  15.885 -0.6589  1.0616  0.3757
  830MPD2    H312211   2.124   2.301  15.832 -0.2756 -0.7943 -0.4245
  830MPD2     N12212   2.042   2.487  15.436  0.4184 -0.5525  0.1164
  830MPD2    H512213   2.139   2.476  15.409  0.2113 -0.4154 -0.6733
  830MPD2    N112214   1.686   2.383  15.762  0.4444 -0.4374 -0.8939
  830MPD2    H712215   1.666   2.373  15.861 -2.2666 -1.0371 -1.4894
  831MPD2     C12216   1.934   4.386  16.541  0.3325  0.1337 -0.4467
  831MPD2    C112217   1.932   4.273  16.464  0.2203  0.2124  0.0607
  831MPD2    C212218   1.852   4.171  16.520  0.8767 -0.7880  0.2569
  831MPD2    C312219   1.768   4.183  16.625 -0.3857  0.0205 -0.3046
  831MPD2    C412220   1.772   4.295  16.692  0.0998  0.6564 -0.0982
  831MPD2    C512221   1.860   4.396  16.656 -0.2126 -0.1439 -0.1595
  831MPD2     H12222   1.842   4.078  16.464  0.3173 -0.4635 -0.1699
  831MPD2    H112223   1.704   4.312  16.775  1.8213  0.9523  1.2471
  831MPD2    H212224   2.004   4.463  16.512  0.2985 -0.6908 -2.6988
  831MPD2    H312225   1.871   4.481  16.722 -1.7607 -0.5516  0.6306
  831MPD2     N12226   1.674   4.084  16.669  0.4673  0.0422  0.0081
  831MPD2    H512227   1.603   4.106  16.738  0.1436  0.4139 -0.4540
  831MPD2    N112228   1.994   4.266  16.343 -0.4160  0.3869  0.6773
  831MPD2    H712229   2.039   4.350  16.308 -2.0052  1.0728  0.3275
  832MPD2     C12230   0.162   1.458  17.636 -0.5473 -0.0454 -0.2381
  832MPD2    C112231   0.075   1.356  17.663  0.3162 -0.9410  0.0128
  832MPD2    C212232   4.705   1.329  17.566 -0.1130  1.0258 -0.2945
  832MPD2    C312233   4.695   1.398  17.445 -0.1669 -0.1449 -0.7082
  832MPD2    C412234   0.061   1.505  17.430  0.0879 -0.6413  0.5328
  832MPD2    C512235   0.150   1.530  17.521 -0.5146  0.2251  0.0678
  832MPD2     H12236   4.619   1.270  17.595  0.4632  0.4760  0.2891
  832MPD2    H112237   0.056   1.568  17.342  0.7117 -0.3859  0.6832
  832MPD2    H212238   0.239   1.495  17.703  0.6944  0.6874 -2.0522
  832MPD2    H312239   0.208   1.619  17.502  0.3507 -0.2218  0.6334
  832MPD2     N12240   4.603   1.373  17.342 -0.1699 -0.3278  0.2090
  832MPD2    H512241   4.618   1.424  17.256 -1.5957 -0.8903 -0.3702
  832MPD2    N112242   0.090   1.274   0.073 -0.1417 -0.0670  0.6656
  832MPD2    H712243   0.168   1.308   0.129 -0.2106  1.3771 -0.1052
  833MPD2     C12244   2.151   1.639  12.608 -0.4282  0.2152 -0.8525
  833MPD2    C112245   2.226   1.713  12.514 -0.3881 -0.1927  0.1575
  833MPD2    C212246   2.305   1.639  12.422  0.1829 -0.6018  0.2143
  833MPD2    C312247   2.314   1.499  12.418 -0.0693  0.1552  0.0613
  833MPD2    C412248   2.234   1.434  12.514 -0.3120 -0.1362 -0.0265
  833MPD2    C512249   2.157   1.503  12.607  0.5424  0.8103 -0.0044
  833MPD2     H12250   2.359   1.702  12.353 -1.4001 -1.0269 -1.4198
  833MPD2    H112251   2.239   1.326  12.522 -2.2475  0.1134  4.3108
  833MPD2    H212252   2.092   1.698  12.676 -1.0026  1.0952 -2.1151
  833MPD2    H312253   2.093   1.455  12.680  0.3358  0.5010 -0.3905
  833MPD2     N12254   2.389   1.423  12.332 -0.3126  0.5446 -0.2385
  833MPD2    H512255   2.394   1.324  12.354  3.0915  0.0969 -3.0300
  833MPD2    N112256   2.198   1.855  12.508 -0.2560 -0.6781 -0.4945
  833MPD2    H712257   2.117   1.890  12.559 -1.1074 -0.8458 -1.7418
  834MPD2     C12258   2.222   0.968  11.475  0.8748 -0.6340  0.6186
  834MPD2    C112259   2.343   1.021  11.440  0.1077  0.3555 -0.2037
  834MPD2    C212260   2.422   1.088  11.529 -0.1700 -0.0623 -0.1665
  834MPD2    C312261   2.378   1.094  11.661 -0.1650 -0.0642  0.0665
  834MPD2    C412262   2.260   1.036  11.699  0.6475 -0.0732 -0.1600
  834MPD2    C512263   2.182   0.978  11.602  0.5932 -0.4617 -0.2652
  834MPD2     H12264   2.509   1.145  11.499 -1.5697  1.4092 -1.4444
  834MPD2    H112265   2.219   1.029  11.799  0.1736  0.1479 -0.3363
  834MPD2    H212266   2.160   0.913  11.405  0.1837  0.7840  0.1085
  834MPD2    H312267   2.083   0.949  11.638  0.7120  1.4364  1.6293
  834MPD2     N12268   2.455   1.169  11.750  0.0251  0.1625 -0.8635
  834MPD2    H512269   2.534   1.219  11.711  1.7615 -1.9082 -0.0479
  834MPD2    N112270   2.379   0.997  11.308  0.8228  0.0133 -0.3952
  834MPD2    H712271   2.323   0.939  11.247  1.8640 -2.7257  1.2402
  835MPD2     C12272   3.101   3.804  10.861 -0.4040  0.2124 -0.6258
  835MPD2    C112273   3.012   3.910  10.882 -0.1371  0.3493 -0.4280
  835MPD2    C212274   2.986   3.948  11.012  0.4938 -0.5227 -0.9824
  835MPD2    C312275   3.050   3.891  11.121 -0.3709 -0.2577  0.0830
  835MPD2    C412276   3.146   3.789  11.095 -0.0247  0.0891  0.0751
  835MPD2    C512277   3.168   3.742  10.965  0.7710  0.2316  0.6485
  835MPD2     H12278   2.924   4.034  11.033  0.3528 -1.3537  2.0450
  835MPD2    H112279   3.210   3.755  11.176  1.2231  1.6009 -0.2739
  835MPD2    H212280   3.120   3.768  10.760 -0.1218 -2.0539  0.2240
  835MPD2    H312281   3.235   3.660  10.942  0.1620 -0.4500  1.3153
  835MPD2     N12282   3.015   3.923  11.250  0.2505 -0.5835 -0.4864
  835MPD2    H512283   3.063   3.885  11.332 -0.0592 -1.6894 -0.8232
  835MPD2    N112284   2.933   3.977  10.788  0.0919 -0.5275  0.5361
  835MPD2    H712285   2.898   4.068  10.814  0.8673  0.0229 -0.3369
  836MPD2     C12286   2.449   4.338  11.248 -0.2768  0.7742 -0.4893
  836MPD2    C112287   2.466   4.309  11.383  0.2136  0.0201 -0.2828
  836MPD2    C212288   2.369   4.353  11.468 -0.4847  0.3462  0.2089
  836MPD2    C312289   2.253   4.415  11.418 -0.8198  0.0023  0.8265
  836MPD2    C412290   2.242   4.439  11.285 -0.4567 -0.4849 -0.6274
  836MPD2    C512291   2.346   4.408  11.204 -0.7478 -0.1507  0.2452
  836MPD2     H12292   2.369   4.313  11.569  1.7475  2.1457  0.9235
  836MPD2    H112293   2.162   4.498  11.240 -0.9906 -0.4367  0.3884
  836MPD2    H212294   2.522   4.306  11.174  0.6834  1.3984  0.1855
  836MPD2    H312295   2.343   4.435  11.100 -0.5854  1.4737  0.6636
  836MPD2     N12296   2.133   4.443  11.495  0.6725  0.1581 -0.9330
  836MPD2    H512297   2.056   4.472  11.436 -0.6804 -0.7497  0.3858
  836MPD2    N112298   2.581   4.235  11.427 -0.1265 -0.4129  0.3970
  836MPD2    H712299   2.631   4.197  11.348  0.9818  1.1750  0.3447
  837MPD2     C12300   0.894   3.858  10.060  0.6068 -0.1387 -0.0006
  837MPD2    C112301   0.932   3.870   9.931 -0.1413 -0.0125  0.1468
  837MPD2    C212302   0.972   3.993   9.889  0.6482  0.0859 -0.4716
  837MPD2    C312303   0.970   4.102   9.966  0.1296 -0.2037  0.5231
  837MPD2    C412304   0.945   4.088  10.099 -0.2477 -0.8373  0.7431
  837MPD2    C512305   0.911   3.965  10.144  0.3037  0.1025 -0.2160
  837MPD2     H12306   1.000   4.004   9.785  2.1802  2.0659  0.1502
  837MPD2    H112307   0.963   4.171  10.165 -2.0222  0.6815 -0.6757
  837MPD2    H212308   0.858   3.765  10.103  0.9075 -0.4542 -0.4180
  837MPD2    H312309   0.910   3.959  10.252 -2.2000  2.1509 -0.1395
  837MPD2     N12310   0.998   4.221   9.902  0.3634 -0.4168 -0.4240
  837MPD2    H512311   1.029   4.227   9.806 -0.9200  0.1043 -0.8099
  837MPD2    N112312   0.899   3.772   9.832 -0.2455 -0.3405 -0.0247
  837MPD2    H712313   0.925   3.795   9.737 -0.9694 -0.2752 -0.2017
  838MPD2     C12314   4.165   2.271  11.769  0.0303 -0.2971 -0.3732
  838MPD2    C112315   4.147   2.160  11.688 -0.0351 -0.8374  0.0343
  838MPD2    C212316   4.029   2.096  11.684 -0.4231 -0.7008  0.6193
  838MPD2    C312317   3.922   2.126  11.763 -0.2182 -0.5009  0.5314
  838MPD2    C412318   3.940   2.238  11.843  0.3675 -0.0261 -0.1435
  838MPD2    C512319   4.059   2.307  11.852  0.2555  0.2221  0.5862
  838MPD2     H12320   4.022   2.006  11.623 -0.5890  0.2549 -0.7637
  838MPD2    H112321   3.859   2.273  11.906  2.1134 -0.9102  2.5907
  838MPD2    H212322   4.260   2.319  11.791 -0.9450  1.2621  0.4527
  838MPD2    H312323   4.069   2.400  11.906 -3.0125  1.1082 -0.3499
  838MPD2     N12324   3.800   2.061  11.750  0.5259  0.1707  0.2662
  838MPD2    H512325   3.795   1.993  11.675  1.1178  2.4155 -1.8055
  838MPD2    N112326   4.249   2.106  11.610  0.3155  0.5319  0.0738
  838MPD2    H712327   4.235   2.013  11.572 -1.0582  0.1443  1.5523
  839MPD2     C12328   4.100   1.403  11.658  0.1405 -0.4738 -0.3666
  839MPD2    C112329   4.145   1.428  11.526 -0.0867 -0.3368  0.7242
  839MPD2    C212330   4.251   1.517  11.507 -0.5284 -0.1251 -0.5026
  839MPD2    C312331   4.305   1.584  11.620  0.3394  0.0813  0.2828
  839MPD2    C412332   4.263   1.549  11.746 -0.6521 -0.3064 -0.7570
  839MPD2    C512333   4.165   1.458  11.760  0.6984 -0.0844  0.7894
  839MPD2     H12334   4.271   1.555  11.408  0.4607  0.8607  0.0730
  839MPD2    H112335   4.318   1.593  11.829 -1.7838 -1.6310  0.6940
  839MPD2    H212336   4.023   1.328  11.676 -1.0534  1.5220  2.9667
  839MPD2    H312337   4.118   1.445  11.857  2.5055 -1.8660  1.4344
  839MPD2     N12338   4.394   1.696  11.610 -0.0729  0.1638 -0.3821
  839MPD2    H512339   4.422   1.753  11.689 -1.2872  0.1252  0.0743
  839MPD2    N112340   4.074   1.364  11.420 -0.1209  0.2808 -0.5689
  839MPD2    H712341   4.116   1.351  11.329 -1.2270 -0.3520 -0.9835
  840MPD2     C12342   4.634   4.246  10.112 -0.4322  0.6098 -0.4050
  840MPD2    C112343   4.615   4.217  10.240 -0.5211 -0.6314 -0.2019
  840MPD2    C212344   4.638   4.314  10.336 -0.7277 -0.1558  0.4661
  840MPD2    C312345   4.682   4.437  10.299 -0.3068 -0.4598  0.0358
  840MPD2    C412346   4.685   4.474  10.159 -0.2808 -0.0188 -0.4034
  840MPD2    C512347   4.663   4.374  10.071  0.3739  0.3032 -0.1133
  840MPD2     H12348   4.625   4.295  10.442 -0.0249 -0.9600  0.4012
  840MPD2    H112349   4.699   4.575  10.123 -5.2859  1.5578  2.1225
  840MPD2    H212350   4.631   4.169  10.035 -0.7526 -0.7574  0.9621
  840MPD2    H312351   4.671   4.392   9.964  1.9740  0.4041  0.0332
  840MPD2     N12352   4.712   4.545  10.382 -0.1868  0.4474 -0.5192
  840MPD2    H512353   0.008   4.631  10.332  0.4388  0.1104 -0.8289
  840MPD2    N112354   4.563   4.092  10.278 -0.2636 -0.7085  1.0445
  840MPD2    H712355   4.538   4.037  10.196  0.1099  1.9594 -0.8711
  841MPD2     C12356   4.149   4.266  14.336  0.1958  0.1933 -0.0787
  841MPD2    C112357   4.104   4.268  14.468  0.4385 -0.4024 -0.2570
  841MPD2    C212358   4.191   4.293  14.575  0.6983 -0.5704  0.3071
  841MPD2    C312359   4.323   4.323  14.548 -0.6655  0.2302 -0.1749
  841MPD2    C412360   4.371   4.318  14.418  0.0598  0.0215  0.3939
  841MPD2    C512361   4.281   4.292  14.314 -0.0321 -0.1747 -0.3569
  841MPD2     H12362   4.165   4.311  14.678  1.8614  0.4753  0.4029
  841MPD2    H112363   4.469   4.352  14.388  0.3292 -1.9460 -0.9616
  841MPD2    H212364   4.085   4.239  14.253 -0.7313 -1.9873  1.3523
  841MPD2    H312365   4.317   4.290  14.212  0.4543 -2.8745 -0.1340
  841MPD2     N12366   4.404   4.356  14.659  0.2054  0.6136  0.0313
  841MPD2    H512367   4.349   4.361  14.745  1.1726  1.5273  0.5940
  841MPD2    N112368   3.970   4.242  14.504 -0.1121  0.3302 -0.9500
  841MPD2    H712369   3.946   4.249  14.602 -0.2470  2.9278 -1.1717
  842MPD2     C12370   4.039   1.701  16.863  0.5749 -0.8056 -0.1108
  842MPD2    C112371   4.007   1.572  16.827  0.5838 -0.0149 -0.9460
  842MPD2    C212372   4.020   1.462  16.912  0.1167 -0.0350  0.4205
  842MPD2    C312373   4.043   1.481  17.044  0.4837  0.1425  0.4475
  842MPD2    C412374   4.054   1.609  17.082 -0.7070 -0.3556  0.4992
  842MPD2    C512375   4.062   1.714  16.998 -0.2849  0.3202 -0.1087
  842MPD2     H12376   3.982   1.366  16.880  0.5575 -0.0882  0.0651
  842MPD2    H112377   4.057   1.634  17.188 -0.3051  1.4128  0.0742
  842MPD2    H212378   4.031   1.785  16.795 -0.1401 -1.6890 -1.1121
  842MPD2    H312379   4.081   1.813  17.036  1.3390 -1.4076  3.5648
  842MPD2     N12380   4.017   1.388  17.152 -0.4514 -0.3047  0.1406
  842MPD2    H512381   4.042   1.420  17.246 -0.3111  0.3940 -0.1362
  842MPD2    N112382   3.975   1.571  16.685 -0.5454 -0.2797  0.4219
  842MPD2    H712383   3.977   1.658  16.634  0.0751 -1.9673 -2.4055
  843MPD2     C12384   0.377   1.282   0.749  0.7959  0.1789 -0.6535
  843MPD2    C112385   0.357   1.180   0.659 -0.0975  0.2517  0.0134
  843MPD2    C212386   0.458   1.157   0.567 -0.1225 -0.4199  0.0528
  843MPD2    C312387   0.579   1.226   0.565  0.1908 -0.4024  0.1195
  843MPD2    C412388   0.591   1.335   0.649 -0.4079 -0.4527  0.3418
  843MPD2    C512389   0.490   1.362   0.742 -0.9475 -0.0070  0.2483
  843MPD2     H12390   0.447   1.072   0.501 -0.6705  0.2860 -0.7552
  843MPD2    H112391   0.678   1.398   0.635  0.0712 -1.0416  0.6328
  843MPD2    H212392   0.309   1.307   0.830  0.8337  2.0109 -1.1856
  843MPD2    H312393   0.487   1.455   0.799 -2.5219  0.3607 -0.4199
  843MPD2     N12394   0.691   1.194   0.485  0.5963  0.3720 -0.0087
  843MPD2    H512395   0.761   1.268   0.487 -0.8652  1.7300  0.8449
  843MPD2    N112396   0.238   1.101   0.656 -0.4036  0.0025 -0.2418
  843MPD2    H712397   0.171   1.122   0.730  0.3051 -0.0320  0.4109
  844MPD2     C12398   4.610   1.063  16.930 -0.5660 -0.2900  0.2888
  844MPD2    C112399   4.625   0.967  17.031 -0.0306  0.1306  0.4578
  844MPD2    C212400   4.704   0.996  17.139  0.5422  0.2222  0.2994
  844MPD2    C312401   0.054   1.106  17.134  0.6803  0.7228 -0.0081
  844MPD2    C412402   0.044   1.200  17.031  0.0205 -0.8376  0.4346
  844MPD2    C512403   4.682   1.175  16.927 -0.4061  0.4362 -0.8873
  844MPD2     H12404   0.005   0.919  17.211 -0.4477 -1.2303 -0.8760
  844MPD2    H112405   0.102   1.292  17.033 -0.1195 -0.7135 -0.9226
  844MPD2    H212406   4.558   1.032  16.840  1.4249 -2.2576 -0.1822
  844MPD2    H312407   4.678   1.242  16.841 -0.7888  0.9174 -0.4966
  844MPD2     N12408   0.145   1.126  17.245  0.0822 -0.3297  0.3463
  844MPD2    H512409   0.150   1.047  17.309 -1.6257 -1.7867 -1.2871
  844MPD2    N112410   4.572   0.835  17.040  0.0290  0.7410 -0.2816
  844MPD2    H712411   4.600   0.788  17.126 -1.0457 -1.2686 -1.0214
  845MPD2     C12412   0.630   1.708   0.177  0.6294  0.5621  0.5486
  845MPD2    C112413   0.544   1.735   0.071 -0.0134 -0.2704  0.5378
  845MPD2    C212414   0.512   1.630  17.693  0.0483  0.1990 -0.0823
  845MPD2    C312415   0.579   1.515  17.695 -0.2811  0.3701  0.0377
  845MPD2    C412416   0.674   1.487   0.086 -0.7697  0.4274  0.2425
  845MPD2    C512417   0.700   1.585   0.178  0.1927  0.3217 -0.1347
  845MPD2     H12418   0.442   1.647  17.612 -1.7324 -1.5628  1.0932
  845MPD2    H112419   0.739   1.400   0.091  0.1880  1.4659  5.0841
  845MPD2    H212420   0.654   1.781   0.254  2.0195  2.9389 -2.1054
  845MPD2    H312421   0.782   1.570   0.248 -3.9450 -3.3581  3.9767
  845MPD2     N12422   0.542   1.422  17.591 -0.3880  0.1407 -0.5653
  845MPD2    H512423   0.481   1.458  17.519 -0.3789  2.2254  0.4789
  845MPD2    N112424   0.478   1.858   0.073  0.4783 -0.4140  0.5538
  845MPD2    H712425   0.489   1.925   0.148  0.3032 -0.4359  0.5987
  846MPD2     C12426   1.486   1.339  13.358 -0.4636 -0.1653  0.2506
  846MPD2    C112427   1.478   1.470  13.403 -0.5772 -0.3308 -0.1311
  846MPD2    C212428   1.484   1.500  13.538 -0.4841  0.0786 -0.2558
  846MPD2    C312429   1.487   1.400  13.636  0.2207 -0.2774  0.5246
  846MPD2    C412430   1.501   1.271  13.586  0.4419 -0.8883 -0.4529
  846MPD2    C512431   1.503   1.242  13.453  0.2265 -0.0600 -0.8579
  846MPD2     H12432   1.476   1.602  13.572 -0.9157 -0.9626  2.7879
  846MPD2    H112433   1.527   1.196  13.660 -2.1669  0.1975  1.5425
  846MPD2    H212434   1.476   1.306  13.255 -0.5613  0.9709 -0.1102
  846MPD2    H312435   1.513   1.137  13.432 -1.0382 -0.2716 -0.3963
  846MPD2     N12436   1.475   1.429  13.772 -0.4159  0.1226  0.0266
  846MPD2    H512437   1.487   1.525  13.804  1.2885 -0.2939  0.5896
  846MPD2    N112438   1.453   1.575  13.308 -0.0001  0.3919  0.2137
  846MPD2    H712439   1.454   1.670  13.342  0.5368  0.5870 -0.3312
  847MPD2     C12440   1.937   2.174  14.025  0.6211  0.2035  0.4545
  847MPD2    C112441   1.988   2.219  14.138 -0.2152 -0.0103  0.7500
  847MPD2    C212442   1.959   2.153  14.255 -0.5220  0.5124  0.3109
  847MPD2    C312443   1.872   2.047  14.265  0.0610  0.0989 -0.8283
  847MPD2    C412444   1.811   2.009  14.151  0.1065 -0.1001 -0.5639
  847MPD2    C512445   1.846   2.068  14.028 -0.0212  0.3989  0.4876
  847MPD2     H12446   1.994   2.189  14.352  0.7027 -0.0677  0.0705
  847MPD2    H112447   1.732   1.936  14.152  2.2529 -2.4582 -2.1600
  847MPD2    H212448   1.960   2.221  13.930 -3.1472 -0.1303 -0.6444
  847MPD2    H312449   1.811   2.031  13.932  0.9885 -1.2884  0.7851
  847MPD2     N12450   1.838   2.014  14.394  0.1912  0.1879 -0.2035
  847MPD2    H512451   1.891   2.066  14.463  0.6124  1.2196 -1.3247
  847MPD2    N112452   2.072   2.335  14.152  0.4968 -0.5904 -0.0156
  847MPD2    H712453   2.104   2.353  14.247 -1.2909  2.8879 -0.0789
  848MPD2     C12454   4.371   1.614  16.697 -0.4014 -0.5170 -0.4843
  848MPD2    C112455   4.378   1.626  16.836  0.8027  0.0708 -0.6952
  848MPD2    C212456   4.358   1.748  16.895 -0.0899 -0.2122  0.0753
  848MPD2    C312457   4.332   1.855  16.814 -0.0391 -0.2860 -0.7818
  848MPD2    C412458   4.316   1.840  16.682 -0.3447  0.2385  0.2988
  848MPD2    C512459   4.332   1.719  16.625  0.3175  0.4446  0.3107
  848MPD2     H12460   4.357   1.757  17.003  1.8194  0.4481  0.0256
  848MPD2    H112461   4.291   1.930  16.627  0.8141 -0.2205 -0.9622
  848MPD2    H212462   4.403   1.521  16.651  0.8531 -1.1280  1.6249
  848MPD2    H312463   4.328   1.708  16.517  3.4288 -0.7430  0.3099
  848MPD2     N12464   4.296   1.974  16.876  0.0190 -0.6426  0.1156
  848MPD2    H512465   4.257   2.050  16.822  0.0530 -0.5183  0.2697
  848MPD2    N112466   4.389   1.514  16.919 -0.2860 -0.0834 -0.2517
  848MPD2    H712467   4.379   1.532  17.019  0.3578 -0.1830 -0.1659
  849MPD2     C12468   3.860   4.689  14.178 -0.6517  0.4011 -0.3789
  849MPD2    C112469   3.954   0.068  14.170 -0.4723  0.2193  0.3661
  849MPD2    C212470   4.070   0.058  14.244  0.8353  0.4425 -1.1268
  849MPD2    C312471   4.084   4.686  14.341 -0.0003 -0.5625 -0.1370
  849MPD2    C412472   3.988   4.594  14.358  0.3431 -0.2954  0.0285
  849MPD2    C512473   3.885   4.591  14.273 -0.0876  0.1773  0.1666
  849MPD2     H12474   4.146   0.134  14.232  1.6327 -0.1558  0.3080
  849MPD2    H112475   3.998   4.518  14.435  0.4651  0.5214  0.8203
  849MPD2    H212476   3.762   4.693  14.132 -0.7503  0.7080 -0.1392
  849MPD2    H312477   3.805   4.518  14.279  0.1111 -0.0748 -0.3002
  849MPD2     N12478   4.205   4.687  14.412 -0.1357 -0.1080  0.0326
  849MPD2    H512479   4.279   0.018  14.373 -0.0847 -0.7190 -0.7673
  849MPD2    N112480   3.928   0.189  14.096 -0.4223 -0.2566 -0.4004
  849MPD2    H712481   3.839   0.195  14.047 -1.4251  0.5997  1.4857
  850MPD2     C12482   1.795   3.327  14.561  0.1502  0.4552  0.0554
  850MPD2    C112483   1.765   3.422  14.664 -0.0552  0.0608 -0.3734
  850MPD2    C212484   1.865   3.459  14.754  0.1644  0.3002 -0.2723
  850MPD2    C312485   1.992   3.404  14.737 -0.3733 -0.0164  0.2866
  850MPD2    C412486   2.019   3.314  14.637 -0.1631  1.0009 -0.4344
  850MPD2    C512487   1.918   3.272  14.551 -1.2810 -0.2923 -1.0507
  850MPD2     H12488   1.846   3.535  14.829 -0.2346 -2.2186  2.1544
  850MPD2    H112489   2.118   3.272  14.620 -0.4583  0.9240 -1.9334
  850MPD2    H212490   1.721   3.287  14.491  2.8136 -2.4791 -1.1093
  850MPD2    H312491   1.945   3.192  14.483  1.6803 -0.3998  0.2440
  850MPD2     N12492   2.099   3.446  14.817 -0.4832 -0.3487 -0.4778
  850MPD2    H512493   2.191   3.412  14.793 -0.3360  0.0516 -0.4797
  850MPD2    N112494   1.636   3.470  14.664  0.4338 -0.0082 -0.1776
  850MPD2    H712495   1.594   3.469  14.572 -2.8999 -0.9460  1.3430
  851MPD2     C12496   1.948   3.290  15.431  0.1163  0.6867  0.4128
  851MPD2    C112497   1.914   3.264  15.301 -0.3143  0.3320  0.1534
  851MPD2    C212498   1.978   3.163  15.239  0.1757 -0.1700  0.1740
  851MPD2    C312499   2.076   3.084  15.294 -0.5272  0.4570 -0.0954
  851MPD2    C412500   2.120   3.117  15.425  0.1200 -0.6743 -0.1968
  851MPD2    C512501   2.050   3.217  15.492 -0.4068 -0.6748  0.7904
  851MPD2     H12502   1.961   3.126  15.138  1.8798 -1.1130  0.2229
  851MPD2    H112503   2.203   3.075  15.482 -1.5224 -2.5796  0.8233
  851MPD2    H212504   1.907   3.372  15.488 -0.5086  0.3355  0.4674
  851MPD2    H312505   2.079   3.249  15.591  0.2567  2.3098 -0.3748
  851MPD2     N12506   2.121   2.976  15.210 -0.2506  0.3029 -0.4239
  851MPD2    H512507   2.072   2.965  15.121 -0.2993  1.3310 -0.5233
  851MPD2    N112508   1.801   3.333  15.248  0.3905 -0.2526  0.0552
  851MPD2    H712509   1.765   3.412  15.300  0.6786  0.5023 -0.9002
  852MPD2     C12510   2.231   0.682  10.258 -0.3597 -0.0602 -0.0150
  852MPD2    C112511   2.231   0.816  10.296  0.7802 -0.2589  0.2136
  852MPD2    C212512   2.326   0.895  10.239 -0.4759 -0.7136 -0.1300
  852MPD2    C312513   2.424   0.848  10.157  0.1473  0.3751  0.2721
  852MPD2    C412514   2.409   0.717  10.111  0.2860  0.4393 -0.8794
  852MPD2    C512515   2.316   0.634  10.164  0.6784 -0.9267  0.1613
  852MPD2     H12516   2.331   1.000  10.266  0.5213 -1.1871  1.5559
  852MPD2    H112517   2.476   0.666  10.043  1.6624 -0.2982  1.0293
  852MPD2    H212518   2.152   0.614  10.285 -0.7268  0.7885  1.0162
  852MPD2    H312519   2.304   0.531  10.131  0.3177 -0.7575 -0.2397
  852MPD2     N12520   2.531   0.933  10.121  0.1950  0.3387 -0.2838
  852MPD2    H512521   2.526   1.031  10.146 -0.1327 -0.1946  1.8090
  852MPD2    N112522   2.127   0.880  10.375 -0.2488 -0.3744  0.1918
  852MPD2    H712523   2.133   0.981  10.387  0.2685 -0.3386 -0.3816
  853MPD2     C12524   3.561   0.903  12.215  0.4989 -0.0446  0.6313
  853MPD2    C112525   3.435   0.890  12.162  0.7551 -0.1842 -0.1361
  853MPD2    C212526   3.424   0.832  12.036 -0.1457 -0.0078  0.1284
  853MPD2    C312527   3.531   0.774  11.968  0.2763  0.0090 -0.6367
  853MPD2    C412528   3.657   0.787  12.026 -0.3002 -0.0007  0.1721
  853MPD2    C512529   3.666   0.852  12.139  1.0754 -0.0525 -0.0817
  853MPD2     H12530   3.327   0.818  11.988 -0.2659  1.0818  0.0587
  853MPD2    H112531   3.749   0.753  11.981 -0.3810 -2.0000  1.4922
  853MPD2    H212532   3.574   0.940  12.316 -1.7071  1.2979  0.4377
  853MPD2    H312533   3.765   0.860  12.183  2.6593 -3.8121 -2.9766
  853MPD2     N12534   3.534   0.688  11.858 -0.2879  0.2400 -0.5091
  853MPD2    H512535   3.623   0.643  11.836 -1.1695 -0.7459 -2.0637
  853MPD2    N112536   3.328   0.916  12.247  0.7471  0.3536  0.0941
  853MPD2    H712537   3.354   0.969  12.330 -2.3599  1.1371  0.5619
  854MPD2     C12538   0.938   0.953  12.644  0.1033 -0.6166  0.7369
  854MPD2    C112539   0.816   0.922  12.699  0.1384 -0.5874 -0.4078
  854MPD2    C212540   0.806   0.806  12.765 -0.7903 -0.0378  0.4237
  854MPD2    C312541   0.910   0.712  12.780  0.2370 -0.8757  0.1590
  854MPD2    C412542   1.025   0.742  12.713 -0.0597  0.8533  1.0358
  854MPD2    C512543   1.044   0.864  12.647  0.4700 -0.5046 -0.8423
  854MPD2     H12544   0.706   0.782  12.800 -0.9902  0.1165 -0.0458
  854MPD2    H112545   1.113   0.680  12.724 -0.7503 -0.3476 -0.1660
  854MPD2    H212546   0.952   1.034  12.574  0.2794 -1.9507 -0.7723
  854MPD2    H312547   1.135   0.894  12.597  1.0062  1.5878  1.4056
  854MPD2     N12548   0.906   0.600  12.850 -0.2056  0.1203 -0.4340
  854MPD2    H512549   0.991   0.544  12.846  0.5157  1.2485 -1.0923
  854MPD2    N112550   0.706   1.014  12.683 -0.4614  0.0356 -0.5924
  854MPD2    H712551   0.722   1.086  12.612  0.4043 -0.5725 -1.0179
  855MPD2     C12552   0.554   0.349  13.769  0.0088  0.2819  0.2028
  855MPD2    C112553   0.655   0.255  13.741  0.6564  0.0097 -0.0254
  855MPD2    C212554   0.720   0.271  13.618 -0.5810  0.1865 -0.0166
  855MPD2    C312555   0.687   0.377  13.534  0.5286 -0.5351 -0.1624
  855MPD2    C412556   0.587   0.466  13.565 -0.6067  0.1347  0.2532
  855MPD2    C512557   0.525   0.451  13.686 -0.5687  0.4938  0.3001
  855MPD2     H12558   0.791   0.193  13.594 -2.2133 -1.5015  0.6744
  855MPD2    H112559   0.553   0.555  13.514  1.5672  1.4141  1.0347
  855MPD2    H212560   0.509   0.352  13.867  0.6496  0.3370  0.4948
  855MPD2    H312561   0.451   0.526  13.712 -0.3039  1.3881 -1.5520
  855MPD2     N12562   0.748   0.388  13.406 -1.5950  0.1794  0.0265
  855MPD2    H512563   0.715   0.459  13.341  0.9571  0.1690 -1.2680
  855MPD2    N112564   0.694   0.159  13.834 -0.5257 -0.4288 -0.1692
  855MPD2    H712565   0.772   0.098  13.812  1.6614  1.4806  2.2627
  856MPD2     C12566   2.102   1.369  13.619  0.4689  0.0226  0.4767
  856MPD2    C112567   2.216   1.430  13.677  0.0090  1.4780  0.3099
  856MPD2    C212568   2.207   1.562  13.713  0.3498 -0.0885 -0.1318
  856MPD2    C312569   2.092   1.636  13.695  0.3127  1.0004  0.8766
  856MPD2    C412570   1.983   1.581  13.632 -0.4707  0.0684  0.4436
  856MPD2    C512571   1.987   1.446  13.601  0.8701 -1.1445 -0.5093
  856MPD2     H12572   2.298   1.611  13.746 -0.1643 -0.0282  1.1749
  856MPD2    H112573   1.889   1.634  13.624 -0.6011 -0.1495  0.5135
  856MPD2    H212574   2.093   1.265  13.589 -1.1021  0.2300  0.2326
  856MPD2    H312575   1.896   1.396  13.570 -1.0016  3.1807 -2.1076
  856MPD2     N12576   2.086   1.772  13.743  0.0863 -0.3873 -0.3448
  856MPD2    H512577   2.016   1.832  13.701 -0.8504 -0.1672  1.5119
  856MPD2    N112578   2.345   1.371  13.693  0.1749  0.6442 -0.3095
  856MPD2    H712579   2.417   1.432  13.730  1.3884  0.0091 -1.6285
  857MPD2     C12580   4.609   3.621  12.481 -0.2073  1.0108 -0.6560
  857MPD2    C112581   4.639   3.574  12.605 -0.2177 -0.5580 -0.6429
  857MPD2    C212582   4.648   3.664  12.710  0.5836 -0.0366 -0.4952
  857MPD2    C312583   4.629   3.798  12.697  0.4665  0.3295 -0.0420
  857MPD2    C412584   4.606   3.848  12.573 -0.1859 -0.7797 -0.9987
  857MPD2    C512585   4.595   3.755  12.468  0.2474  0.2722  0.6548
  857MPD2     H12586   4.669   3.630  12.811  0.5360 -0.3679 -0.5981
  857MPD2    H112587   4.603   3.955  12.557 -1.9973 -0.7508 -0.4116
  857MPD2    H212588   4.601   3.559  12.392 -3.5204 -0.1456  0.4653
  857MPD2    H312589   4.573   3.806  12.375 -1.2794  0.7760  1.2854
  857MPD2     N12590   4.629   3.882  12.809 -0.4543 -0.0431  0.1031
  857MPD2    H512591   4.660   3.834  12.892  1.3533 -1.6195 -1.4587
  857MPD2    N112592   4.657   3.437  12.626 -0.0672  0.8313 -0.6802
  857MPD2    H712593   4.647   3.374  12.548 -0.0480 -0.7442  0.5875
  858MPD2     C12594   4.522   3.112  16.542  0.3732 -0.0592  0.5484
  858MPD2    C112595   4.551   3.031  16.654 -0.1778 -0.4349 -0.5732
  858MPD2    C212596   4.567   3.094  16.773  0.1622 -0.1679  0.4050
  858MPD2    C312597   4.558   3.236  16.787  0.0996  0.2138 -0.4869
  858MPD2    C412598   4.516   3.304  16.676  0.4754  0.1135 -0.1018
  858MPD2    C512599   4.490   3.241  16.556 -0.1598  0.9073 -0.0068
  858MPD2     H12600   4.582   3.033  16.862 -1.5163  0.0440  0.8316
  858MPD2    H112601   4.515   3.412  16.673  0.3344  0.0966 -0.8164
  858MPD2    H212602   4.514   3.067  16.444 -2.3874  2.5099 -0.4095
  858MPD2    H312603   4.452   3.299  16.473 -1.8665 -1.5531 -0.9458
  858MPD2     N12604   4.574   3.300  16.912  0.1153  0.5447 -0.6028
  858MPD2    H512605   4.562   3.401  16.909  2.2794  0.7757 -1.6281
  858MPD2    N112606   4.565   2.892  16.627  0.2873  0.2694 -0.0600
  858MPD2    H712607   4.559   2.868  16.529  0.3950 -0.8644  0.2085
  859MPD2     C12608   3.423   0.221  15.819 -0.1885  1.0379  0.7106
  859MPD2    C112609   3.514   0.216  15.713 -0.0885  0.5321 -0.0459
  859MPD2    C212610   3.599   0.111  15.702 -0.7881  0.8142 -0.1825
  859MPD2    C312611   3.612   0.011  15.800  0.5401 -0.1944  0.7447
  859MPD2    C412612   3.512   0.015  15.902  0.3283 -0.5102  0.0813
  859MPD2    C512613   3.425   0.122  15.909  0.3037  0.1787  0.1489
  859MPD2     H12614   3.664   0.109  15.617  0.3229  0.5695  0.6751
  859MPD2    H112615   3.495   4.672  15.984 -1.1813 -1.5981 -1.1557
  859MPD2    H212616   3.348   0.299  15.822  0.1861  1.4237 -0.0018
  859MPD2    H312617   3.349   0.123  15.986  0.1206  3.7449 -0.0562
  859MPD2     N12618   3.704   4.629  15.788  0.0700  0.0940  0.3123
  859MPD2    H512619   3.704   4.556  15.859  1.0373 -0.1352  0.0713
  859MPD2    N112620   3.523   0.316  15.615 -0.1058 -0.2532 -0.0231
  859MPD2    H712621   3.594   0.304  15.544  0.2699 -2.6285  0.7322
  860MPD2     C12622   1.624   0.086  11.416  0.3865  0.0160  0.2656
  860MPD2    C112623   1.639   0.199  11.499  0.1525  0.8715  0.1026
  860MPD2    C212624   1.559   0.217  11.612  0.3830  0.3339  0.3478
  860MPD2    C312625   1.480   0.116  11.656  0.2005 -0.3895  0.9783
  860MPD2    C412626   1.460   0.007  11.569 -0.7555  0.1875  0.2040
  860MPD2    C512627   1.533   4.715  11.455  0.0687  1.1391 -1.0940
  860MPD2     H12628   1.571   0.304  11.675 -0.4231  1.7318 -1.4383
  860MPD2    H112629   1.379   4.665  11.593 -0.4142 -0.1357  0.4427
  860MPD2    H212630   1.686   0.067  11.330 -0.0423  3.0865 -0.7193
  860MPD2    H312631   1.502   4.643  11.380 -1.2759  0.6569 -0.0746
  860MPD2     N12632   1.406   0.133  11.778  0.3759 -0.2501  0.4860
  860MPD2    H512633   1.428   0.219  11.828  0.4815  1.5486 -2.5893
  860MPD2    N112634   1.730   0.306  11.470 -0.0867 -0.1669  0.0062
  860MPD2    H712635   1.735   0.386  11.532 -0.7659  0.5060 -0.8062
  861MPD2     C12636   0.501   3.497  10.869  0.4416 -0.4870 -0.9240
  861MPD2    C112637   0.466   3.611  10.938 -0.3227 -1.1751 -0.0008
  861MPD2    C212638   0.389   3.710  10.869 -0.0021 -0.5440  0.3612
  861MPD2    C312639   0.352   3.691  10.732  0.4400 -0.2576 -0.1710
  861MPD2    C412640   0.398   3.585  10.666 -0.0581 -0.4949 -0.0186
  861MPD2    C512641   0.474   3.489  10.731 -0.1024 -0.1268 -0.2770
  861MPD2     H12642   0.359   3.799  10.923  1.2114 -0.1718  0.4182
  861MPD2    H112643   0.383   3.572  10.560 -1.7430  0.3966  0.1087
  861MPD2    H212644   0.548   3.409  10.910 -2.3620 -1.3596  0.4423
  861MPD2    H312645   0.525   3.416  10.669  1.6022  1.7696 -1.1271
  861MPD2     N12646   0.289   3.797  10.662  0.1552 -0.0142  0.3865
  861MPD2    H512647   0.292   3.792  10.560 -3.2253 -1.6724  0.3708
  861MPD2    N112648   0.498   3.624  11.069  0.7651  0.0620 -0.2312
  861MPD2    H712649   0.471   3.713  11.109  0.7375 -1.0418  2.2517
  862MPD2     C12650   0.214   4.138   9.985  1.0499 -0.3678 -0.4301
  862MPD2    C112651   0.188   4.047  10.087  0.2828  0.1427 -0.0978
  862MPD2    C212652   0.144   3.925  10.050  0.1944 -0.1749 -0.8324
  862MPD2    C312653   0.142   3.887   9.919 -0.2942  0.0034 -0.0674
  862MPD2    C412654   0.165   3.979   9.818 -0.4950 -0.0931 -0.4402
  862MPD2    C512655   0.196   4.108   9.851  0.1186  0.2060  0.3173
  862MPD2     H12656   0.120   3.864  10.136  2.7319  1.1146  0.7610
  862MPD2    H112657   0.170   3.950   9.714  0.0290 -1.4576 -0.0407
  862MPD2    H212658   0.239   4.239  10.014  3.3509 -1.8274  2.7251
  862MPD2    H312659   0.205   4.188   9.778  0.5086  0.8042  1.0190
  862MPD2     N12660   0.101   3.752   9.879  0.7282  0.0644 -0.1702
  862MPD2    H512661   0.077   3.730   9.783  1.5400 -1.8943  0.0814
  862MPD2    N112662   0.199   4.063  10.232 -0.1160 -0.3910  0.1344
  862MPD2    H712663   0.175   3.990  10.298 -0.3277 -0.1846  0.2839
  863MPD2     C12664   2.852   1.840  16.651  0.1717  0.4666 -0.9507
  863MPD2    C112665   2.813   1.960  16.711  0.6959  0.6396  0.1303
  863MPD2    C212666   2.864   1.997  16.838 -0.7322  0.1929  0.0118
  863MPD2    C312667   2.958   1.920  16.904  0.3094  0.3225 -0.0780
  863MPD2    C412668   2.987   1.801  16.842  0.0957  0.3150 -0.1464
  863MPD2    C512669   2.939   1.762  16.721  0.5867 -0.0684 -0.1793
  863MPD2     H12670   2.831   2.084  16.893  1.6127  0.4612  0.9595
  863MPD2    H112671   3.043   1.728  16.899 -0.3107 -0.2905 -0.5211
  863MPD2    H212672   2.811   1.817  16.553 -2.1496  0.7135 -0.0377
  863MPD2    H312673   2.987   1.678  16.671 -1.1713 -0.5907 -0.9910
  863MPD2     N12674   3.026   1.956  17.017 -0.1572 -0.3574 -0.2917
  863MPD2    H512675   3.084   1.888  17.066  0.9072  0.8876  0.2015
  863MPD2    N112676   2.727   2.048  16.636 -0.2293 -1.1918  0.5949
  863MPD2    H712677   2.706   2.019  16.541 -0.4107  1.7253 -0.2548
  864MPD2     C12678   3.337   3.465  16.827  0.0808 -0.8603  0.3699
  864MPD2    C112679   3.382   3.335  16.805 -0.5384 -0.4120  1.1069
  864MPD2    C212680   3.504   3.297  16.842  0.8734 -0.4422 -0.1985
  864MPD2    C312681   3.585   3.380  16.913  0.1590  0.0952  0.1813
  864MPD2    C412682   3.547   3.509  16.933  0.8655  0.0659 -0.0999
  864MPD2    C512683   3.427   3.545  16.878 -0.6708  0.2278 -0.1207
  864MPD2     H12684   3.541   3.199  16.814  0.6337 -0.0631 -1.8177
  864MPD2    H112685   3.608   3.577  16.992  1.0011  1.5660 -2.0070
  864MPD2    H212686   3.238   3.495  16.796  0.5091  1.8283  1.5784
  864MPD2    H312687   3.392   3.645  16.901  0.5043  0.7558 -0.6748
  864MPD2     N12688   3.718   3.354  16.950 -0.6426  0.1081  0.2864
  864MPD2    H512689   3.781   3.426  16.983 -0.0799 -0.1359 -0.2407
  864MPD2    N112690   3.301   3.247  16.731  1.0790  0.2110 -0.2257
  864MPD2    H712691   3.225   3.291  16.680  0.2570 -1.1344 -0.1673
  865MPD2     C12692   4.214   3.571  16.290 -0.2815  0.6858  0.7630
  865MPD2    C112693   4.170   3.442  16.317 -0.4845 -0.1770 -0.3084
  865MPD2    C212694   4.164   3.394  16.449 -0.5399  0.1839  0.4672
  865MPD2    C312695   4.188   3.481  16.552  0.3588  0.2914  0.1741
  865MPD2    C412696   4.224   3.608  16.523 -0.0795 -0.1698  0.2022
  865MPD2    C512697   4.248   3.648  16.397  0.5740  0.7323  0.0922
  865MPD2     H12698   4.146   3.289  16.469  0.5001  0.3109  2.0801
  865MPD2    H112699   4.237   3.682  16.600 -0.7919  1.0071 -0.8032
  865MPD2    H212700   4.224   3.614  16.191  1.8250 -0.6671  0.3927
  865MPD2    H312701   4.282   3.750  16.379 -1.8692  1.6003  0.2699
  865MPD2     N12702   4.174   3.447  16.691  0.3479  0.3317 -0.5594
  865MPD2    H512703   4.183   3.522  16.759 -0.5246 -2.0469  2.1641
  865MPD2    N112704   4.138   3.364  16.206 -0.1870 -0.3684  0.0478
  865MPD2    H712705   4.147   3.401  16.112  1.7814 -2.3171 -0.5250
  866MPD2     C12706   1.024   4.116  11.487 -0.7139  1.0343  0.3562
  866MPD2    C112707   1.050   4.147  11.353  0.3892 -1.0534  0.1361
  866MPD2    C212708   0.963   4.229  11.286  0.2511  0.6459  0.0130
  866MPD2    C312709   0.842   4.256  11.340  0.3138 -1.0582 -0.5125
  866MPD2    C412710   0.819   4.221  11.474 -0.1107 -0.5073  0.8917
  866MPD2    C512711   0.910   4.163  11.551  0.0431 -0.1466  0.6434
  866MPD2     H12712   0.990   4.253  11.184 -1.2453  0.3120 -0.4565
  866MPD2    H112713   0.719   4.235  11.514 -0.1284 -0.4265  0.8205
  866MPD2    H212714   1.100   4.079  11.554  1.3121  2.7648 -1.0174
  866MPD2    H312715   0.892   4.131  11.653  2.1491  3.1409  2.0270
  866MPD2     N12716   0.725   4.298  11.271  0.0029 -0.0576  0.3005
  866MPD2    H512717   0.638   4.307  11.323  0.4661 -0.3769  1.1282
  866MPD2    N112718   1.166   4.103  11.292  0.6843 -0.1858 -0.1414
  866MPD2    H712719   1.188   4.142  11.201  2.1194 -0.7913 -0.0479
  867MPD2     C12720   2.406   3.652  16.294  0.8615  0.6803  0.2222
  867MPD2    C112721   2.430   3.606  16.419 -0.1504 -0.0294 -0.0965
  867MPD2    C212722   2.416   3.686  16.529 -0.4438 -0.1777  0.2082
  867MPD2    C312723   2.375   3.818  16.503  0.1693  1.0955  0.1375
  867MPD2    C412724   2.356   3.870  16.376 -0.1767 -0.0043  0.1667
  867MPD2    C512725   2.364   3.777  16.274 -0.2908  0.6345  0.5200
  867MPD2     H12726   2.443   3.650  16.627  2.6406  0.2533 -0.5067
  867MPD2    H112727   2.334   3.971  16.346  0.2405 -0.2964 -1.1449
  867MPD2    H212728   2.415   3.589  16.207  1.1393 -0.6089  1.1809
  867MPD2    H312729   2.336   3.812  16.175 -1.2771 -1.9075 -0.0797
  867MPD2     N12730   2.381   3.918  16.603  0.5590  0.2226 -0.4229
  867MPD2    H512731   2.374   4.014  16.571 -1.2103 -0.2469 -1.4228
  867MPD2    N112732   2.456   3.471  16.433  0.2880 -0.0632 -0.9777
  867MPD2    H712733   2.474   3.427  16.343  0.4502  0.8444 -1.3836
  868MPD2     C12734   4.073   1.890  13.028 -0.3140 -0.2558  0.2517
  868MPD2    C112735   4.107   1.913  13.161 -0.4002 -0.6013  0.8626
  868MPD2    C212736   4.010   1.928  13.256  0.3565 -0.1773  0.8728
  868MPD2    C312737   3.882   1.938  13.216 -0.5904 -0.1111  0.1823
  868MPD2    C412738   3.842   1.917  13.083  0.1187 -0.6846 -0.5660
  868MPD2    C512739   3.943   1.898  12.994 -0.2216  0.3282 -0.3623
  868MPD2     H12740   4.027   1.944  13.362  0.8391 -0.7633  0.8823
  868MPD2    H112741   3.740   1.917  13.047 -0.4923  0.8034  1.1499
  868MPD2    H212742   4.145   1.862  12.953 -1.4354 -0.3417 -0.7964
  868MPD2    H312743   3.919   1.880  12.890 -0.1158  3.7337 -0.9858
  868MPD2     N12744   3.783   1.960  13.316  0.3493  0.7592  0.5363
  868MPD2    H512745   3.821   1.970  13.409 -1.4671  0.6262  1.2923
  868MPD2    N112746   4.247   1.914  13.188  0.1450 -0.4049 -0.3163
  868MPD2    H712747   4.307   1.905  13.106  0.5181  1.9765 -0.3168
  869MPD2     C12748   0.770   0.119   1.742  0.4320  0.0269  0.6320
  869MPD2    C112749   0.642   0.106   1.786  0.2681  0.7243 -0.3099
  869MPD2    C212750   0.554   0.214   1.769 -0.2443 -0.4485  0.0175
  869MPD2    C312751   0.596   0.328   1.700 -0.1512  0.2797 -0.3734
  869MPD2    C412752   0.721   0.330   1.652  0.6022  0.1733  0.6845
  869MPD2    C512753   0.804   0.222   1.662 -0.4124 -0.2777  0.1590
  869MPD2     H12754   0.465   0.214   1.831 -1.6265 -3.0357 -1.9895
  869MPD2    H112755   0.750   0.413   1.588  1.1397 -0.8710 -0.4159
  869MPD2    H212756   0.841   0.037   1.742  0.5490  0.1358  3.4137
  869MPD2    H312757   0.903   0.243   1.621  0.3413 -0.0220  2.0895
  869MPD2     N12758   0.510   0.434   1.656  0.4971  0.0504  0.6430
  869MPD2    H512759   0.543   0.524   1.622  0.9837 -1.0553 -1.8808
  869MPD2    N112760   0.613   4.715   1.859 -0.4834 -0.6688 -0.0424
  869MPD2    H712761   0.693   4.653   1.869  1.2891  2.0192  2.4035
  870MPD2     C12762   4.232   4.021   1.687 -0.2580 -0.3036  0.7860
  870MPD2    C112763   4.349   4.062   1.640 -0.1912  0.1084 -0.2715
  870MPD2    C212764   4.361   4.154   1.534 -0.0903 -0.6985 -0.1063
  870MPD2    C312765   4.242   4.173   1.461  0.8986 -0.3969 -0.1731
  870MPD2    C412766   4.119   4.134   1.513 -1.0403  0.2856 -0.8621
  870MPD2    C512767   4.117   4.056   1.623  0.1452 -0.3247  0.1773
  870MPD2     H12768   4.452   4.189   1.487  1.1191  0.2057  2.8961
  870MPD2    H112769   4.028   4.168   1.463 -3.2032 -2.0130  1.5179
  870MPD2    H212770   4.217   3.966   1.779  0.4485  0.1645  1.1845
  870MPD2    H312771   4.017   4.028   1.655 -0.3342 -0.8739 -1.7723
  870MPD2     N12772   4.260   4.267   1.353 -0.1825  0.5120  0.7164
  870MPD2    H512773   4.356   4.282   1.323 -0.0480 -0.2743  0.7338
  870MPD2    N112774   4.456   4.009   1.708  0.0958  0.3249  0.3676
  870MPD2    H712775   4.436   3.944   1.782  0.3799 -1.6285 -1.2610
  871MPD2     C12776   1.686   3.590  16.738 -0.0827 -0.5890 -0.2777
  871MPD2    C112777   1.656   3.559  16.868 -0.6053 -0.7544 -0.0326
  871MPD2    C212778   1.629   3.430  16.908  0.4708  0.1087 -0.4686
  871MPD2    C312779   1.607   3.335  16.812  0.7593 -0.1917 -0.0954
  871MPD2    C412780   1.624   3.368  16.674 -0.4961 -0.7441 -0.0418
  871MPD2    C512781   1.670   3.494  16.639  0.0158  0.1121 -0.3307
  871MPD2     H12782   1.608   3.401  17.010  0.9425  3.4993  0.5920
  871MPD2    H112783   1.596   3.299  16.596 -0.3731  0.8715 -1.5036
  871MPD2    H212784   1.718   3.689  16.709 -0.1707 -0.2106  0.9000
  871MPD2    H312785   1.685   3.528  16.537  2.0566  0.1522 -0.0271
  871MPD2     N12786   1.577   3.201  16.858 -0.1735  0.6397  0.3862
  871MPD2    H512787   1.541   3.199  16.953  0.8926  1.6388  0.8191
  871MPD2    N112788   1.648   3.656  16.971  0.1944 -0.0586 -0.2711
  871MPD2    H712789   1.672   3.753  16.954  0.4643 -0.2955 -1.2406
  872MPD2     C12790   2.133   1.140  13.968 -0.6206 -1.4512 -0.7055
  872MPD2    C112791   2.141   1.002  13.996  1.0190  0.3803  0.2271
  872MPD2    C212792   2.029   0.939  14.051 -0.0494  0.6003 -0.8160
  872MPD2    C312793   1.920   1.013  14.098 -0.3645 -0.0917  0.2833
  872MPD2    C412794   1.922   1.154  14.073  0.5543 -0.0969 -0.1456
  872MPD2    C512795   2.027   1.213  14.016 -0.0818  0.4432 -0.0930
  872MPD2     H12796   2.033   0.831  14.059 -1.6616  0.3026 -4.2311
  872MPD2    H112797   1.843   1.214  14.118  2.6629  2.1227  0.5646
  872MPD2    H212798   2.211   1.188  13.910 -1.6689 -0.6578 -1.4548
  872MPD2    H312799   2.025   1.320  14.001 -0.6013  0.5105  0.4755
  872MPD2     N12800   1.802   0.974  14.164  0.0726  0.3270 -0.3395
  872MPD2    H512801   1.738   1.049  14.187 -2.2342 -1.3297 -1.3210
  872MPD2    N112802   2.245   0.921  13.961 -0.3942  0.7757 -0.3524
  872MPD2    H712803   2.231   0.821  13.968 -0.5067  0.8153  0.0164
  873MPD2     C12804   4.472   1.011   1.625 -0.4344 -0.1749 -0.4665
  873MPD2    C112805   4.347   0.997   1.579 -0.3977  0.2350  0.0349
  873MPD2    C212806   4.296   0.869   1.546  0.8017 -0.3685  0.1075
  873MPD2    C312807   4.372   0.760   1.577 -0.0533  0.3385 -0.2585
  873MPD2    C412808   4.504   0.776   1.624  0.1980 -0.7537 -0.2918
  873MPD2    C512809   4.554   0.901   1.643 -0.7883 -0.1885  0.4719
  873MPD2     H12810   4.193   0.861   1.516  1.8147 -1.3469 -3.1707
  873MPD2    H112811   4.569   0.689   1.627  1.4768  0.3101  2.3346
  873MPD2    H212812   4.526   1.104   1.640  0.9181 -1.0186 -0.0516
  873MPD2    H312813   4.654   0.912   1.684 -0.5971  0.3855 -0.1547
  873MPD2     N12814   4.339   0.620   1.545 -0.3159 -0.1240 -0.1911
  873MPD2    H512815   4.413   0.557   1.572 -0.7429 -0.7123 -0.4044
  873MPD2    N112816   4.273   1.118   1.569  0.5788 -0.5187 -0.5050
  873MPD2    H712817   4.321   1.190   1.622 -0.8117  0.6682 -0.8290
  874MPD2     C12818   3.775   2.192  16.413 -0.5325 -0.2332 -0.4768
  874MPD2    C112819   3.812   2.076  16.484  0.0188  0.0829 -0.4739
  874MPD2    C212820   3.847   2.092  16.617 -0.4015 -0.5482 -0.2138
  874MPD2    C312821   3.853   2.217  16.671 -0.4362  0.2108 -0.2477
  874MPD2    C412822   3.802   2.328  16.605  0.2461  0.2113  0.1025
  874MPD2    C512823   3.767   2.313  16.475  0.4798 -0.5576 -0.8249
  874MPD2     H12824   3.871   2.004  16.676 -1.2237  0.3387  1.4280
  874MPD2    H112825   3.803   2.427  16.649 -0.4861  0.3722 -0.2431
  874MPD2    H212826   3.741   2.188  16.310 -0.3179  4.2454 -0.7094
  874MPD2    H312827   3.731   2.402  16.424  0.4111 -0.8228 -1.2325
  874MPD2     N12828   3.896   2.214  16.814 -0.1901  0.1392 -0.4627
  874MPD2    H512829   3.884   2.127  16.864  1.0883  0.0839 -0.2264
  874MPD2    N112830   3.801   1.949  16.417 -0.8453  0.3737 -0.4542
  874MPD2    H712831   3.773   1.947  16.319  0.4376 -3.0552 -0.7520
  875MPD2     C12832   4.475   3.900  14.758  0.1741  0.3521  0.4665
  875MPD2    C112833   4.542   4.015  14.711 -0.2504 -0.0453 -0.5355
  875MPD2    C212834   4.625   4.091  14.797  0.0966  0.0406  0.5869
  875MPD2    C312835   4.636   4.052  14.930  0.2463  0.9614  0.1508
  875MPD2    C412836   4.569   3.941  14.983  0.2137 -0.8362 -0.2105
  875MPD2    C512837   4.489   3.873  14.892 -0.2857 -0.0672 -0.3387
  875MPD2     H12838   4.684   4.172  14.754 -2.0709  0.9349 -0.6784
  875MPD2    H112839   4.593   3.909  15.084 -1.1956  0.3080  0.4846
  875MPD2    H212840   4.403   3.846  14.698  1.8478  0.7144 -1.8876
  875MPD2    H312841   4.440   3.780  14.917 -2.4075  0.7595 -1.4416
  875MPD2     N12842   4.708   4.128  15.027 -0.1306 -0.3490  0.4407
  875MPD2    H512843   4.704   4.098  15.124 -0.8471  2.5669  1.3083
  875MPD2    N112844   4.539   4.054  14.572 -0.4420 -0.4802 -0.4302
  875MPD2    H712845   4.597   4.134  14.548  2.0522 -2.5798 -1.4939
  876MPD2     C12846   3.794   1.251  16.047 -0.4044  0.5507 -0.2353
  876MPD2    C112847   3.864   1.151  15.986  0.2472 -0.2332  0.0832
  876MPD2    C212848   3.861   1.029  16.060 -0.5697  0.4421 -0.3923
  876MPD2    C312849   3.787   1.013  16.174  0.2337 -0.1151 -0.1896
  876MPD2    C412850   3.712   1.124  16.222  0.6239  0.3562  0.2318
  876MPD2    C512851   3.715   1.242  16.157  0.2094 -0.2212 -0.1099
  876MPD2     H12852   3.913   0.944  16.018 -3.0738 -1.1092 -0.3712
  876MPD2    H112853   3.652   1.113  16.311  0.4406  0.7336  0.1516
  876MPD2    H212854   3.798   1.344  15.991 -2.1459  0.4475 -0.5199
  876MPD2    H312855   3.650   1.325  16.187 -0.4141 -0.9661  0.6010
  876MPD2     N12856   3.795   0.890  16.241 -0.3338 -0.0609 -0.0431
  876MPD2    H512857   3.859   0.823  16.201 -0.7330 -0.4771  0.0123
  876MPD2    N112858   3.939   1.181  15.872 -0.1619  0.4677  0.1091
  876MPD2    H712859   3.933   1.279  15.848  0.5865 -0.0069 -2.0543
  877MPD2     C12860   3.834   1.387  15.161 -0.6500 -1.3620  0.3788
  877MPD2    C112861   3.932   1.295  15.157  0.5080 -0.0436  0.3622
  877MPD2    C212862   3.969   1.247  15.032  0.6624  0.0358 -0.0719
  877MPD2    C312863   3.901   1.271  14.915  0.3442 -0.4218 -0.0624
  877MPD2    C412864   3.800   1.361  14.929 -0.3095 -0.4125  0.1493
  877MPD2    C512865   3.761   1.414  15.048  0.3677 -0.2898  0.0119
  877MPD2     H12866   4.054   1.180  15.024 -3.2040 -4.6284 -2.6221
  877MPD2    H112867   3.740   1.382  14.842  3.5133  0.2002 -2.3204
  877MPD2    H212868   3.804   1.449  15.245  2.6584  1.8034 -0.7972
  877MPD2    H312869   3.677   1.482  15.056  1.1640  0.4676  1.9179
  877MPD2     N12870   3.936   1.235  14.781  0.1978  0.4669 -0.1940
  877MPD2    H512871   3.859   1.253  14.718 -0.5510  0.4437  0.7119
  877MPD2    N112872   4.001   1.257  15.270 -0.6540  0.0073  0.2934
  877MPD2    H712873   4.068   1.185  15.246 -0.6381  0.4803 -1.0586
  878MPD2     C12874   4.074   0.144  13.284 -0.1670  0.1006  0.5882
  878MPD2    C112875   4.018   0.273  13.291  0.1405  0.3416  0.2548
  878MPD2    C212876   4.016   0.342  13.409  1.1228  0.0279 -0.1943
  878MPD2    C312877   4.060   0.282  13.529 -0.9047 -0.1070  0.0386
  878MPD2    C412878   4.097   0.144  13.524  0.6187  0.4814  0.3199
  878MPD2    C512879   4.105   0.080  13.404  0.0214 -0.1187  0.4992
  878MPD2     H12880   3.981   0.445  13.408  0.2444 -0.2647  0.0859
  878MPD2    H112881   4.123   0.091  13.615  0.0131 -0.9865 -0.3664
  878MPD2    H212882   4.084   0.084  13.194  1.4928 -1.0662  1.5465
  878MPD2    H312883   4.140   4.705  13.392  0.0747  0.1221 -1.3732
  878MPD2     N12884   4.052   0.345  13.658  0.6776  0.5863  1.0120
  878MPD2    H512885   4.058   0.281  13.736  0.8517 -0.0473  0.4789
  878MPD2    N112886   3.966   0.328  13.175  0.2622 -0.1651 -0.1786
  878MPD2    H712887   3.972   0.272  13.091 -0.5965 -2.7081  1.4785
  879MPD2     C12888   3.744   2.516  17.107  0.6061  0.5983  0.6845
  879MPD2    C112889   3.766   2.397  17.169  0.5378  0.5090 -0.3789
  879MPD2    C212890   3.698   2.282  17.122  0.3042 -0.6936 -0.3246
  879MPD2    C312891   3.610   2.293  17.017 -0.4409  0.7227 -1.0158
  879MPD2    C412892   3.599   2.415  16.956  0.0535 -0.3839  0.2622
  879MPD2    C512893   3.656   2.526  17.006 -0.0959 -0.1141 -0.4337
  879MPD2     H12894   3.716   2.187  17.170 -0.1767  0.1280  1.4797
  879MPD2    H112895   3.539   2.432  16.867  0.2594  0.7031  0.3260
  879MPD2    H212896   3.798   2.607  17.132 -1.4305  2.3182 -1.1698
  879MPD2    H312897   3.655   2.620  16.952 -0.0493  0.3670  0.4125
  879MPD2     N12898   3.537   2.188  16.953  0.0340  0.7837 -0.0737
  879MPD2    H512899   3.489   2.208  16.865 -0.6583 -2.1057 -0.3453
  879MPD2    N112900   3.850   2.403  17.279 -0.3997  0.4397  0.6184
  879MPD2    H712901   3.884   2.497  17.296 -0.6316  0.3752  1.4305
  880MPD2     C12902   0.072   3.911   0.470  0.1225  0.0457  0.4549
  880MPD2    C112903   0.188   3.984   0.449  0.1724 -0.7189  0.1230
  880MPD2    C212904   0.309   3.923   0.449 -0.3127  0.5002  0.0682
  880MPD2    C312905   0.325   3.789   0.473  0.2130 -0.2012 -0.3286
  880MPD2    C412906   0.208   3.713   0.490  0.2845  0.1698 -0.0251
  880MPD2    C512907   0.086   3.774   0.484  0.4088  0.4873 -0.7179
  880MPD2     H12908   0.398   3.974   0.415 -0.5968  0.6236 -0.4967
  880MPD2    H112909   0.223   3.610   0.523  1.4636 -0.0836 -1.3820
  880MPD2    H212910   4.708   3.963   0.502  0.4647  0.6390  0.4600
  880MPD2    H312911   0.000   3.711   0.504  1.4416 -0.1745  1.6817
  880MPD2     N12912   0.449   3.736   0.482  0.2276  0.0957  0.0162
  880MPD2    H512913   0.527   3.798   0.466  1.2284 -1.5257 -1.4221
  880MPD2    N112914   0.173   4.121   0.444  0.3522 -0.6498  0.0634
  880MPD2    H712915   0.088   4.168   0.475 -0.1890 -1.8105  0.3455
  881MPD2     C12916   0.714   0.233   0.002 -0.2103  0.7500  0.1624
  881MPD2    C112917   0.705   0.098  17.678 -0.2186  0.5455 -0.2955
  881MPD2    C212918   0.657   0.019   0.081 -0.2813  0.2690 -0.5840
  881MPD2    C312919   0.574   0.074   0.173 -0.2665  0.2153 -0.6000
  881MPD2    C412920   0.555   0.207   0.182  0.0589  0.4831 -0.2269
  881MPD2    C512921   0.637   0.288   0.101 -0.1757 -0.0452 -0.3246
  881MPD2     H12922   0.680   4.639   0.086 -0.4402  0.2013 -1.3265
  881MPD2    H112923   0.491   0.244   0.261 -1.0000  1.0072 -1.3205
  881MPD2    H212924   0.771   0.299  17.642  0.3950 -0.2320 -0.2990
  881MPD2    H312925   0.645   0.395   0.111 -1.3194  0.0705 -0.7460
  881MPD2     N12926   0.493   4.726   0.258 -0.7085  0.2150  0.3230
  881MPD2    H512927   0.430   0.052   0.319 -0.1194 -1.2381  2.1529
  881MPD2    N112928   0.785   0.051  17.571 -0.3574 -0.4375  0.5469
  881MPD2    H712929   0.849   0.119  17.531 -2.6979  2.1444  1.1639
  882MPD2     C12930   3.731   0.802  14.090  0.2726  0.3570  0.5322
  882MPD2    C112931   3.703   0.871  14.207 -0.2971 -0.1424  0.4394
  882MPD2    C212932   3.567   0.877  14.243  0.0470 -0.1422  0.3108
  882MPD2    C312933   3.460   0.833  14.160  0.1254 -0.0056  0.2899
  882MPD2    C412934   3.503   0.783  14.035 -0.7186  0.0505  0.4889
  882MPD2    C512935   3.632   0.760  14.009  0.4740  0.2691  0.3719
  882MPD2     H12936   3.547   0.899  14.347  1.2519 -0.1793  0.5563
  882MPD2    H112937   3.423   0.741  13.977 -0.2564  1.6684 -1.3068
  882MPD2    H212938   3.836   0.786  14.068  0.3786 -0.0811  1.3840
  882MPD2    H312939   3.658   0.710  13.917 -0.2262  0.1738  0.2222
  882MPD2     N12940   3.327   0.835  14.197  0.4609  0.4649 -0.1838
  882MPD2    H512941   3.265   0.793  14.129  1.3272 -0.7246 -0.2426
  882MPD2    N112942   3.809   0.886  14.298  0.6973  0.4314  0.1160
  882MPD2    H712943   3.902   0.858  14.270  0.4377 -0.7321  0.4431
  883MPD2     C12944   0.984   1.471  16.611  0.4588 -0.2426  0.1771
  883MPD2    C112945   0.897   1.539  16.530 -0.2360  0.0570 -0.0888
  883MPD2    C212946   0.867   1.670  16.547 -0.0295 -0.7929  0.0418
  883MPD2    C312947   0.918   1.732  16.661  0.3339  0.4717  0.2191
  883MPD2    C412948   0.997   1.661  16.751 -0.2200  0.0869  0.1515
  883MPD2    C512949   1.033   1.535  16.726 -0.3945  0.8730 -0.4298
  883MPD2     H12950   0.795   1.734  16.497  0.4335  1.0596  1.7719
  883MPD2    H112951   1.042   1.718  16.831 -1.7159 -1.4983  2.1266
  883MPD2    H212952   1.012   1.368  16.593 -1.5834 -0.6403 -0.7619
  883MPD2    H312953   1.100   1.485  16.796  0.5482  1.4272 -0.9471
  883MPD2     N12954   0.881   1.873  16.662 -0.3214  0.0945 -0.4939
  883MPD2    H512955   0.860   1.924  16.577 -1.5064  2.1503  1.0500
  883MPD2    N112956   0.838   1.489  16.417 -0.2773  0.3446 -0.0510
  883MPD2    H712957   0.768   1.539  16.363  1.0852  1.8111 -0.4635
  884MPD2     C12958   3.026   1.785  15.340 -0.1826  0.5105  0.1617
  884MPD2    C112959   2.956   1.794  15.225 -0.5835 -0.5084 -0.2344
  884MPD2    C212960   2.823   1.848  15.231 -0.0829  0.0294  0.1132
  884MPD2    C312961   2.763   1.866  15.350  0.3769  0.1706  0.7888
  884MPD2    C412962   2.832   1.847  15.461  0.4501 -0.2176  0.1934
  884MPD2    C512963   2.964   1.816  15.456 -1.0182  0.4243 -0.2314
  884MPD2     H12964   2.770   1.861  15.137  1.4081  1.8137 -0.4866
  884MPD2    H112965   2.790   1.868  15.559  0.8057  2.2292 -0.1816
  884MPD2    H212966   3.132   1.763  15.350 -0.2192  0.3436  0.1874
  884MPD2    H312967   3.031   1.810  15.541 -2.1388  0.2692  0.6529
  884MPD2     N12968   2.623   1.907  15.351  0.1363 -0.4112  0.0112
  884MPD2    H512969   2.588   1.942  15.262  1.4830 -1.4908 -0.9377
  884MPD2    N112970   3.015   1.765  15.094 -0.9582 -0.5406  0.5217
  884MPD2    H712971   2.946   1.772  15.020 -0.4050 -0.0227  0.0551
  885MPD2     C12972   1.037   2.381   0.843 -0.3578 -0.8674 -0.4538
  885MPD2    C112973   1.033   2.269   0.762  0.2830  0.8434 -0.0953
  885MPD2    C212974   1.012   2.289   0.630  0.1630 -0.6873  0.0809
  885MPD2    C312975   1.002   2.418   0.577  0.4057  0.0704 -0.4041
  885MPD2    C412976   0.998   2.530   0.659  0.0337  0.4761  0.0581
  885MPD2    C512977   1.013   2.509   0.796  0.4649  0.0748  0.3666
  885MPD2     H12978   0.997   2.208   0.560  0.4337 -1.0662  0.4589
  885MPD2    H112979   0.999   2.632   0.623 -3.2475  0.0622 -1.1795
  885MPD2    H212980   1.054   2.382   0.950  0.0323 -2.0859 -0.5093
  885MPD2    H312981   1.018   2.590   0.867  1.3432 -1.7903  2.4189
  885MPD2     N12982   0.985   2.430   0.430  0.1596 -0.0443  0.1896
  885MPD2    H512983   0.983   2.349   0.370  1.3936 -0.2700  0.4548
  885MPD2    N112984   1.041   2.142   0.831  0.0603 -0.0406  0.7056
  885MPD2    H712985   1.024   2.142   0.931 -2.6769 -1.7644  0.2468
  886MPD2     C12986   2.378   0.438  15.728  0.0193  0.1598 -0.7594
  886MPD2    C112987   2.452   0.545  15.769 -0.4962  0.7340  0.3585
  886MPD2    C212988   2.451   0.652  15.687  0.0870  0.3458  0.4808
  886MPD2    C312989   2.373   0.664  15.575 -0.4590 -0.0508 -0.0093
  886MPD2    C412990   2.315   0.544  15.526 -0.0465  0.8395 -0.2809
  886MPD2    C512991   2.323   0.434  15.604 -0.0045  0.2020  0.0238
  886MPD2     H12992   2.508   0.729  15.738  0.0009  2.0769 -2.0609
  886MPD2    H112993   2.253   0.540  15.436  0.8607  2.6815 -0.9749
  886MPD2    H212994   2.393   0.342  15.777  1.6072  1.8716  2.0801
  886MPD2    H312995   2.275   0.340  15.579  0.3450 -0.1771  0.7861
  886MPD2     N12996   2.365   0.778  15.502  0.0862  1.0004 -0.1518
  886MPD2    H512997   2.315   0.779  15.414  0.8494  0.2363 -0.6042
  886MPD2    N112998   2.527   0.555  15.891 -0.6547  0.7522 -0.9738
  886MPD2    H712999   2.585   0.638  15.903 -2.2709  1.9819 -1.6918
  887MPD2     C13000   3.174   0.612  15.942  0.6013 -1.3858  0.0047
  887MPD2    C113001   3.074   0.705  15.949 -0.2172 -0.6731 -0.5539
  887MPD2    C213002   3.091   0.831  15.897  0.1181  0.1029  0.0485
  887MPD2    C313003   3.210   0.858  15.828  0.4254 -0.9152 -0.4809
  887MPD2    C413004   3.304   0.766  15.813  0.7256  0.1442 -0.2325
  887MPD2    C513005   3.285   0.639  15.869 -0.3807  0.0476  0.0100
  887MPD2     H13006   3.022   0.911  15.915  0.7329  0.8538 -0.9423
  887MPD2    H113007   3.402   0.791  15.773  0.8846 -1.9320 -1.1843
  887MPD2    H213008   3.156   0.510  15.974  0.9521 -0.5347  2.8956
  887MPD2    H313009   3.353   0.556  15.851 -1.6753 -1.3182  1.4283
  887MPD2     N13010   3.227   0.987  15.777 -0.0139 -0.4207  0.5601
  887MPD2    H513011   3.153   1.051  15.805 -0.7842 -1.3326  0.5741
  887MPD2    N113012   2.964   0.674  16.026 -0.2223  0.2598 -0.1760
  887MPD2    H713013   2.882   0.733  16.015 -0.2584 -0.1349 -2.1431
  888MPD2     C13014   0.541   0.506  15.125 -0.6799  0.2919  0.0546
  888MPD2    C113015   0.497   0.617  15.194 -0.1769 -0.1656 -1.0363
  888MPD2    C213016   0.546   0.737  15.154  0.8374  0.5056  0.6934
  888MPD2    C313017   0.633   0.758  15.045 -0.6387  0.2245  0.2756
  888MPD2    C413018   0.674   0.646  14.982 -0.0824  0.3357  0.0121
  888MPD2    C513019   0.630   0.520  15.025  0.2773  0.4437 -0.1055
  888MPD2     H13020   0.514   0.819  15.216 -0.8729  1.4740 -1.4631
  888MPD2    H113021   0.750   0.643  14.905 -0.8978 -0.4838 -0.7669
  888MPD2    H213022   0.523   0.403  15.153 -0.5109  0.8534  2.2772
  888MPD2    H313023   0.669   0.433  14.973 -1.1958  0.9662 -2.0864
  888MPD2     N13024   0.682   0.887  15.027  0.0020  0.1572  0.2532
  888MPD2    H513025   0.657   0.960  15.093  0.4449 -0.9454  1.6313
  888MPD2    N113026   0.403   0.617  15.301 -0.8960  0.6242 -0.0299
  888MPD2    H713027   0.374   0.707  15.338  1.7406  1.6302 -0.4548
  889MPD2     C13028   4.378   4.569  12.729 -0.2203  0.7935 -0.1657
  889MPD2    C113029   4.412   4.559  12.863  0.4957  0.6503  0.1338
  889MPD2    C213030   4.428   4.678  12.932 -0.0621 -0.3422  0.2131
  889MPD2    C313031   4.376   0.072  12.889  0.5782 -0.7746  0.0345
  889MPD2    C413032   4.327   0.074  12.762 -0.5151  0.1816  0.6907
  889MPD2    C513033   4.331   4.686  12.679 -0.2711  0.8237 -0.0368
  889MPD2     H13034   4.463   4.670  13.034 -1.0578  0.1946  0.5996
  889MPD2    H113035   4.272   0.157  12.718 -0.4633 -0.7325 -1.0909
  889MPD2    H213036   4.356   4.479  12.672 -0.3281  1.2011 -0.7668
  889MPD2    H313037   4.283   4.692  12.582 -1.4030 -2.0884  0.3510
  889MPD2     N13038   4.363   0.193  12.967  0.2220 -0.6635  0.1045
  889MPD2    H513039   4.323   0.277  12.927  0.3952 -0.0026  1.3213
  889MPD2    N113040   4.468   4.434  12.913  0.1202  0.3802 -0.3328
  889MPD2    H713041   4.480   4.357  12.848  0.4628 -0.7360  1.0502
  890MPD2     C13042   3.909   1.791  14.803  0.7075 -0.5328 -0.0652
  890MPD2    C113043   3.943   1.889  14.894  0.2209  0.0988  0.0927
  890MPD2    C213044   4.016   1.849  15.012  0.0963 -0.5041  0.2443
  890MPD2    C313045   4.053   1.722  15.026  0.3129  0.0896 -0.2459
  890MPD2    C413046   4.027   1.625  14.926 -0.1513 -0.1659  0.1076
  890MPD2    C513047   3.952   1.662  14.821  0.4166 -0.2278 -0.1240
  890MPD2     H13048   4.040   1.921  15.089 -1.8348  1.1213 -0.6582
  890MPD2    H113049   4.062   1.522  14.931  0.4991  0.0193 -0.6644
  890MPD2    H213050   3.839   1.808  14.722 -2.7357  1.3273  3.3393
  890MPD2    H313051   3.928   1.585  14.749 -0.0099 -1.0283  0.8755
  890MPD2     N13052   4.128   1.693  15.142  0.1754 -0.1791 -0.1953
  890MPD2    H513053   4.127   1.765  15.214  1.4471  0.2306 -0.5878
  890MPD2    N113054   3.887   2.023  14.876  0.3191  0.3547 -0.2799
  890MPD2    H713055   3.827   2.034  14.795  0.6484 -1.4441 -0.7742
  891MPD2     C13056   2.210   1.101  17.174  0.7909  0.7549 -0.8224
  891MPD2    C113057   2.105   1.123  17.265 -0.8306 -0.2481  0.8406
  891MPD2    C213058   2.133   1.175  17.392  0.2687  0.0419  0.0904
  891MPD2    C313059   2.262   1.196  17.429 -0.1897 -0.0598  0.2929
  891MPD2    C413060   2.359   1.177  17.335 -0.4345  0.1645 -0.0623
  891MPD2    C513061   2.336   1.127  17.215  0.2361  0.6768  0.1659
  891MPD2     H13062   2.059   1.181  17.471  0.1906  0.7353 -0.0341
  891MPD2    H113063   2.462   1.191  17.368 -0.6777 -1.0551  1.2144
  891MPD2    H213064   2.199   1.057  17.076  2.2382 -2.0492  0.2787
  891MPD2    H313065   2.415   1.111  17.143 -0.2659 -2.4228  0.3022
  891MPD2     N13066   2.279   1.234  17.568 -0.4299 -0.2976  0.0931
  891MPD2    H513067   2.192   1.253  17.618 -1.3538 -1.1993 -1.1683
  891MPD2    N113068   1.971   1.100  17.221 -0.4721 -0.2165  0.0315
  891MPD2    H713069   1.953   1.088  17.122 -0.8074 -0.6500  0.1424
  892MPD2     C13070   2.856   1.168  15.035 -0.2778  0.1347  0.7759
  892MPD2    C113071   2.763   1.159  14.935  0.4857 -0.1354  0.2561
  892MPD2    C213072   2.793   1.092  14.817  0.3731  0.1678 -0.4098
  892MPD2    C313073   2.918   1.038  14.795  0.5156  0.5411  0.2518
  892MPD2    C413074   3.014   1.056  14.897 -0.0198 -0.4168  0.0488
  892MPD2    C513075   2.979   1.118  15.012  0.0999 -0.3056  0.6407
  892MPD2     H13076   2.715   1.101  14.742  1.5063  2.9545 -1.2653
  892MPD2    H113077   3.115   1.016  14.886 -0.7902 -2.1448 -0.8462
  892MPD2    H213078   2.852   1.240  15.116 -1.0061  0.8800  0.0763
  892MPD2    H313079   3.061   1.143  15.078 -0.2559  1.7877  0.2937
  892MPD2     N13080   2.965   0.983  14.670  0.4813 -0.5403  0.2237
  892MPD2    H513081   3.056   0.937  14.671  0.1670 -1.1864 -0.8912
  892MPD2    N113082   2.633   1.220  14.934  0.7010 -0.5377 -0.2380
  892MPD2    H713083   2.574   1.208  14.853  1.2739  1.6405 -0.9963
  893MPD2     C13084   3.613   4.345   1.672 -0.0006  0.8018 -0.1702
  893MPD2    C113085   3.727   4.274   1.713 -0.5526  0.2464  0.8040
  893MPD2    C213086   3.714   4.137   1.734  0.6298  0.7979  0.3565
  893MPD2    C313087   3.599   4.067   1.716 -0.0477  0.5458 -0.4887
  893MPD2    C413088   3.486   4.134   1.686  0.2625 -0.0967 -0.6208
  893MPD2    C513089   3.497   4.268   1.663  0.2001  0.2836  0.5464
  893MPD2     H13090   3.804   4.079   1.746  2.1292  3.2960  1.1892
  893MPD2    H113091   3.387   4.094   1.664  0.2367  0.0244 -0.7203
  893MPD2    H213092   3.612   4.452   1.655 -0.8687  0.7739 -0.2800
  893MPD2    H313093   3.410   4.326   1.633 -0.7977 -1.7560 -0.5123
  893MPD2     N13094   3.571   3.931   1.737  0.8479 -0.0538 -0.1923
  893MPD2    H513095   3.482   3.895   1.706  1.3165 -1.1016 -0.3394
  893MPD2    N113096   3.852   4.339   1.716 -0.1998  0.2226 -0.1283
  893MPD2    H713097   3.857   4.431   1.673 -0.8282  0.5228  0.4352
  894MPD2     C13098   2.452   2.258   0.922  0.4986  0.3086  0.6076
  894MPD2    C113099   2.365   2.339   0.990 -0.4241  0.5050 -0.3234
  894MPD2    C213100   2.380   2.474   0.976 -0.8745 -0.3072 -0.2437
  894MPD2    C313101   2.476   2.520   0.893 -0.4635 -0.8349  0.1867
  894MPD2    C413102   2.565   2.435   0.834 -0.4211  0.1916 -0.2675
  894MPD2    C513103   2.548   2.300   0.839  0.2112 -0.2200  0.7432
  894MPD2     H13104   2.302   2.537   1.015  1.7823  1.6127  1.9746
  894MPD2    H113105   2.644   2.469   0.768  0.9340 -1.6048  0.4098
  894MPD2    H213106   2.440   2.151   0.914 -0.3201  0.4785 -0.5388
  894MPD2    H313107   2.615   2.241   0.778  0.0040  0.0035  0.2983
  894MPD2     N13108   2.470   2.660   0.865 -0.8871 -0.4742  0.1649
  894MPD2    H513109   2.389   2.712   0.897 -0.1635  0.0996  1.0609
  894MPD2    N113110   2.270   2.292   1.086 -0.1943 -0.1327 -0.0436
  894MPD2    H713111   2.216   2.365   1.131 -2.0933 -1.4163 -0.2430
  895MPD2     C13112   2.219   0.528  13.497  0.6691 -0.1929  0.3295
  895MPD2    C113113   2.128   0.429  13.451  0.5315  0.5116 -0.1165
  895MPD2    C213114   2.141   0.301  13.497  0.1408 -0.2571  0.2010
  895MPD2    C313115   2.248   0.268  13.584 -0.6762 -0.2917  0.1026
  895MPD2    C413116   2.341   0.366  13.618  0.1864 -0.5184  0.4422
  895MPD2    C513117   2.319   0.497  13.580  0.1361  0.2080 -0.2590
  895MPD2     H13118   2.073   0.229  13.454 -0.2408  0.4051 -0.2890
  895MPD2    H113119   2.427   0.348  13.682  1.3701  0.8345 -0.7513
  895MPD2    H213120   2.201   0.633  13.481  0.7438 -0.4386 -1.3413
  895MPD2    H313121   2.388   0.563  13.631 -0.8035 -0.3572  1.7822
  895MPD2     N13122   2.265   0.126  13.601  0.2282 -0.3792  0.0080
  895MPD2    H513123   2.187   0.066  13.579  0.4303 -0.3400 -0.7893
  895MPD2    N113124   2.014   0.461  13.384 -0.5546 -0.0477  0.3201
  895MPD2    H713125   1.949   0.383  13.379 -1.5908  0.8886 -1.0083
  896MPD2     C13126   3.654   4.217   1.373 -0.1111 -0.5981  0.1413
  896MPD2    C113127   3.662   4.081   1.362 -0.5548  0.1748  0.2344
  896MPD2    C213128   3.541   4.000   1.337 -0.6237  0.4195 -0.4837
  896MPD2    C313129   3.424   4.061   1.320  0.0323  0.1810 -0.2075
  896MPD2    C413130   3.423   4.199   1.309  0.2395 -0.4929 -0.0317
  896MPD2    C513131   3.535   4.274   1.344 -0.7592  0.3784  0.8171
  896MPD2     H13132   3.540   3.894   1.316  0.8194 -0.0984  2.0034
  896MPD2    H113133   3.330   4.253   1.299  0.4973  0.0184  0.3020
  896MPD2    H213134   3.737   4.279   1.405  0.2646 -1.3639  0.6330
  896MPD2    H313135   3.535   4.382   1.336 -1.0149  0.3680  0.6762
  896MPD2     N13136   3.312   3.971   1.293 -0.3070  0.0625 -0.1355
  896MPD2    H513137   3.339   3.873   1.291  0.2159  0.2339 -1.5857
  896MPD2    N113138   3.786   4.021   1.371 -0.1235  0.5580  0.4170
  896MPD2    H713139   3.861   4.088   1.389 -0.7299  1.5663 -0.7674
  897MPD2     C13140   1.401   4.013  10.317  0.0705 -0.5252  0.7905
  897MPD2    C113141   1.447   4.126  10.385  0.2470  0.5444  0.2277
  897MPD2    C213142   1.361   4.210  10.437 -0.0894  0.1474  0.5418
  897MPD2    C313143   1.221   4.181  10.419 -0.2756  0.5346 -0.1641
  897MPD2    C413144   1.173   4.065  10.362  0.0261 -0.7098  0.0420
  897MPD2    C513145   1.266   3.980  10.312 -0.7228 -0.0738 -0.1380
  897MPD2     H13146   1.393   4.309  10.466  2.1284 -0.0084 -1.3960
  897MPD2    H113147   1.069   4.038  10.355 -0.5133  1.9354 -2.1853
  897MPD2    H213148   1.461   3.936  10.271 -2.4568 -3.5818  2.5835
  897MPD2    H313149   1.237   3.893  10.254 -1.8727  0.0235  0.2825
  897MPD2     N13150   1.140   4.281  10.477  0.0052 -0.0425  0.0948
  897MPD2    H513151   1.185   4.356  10.528  0.6389 -1.0121  0.9754
  897MPD2    N113152   1.580   4.173  10.392  0.8926 -0.3914 -0.1013
  897MPD2    H713153   1.601   4.259  10.441  0.8427  0.3732 -1.4182
  898MPD2     C13154   2.920   1.172  17.636  0.0405  0.1966  0.0946
  898MPD2    C113155   2.971   1.173   0.060 -0.6890  0.2667  0.5585
  898MPD2    C213156   2.919   1.258   0.155  0.1615  0.1664  0.1091
  898MPD2    C313157   2.834   1.360   0.112 -0.3496  0.6715  0.1646
  898MPD2    C413158   2.787   1.358  17.688  0.3541 -0.2111  0.4524
  898MPD2    C513159   2.828   1.269  17.599 -0.2463  0.6338  0.5657
  898MPD2     H13160   2.955   1.260   0.257 -0.6279  0.1483  0.3913
  898MPD2    H113161   2.702   1.420  17.661  2.1759  2.6922  1.2876
  898MPD2    H213162   2.947   1.095  17.566  2.5514  1.7977 -0.7284
  898MPD2    H313163   2.778   1.265  17.503  0.4803 -0.0820  0.2230
  898MPD2     N13164   2.801   1.462   0.208 -0.2909 -0.0403  0.2917
  898MPD2    H513165   2.832   1.441   0.302 -0.0094  1.9234  0.6292
  898MPD2    N113166   3.077   1.078   0.091 -0.1938 -0.0791  0.4582
  898MPD2    H713167   3.095   1.064   0.190 -1.6324  1.1935  0.9119
  899MPD2     C13168   3.219   1.511  17.406 -0.3693 -0.1601  0.0337
  899MPD2    C113169   3.219   1.632  17.475  0.7646  0.0977 -0.3715
  899MPD2    C213170   3.211   1.625  17.615  0.6541 -0.3183  0.4825
  899MPD2    C313171   3.193   1.510  17.692 -0.3435  0.3609 -0.2130
  899MPD2    C413172   3.195   1.389  17.621  0.4423 -0.0103 -0.1616
  899MPD2    C513173   3.207   1.394  17.480 -0.5715  0.6424 -0.0906
  899MPD2     H13174   3.226   1.722  17.662 -0.7034  0.1686 -0.0877
  899MPD2    H113175   3.176   1.293  17.668  0.1789 -0.0850 -0.4226
  899MPD2    H213176   3.221   1.513  17.298  2.0036  0.2947  0.0966
  899MPD2    H313177   3.212   1.301  17.426  1.5204  1.0324 -0.5713
  899MPD2     N13178   3.172   1.500   0.126 -0.3268 -0.0858 -0.0283
  899MPD2    H513179   3.166   1.403   0.157 -4.5787  1.0371  2.7500
  899MPD2    N113180   3.220   1.753  17.402 -0.2410 -0.5975 -0.4848
  899MPD2    H713181   3.197   1.742  17.303  1.5500 -0.6010 -0.8960
  900MPD2     C13182   3.331   3.071  12.243 -0.5821  0.2365 -0.4478
  900MPD2    C113183   3.285   2.980  12.151  0.4973 -0.7225  0.0507
  900MPD2    C213184   3.194   3.024  12.053  0.1400 -0.2306 -0.3761
  900MPD2    C313185   3.134   3.153  12.060  0.0751 -0.3794  0.1004
  900MPD2    C413186   3.189   3.242  12.151 -0.1464 -0.2595 -0.4370
  900MPD2    C513187   3.290   3.199  12.238 -0.6312  0.1934  0.2944
  900MPD2     H13188   3.160   2.947  11.985 -1.4173  1.1725 -1.1703
  900MPD2    H113189   3.160   3.346  12.153 -0.2039 -0.2638 -1.0236
  900MPD2    H213190   3.401   3.041  12.320  0.3416  2.2902 -0.4954
  900MPD2    H313191   3.326   3.281  12.300  0.0044  0.4430 -0.4025
  900MPD2     N13192   3.037   3.185  11.964 -0.3877  0.3410  0.2492
  900MPD2    H513193   3.000   3.123  11.893 -2.1427  1.2362  0.3950
  900MPD2    N113194   3.328   2.848  12.162  0.1629 -0.5874 -0.1589
  900MPD2    H713195   3.408   2.835  12.223 -0.1871  0.6504  0.5666
  901MPD2     C13196   2.927   1.927  12.575 -0.2468  0.7477 -0.3530
  901MPD2    C113197   3.068   1.919  12.586  0.0023  0.4261  0.3989
  901MPD2    C213198   3.155   2.019  12.543 -0.3906 -0.5428 -0.0105
  901MPD2    C313199   3.093   2.133  12.498  0.5716  0.0154 -0.3248
  901MPD2    C413200   2.954   2.150  12.490  0.4623 -0.0359 -0.3976
  901MPD2    C513201   2.872   2.045  12.527  0.0898  0.0711 -0.3291
  901MPD2     H13202   3.262   2.022  12.555 -0.3714  3.0865 -0.9944
  901MPD2    H113203   2.906   2.240  12.453 -0.1918 -0.1552  0.1814
  901MPD2    H213204   2.857   1.845  12.581  0.8112 -0.1972 -0.7320
  901MPD2    H313205   2.767   2.041  12.498 -0.0725  2.5051 -0.0386
  901MPD2     N13206   3.186   2.226  12.441 -0.0186  0.5772  0.1210
  901MPD2    H513207   3.285   2.204  12.439 -0.4590 -1.1749 -2.3648
  901MPD2    N113208   3.111   1.785  12.610  0.0211  0.0436  0.2768
  901MPD2    H713209   3.043   1.710  12.606  0.8014 -0.6241 -0.3887
  902MPD2     C13210   1.928   0.755  12.893 -0.0970  0.8729 -0.7987
  902MPD2    C113211   1.946   0.828  12.770  0.6990  0.0374  0.6601
  902MPD2    C213212   1.996   0.762  12.659 -0.0697 -0.4951 -0.3611
  902MPD2    C313213   2.033   0.628  12.674 -0.4950  0.1204 -0.7005
  902MPD2    C413214   2.006   0.561  12.796 -0.6272  0.6032  0.2631
  902MPD2    C513215   1.954   0.623  12.899 -0.3728  0.1553  1.0250
  902MPD2     H13216   2.000   0.803  12.559  1.1312  0.2450 -0.0054
  902MPD2    H113217   2.039   0.458  12.804  1.5193  1.2552 -0.1756
  902MPD2    H213218   1.895   0.805  12.984 -3.7505 -1.4449 -0.8329
  902MPD2    H313219   1.950   0.581  12.999  0.9804  0.5264  1.2391
  902MPD2     N13220   2.091   0.557  12.575  0.1929 -0.0204 -0.5281
  902MPD2    H513221   2.117   0.461  12.596 -3.2786 -0.8563 -0.0065
  902MPD2    N113222   1.902   0.961  12.750 -0.1092 -0.2184 -0.5483
  902MPD2    H713223   1.909   1.001  12.657 -1.5108  1.5083  0.0925
  903MPD2     C13224   2.458   0.664  11.817 -0.4523  0.7025  0.0583
  903MPD2    C113225   2.361   0.577  11.855 -0.2287  0.1154 -0.4994
  903MPD2    C213226   2.274   0.542  11.754 -0.0625 -0.1420 -0.3745
  903MPD2    C313227   2.277   0.582  11.622  0.2096  0.6180  0.2013
  903MPD2    C413228   2.377   0.673  11.588 -0.0307  0.8402  1.0306
  903MPD2    C513229   2.463   0.727  11.686 -1.0392 -0.6259 -0.1288
  903MPD2     H13230   2.188   0.480  11.774  0.2912 -0.7572 -0.7525
  903MPD2    H113231   2.379   0.710  11.487  0.0457 -1.7263  0.0997
  903MPD2    H213232   2.533   0.691  11.890  1.3076  0.8689 -1.8007
  903MPD2    H313233   2.546   0.790  11.658 -1.1822 -0.7758 -0.8775
  903MPD2     N13234   2.166   0.546  11.534 -0.4721  0.3935  0.0651
  903MPD2    H513235   2.086   0.500  11.575  0.5400 -0.8431  0.6610
  903MPD2    N113236   2.351   0.546  11.989  0.0362 -0.9311  0.2141
  903MPD2    H713237   2.413   0.594  12.054  2.1860 -0.4765 -2.1905
  904MPD2     C13238   1.871   4.398  13.758  0.1280 -1.1667  0.2742
  904MPD2    C113239   1.861   4.368  13.896 -0.2104 -0.4941 -0.2158
  904MPD2    C213240   1.944   4.436  13.984 -0.2753  0.2539 -0.3334
  904MPD2    C313241   2.011   4.546  13.942 -0.1253  0.0786  0.0024
  904MPD2    C413242   1.998   4.592  13.810 -0.2126  0.9140 -0.2346
  904MPD2    C513243   1.937   4.512  13.721 -0.0801  0.2277 -0.6106
  904MPD2     H13244   1.953   4.409  14.089  0.0564  1.7905  0.0299
  904MPD2    H113245   2.043   4.681  13.768  0.5279  0.1902 -0.9578
  904MPD2    H213246   1.835   4.336  13.677  0.2575  0.1204 -0.7622
  904MPD2    H313247   1.938   4.543  13.617  2.1758  1.0578 -0.3470
  904MPD2     N13248   2.099   4.609  14.036 -0.2340  0.1795  0.2216
  904MPD2    H513249   2.113   4.564  14.126  0.6575 -0.3275 -0.1636
  904MPD2    N113250   1.766   4.266  13.944  0.4648  0.4492  0.5633
  904MPD2    H713251   1.780   4.229  14.038  0.6930  0.7628  0.6537
  905MPD2     C13252   1.884   3.977  13.450 -0.3404  0.3278 -0.2736
  905MPD2    C113253   1.858   4.116  13.447 -0.5194  0.3306 -0.2743
  905MPD2    C213254   1.958   4.204  13.468 -0.2483 -0.2681  0.6411
  905MPD2    C313255   2.085   4.157  13.483  0.0422 -0.2115 -0.3087
  905MPD2    C413256   2.107   4.019  13.485  0.4676 -0.2033  0.3837
  905MPD2    C513257   2.013   3.928  13.466  0.1114  0.3470  0.5761
  905MPD2     H13258   1.941   4.310  13.476  0.2607 -0.3200  2.4457
  905MPD2    H113259   2.204   3.977  13.507  0.1517 -1.0467  0.1870
  905MPD2    H213260   1.799   3.913  13.432  0.6475 -0.6082 -1.5570
  905MPD2    H313261   2.028   3.820  13.464 -2.4572 -0.0063  0.5563
  905MPD2     N13262   2.197   4.240  13.504  0.3510  0.3195  0.3112
  905MPD2    H513263   2.280   4.200  13.545  0.0194 -1.4249 -0.6889
  905MPD2    N113264   1.725   4.158  13.442  0.3586 -0.7122  0.5748
  905MPD2    H713265   1.651   4.090  13.449 -1.1855  1.1998  2.9643
  906MPD2     C13266   0.081   0.105  11.200  0.0501  0.1187 -0.2561
  906MPD2    C113267   0.098   0.002  11.110  0.1550 -0.3337  0.9393
  906MPD2    C213268   0.112   4.602  11.166 -0.2426 -0.3429  0.3722
  906MPD2    C313269   0.075   4.579  11.300 -0.5392  0.2789 -0.0834
  906MPD2    C413270   0.046   4.687  11.378 -0.3730  0.4235 -0.6050
  906MPD2    C513271   0.055   0.083  11.328 -0.7023 -0.2175  0.5303
  906MPD2     H13272   0.145   4.516  11.108  0.8449  2.3999 -3.0902
  906MPD2    H113273   0.023   4.676  11.483  0.2503  0.0336 -0.5106
  906MPD2    H213274   0.074   0.205  11.158 -0.6702  1.0284  2.0250
  906MPD2    H313275   0.015   0.166  11.386  0.8510 -1.2265  3.0780
  906MPD2     N13276   0.073   4.448  11.353  0.2708 -0.4591  0.2170
  906MPD2    H513277   0.038   4.449  11.448  1.4743  1.7955  0.6364
  906MPD2    N113278   0.096   0.014  10.968  0.1730 -0.7034 -0.0059
  906MPD2    H713279   0.087   4.653  10.917 -0.2623 -1.9806  2.2513
  907MPD2     C13280   2.864   4.304  15.962  0.0566  0.1504  0.0848
  907MPD2    C113281   2.902   4.175  15.931  0.6204  0.3363  0.8095
  907MPD2    C213282   3.013   4.130  15.994 -0.0417  0.5876 -0.1385
  907MPD2    C313283   3.097   4.207  16.084  0.4608 -0.5738  0.4731
  907MPD2    C413284   3.064   4.340  16.087  0.0075 -0.2917  0.3031
  907MPD2    C513285   2.944   4.382  16.039  0.7593  0.3534 -0.1666
  907MPD2     H13286   3.048   4.030  15.970 -0.6280  0.9148 -2.2782
  907MPD2    H113287   3.127   4.413  16.137 -1.2393  0.2796  1.0315
  907MPD2    H213288   2.778   4.353  15.917  0.4282  2.0667  1.4705
  907MPD2    H313289   2.911   4.484  16.050  0.9876  0.7401 -3.1063
  907MPD2     N13290   3.201   4.143  16.155 -0.3447  0.0087  0.7742
  907MPD2    H513291   3.206   4.041  16.154 -0.8061 -0.0370  2.6725
  907MPD2    N113292   2.849   4.105  15.817  0.5441  0.4496 -0.1929
  907MPD2    H713293   2.891   4.018  15.787  1.0135  0.2845  0.9545
  908MPD2     C13294   1.841   4.307   9.509  0.4534 -0.2297  0.4874
  908MPD2    C113295   1.735   4.258   9.586  0.4783 -0.5945  0.0362
  908MPD2    C213296   1.748   4.246   9.721 -0.1613  0.1266  0.2498
  908MPD2    C313297   1.864   4.289   9.783 -0.5642  0.0257 -1.0235
  908MPD2    C413298   1.958   4.340   9.705 -0.0304 -0.3601 -0.0578
  908MPD2    C513299   1.955   4.343   9.569 -0.5668 -0.3442 -0.0779
  908MPD2     H13300   1.667   4.210   9.784 -0.1306 -0.5143 -0.0842
  908MPD2    H113301   2.048   4.388   9.740 -1.9584  3.4319 -0.2588
  908MPD2    H213302   1.821   4.314   9.403 -0.9224  1.2307  0.8386
  908MPD2    H313303   2.038   4.385   9.513 -2.0767 -1.5029 -3.1282
  908MPD2     N13304   1.865   4.282   9.921  0.3940 -0.4742  0.4733
  908MPD2    H513305   1.795   4.227   9.970 -1.3730  0.6708 -0.8149
  908MPD2    N113306   1.609   4.227   9.534  0.3652  0.0139 -0.2299
  908MPD2    H713307   1.546   4.180   9.597 -0.2654 -1.1077 -1.7044
  909MPD2     C13308   1.321   2.213  11.521  0.8814 -0.0790 -0.0964
  909MPD2    C113309   1.350   2.337  11.476 -0.8498 -0.5213  0.1366
  909MPD2    C213310   1.320   2.446  11.557  1.1594  0.0407 -0.1949
  909MPD2    C313311   1.265   2.430  11.680 -0.2334 -0.7787  0.3563
  909MPD2    C413312   1.237   2.302  11.722 -0.0630 -0.5190  0.1341
  909MPD2    C513313   1.260   2.195  11.639 -0.5329 -0.3716  0.4143
  909MPD2     H13314   1.316   2.549  11.522  0.4018  0.4094  0.9738
  909MPD2    H113315   1.207   2.275  11.823 -1.7796 -0.3697 -0.3259
  909MPD2    H213316   1.344   2.126  11.462  2.7242  1.5863 -1.8307
  909MPD2    H313317   1.235   2.096  11.676  2.6262 -0.6908  1.6939
  909MPD2     N13318   1.224   2.553  11.737  0.2723 -1.3745 -0.5703
  909MPD2    H513319   1.247   2.640  11.691  0.0986 -0.9246  0.2060
  909MPD2    N113320   1.407   2.362  11.351 -0.0380  0.4845 -0.4721
  909MPD2    H713321   1.422   2.460  11.332 -2.4647  1.0739  0.6755
  910MPD2     C13322   2.133   0.097  16.166 -0.6123  0.2223 -0.1629
  910MPD2    C113323   2.181   0.009  16.073 -0.0157  0.2647  0.7851
  910MPD2    C213324   2.134   0.022  15.937 -1.0797 -0.0309 -0.1459
  910MPD2    C313325   2.034   0.117  15.903 -0.1953  0.6854 -0.4675
  910MPD2    C413326   1.987   0.199  16.005  0.1777  0.6401  0.3858
  910MPD2    C513327   2.042   0.191  16.129 -0.0368 -0.4510  0.1249
  910MPD2     H13328   2.172   4.680  15.861  2.0169 -0.6067  1.9182
  910MPD2    H113329   1.901   0.262  15.984 -1.1332 -1.0560  0.6499
  910MPD2    H213330   2.146   0.089  16.273 -0.5475  0.1770 -0.1744
  910MPD2    H313331   2.004   0.254  16.209  0.8835 -1.6638  1.5084
  910MPD2     N13332   1.983   0.140  15.773 -0.3942 -0.2484 -0.0109
  910MPD2    H513333   1.931   0.223  15.749 -2.4006 -1.6985 -0.6751
  910MPD2    N113334   2.285   4.643  16.108 -0.1025  0.1348 -0.1115
  910MPD2    H713335   2.314   4.580  16.034  0.1722  0.3517 -0.1869
  911MPD2     C13336   0.197   0.628  16.708  0.8491 -0.6980 -0.3132
  911MPD2    C113337   0.283   0.735  16.688 -0.0106 -0.0362  0.3257
  911MPD2    C213338   0.230   0.853  16.628 -0.4049 -0.1901  0.6705
  911MPD2    C313339   0.087   0.858  16.609 -0.2390 -0.2776  0.0548
  911MPD2    C413340   0.008   0.757  16.644  0.1304  0.2474 -0.3913
  911MPD2    C513341   0.064   0.633  16.675 -0.3858 -0.2830 -0.0650
  911MPD2     H13342   0.288   0.941  16.602  0.1238 -0.7174  0.0511
  911MPD2    H113343   4.627   0.775  16.635  0.3285  2.1538  1.2179
  911MPD2    H213344   0.229   0.529  16.739  1.0116  0.0127  1.7892
  911MPD2    H313345   0.004   0.546  16.698 -0.6103  0.1109  0.8398
  911MPD2     N13346   0.019   0.971  16.550  0.4242 -0.0652 -1.1387
  911MPD2    H513347   4.646   0.961  16.531  0.8948 -1.1659 -3.0172
  911MPD2    N113348   0.420   0.710  16.710 -0.1363  0.0072 -0.2731
  911MPD2    H713349   0.439   0.613  16.733 -2.3653 -0.0245  1.4752
  912MPD2     C13350   4.300   0.606  16.266 -0.0542 -0.0288  0.1345
  912MPD2    C113351   4.349   0.705  16.347  0.4251  0.0691  0.0507
  912MPD2    C213352   4.346   0.676  16.481  0.1181  0.1154 -0.2870
  912MPD2    C313353   4.302   0.555  16.533  0.0212 -0.0424 -0.9210
  912MPD2    C413354   4.257   0.458  16.450 -0.8337 -0.3334 -0.2916
  912MPD2    C513355   4.259   0.482  16.317  0.7986  0.7329 -0.1524
  912MPD2     H13356   4.365   0.750  16.558  2.4337  0.8071 -1.5277
  912MPD2    H113357   4.215   0.364  16.483  0.7575 -0.6463  0.8369
  912MPD2    H213358   4.309   0.628  16.161 -2.1297 -0.7568 -0.1845
  912MPD2    H313359   4.215   0.414  16.245 -0.8806  0.2379  1.3220
  912MPD2     N13360   4.309   0.548  16.675  0.2424  0.2434 -0.8672
  912MPD2    H513361   4.349   0.631  16.718  1.5625 -0.7247 -0.2094
  912MPD2    N113362   4.406   0.823  16.290 -0.3048 -0.4774  0.1760
  912MPD2    H713363   4.401   0.825  16.188  1.2065  1.1017  0.1412
  913MPD2     C13364   1.164   1.139  10.001 -0.7729  0.4015  0.0003
  913MPD2    C113365   1.225   1.260  10.037  0.4721  0.7188 -0.1523
  913MPD2    C213366   1.176   1.372   9.963 -0.3256 -0.8572 -0.5803
  913MPD2    C313367   1.089   1.360   9.855 -0.5253  0.6188 -0.7499
  913MPD2    C413368   1.040   1.238   9.818  0.2745  0.0495  0.4321
  913MPD2    C513369   1.081   1.130   9.886 -0.1005  0.1895 -0.4717
  913MPD2     H13370   1.222   1.467   9.986 -0.6616 -0.9599  0.5117
  913MPD2    H113371   0.969   1.240   9.737  1.6342 -1.5698 -0.8080
  913MPD2    H213372   1.177   1.046  10.056  0.5335 -1.4173 -3.3544
  913MPD2    H313373   1.035   1.041   9.845  0.0164  0.5875 -1.4728
  913MPD2     N13374   1.030   1.470   9.791 -0.0812  0.6011  0.3531
  913MPD2    H513375   0.943   1.453   9.740 -0.5206 -0.3558  1.4302
  913MPD2    N113376   1.317   1.275  10.140  0.0407 -0.0383  0.3948
  913MPD2    H713377   1.344   1.186  10.180 -0.7773  0.0292  1.0964
  914MPD2     C13378   3.354   1.334  11.939  0.0536  0.0780  0.1159
  914MPD2    C113379   3.350   1.462  11.995  0.3458 -0.5694 -0.4623
  914MPD2    C213380   3.309   1.487  12.124  0.3380  0.1810  0.0168
  914MPD2    C313381   3.288   1.378  12.204  0.0985  0.3055  0.0175
  914MPD2    C413382   3.308   1.246  12.154  0.0091  0.1159  0.3719
  914MPD2    C513383   3.327   1.228  12.021 -0.1431  0.2765 -0.2489
  914MPD2     H13384   3.303   1.580  12.179  1.3806  0.5725 -0.5585
  914MPD2    H113385   3.295   1.160  12.219 -0.8233 -0.3362 -0.3831
  914MPD2    H213386   3.367   1.312  11.834  0.9537 -1.4102  0.5425
  914MPD2    H313387   3.315   1.128  11.980  0.6824  0.3642 -0.6948
  914MPD2     N13388   3.225   1.407  12.327  0.3999 -0.2400 -0.4490
  914MPD2    H513389   3.218   1.505  12.352 -1.2335  0.0134 -1.8655
  914MPD2    N113390   3.387   1.569  11.917 -0.1746  0.2173  0.7337
  914MPD2    H713391   3.411   1.544  11.821 -0.6320  1.4001  0.3087
  915MPD2     C13392   0.999   1.658  16.046  0.0154  0.1235  0.3507
  915MPD2    C113393   0.987   1.763  15.961 -0.1608 -0.0079 -0.0517
  915MPD2    C213394   0.934   1.880  16.012 -0.1354  0.2714 -0.5732
  915MPD2    C313395   0.900   1.894  16.143 -0.1643  0.4407  0.2867
  915MPD2    C413396   0.923   1.792  16.227  0.5573 -0.1356  0.4468
  915MPD2    C513397   0.974   1.676  16.181  0.8234 -0.1854 -0.3971
  915MPD2     H13398   0.914   1.960  15.942 -2.5570  0.8094  0.7452
  915MPD2    H113399   0.905   1.795  16.334  0.2715  0.4976  0.3805
  915MPD2    H213400   1.031   1.561  16.009 -1.6750 -0.7250  1.1567
  915MPD2    H313401   0.994   1.593  16.249 -0.3533  1.7078  2.2464
  915MPD2     N13402   0.844   2.017  16.189 -0.0989 -0.4955 -0.1819
  915MPD2    H513403   0.860   2.096  16.129 -1.6043  0.4635  0.6809
  915MPD2    N113404   1.016   1.737  15.823  0.5600  0.1381  0.0476
  915MPD2    H713405   1.041   1.641  15.803  2.3678  0.3752  1.0960
  916MPD2     C13406   4.093   0.422  15.980  0.3597 -1.1229  0.1689
  916MPD2    C113407   4.021   0.361  16.079  0.2556  0.0696  0.1881
  916MPD2    C213408   4.051   0.225  16.099  0.3223 -0.2347 -0.2901
  916MPD2    C313409   4.120   0.155  16.002 -0.1006 -0.7773 -0.5130
  916MPD2    C413410   4.181   0.218  15.900 -0.3411 -0.3351 -0.7596
  916MPD2    C513411   4.181   0.353  15.898  0.1052  0.0440  0.7593
  916MPD2     H13412   4.015   0.177  16.190  1.4378 -0.7566 -0.1238
  916MPD2    H113413   4.252   0.169  15.835 -1.1515 -1.2621 -0.9417
  916MPD2    H213414   4.075   0.528  15.966  0.3172 -0.9010  1.8936
  916MPD2    H313415   4.239   0.413  15.829  3.8286 -2.5812  1.6129
  916MPD2     N13416   4.133   0.014  16.020  0.1002 -0.2946  0.3744
  916MPD2    H513417   4.105   4.701  16.109 -0.5715 -0.5540  0.0528
  916MPD2    N113418   3.949   0.438  16.173  0.7599 -0.3605 -0.3048
  916MPD2    H713419   3.963   0.538  16.174  1.7880 -0.4963 -1.0621
  917MPD2     C13420   0.406   1.990  10.779 -0.3528  0.3690 -0.2857
  917MPD2    C113421   0.387   2.086  10.872  0.6163  0.2504 -0.2846
  917MPD2    C213422   0.418   2.219  10.841 -0.1335 -0.4358  0.7407
  917MPD2    C313423   0.453   2.254  10.710 -0.1404  0.2942 -0.9848
  917MPD2    C413424   0.470   2.153  10.618 -0.3497 -0.1117 -0.4098
  917MPD2    C513425   0.454   2.022  10.652  0.3820 -0.3260  0.5120
  917MPD2     H13426   0.413   2.307  10.905 -1.7425 -0.1245  0.1948
  917MPD2    H113427   0.509   2.169  10.518 -0.5617 -0.0157 -0.4778
  917MPD2    H213428   0.383   1.886  10.799 -1.6441  0.8153  0.5269
  917MPD2    H313429   0.472   1.939  10.584  0.5261  1.1514 -1.2486
  917MPD2     N13430   0.491   2.384  10.668  0.0336 -0.6038 -0.1350
  917MPD2    H513431   0.523   2.389  10.572  2.6831 -1.7203  0.6965
  917MPD2    N113432   0.342   2.039  10.999  0.2405  0.4897 -0.0590
  917MPD2    H713433   0.320   1.940  11.005 -1.4801  0.9252  1.0460
  918MPD2     C13434   4.632   2.263  11.969  0.5733 -0.2329 -0.2094
  918MPD2    C113435   0.025   2.205  11.997  0.3263 -0.3575 -0.5288
  918MPD2    C213436   0.111   2.180  11.892  0.4411 -0.6429  0.6075
  918MPD2    C313437   0.079   2.216  11.768  0.2561  0.6276 -0.4115
  918MPD2    C413438   4.679   2.269  11.742  0.7940 -0.4710 -0.2654
  918MPD2    C513439   4.589   2.290  11.846 -0.0305  0.0666 -0.2025
  918MPD2     H13440   0.211   2.149  11.920  0.9775 -0.2469 -0.8872
  918MPD2    H113441   4.645   2.313  11.649 -2.3520  0.3169  1.2440
  918MPD2    H213442   4.564   2.288  12.050  0.5135  0.5869 -0.5143
  918MPD2    H313443   4.493   2.337  11.832 -0.8381 -1.6114 -0.3201
  918MPD2     N13444   0.170   2.187  11.660  0.1800 -0.5902 -0.1324
  918MPD2    H513445   0.252   2.134  11.685 -0.1528 -0.7621  0.5927
  918MPD2    N113446   0.071   2.171  12.127  0.5518  0.2987 -0.3981
  918MPD2    H713447   0.164   2.130  12.134  0.3874  0.5554  3.2399
  919MPD2     C13448   0.706   1.102  11.571 -0.1321  0.0754 -0.3882
  919MPD2    C113449   0.812   1.017  11.591  0.2127 -0.5435  0.2885
  919MPD2    C213450   0.898   0.989  11.481  0.0426  0.4978  0.1683
  919MPD2    C313451   0.870   1.032  11.357  0.0858  0.0267  0.0602
  919MPD2    C413452   0.763   1.113  11.335 -0.0231 -0.5560 -0.0853
  919MPD2    C513453   0.686   1.151  11.445  0.2873 -0.0831 -0.4672
  919MPD2     H13454   0.998   0.954  11.503  1.2557  2.4128 -2.3231
  919MPD2    H113455   0.748   1.155  11.237  1.7632  1.4269  0.4870
  919MPD2    H213456   0.641   1.125  11.655 -0.1611 -1.1025 -0.0970
  919MPD2    H313457   0.595   1.203  11.418 -0.7452 -1.1124  1.0547
  919MPD2     N13458   0.950   1.002  11.251 -0.4637  0.3117 -0.6404
  919MPD2    H513459   0.924   1.040  11.161  2.8186  1.9616 -0.9032
  919MPD2    N113460   0.838   0.970  11.722  1.0290  1.2286  0.6462
  919MPD2    H713461   0.790   1.012  11.801  0.1164 -0.7675  1.1626
  920MPD2     C13462   1.082   1.318  10.360  0.2125 -0.4250  0.1623
  920MPD2    C113463   1.014   1.202  10.358 -0.2498  0.0481 -0.0125
  920MPD2    C213464   1.033   1.112  10.460  0.1365 -0.3935 -0.3439
  920MPD2    C313465   1.106   1.147  10.567 -0.4217  0.4436  0.8035
  920MPD2    C413466   1.166   1.267  10.572 -0.1205 -0.1735 -0.2424
  920MPD2    C513467   1.155   1.353  10.464  0.4726 -0.5880 -0.9992
  920MPD2     H13468   0.979   1.019  10.449 -1.4714  0.3498  1.0916
  920MPD2    H113469   1.229   1.303  10.653 -1.8792 -0.0640  1.0855
  920MPD2    H213470   1.078   1.397  10.285  2.0566  0.3929  0.9185
  920MPD2    H313471   1.212   1.445  10.463 -0.1509 -0.1986 -1.0693
  920MPD2     N13472   1.114   1.056  10.669  0.3698  0.2648  0.4227
  920MPD2    H513473   1.084   0.962  10.642  0.1658  0.6082 -0.5366
  920MPD2    N113474   0.923   1.171  10.260  0.1351 -0.6591  0.3418
  920MPD2    H713475   0.897   1.073  10.260  0.4826 -0.7511  0.8149
  921MPD2     C13476   1.078   1.151  17.325 -0.1272 -1.0713  0.2236
  921MPD2    C113477   1.143   1.120  17.210  0.0767 -0.1448  0.8865
  921MPD2    C213478   1.072   1.075  17.106  0.0258 -0.0749  0.5694
  921MPD2    C313479   0.938   1.050  17.110  0.3789  0.8969  0.2371
  921MPD2    C413480   0.874   1.089  17.225 -0.3773  0.1657 -0.2396
  921MPD2    C513481   0.945   1.143  17.331 -0.2045  0.1911  0.4555
  921MPD2     H13482   1.130   1.048  17.019 -0.4155  0.1712  0.1998
  921MPD2    H113483   0.767   1.080  17.238 -0.1116 -0.6660  1.4074
  921MPD2    H213484   1.139   1.170  17.413 -0.1412  1.0960 -0.2302
  921MPD2    H313485   0.890   1.164  17.422 -1.0349  1.8255 -0.4162
  921MPD2     N13486   0.874   0.975  17.011  0.6576 -0.2560  0.4119
  921MPD2    H513487   0.774   0.970  17.025  1.0588  2.0816  4.2197
  921MPD2    N113488   1.281   1.129  17.190  0.4343  0.3384 -0.2294
  921MPD2    H713489   1.305   1.101  17.095 -1.0844 -1.7664  0.0395
  922MPD2     C13490   1.830   2.603   0.358  0.7845  0.3514 -0.1648
  922MPD2    C113491   1.828   2.627   0.220 -0.1484 -0.1801 -0.4741
  922MPD2    C213492   1.774   2.740   0.165 -0.0021 -0.0845  0.3808
  922MPD2    C313493   1.710   2.835   0.245 -0.0663 -0.2147  0.2279
  922MPD2    C413494   1.702   2.811   0.384  0.1215  0.0419 -0.2705
  922MPD2    C513495   1.766   2.698   0.436 -0.0081  0.4876 -0.5043
  922MPD2     H13496   1.778   2.756   0.058 -0.0000 -1.3091  0.2001
  922MPD2    H113497   1.641   2.878   0.445 -1.0760 -1.0339 -0.2888
  922MPD2    H213498   1.881   2.516   0.399  0.5634  1.5207  2.5741
  922MPD2    H313499   1.755   2.688   0.543  1.5488  0.0071 -0.3887
  922MPD2     N13500   1.648   2.943   0.179 -0.5471 -0.7856  0.4371
  922MPD2    H513501   1.646   2.940   0.078 -0.7872  2.2968  0.3405
  922MPD2    N113502   1.899   2.542   0.135 -0.8727  0.0260 -0.1607
  922MPD2    H713503   1.917   2.582   0.043 -0.2401  0.4112  0.1266
  923MPD2     C13504   3.718   4.295   8.437  0.5352  0.3654 -0.0462
  923MPD2    C113505   3.725   4.320   8.573 -0.0863  0.7928 -0.0882
  923MPD2    C213506   3.848   4.333   8.629  0.4231  0.0805  0.2597
  923MPD2    C313507   3.966   4.331   8.556  0.3775 -0.3118 -0.6288
  923MPD2    C413508   3.958   4.318   8.419 -0.9812  0.1213 -1.2644
  923MPD2    C513509   3.830   4.311   8.360 -0.3606  0.1176 -0.0401
  923MPD2     H13510   3.853   4.338   8.737 -0.1893 -1.1312  0.3367
  923MPD2    H113511   4.046   4.323   8.357  0.1842  0.1087  0.4076
  923MPD2    H213512   3.624   4.283   8.384  0.6322  1.4038 -0.4394
  923MPD2    H313513   3.819   4.292   8.254  0.1652 -0.3955 -0.0049
  923MPD2     N13514   4.090   4.352   8.622 -0.0842  0.3449  0.1621
  923MPD2    H513515   4.160   4.403   8.569  1.0781 -2.1313 -0.6408
  923MPD2    N113516   3.612   4.360   8.648  0.3188  0.2597 -0.0372
  923MPD2    H713517   3.524   4.335   8.603 -0.5410  1.1631  1.1440
  924MPD2     C13518   3.261   3.633  15.811  0.2215 -0.4442 -0.0014
  924MPD2    C113519   3.301   3.581  15.932 -0.1588  0.2949 -0.7236
  924MPD2    C213520   3.403   3.643  16.000 -0.3163  0.3420  0.4840
  924MPD2    C313521   3.459   3.757  15.950  0.0738  0.1539  0.2621
  924MPD2    C413522   3.431   3.806  15.823 -0.4632  0.3143 -0.2346
  924MPD2    C513523   3.341   3.729  15.747  0.1582  0.2620  0.8932
  924MPD2     H13524   3.442   3.593  16.088  0.4338  0.2675  0.1126
  924MPD2    H113525   3.478   3.894  15.780 -0.7980  0.0942 -1.0617
  924MPD2    H213526   3.177   3.593  15.754 -1.1289  2.1586  0.1521
  924MPD2    H313527   3.329   3.755  15.643  1.3320  2.2602  1.2623
  924MPD2     N13528   3.527   3.845  16.039 -0.0481 -0.4105 -0.4744
  924MPD2    H513529   3.556   3.936  16.004  1.0195  0.0041  1.4809
  924MPD2    N113530   3.224   3.476  15.980 -0.3255 -0.4014  1.3392
  924MPD2    H713531   3.159   3.436  15.913 -0.5968 -0.1542  1.4536
  925MPD2     C13532   1.476   0.448  14.813  0.8384  0.0802  0.2780
  925MPD2    C113533   1.430   0.582  14.808 -0.3063 -0.8318 -0.2719
  925MPD2    C213534   1.349   0.629  14.918  0.3117 -0.5077 -0.8705
  925MPD2    C313535   1.336   0.546  15.034  0.2511 -0.4888  0.3825
  925MPD2    C413536   1.388   0.420  15.027  0.0952  0.4751  0.5048
  925MPD2    C513537   1.453   0.369  14.913 -0.2708 -0.3756 -0.6471
  925MPD2     H13538   1.319   0.733  14.921 -2.2040 -1.1215 -3.4258
  925MPD2    H113539   1.363   0.353  15.108 -0.6066  0.4614  0.2803
  925MPD2    H213540   1.538   0.401  14.737 -0.9992 -0.4220 -0.9075
  925MPD2    H313541   1.487   0.266  14.915  0.5972 -0.1111 -2.0323
  925MPD2     N13542   1.279   0.582  15.157  0.0072  0.2810 -0.5674
  925MPD2    H513543   1.290   0.511  15.228  0.5033  0.4933 -0.4351
  925MPD2    N113544   1.450   0.672  14.704 -0.0498  0.2266 -0.0111
  925MPD2    H713545   1.421   0.768  14.722  0.1446  0.3802 -0.5010
  926MPD2     C13546   0.683   3.433  13.776  0.3700  0.0064 -0.4815
  926MPD2    C113547   0.676   3.563  13.736  0.2055 -0.0728 -0.4511
  926MPD2    C213548   0.755   3.604  13.630 -1.0504 -0.2908  0.1867
  926MPD2    C313549   0.858   3.526  13.580 -0.6984  0.1273 -0.5547
  926MPD2    C413550   0.869   3.395  13.630 -0.6470  0.4416 -0.2254
  926MPD2    C513551   0.780   3.354  13.719 -0.4208 -0.3908 -0.2397
  926MPD2     H13552   0.735   3.708  13.609  1.2593  0.1630  0.2516
  926MPD2    H113553   0.948   3.329  13.595 -1.4160 -0.6172  0.0306
  926MPD2    H213554   0.623   3.391  13.856  1.3687  1.0026  0.7977
  926MPD2    H313555   0.800   3.261  13.772  0.7810 -0.1554 -0.2804
  926MPD2     N13556   0.934   3.570  13.468 -0.2954  0.2302  0.1212
  926MPD2    H513557   1.017   3.517  13.441 -1.1608 -1.4627  0.7534
  926MPD2    N113558   0.578   3.656  13.785 -0.4418  0.3433  0.1639
  926MPD2    H713559   0.579   3.741  13.730  2.0350  0.6907  0.7778
  927MPD2     C13560   0.637   2.608   1.115  0.2263 -0.4213  0.3141
  927MPD2    C113561   0.728   2.511   1.143 -0.3645 -0.0237  0.3431
  927MPD2    C213562   0.750   2.401   1.059  0.1971  0.4437 -0.2831
  927MPD2    C313563   0.686   2.412   0.941 -0.0573  0.1942  0.0926
  927MPD2    C413564   0.606   2.511   0.901  0.0627 -1.2150  0.1208
  927MPD2    C513565   0.580   2.611   0.991  0.0993  0.6461 -0.2725
  927MPD2     H13566   0.828   2.329   1.083 -0.1807 -0.0294 -0.4690
  927MPD2    H113567   0.547   2.516   0.810  1.5227  1.0805 -0.7100
  927MPD2    H213568   0.609   2.695   1.173  3.1205  0.5508  0.2873
  927MPD2    H313569   0.518   2.696   0.964 -0.9433 -0.4791 -1.4266
  927MPD2     N13570   0.706   2.302   0.855  0.6725  0.1017 -0.0415
  927MPD2    H513571   0.752   2.226   0.904 -0.5004  0.2419  1.2808
  927MPD2    N113572   0.779   2.515   1.277  0.0145 -0.0819  0.5278
  927MPD2    H713573   0.753   2.596   1.331  1.2765  1.7152 -1.5297
  928MPD2     C13574   3.252   0.530   1.224 -0.2610 -0.3307 -0.3708
  928MPD2    C113575   3.254   0.432   1.126 -0.2942  0.1488 -0.3046
  928MPD2    C213576   3.310   0.447   0.996  0.1158  0.1281  0.3779
  928MPD2    C313577   3.357   0.574   0.956 -1.1796  0.1279 -0.3676
  928MPD2    C413578   3.340   0.674   1.054  0.4377 -0.5706  0.4020
  928MPD2    C513579   3.296   0.653   1.177 -0.2508 -0.0901 -0.6446
  928MPD2     H13580   3.317   0.368   0.921 -1.7653  1.0512 -0.7734
  928MPD2    H113581   3.366   0.778   1.035  1.0333 -0.8616 -0.3619
  928MPD2    H213582   3.203   0.516   1.320 -0.5122  0.9784 -0.3062
  928MPD2    H313583   3.287   0.734   1.248  2.8014 -1.2227  1.0431
  928MPD2     N13584   3.412   0.611   0.830  0.3350  0.5204 -0.6971
  928MPD2    H513585   3.449   0.705   0.824  0.2982  0.6465  1.1525
  928MPD2    N113586   3.204   0.301   1.166 -0.5761  0.0611 -0.1797
  928MPD2    H713587   3.164   0.287   1.258  0.9989 -1.5646  0.2614
  929MPD2     C13588   4.271   4.191  10.678  0.4148 -0.4140 -0.0368
  929MPD2    C113589   4.171   4.103  10.705 -0.3036 -0.1748  0.0201
  929MPD2    C213590   4.080   4.074  10.606  0.0447  0.0698  1.1343
  929MPD2    C313591   4.104   4.121  10.478  0.3601  0.4659 -0.3842
  929MPD2    C413592   4.204   4.205  10.451  0.0938 -0.9062 -0.0188
  929MPD2    C513593   4.288   4.242  10.551  0.6281  0.0572  0.2276
  929MPD2     H13594   4.014   3.989  10.619  0.1996 -0.0379  1.2122
  929MPD2    H113595   4.219   4.248  10.352 -0.4056 -1.4752 -0.3410
  929MPD2    H213596   4.339   4.221  10.757  1.2301 -1.4553 -0.3409
  929MPD2    H313597   4.374   4.304  10.530  0.0168  0.7056 -0.3790
  929MPD2     N13598   4.007   4.083  10.389  0.5649 -0.2605  0.0027
  929MPD2    H513599   3.924   4.037  10.425  0.4522  0.1041  0.2002
  929MPD2    N113600   4.147   4.072  10.837  0.2233  0.2734 -0.4427
  929MPD2    H713601   4.191   4.133  10.905 -0.1189 -2.1055  1.9071
  930MPD2     C13602   0.189   2.064  14.288  0.2512 -0.5521 -0.1954
  930MPD2    C113603   0.145   2.124  14.174 -0.3073  0.4990 -0.7835
  930MPD2    C213604   0.061   2.052  14.093  0.4362  0.7542 -0.4178
  930MPD2    C313605   0.032   1.918  14.114 -1.0957  0.7820  0.7953
  930MPD2    C413606   0.078   1.860  14.232 -0.2931  0.8986 -0.1437
  930MPD2    C513607   0.155   1.937  14.316 -0.1480 -0.5681  0.2514
  930MPD2     H13608   0.035   2.099  13.998 -2.2107  0.9973  0.4270
  930MPD2    H113609   0.061   1.759  14.265 -0.3777  1.3951  1.3347
  930MPD2    H213610   0.247   2.114  14.364  2.2769 -1.7775 -0.9282
  930MPD2    H313611   0.194   1.891  14.406  4.5420  0.0284 -1.4705
  930MPD2     N13612   4.678   1.842  14.030  0.5565 -0.0456  0.5807
  930MPD2    H513613   4.648   1.750  14.062  3.3479 -0.9761  0.5148
  930MPD2    N113614   0.198   2.253  14.143  0.1664 -0.0554 -0.1384
  930MPD2    H713615   0.277   2.288  14.196  0.0337 -0.1400  0.1138
  931MPD2     C13616   1.019   2.053   1.958  0.7062  1.0891  0.8142
  931MPD2    C113617   0.927   2.068   1.860  0.0033 -0.0898  0.2674
  931MPD2    C213618   0.813   1.998   1.859  0.1557  0.0379  0.2359
  931MPD2    C313619   0.788   1.904   1.959  0.2616 -0.0765 -0.0978
  931MPD2    C413620   0.882   1.876   2.050  0.1523 -0.1276 -0.3836
  931MPD2    C513621   0.995   1.958   2.052 -0.3684 -0.1347  0.5977
  931MPD2     H13622   0.729   2.020   1.794  0.7220  0.0279 -0.4832
  931MPD2    H113623   0.876   1.806   2.133  2.1791 -0.4723 -0.5178
  931MPD2    H213624   1.111   2.110   1.963  0.9131  0.8709 -0.4533
  931MPD2    H313625   1.052   1.949   2.144  1.2009 -0.6506 -0.4233
  931MPD2     N13626   0.668   1.826   1.961  0.7567  0.1140  0.0858
  931MPD2    H513627   0.666   1.739   2.013 -0.6189 -0.6879 -1.3121
  931MPD2    N113628   0.937   2.170   1.763 -0.5264  0.8199 -0.1716
  931MPD2    H713629   0.865   2.179   1.692 -1.5777  1.8978  1.0271
  932MPD2     C13630   2.165   0.565  10.814  0.0390  0.2779 -0.1748
  932MPD2    C113631   2.234   0.560  10.931  0.3533  0.3609 -0.1578
  932MPD2    C213632   2.212   0.457  11.017 -0.0407 -0.1093 -0.3895
  932MPD2    C313633   2.133   0.349  10.990  0.0305 -0.3773 -0.2584
  932MPD2    C413634   2.049   0.362  10.883  0.2188  0.8942 -0.3448
  932MPD2    C513635   2.069   0.464  10.790 -0.3857  0.1991  0.3097
  932MPD2     H13636   2.274   0.464  11.106  0.5099  1.1046 -0.8797
  932MPD2    H113637   1.971   0.290  10.862 -1.2761  2.4352 -0.1690
  932MPD2    H213638   2.185   0.649  10.749  0.7729 -0.2615 -0.6416
  932MPD2    H313639   2.022   0.465  10.693 -0.6901  0.2184  0.4573
  932MPD2     N13640   2.122   0.239  11.080 -0.1611 -0.2652  0.1526
  932MPD2    H513641   2.067   0.159  11.050  1.4961 -0.9233 -1.1203
  932MPD2    N113642   2.328   0.652  10.966  0.3849  0.2640  0.1348
  932MPD2    H713643   2.340   0.655  11.067  0.3337  1.0806  0.1211
  933MPD2     C13644   2.504   4.471   1.308  0.2698  0.1838 -0.4324
  933MPD2    C113645   2.558   4.588   1.262 -0.7542 -0.0423  0.5032
  933MPD2    C213646   2.481   4.695   1.267  0.6968  1.0823 -0.3923
  933MPD2    C313647   2.359   4.697   1.328  0.4419  0.2718 -0.2486
  933MPD2    C413648   2.313   4.581   1.386 -0.7799  0.2876 -0.5620
  933MPD2    C513649   2.389   4.468   1.379 -0.1989 -0.2810  1.0121
  933MPD2     H13650   2.523   0.057   1.219  1.6245  1.5550  1.2830
  933MPD2    H113651   2.222   4.582   1.445 -1.5857  0.4656 -1.8103
  933MPD2    H213652   2.562   4.380   1.313 -2.7811 -1.7683 -1.1683
  933MPD2    H313653   2.357   4.377   1.429  1.0133 -0.9015  0.6535
  933MPD2     N13654   2.298   0.098   1.334  0.4311  0.3240  0.0266
  933MPD2    H513655   2.348   0.176   1.293 -0.0680  0.7935  0.3017
  933MPD2    N113656   2.698   4.598   1.238  0.4042  0.2181 -1.0025
  933MPD2    H713657   2.750   4.511   1.244  0.6857  0.6380  2.4868
  934MPD2     C13658   3.856   3.385   1.719  0.8117  0.1384  0.3668
  934MPD2    C113659   3.901   3.255   1.738 -0.1464 -0.3873  0.0861
  934MPD2    C213660   3.825   3.153   1.687 -0.0921  0.7303  0.7392
  934MPD2    C313661   3.703   3.177   1.628  0.2112  0.2000 -0.5386
  934MPD2    C413662   3.666   3.304   1.605  0.7359 -0.1869 -0.0367
  934MPD2    C513663   3.744   3.409   1.645  0.4775 -0.0804 -0.9434
  934MPD2     H13664   3.850   3.048   1.695 -2.0472  0.1936 -0.2361
  934MPD2    H113665   3.577   3.322   1.545  1.3876  2.0511 -0.3482
  934MPD2    H213666   3.921   3.469   1.738  1.6755  0.0370 -2.1019
  934MPD2    H313667   3.718   3.512   1.623  3.3132  0.7081 -0.5824
  934MPD2     N13668   3.620   3.070   1.583 -0.6948 -0.1801  0.2344
  934MPD2    H513669   3.522   3.088   1.560 -1.0188  0.3668  2.0905
  934MPD2    N113670   4.029   3.235   1.801 -0.2803  0.2401 -0.0691
  934MPD2    H713671   4.063   3.139   1.808 -1.6305 -0.3403 -1.3631
  935MPD2     C13672   3.921   2.115   1.487 -1.0556 -0.4352  0.4076
  935MPD2    C113673   3.852   2.152   1.371 -0.7966  0.4516  0.8594
  935MPD2    C213674   3.762   2.258   1.385  0.4585  0.2176  0.2297
  935MPD2    C313675   3.745   2.332   1.499  1.4152 -0.4680 -0.5345
  935MPD2    C413676   3.822   2.298   1.604 -0.0110 -0.1978 -0.4134
  935MPD2    C513677   3.902   2.185   1.602 -0.4972  0.0625  0.6280
  935MPD2     H13678   3.703   2.279   1.297  0.1962  1.4678  0.7014
  935MPD2    H113679   3.804   2.343   1.700  1.2513 -0.9835  0.1960
  935MPD2    H213680   3.994   2.035   1.495 -1.2608 -0.9841 -3.4164
  935MPD2    H313681   3.960   2.155   1.688 -0.6969 -0.1310  0.6954
  935MPD2     N13682   3.661   2.445   1.503  0.0533  0.0195 -0.3649
  935MPD2    H513683   3.665   2.502   1.586  1.0475  0.3895 -0.6651
  935MPD2    N113684   3.865   2.087   1.250 -1.1267 -0.0411 -0.0326
  935MPD2    H713685   3.803   2.117   1.174 -1.9042  1.8138  1.3275
  936MPD2     C13686   2.677   0.175  11.921 -0.1718  0.2088 -0.4513
  936MPD2    C113687   2.803   0.127  11.962 -0.3548 -0.6447 -0.4219
  936MPD2    C213688   2.911   0.216  11.987 -0.9931 -0.2029 -0.1487
  936MPD2    C313689   2.892   0.350  11.981  0.0920  0.0370 -0.0314
  936MPD2    C413690   2.765   0.392  11.960 -0.4117  0.4891  0.6636
  936MPD2    C513691   2.659   0.311  11.923 -0.5554 -0.1879  0.0030
  936MPD2     H13692   3.006   0.174  12.018 -1.6589 -2.0363 -0.5521
  936MPD2    H113693   2.742   0.498  11.958  2.7417  1.1758  0.6320
  936MPD2    H213694   2.601   0.102  11.895 -0.6285  0.3271  0.5556
  936MPD2    H313695   2.561   0.352  11.906 -0.7106 -0.6289 -0.1666
  936MPD2     N13696   2.977   0.439  12.046 -0.5551 -0.6143 -0.5217
  936MPD2    H513697   2.931   0.525  12.073  0.2815 -0.7872  1.4073
  936MPD2    N113698   2.824   4.718  11.999  0.5387  0.3729  0.7410
  936MPD2    H713699   2.920   4.692  12.020  0.6135 -0.3376 -0.4938
  937MPD2     C13700   0.928   0.215  11.804 -0.1330  0.1907 -0.7954
  937MPD2    C113701   1.016   0.321  11.783 -0.3530 -0.4340  0.0740
  937MPD2    C213702   1.091   0.307  11.665 -0.3141  0.1134  0.4833
  937MPD2    C313703   1.090   0.196  11.583  0.0414 -0.6150  0.4776
  937MPD2    C413704   1.022   0.086  11.622 -0.3547 -0.4657  0.0418
  937MPD2    C513705   0.932   0.104  11.724  0.1361  0.1905  0.6521
  937MPD2     H13706   1.144   0.398  11.637  0.5717 -0.4774  0.2468
  937MPD2    H113707   1.025   4.708  11.588  2.2190 -0.6865  0.9198
  937MPD2    H213708   0.856   0.222  11.885  1.2644  0.4598  0.4393
  937MPD2    H313709   0.866   0.023  11.753  0.3776 -0.2931 -0.1435
  937MPD2     N13710   1.162   0.212  11.463 -0.1623  0.3248  0.2815
  937MPD2    H513711   1.212   0.296  11.440 -0.4145  0.9993  2.1429
  937MPD2    N113712   0.987   0.447  11.831 -0.5882  0.0698  0.2069
  937MPD2    H713713   1.040   0.525  11.795 -1.3704  0.2539 -0.5408
  938MPD2     C13714   2.980   2.401   0.572 -1.0360  0.5477 -0.5488
  938MPD2    C113715   2.917   2.485   0.662  1.4175  0.7696 -0.9424
  938MPD2    C213716   2.892   2.427   0.787  0.3987  0.1427 -0.0881
  938MPD2    C313717   2.915   2.295   0.819 -0.2665  0.9675  0.9055
  938MPD2    C413718   2.982   2.210   0.724  0.6117  0.3069 -0.3819
  938MPD2    C513719   3.011   2.268   0.605  0.0146 -0.4039  0.4472
  938MPD2     H13720   2.856   2.503   0.856 -2.5348 -1.7401  0.4638
  938MPD2    H113721   3.002   2.105   0.743  0.1499 -0.1020 -2.0909
  938MPD2    H213722   2.997   2.437   0.472 -1.4664  1.7907 -0.1789
  938MPD2    H313723   3.055   2.203   0.530 -0.3276 -0.3994  0.2396
  938MPD2     N13724   2.884   2.246   0.950 -0.0954  0.0136  0.2817
  938MPD2    H513725   2.913   2.149   0.960  2.1359  0.6538  0.1152
  938MPD2    N113726   2.881   2.616   0.635 -0.0565 -0.7210 -0.2866
  938MPD2    H713727   2.847   2.667   0.715 -1.6238 -1.5337 -0.4290
  939MPD2     C13728   3.791   3.653   1.053  0.1539  0.2592  1.4584
  939MPD2    C113729   3.829   3.777   1.000 -0.4207  0.3580 -0.0211
  939MPD2    C213730   3.951   3.783   0.931  0.1034 -0.5485 -0.2114
  939MPD2    C313731   4.032   3.668   0.923  0.1568 -0.2353  0.1765
  939MPD2    C413732   3.991   3.545   0.970 -0.1034 -0.2842 -0.0264
  939MPD2    C513733   3.870   3.538   1.034 -0.3932  0.0641 -0.0485
  939MPD2     H13734   3.985   3.872   0.881  1.7840 -1.5287 -0.7985
  939MPD2    H113735   4.054   3.457   0.965  0.6097  0.1812  0.7276
  939MPD2    H213736   3.699   3.643   1.108 -0.1637 -1.4539  0.5989
  939MPD2    H313737   3.828   3.447   1.076 -1.8138  0.8008  0.1405
  939MPD2     N13738   4.151   3.689   0.840  0.9155  0.4848  0.6228
  939MPD2    H513739   4.154   3.780   0.796  1.2961  1.0063  1.7431
  939MPD2    N113740   3.748   3.893   1.026  0.4169  0.2223  0.1098
  939MPD2    H713741   3.660   3.870   1.072 -1.1263  0.2202 -2.8089
  940MPD2     C13742   3.104   3.638  13.118 -0.0302  0.9532  1.1461
  940MPD2    C113743   3.207   3.715  13.166 -0.3245  0.4260 -0.1264
  940MPD2    C213744   3.325   3.726  13.086 -0.1769  0.4173  0.0879
  940MPD2    C313745   3.322   3.663  12.961  0.6406 -0.3202 -0.4710
  940MPD2    C413746   3.219   3.584  12.920 -0.6142  0.4080 -0.2399
  940MPD2    C513747   3.117   3.567  12.997 -0.2053 -0.1464 -0.2931
  940MPD2     H13748   3.404   3.790  13.122 -0.0720  0.7436 -0.7283
  940MPD2    H113749   3.230   3.537  12.823 -1.7971 -0.3812  0.0059
  940MPD2    H213750   3.016   3.625  13.181 -1.5620 -0.4367 -1.3108
  940MPD2    H313751   3.037   3.501  12.965 -0.3592  0.0734 -0.3608
  940MPD2     N13752   3.430   3.679  12.870 -0.2538  0.4716  0.1406
  940MPD2    H513753   3.434   3.614  12.792 -0.4662 -0.0585  0.5629
  940MPD2    N113754   3.218   3.753  13.302 -0.1960 -1.0657  0.0655
  940MPD2    H713755   3.308   3.775  13.343 -0.0959 -1.6939  0.1848
  941MPD2     C13756   3.490   2.885   9.448 -0.4119 -0.0558 -0.0149
  941MPD2    C113757   3.590   2.805   9.495  0.6803 -0.2859 -0.4802
  941MPD2    C213758   3.577   2.731   9.611  0.3820  0.0406  0.9584
  941MPD2    C313759   3.451   2.720   9.670 -0.1920  0.3952  0.4071
  941MPD2    C413760   3.343   2.782   9.619 -0.6393  0.0179  0.9658
  941MPD2    C513761   3.367   2.869   9.507  0.4595  0.9858  0.2804
  941MPD2     H13762   3.659   2.673   9.651  2.2197  1.4005 -0.8205
  941MPD2    H113763   3.240   2.776   9.654  0.1427 -1.3292  3.0840
  941MPD2    H213764   3.495   2.953   9.364 -0.1904  0.1173  0.1380
  941MPD2    H313765   3.276   2.901   9.456  0.1535 -0.3397 -0.0062
  941MPD2     N13766   3.423   2.624   9.774  0.2131 -0.5017 -0.0789
  941MPD2    H513767   3.324   2.615   9.798 -0.1533  0.6500 -1.1662
  941MPD2    N113768   3.719   2.805   9.439 -0.3801 -0.0280 -0.8785
  941MPD2    H713769   3.793   2.761   9.494 -1.1857 -1.6076 -1.0611
  942MPD2     C13770   3.619   4.015   8.917  0.0245  0.2292 -0.2427
  942MPD2    C113771   3.741   4.077   8.907 -0.4348 -0.0388  0.1093
  942MPD2    C213772   3.772   4.176   8.999  0.5408 -0.3094  0.4933
  942MPD2    C313773   3.692   4.199   9.108  0.8020 -0.9939  1.0032
  942MPD2    C413774   3.571   4.142   9.113  0.6185 -0.0095  0.0349
  942MPD2    C513775   3.531   4.052   9.017  0.2307 -0.3502 -0.1914
  942MPD2     H13776   3.867   4.228   8.990  0.5355 -0.3468  0.2436
  942MPD2    H113777   3.499   4.159   9.192  0.2326 -0.8559 -0.1296
  942MPD2    H213778   3.591   3.942   8.842  0.3158  0.9383 -1.0448
  942MPD2    H313779   3.428   4.020   9.030  0.5551 -1.5778 -0.6903
  942MPD2     N13780   3.726   4.299   9.207  0.4752  0.3988  0.2540
  942MPD2    H513781   3.657   4.311   9.280  1.1447  1.0764  0.7726
  942MPD2    N113782   3.838   4.048   8.812  0.1580  0.2460 -0.3209
  942MPD2    H713783   3.928   4.094   8.820 -0.4880  1.0923  1.8074
  943MPD2     C13784   1.423   3.219   9.096  0.8096 -0.3248 -0.1042
  943MPD2    C113785   1.417   3.113   9.178 -0.6846  0.1562  0.3578
  943MPD2    C213786   1.521   3.088   9.260  0.5947 -0.7030 -0.6045
  943MPD2    C313787   1.636   3.169   9.266 -0.9254 -0.0921  0.1601
  943MPD2    C413788   1.641   3.271   9.176 -0.2354  0.3750  0.0231
  943MPD2    C513789   1.534   3.298   9.099  0.7938 -0.0425 -0.4108
  943MPD2     H13790   1.521   3.002   9.325 -0.8355  0.3574  0.7882
  943MPD2    H113791   1.717   3.348   9.172  0.9334 -0.8046 -0.3014
  943MPD2    H213792   1.343   3.246   9.028 -1.5391 -1.1818  2.3085
  943MPD2    H313793   1.534   3.387   9.038  0.0128  0.2421  0.0076
  943MPD2     N13794   1.741   3.142   9.357  0.1169 -0.1130  0.1559
  943MPD2    H513795   1.827   3.196   9.345 -0.4937  0.6773 -0.6419
  943MPD2    N113796   1.306   3.024   9.177  0.1738  0.0992  0.2102
  943MPD2    H713797   1.249   3.034   9.094  0.5009  0.7972  0.0674
  944MPD2     C13798   1.088   1.746  11.007 -0.3623  0.0527 -0.2640
  944MPD2    C113799   1.090   1.881  10.981  0.3655 -0.4686  0.2016
  944MPD2    C213800   1.051   1.965  11.082  0.4303  1.1905  0.1635
  944MPD2    C313801   1.032   1.909  11.210 -0.0735 -0.6818 -1.0476
  944MPD2    C413802   1.050   1.776  11.239  0.5639  0.3661 -0.4715
  944MPD2    C513803   1.083   1.694  11.133 -0.2768  0.4769 -0.7797
  944MPD2     H13804   1.040   2.072  11.069  1.0134  1.0562 -1.4851
  944MPD2    H113805   1.058   1.735  11.339  1.4084  1.0884 -0.2445
  944MPD2    H213806   1.122   1.690  10.921  1.7500 -1.8338  1.7912
  944MPD2    H313807   1.122   1.595  11.150 -2.2591 -0.3276 -0.9332
  944MPD2     N13808   0.994   2.001  11.309  0.1459 -0.0749 -0.3279
  944MPD2    H513809   1.001   2.097  11.278 -0.2357  0.3696  0.9565
  944MPD2    N113810   1.126   1.922  10.849  0.5042  0.1154  0.4855
  944MPD2    H713811   1.148   1.859  10.773 -2.0421 -0.7449  0.4622
    1TCq1    O113812   4.089   2.420  13.798  0.2199 -0.7488  0.1677
    1TCq1    C113813   4.011   2.499  13.876  0.3057  0.6504 -0.2509
    1TCq1    O213814   3.917   2.572  13.839 -0.8044 -0.4797  0.0668
    1TCq1    C213815   4.043   2.474  14.016 -0.9430 -0.6309  1.0122
    1TCq1    C313816   4.055   2.347  14.065  0.3171 -0.1523 -0.7392
    1TCq1    C413817   4.087   2.339  14.197  0.1715 -0.2502 -0.5297
    1TCq1    C513818   4.095   2.446  14.281 -0.8230  0.5813 -0.5174
    1TCq1    C613819   4.060   2.568  14.229  0.4582 -0.0191  0.4295
    1TCq1    C713820   4.042   2.583  14.092  0.9859 -0.0864  0.0559
    1TCq1    C813821   4.074   2.682  14.312 -0.2128  1.1599 -0.3903
    1TCq1    O413822   4.094   2.662  14.430 -0.1144 -0.1347  0.8452
    1TCq1    C913823   4.116   2.208  14.258 -0.0624  0.0845  0.0001
    1TCq1    O513824   4.157   2.205  14.379  0.5733 -0.0095  0.8779
    1TCq1    O613825   4.087   2.107  14.186 -0.3116 -0.1039  0.0649
    1TCq1    H113826   4.156   2.370  13.849 -0.9736 -3.2004 -0.6784
    1TCq1    H213827   4.064   2.263  13.997  1.7278  0.2523 -1.0583
    1TCq1    H313828   4.120   2.429  14.385 -1.3598 -0.8365 -0.6214
    1TCq1    H413829   4.053   2.682  14.048  1.2870 -0.2024 -0.1274
    2MPD2     C13830   4.000   3.185  14.412 -0.5988 -0.3480  0.5350
    2MPD2    C113831   4.002   3.163  14.271 -0.2227 -0.1905 -0.0213
    2MPD2    C213832   4.029   3.036  14.224 -0.3414  0.0295 -0.1343
    2MPD2    C313833   4.042   2.925  14.308 -0.0749  0.0974  0.0987
    2MPD2    C413834   4.031   2.947  14.444 -0.5259 -0.2016 -0.1056
    2MPD2    C513835   4.019   3.074  14.490  0.2481  0.2280 -0.1003
    2MPD2     H13836   4.029   3.005  14.120 -2.3977  2.1420 -0.7677
    2MPD2    H113837   4.050   2.867  14.515  1.4980  0.7921  0.4714
    2MPD2    H213838   3.978   3.280  14.458 -0.1980 -0.3761  0.7858
    2MPD2    H313839   4.012   3.094  14.596 -0.8873 -1.4629  0.1348
    2MPD2     N13840   4.069   2.803  14.248  0.4134  0.4749 -0.4262
    2MPD2    H513841   4.069   2.803  14.146  0.0688 -1.6710 -0.4319
    2MPD2    N113842   4.001   3.277  14.187  0.6638  0.0952 -0.1383
    2MPD2    H713843   3.967   3.366  14.222  0.3467 -0.6608  1.4975
    3TMC2    C113844   3.991   3.402  13.984 -0.4323 -0.2917 -0.0907
    3TMC2    C213845   3.882   3.465  14.036  0.7081  0.0459  0.9519
    3TMC2    C313846   3.815   3.542  13.953 -0.0059  0.3016  0.4751
    3TMC2    C413847   4.030   3.403  13.849  0.0107  0.1956  1.1182
    3TMC2    C513848   3.947   3.479  13.769 -0.1423  0.1008 -0.9493
    3TMC2    C613849   3.837   3.543  13.818 -0.0297 -0.3052 -0.6022
    3TMC2     C13850   4.036   3.276  14.053  0.3792  0.2009 -0.4404
    3TMC2     O13851   4.096   3.196  13.984 -0.5891  0.0954  0.1527
    3TMC2     H13852   3.850   3.450  14.138 -1.4902  1.3720  0.4589
    3TMC2    H113853   4.109   3.346  13.803  0.0031  0.3089  0.9636
    3TMC2    H213854   3.768   3.588  13.747 -3.1938  0.2926  2.8276
    3TMC2    C713855   3.960   3.462  13.624  0.3659 -0.7787  0.0224
    3TMC2    C813856   3.688   3.584  13.989 -0.1940 -0.1160  0.5641
    3TMC2    O113857   4.018   3.368  13.576 -0.3426  0.4928 -0.4206
    3TMC2    O213858   3.667   3.700  14.019  0.9733  0.1549  0.2830
    3TMC2    O513859   3.640   3.473  14.056  0.1670 -0.5376  0.4180
    3TMC2    H513860   3.666   3.390  14.010  0.3443 -0.4065  0.2859
    4MPD2     C13861   3.043   4.444  13.233  0.4016 -0.5901  0.5866
    4MPD2    C113862   3.083   4.448  13.096  0.3471  0.2975  0.1549
    4MPD2    C213863   3.214   4.427  13.056 -0.0261 -0.4129  0.2586
    4MPD2    C313864   3.306   4.413  13.151 -1.3322 -0.2894  0.9271
    4MPD2    C413865   3.271   4.412  13.282 -0.0970 -0.1548 -0.1844
    4MPD2    C513866   3.141   4.428  13.323  0.8033  0.1666 -0.0447
    4MPD2     H13867   3.246   4.412  12.954 -1.1232  2.0009 -0.4302
    4MPD2    H113868   3.347   4.415  13.360  1.1507 -1.2154 -1.3566
    4MPD2    H213869   2.944   4.449  13.277  0.5532  2.1716  0.6261
    4MPD2    H313870   3.127   4.405  13.428  2.2589  1.6080  0.4629
    4MPD2     N13871   3.438   4.384  13.106  0.1088  0.2185  0.1667
    4MPD2    H513872   3.461   4.366  13.009  1.7689 -1.4982  0.8596
    4MPD2    N113873   2.968   4.469  13.004 -0.4680 -0.6110  0.1508
    4MPD2    H713874   2.882   4.505  13.045 -0.7104  0.5891 -1.4127
    5TCq2    C113875   3.542   4.372  13.191 -0.0953 -0.2387  0.4287
    5TCq2    O213876   3.556   4.409  13.309 -0.4432 -0.3629  0.2713
    5TCq2    C213877   3.660   4.310  13.137  0.6822 -0.4252 -0.0620
    5TCq2    C313878   3.666   4.286  13.000  0.1615  0.3296  0.2408
    5TCq2    C413879   3.751   4.191  12.950 -0.3005  0.1362 -0.5747
    5TCq2    C513880   3.822   4.112  13.037  0.1635  0.3276 -0.1853
    5TCq2    C613881   3.796   4.117  13.174  0.0022 -0.5011  0.3244
    5TCq2    C713882   3.716   4.218  13.222 -0.0121 -0.2691 -0.3222
    5TCq2    C813883   3.812   4.001  13.263  0.0803 -0.1998  0.7173
    5TCq2    O413884   3.769   4.008  13.377 -1.2196  0.5752 -0.0958
    5TCq2    C913885   3.770   4.183  12.806  0.5738  0.5374 -0.3761
    5TCq2    O513886   3.845   4.094  12.760  0.1988 -0.4289 -0.4202
    5TCq2    O613887   3.680   4.247  12.735  0.7779  0.0207 -0.1378
    5TCq2    H213888   3.611   4.341  12.925  0.1921  1.2752  0.9102
    5TCq2    H313889   3.893   4.042  12.995 -0.1922 -0.0476 -0.1667
    5TCq2    H413890   3.707   4.222  13.330 -1.1605  0.5675 -0.4450
    6MPD1     C13891   2.220   1.415  13.019 -0.2089  0.6625  0.0693
    6MPD1    C113892   2.150   1.311  13.072  1.2152 -0.4317 -0.1627
    6MPD1    C213893   2.162   1.188  13.002 -0.3713  0.3573  0.0227
    6MPD1    C313894   2.234   1.169  12.884 -0.1808  0.2213  0.3836
    6MPD1    C413895   2.298   1.278  12.834 -0.3144  0.5665  0.0943
    6MPD1    C513896   2.285   1.396  12.903 -0.0943  0.1957 -0.1454
    6MPD1     H13897   2.106   1.104  13.042  0.8903 -1.6534 -2.4552
    6MPD1    H113898   2.345   1.277  12.737 -0.9515  2.2422 -0.2339
    6MPD1    H213899   2.224   1.511  13.070 -2.1781  0.7492  0.0731
    6MPD1    H313900   2.338   1.484  12.869  0.8843  0.3535  1.8334
    6MPD1     N13901   2.242   1.038  12.833 -0.4040  0.7995  0.2314
    6MPD1    H513902   2.193   0.958  12.871 -0.0560  0.0933 -0.8113
    6MPD1    N113903   2.080   1.321  13.197 -0.6185  0.3967 -0.2215
    6MPD1    H613904   2.000   1.258  13.200  0.9911 -1.6719 -1.0352
    6MPD1    H713905   2.056   1.409  13.243  1.4061 -0.2260  2.0647
    7MPD2     C13906   2.394   0.377  13.168  0.0868 -0.3850  0.4897
    7MPD2    C113907   2.362   0.341  13.043  0.7389 -0.5925 -0.1978
    7MPD2    C213908   2.403   0.225  12.987 -0.1118  0.7484 -0.5613
    7MPD2    C313909   2.477   0.139  13.061 -0.4085 -0.1178  0.8279
    7MPD2    C413910   2.493   0.163  13.196 -0.6472 -0.6146 -0.2166
    7MPD2    C513911   2.452   0.285  13.248  0.5953 -0.4552 -0.1214
    7MPD2     H13912   2.382   0.194  12.885 -0.9931 -0.4190 -0.0299
    7MPD2    H113913   2.548   0.100  13.266 -1.3892 -0.5542  0.4171
    7MPD2    H213914   2.370   0.465  13.227  1.1353  1.0804 -1.2761
    7MPD2    H313915   2.472   0.304  13.353 -2.7994 -0.1649  0.4831
    7MPD2     N13916   2.544   0.030  13.006 -0.5192 -0.5019  0.2482
    7MPD2    H513917   2.571   4.678  13.065 -2.7724 -0.5788  1.2098
    7MPD2    N113918   2.316   0.434  12.944  0.4485  0.1294 -0.0631
    7MPD2    H713919   2.320   0.398  12.849  1.0661  1.1058 -0.4073
    8TMC3    C113920   2.621   4.602  12.842  0.7117 -0.0304  0.7350
    8TMC3    C213921   2.744   4.572  12.901 -0.9916 -0.2487 -0.2649
    8TMC3    C313922   2.851   4.545  12.816  1.1518  0.1048  0.0972
    8TMC3    C413923   2.612   4.574  12.707 -0.6928  0.4181  0.2240
    8TMC3    C513924   2.721   4.566  12.629 -0.1484 -0.4045 -0.3128
    8TMC3    C613925   2.838   4.550  12.678  1.2232  0.4134 -0.1675
    8TMC3     C13926   2.548   4.720  12.869 -0.9059 -0.4700  0.5914
    8TMC3     O13927   2.520   0.060  12.770 -0.3018  0.0314 -0.7411
    8TMC3     H13928   2.750   4.589  13.008  3.2827  0.7566 -0.6700
    8TMC3    H113929   2.513   4.579  12.662 -0.9922 -2.6899  0.5715
    8TMC3    H213930   2.919   4.517  12.613  2.1246  0.9334  0.6889
    8TMC3    C713931   2.732   4.663  12.519 -0.0023 -0.6225  0.1466
    8TMC3    C813932   2.969   4.478  12.869 -0.2268  0.1922 -0.4259
    8TMC3    O113933   2.830   4.658  12.449  0.1125  0.3500  0.3552
    8TMC3    O213934   3.051   4.431  12.791  0.0237 -0.2042 -0.0580
    9TMC3    C113935   2.349   0.856  12.728 -0.6982 -0.4946  0.4848
    9TMC3    C213936   2.428   0.795  12.638  0.2973  0.2981 -0.4474
    9TMC3    C313937   2.456   0.661  12.639 -0.4007  0.2963 -0.2430
    9TMC3    C413938   2.307   0.779  12.836 -0.2543 -1.0783 -0.1568
    9TMC3    C513939   2.344   0.647  12.842  0.2780 -0.0953 -0.2275
    9TMC3    C613940   2.411   0.582  12.739  0.1210 -0.1267 -0.7494
    9TMC3     C13941   2.336   1.002  12.734  0.0409 -0.0871 -0.1211
    9TMC3     O13942   2.421   1.068  12.670  0.0192  0.2938 -0.4879
    9TMC3     H13943   2.457   0.849  12.549 -1.2298 -0.2277 -1.2579
    9TMC3    H113944   2.264   0.815  12.928 -0.6949 -0.2446 -0.6874
    9TMC3    H213945   2.460   0.489  12.763 -0.0123 -0.3969 -1.5195
    9TMC3    C713946   2.311   0.571  12.961  0.1346 -0.0359  0.4419
    9TMC3    C813947   2.510   0.598  12.527  0.9319 -0.7026  0.0467
    9TMC3    O113948   2.301   0.638  13.063  0.1951  0.0060  0.1372
    9TMC3    O213949   2.546   0.669  12.431  0.9440 -0.2071  0.2088
   10MPD2     C13950   2.707   0.171  12.345 -0.1447  0.0033 -0.3148
   10MPD2    C113951   2.622   0.140  12.449 -0.2621 -0.6917 -0.3961
   10MPD2    C213952   2.543   0.235  12.505  0.0715 -0.0982  1.0254
   10MPD2    C313953   2.554   0.368  12.462  0.0959 -0.3522 -0.1073
   10MPD2    C413954   2.626   0.396  12.345  0.1215  0.5830 -0.3705
   10MPD2    C513955   2.698   0.294  12.290 -0.5590  0.0917 -0.4652
   10MPD2     H13956   2.483   0.218  12.594  0.2712 -1.3903  0.9170
   10MPD2    H113957   2.635   0.497  12.308 -3.2146  1.0857  0.1868
   10MPD2    H213958   2.783   0.103  12.307  0.4361  1.1431 -1.1913
   10MPD2    H313959   2.761   0.312  12.204  0.7935 -0.9969  0.2965
   10MPD2     N13960   2.491   0.466  12.536 -0.1915 -0.4450  0.6001
   10MPD2    H513961   2.452   0.430  12.623  0.9886  1.0912  1.7715
   10MPD2    N113962   2.630   0.021  12.522 -0.1389  0.3585  0.1697
   10MPD2    H713963   2.570   0.011  12.603 -0.4746 -0.4212 -0.1688
   11MPD2     C13964   3.975   3.507  13.329  0.4895 -0.0220 -0.0159
   11MPD2    C113965   3.935   3.608  13.420 -0.1227 -0.5413  0.8749
   11MPD2    C213966   3.895   3.732  13.380 -0.3373  0.1080  0.3438
   11MPD2    C313967   3.895   3.766  13.248  0.5084 -0.1397  0.7340
   11MPD2    C413968   3.938   3.675  13.157  0.0485  0.8474  0.0533
   11MPD2    C513969   3.956   3.546  13.198 -0.2701 -0.0398 -0.9913
   11MPD2     H13970   3.870   3.801  13.460 -1.2656 -2.0920  1.9385
   11MPD2    H113971   3.942   3.704  13.052  1.0092 -0.9511 -0.4034
   11MPD2    H213972   3.987   3.402  13.350  1.2368 -0.0833 -0.7490
   11MPD2    H313973   3.953   3.470  13.121 -1.8369 -1.5963  0.6101
   11MPD2     N13974   3.872   3.896  13.196 -0.4330 -0.3937 -0.3202
   11MPD2    H513975   3.902   3.905  13.100 -0.9274  0.2209 -0.4172
   11MPD2    N113976   3.921   3.574  13.557  0.1239  0.2259 -0.4943
   11MPD2    H713977   3.896   3.656  13.612 -0.9993  0.0620 -0.7690
    1MPD1     C13978   1.184   1.479  17.127  0.0689 -0.3727  0.3139
    1MPD1    C113979   1.232   1.524  17.249 -0.2843  0.2627 -0.4723
    1MPD1    C213980   1.365   1.529  17.276 -0.0494  0.1544 -0.9733
    1MPD1    C313981   1.455   1.476  17.177 -0.3262  0.1435 -0.1756
    1MPD1    C413982   1.405   1.434  17.058 -0.3714 -0.1156 -0.3875
    1MPD1    C513983   1.269   1.433  17.034 -0.6078  0.3726 -0.0175
    1MPD1     H13984   1.402   1.564  17.372  0.4201 -3.4973  0.2130
    1MPD1    H113985   1.463   1.393  16.975 -0.3732 -1.1546  0.1251
    1MPD1    H213986   1.080   1.470  17.098  0.4294 -0.0601 -1.1000
    1MPD1    H313987   1.225   1.391  16.944  0.8553 -0.0545 -0.5291
    1MPD1     N13988   1.593   1.463  17.195  0.3142 -0.3120  0.0517
    1MPD1    H513989   1.654   1.428  17.122  0.7830 -0.1979  0.3891
    1MPD1    N113990   1.141   1.570  17.345 -0.1507 -0.2640  0.4147
    1MPD1    H613991   1.141   1.510  17.427  0.9299 -0.2198  0.4543
    1MPD1    H713992   1.043   1.561  17.320  0.4889  0.7190 -2.4375
    2MPD1     C13993   2.303   1.676  16.600 -0.3305  0.1885  0.5763
    2MPD1    C113994   2.391   1.646  16.700 -0.5550 -0.4657 -0.5119
    2MPD1    C213995   2.326   1.598  16.812 -0.6432  0.4694 -0.0154
    2MPD1    C313996   2.188   1.601  16.833  0.2366  0.3868 -0.6488
    2MPD1    C413997   2.109   1.630  16.731  0.6852 -0.3215  0.6009
    2MPD1    C513998   2.167   1.659  16.613 -0.2366 -0.1979 -0.2974
    2MPD1     H13999   2.389   1.568  16.896 -0.4644  0.7160 -0.0615
    2MPD1    H114000   2.001   1.631  16.738  0.5249 -0.8074 -2.0088
    2MPD1    H214001   2.330   1.720  16.504 -0.8085  2.0725  1.2933
    2MPD1    H314002   2.093   1.675  16.536  0.3348  2.1609 -0.3548
    2MPD1     N14003   2.139   1.561  16.959 -0.0171  0.1249 -0.0640
    2MPD1    H514004   2.193   1.584  17.042 -1.0658  3.1647 -0.1917
    2MPD1    N114005   2.530   1.634  16.685 -0.5037 -0.0055  0.0406
    2MPD1    H614006   2.574   1.680  16.605  1.9391 -0.6269  1.0202
    2MPD1    H714007   2.579   1.666  16.768  1.1831 -2.3677 -0.0294
    3TMC3    C114008   1.976   1.514  17.113 -0.0143 -0.0903  0.1802
    3TMC3    C214009   2.069   1.515  17.212  0.3124 -0.7907  0.7573
    3TMC3    C314010   2.028   1.508  17.339  0.0037 -0.5269  0.1925
    3TMC3    C414011   1.842   1.511  17.141  0.0578 -0.0808 -0.1283
    3TMC3    C514012   1.806   1.489  17.273 -0.2471 -0.0405  0.2010
    3TMC3    C614013   1.896   1.493  17.375  0.0025  0.0807 -0.7551
    3TMC3     C14014   2.013   1.508  16.973 -0.0648 -0.1743  0.3223
    3TMC3     O14015   1.926   1.485  16.888  0.7346 -0.2788  0.8559
    3TMC3     H14016   2.176   1.516  17.190 -0.2221 -0.8485 -1.8358
    3TMC3    H114017   1.770   1.524  17.061 -0.1407 -1.6898 -0.2018
    3TMC3    H214018   1.856   1.527  17.470  2.0284  0.3240  0.0172
    3TMC3    C714019   1.666   1.487  17.306 -0.2201  0.5300 -0.0678
    3TMC3    C814020   2.126   1.546  17.448  0.3694  0.3806 -0.2496
    3TMC3    O114021   1.624   1.520  17.417 -0.6363  0.1545 -0.0933
    3TMC3    O214022   2.211   1.615  17.397 -0.3027  0.5555 -0.5221
    4MPD1     C14023   2.353   1.541   0.203 -0.2468 -0.3810  0.5419
    4MPD1    C114024   2.237   1.470   0.214 -0.0023 -0.2393 -0.1928
    4MPD1    C214025   2.155   1.467   0.104 -0.7135  0.0064 -0.4304
    4MPD1    C314026   2.189   1.513  17.680  0.4132 -0.3612 -0.4553
    4MPD1    C414027   2.303   1.588  17.670 -1.0009  0.2015 -0.3768
    4MPD1    C514028   2.384   1.599   0.078  1.2424  0.4271  0.0492
    4MPD1     H14029   2.063   1.414   0.126  1.0873 -2.4779  1.0734
    4MPD1    H114030   2.344   1.643  17.586  0.6325 -3.0916 -1.7413
    4MPD1    H214031   2.431   1.551   0.278  0.6699 -0.7504 -0.3590
    4MPD1    H314032   2.476   1.653   0.058  0.8363  1.3281  0.5781
    4MPD1     N14033   2.102   1.495  17.569  0.5414  0.5220 -0.1990
    4MPD1    H514034   2.013   1.447  17.582  0.6135  1.3063  3.1151
    4MPD1    N114035   2.197   1.434   0.346 -0.5109  0.1670  0.1639
    4MPD1    H614036   2.124   1.363   0.343 -0.5743  0.3613 -2.8721
    4MPD1    H714037   2.271   1.397   0.405  0.0226 -0.0010 -0.6209
    1TCq1    O114038   2.369   0.562  10.560  0.1124 -0.3574 -0.1689
    1TCq1    C114039   2.463   0.492  10.499  0.0072 -0.1685 -0.7558
    1TCq1    O214040   2.451   0.432  10.395 -0.2160 -0.0923  0.3435
    1TCq1    C214041   2.593   0.506  10.554 -0.3141  1.0372 -0.0824
    1TCq1    C314042   2.692   0.503  10.457 -0.8410 -0.2382 -0.2362
    1TCq1    C414043   2.823   0.520  10.496  0.2779  0.4694  0.2271
    1TCq1    C514044   2.851   0.495  10.628  0.0084 -0.4514 -0.2126
    1TCq1    C614045   2.752   0.497  10.719  0.1907  0.8471  0.2964
    1TCq1    C714046   2.618   0.506  10.685 -0.3839  0.3237 -0.8666
    1TCq1    C814047   2.792   0.536  10.848  0.2130 -0.0839 -0.6183
    1TCq1    O414048   2.904   0.587  10.862 -0.4636  0.2308 -0.2689
    1TCq1    C914049   2.923   0.484  10.404  0.6966  0.6582  0.4420
    1TCq1    O514050   2.884   0.473  10.286  0.7083 -0.8614  0.1777
    1TCq1    O614051   3.032   0.440  10.453 -0.6874 -0.1897 -0.1654
    1TCq1    H114052   2.402   0.625  10.627 -0.7084  0.8999 -0.9609
    1TCq1    H214053   2.674   0.514  10.351  1.7308  2.4773 -0.3985
    1TCq1    H314054   2.956   0.478  10.652 -0.5749 -3.0616  0.5152
    1TCq1    H414055   2.538   0.506  10.757 -0.5940  1.9142 -1.1182
    2MPD1     C14056   2.636   0.632  11.334  0.5172 -0.3111  0.2150
    2MPD1    C114057   2.567   0.524  11.286 -0.5842 -0.1228  0.3918
    2MPD1    C214058   2.590   0.482  11.154  0.0944  0.4679  0.0981
    2MPD1    C314059   2.681   0.543  11.075 -0.1146 -1.3651  0.1655
    2MPD1    C414060   2.750   0.652  11.122 -0.0493 -0.0759  0.4851
    2MPD1    C514061   2.720   0.696  11.250 -0.2456  0.3165  0.3522
    2MPD1     H14062   2.544   0.391  11.115 -0.4996  1.0528 -0.5833
    2MPD1    H114063   2.810   0.712  11.055 -3.0781  0.1114 -2.1089
    2MPD1    H214064   2.619   0.666  11.436 -1.2983 -2.0026  0.4627
    2MPD1    H314065   2.763   0.783  11.299  1.3377  0.5031 -1.3759
    2MPD1     N14066   2.691   0.507  10.934 -0.8043  0.2132  0.0669
    2MPD1    H514067   2.626   0.433  10.909 -2.0414  1.3997 -0.2533
    2MPD1    N114068   2.475   0.453  11.365  0.0393 -0.0687  0.2874
    2MPD1    H614069   2.410   0.505  11.423 -3.0909 -2.0003 -1.4914
    2MPD1    H714070   2.424   0.390  11.304 -0.4383 -0.8989  1.5481
    1TCq1    O114071   0.329   0.905   1.253  0.4551 -0.1685 -0.1563
    1TCq1    C114072   0.350   1.017   1.316  0.0415 -0.7068  0.5750
    1TCq1    O214073   0.289   1.121   1.315  0.0764 -0.5064  0.0284
    1TCq1    C214074   0.476   1.000   1.382  0.5758 -0.0156 -0.5515
    1TCq1    C314075   0.545   0.881   1.390 -0.6335  0.2213  0.0821
    1TCq1    C414076   0.664   0.891   1.446 -0.5596  0.0463  0.0608
    1TCq1    C514077   0.710   0.994   1.518  0.4375 -0.3429  0.5680
    1TCq1    C614078   0.655   1.114   1.491 -0.2855 -0.1730 -0.2980
    1TCq1    C714079   0.534   1.119   1.429 -0.0050 -0.2523  0.3080
    1TCq1    C814080   0.690   1.229   1.563 -0.5555  0.8652  1.1376
    1TCq1    O414081   0.618   1.327   1.539  0.0442 -0.2428  0.1140
    1TCq1    C914082   0.725   0.771   1.499  0.0340  0.0300 -0.3116
    1TCq1    O514083   0.849   0.772   1.528  0.2059  0.2581  0.7603
    1TCq1    O614084   0.652   0.668   1.519  0.0231 -0.3940  0.1757
    1TCq1    H114085   0.418   0.865   1.241  0.8377  0.9774 -1.1005
    1TCq1    H214086   0.499   0.783   1.387  0.0860 -0.1300  0.7995
    1TCq1    H314087   0.805   0.982   1.570  1.9084  0.8292 -1.8351
    1TCq1    H414088   0.497   1.217   1.399 -0.2071 -0.8735 -1.4577
    2MPD1     C14089   0.962   1.548   1.866 -0.2212 -0.6446  0.3849
    2MPD1    C114090   1.010   1.420   1.884 -0.3435 -0.0674  0.5294
    2MPD1    C214091   0.938   1.312   1.831 -0.0332 -0.0769  0.0177
    2MPD1    C314092   0.841   1.336   1.733 -0.0479 -0.5599 -0.1311
    2MPD1    C414093   0.804   1.464   1.705  0.5926 -0.6046 -0.0290
    2MPD1    C514094   0.865   1.564   1.775 -0.5123 -0.3235  0.7383
    2MPD1     H14095   0.963   1.210   1.859 -1.6916 -0.5126 -0.0823
    2MPD1    H114096   0.726   1.496   1.637 -1.5042 -1.3867  2.0261
    2MPD1    H214097   1.002   1.634   1.919 -0.2211 -0.2337 -0.2788
    2MPD1    H314098   0.839   1.668   1.757 -0.2554 -0.3342  0.3036
    2MPD1     N14099   0.788   1.222   1.664 -0.0324 -0.2572 -0.1260
    2MPD1    H514100   0.832   1.133   1.686 -1.1410 -0.9771 -0.8269
    2MPD1    N114101   1.097   1.392   1.997  0.3269 -0.1769  0.5045
    2MPD1    H614102   1.172   1.461   2.002 -0.6646  0.8438  1.2673
    2MPD1    H714103   1.135   1.297   1.991  1.8737  0.5564 -1.6394
    1MPD1     C14104   4.072   0.003  12.316  0.5968  0.4266  0.7910
    1MPD1    C114105   4.091   0.128  12.368  0.1307  0.1980 -0.2605
    1MPD1    C214106   4.223   0.174  12.387 -0.2421  0.3312  0.2268
    1MPD1    C314107   4.334   0.106  12.332 -0.1088  0.0853  0.5324
    1MPD1    C414108   4.305   4.724  12.256 -0.1728  0.5388  0.0809
    1MPD1    C514109   4.179   4.671  12.255 -1.0080 -0.3433  0.7219
    1MPD1     H14110   4.240   0.269  12.436 -2.9141  0.9569 -0.0546
    1MPD1    H114111   4.377   4.654  12.215 -0.0682  0.4451  0.4301
    1MPD1    H214112   3.977   4.677  12.310  1.1601 -0.5090 -0.2962
    1MPD1    H314113   4.163   4.578  12.202  0.0605  0.2637 -0.6560
    1MPD1     N14114   4.465   0.158  12.341 -0.2374  0.3895  0.2352
    1MPD1    H514115   4.467   0.241  12.399 -0.0585  1.4525 -1.3163
    1MPD1    N114116   3.983   0.181  12.444 -0.1966 -0.6438 -0.2226
    1MPD1    H614117   3.898   0.144  12.404 -0.8177 -0.4316  0.9146
    1MPD1    H714118   3.968   0.281  12.431  1.2185 -0.6275 -1.7550
    2MPD1     C14119   3.693   0.696  11.509  0.3925  0.3556 -1.3964
    2MPD1    C114120   3.816   0.688  11.571  0.3417 -0.0613 -0.1123
    2MPD1    C214121   3.924   0.632  11.509  0.4844  0.1947  0.0158
    2MPD1    C314122   3.915   0.585  11.377  0.9747 -0.0196 -0.1894
    2MPD1    C414123   3.789   0.584  11.322 -0.0379 -0.1285  0.1206
    2MPD1    C514124   3.675   0.632  11.384  0.3567  0.3039  0.4543
    2MPD1     H14125   4.013   0.614  11.569  2.1609 -1.5081 -2.9690
    2MPD1    H114126   3.781   0.565  11.216  0.4657  5.0092 -0.8143
    2MPD1    H214127   3.609   0.745  11.557  0.1314 -2.8248  1.3401
    2MPD1    H314128   3.582   0.645  11.330  1.0498 -2.4567 -1.3869
    2MPD1     N14129   4.026   0.516  11.305  0.0276  0.1095  0.4640
    2MPD1    H514130   4.000   0.465  11.222 -2.4990 -0.1631  1.4342
    2MPD1    N114131   3.803   0.700  11.713  0.2849  0.1086  0.4069
    2MPD1    H614132   3.766   0.794  11.726  1.4355  0.5777  0.3266
    2MPD1    H714133   3.895   0.706  11.757 -0.9455  1.0357  2.8497
    3MPD1     C14134   4.496   4.470  10.857 -0.0152  0.8351  0.3371
    3MPD1    C114135   4.570   4.473  10.974 -0.2797  0.0507  0.3141
    3MPD1    C214136   4.530   4.568  11.065  0.0715 -1.0438  0.0827
    3MPD1    C314137   4.433   4.668  11.049  0.6823 -0.5016 -0.0988
    3MPD1    C414138   4.369   4.664  10.924 -0.1548 -0.2100 -1.1806
    3MPD1    C514139   4.409   4.571  10.825  0.3602 -0.2408  0.2954
    3MPD1     H14140   4.576   4.569  11.163 -1.5144 -2.7641  0.8402
    3MPD1    H114141   4.310   0.020  10.883 -1.3523 -0.9841 -1.0142
    3MPD1    H214142   4.503   4.392  10.781 -0.6819  0.6380  0.4715
    3MPD1    H314143   4.359   4.556  10.730  1.1304 -2.0602  0.1704
    3MPD1     N14144   4.407   0.041  11.144 -0.6784 -0.3838  0.3998
    3MPD1    H514145   4.454   0.037  11.234 -0.6491 -1.6414  0.3327
    3MPD1    N114146   4.656   4.370  11.014 -0.2627 -0.1747  0.0907
    3MPD1    H614147   0.010   4.394  11.071 -0.3583  0.6496 -0.1193
    3MPD1    H714148   4.696   4.316  10.938  0.7969 -2.3755  2.2324
    4MPD2     C14149   0.173   0.784  12.164  0.5729 -0.0618  0.2929
    4MPD2    C114150   0.217   0.658  12.132  0.2572  0.2106  0.0055
    4MPD2    C214151   0.312   0.646  12.036  0.1311  0.1475  0.8060
    4MPD2    C314152   0.354   0.748  11.956  0.2204  0.4590 -0.5632
    4MPD2    C414153   0.308   0.876  11.986 -0.2303  0.8409  0.6023
    4MPD2    C514154   0.223   0.887  12.087  0.3583 -0.2813  0.0941
    4MPD2     H14155   0.355   0.548  12.022  0.5351  0.4767 -0.2397
    4MPD2    H114156   0.331   0.972  11.943 -1.4471  0.1305 -1.6242
    4MPD2    H214157   0.112   0.803  12.251  0.0799  0.0154 -0.0724
    4MPD2    H314158   0.182   0.985  12.110  0.5437 -0.3878  0.8929
    4MPD2     N14159   0.451   0.718  11.856 -0.3396 -0.1548 -0.3583
    4MPD2    H514160   0.483   0.622  11.863 -1.5242 -0.6305 -1.3833
    4MPD2    N114161   0.177   0.541  12.199 -0.1234  0.0733 -0.5497
    4MPD2    H714162   0.239   0.462  12.180  1.9281  1.7632 -0.8719
    5TMC3    C114163   0.084   0.390  12.341 -0.3545 -0.0064 -0.6121
    5TMC3    C214164   4.689   0.323  12.324 -0.2333  0.6444 -0.1017
    5TMC3    C314165   4.698   0.191  12.298  0.0118  0.1541 -0.3578
    5TMC3    C414166   0.205   0.329  12.329 -0.5712  0.1546 -0.3392
    5TMC3    C514167   0.209   0.207  12.275 -0.4702  0.4652  0.7753
    5TMC3    C614168   0.092   0.128  12.265  0.1106 -0.3920 -0.8081
    5TMC3     C14169   0.079   0.525  12.291 -0.0807 -0.2684 -0.3907
    5TMC3     O14170   4.725   0.597  12.344  0.1443  0.2681 -0.3557
    5TMC3     H14171   4.589   0.362  12.342 -0.3530  0.9845 -1.5210
    5TMC3    H114172   0.296   0.381  12.355 -0.1684  0.1907 -1.8412
    5TMC3    H214173   0.101   0.030  12.221 -0.0641 -1.4943  1.5908
    5TMC3    C714174   0.303   0.207  12.160  0.4098  0.3307  0.0423
    5TMC3    C814175   4.575   0.118  12.269 -0.0914 -0.2411  0.4419
    5TMC3    O114176   0.336   0.323  12.133  0.1794  0.6513 -0.5344
    5TMC3    O214177   4.589   0.020  12.193  0.2575 -0.0988 -0.1056
    6TMC3    C114178   4.253   0.473  11.253 -0.3523  0.3632 -0.0343
    6TMC3    C214179   4.226   0.347  11.211  0.0804  0.4294  0.2513
    6TMC3    C314180   4.332   0.258  11.214  0.1833 -0.0943  0.1235
    6TMC3    C414181   4.381   0.519  11.277 -0.8860  0.6227  0.5827
    6TMC3    C514182   4.484   0.427  11.281  0.3473 -0.6652 -0.5486
    6TMC3    C614183   4.456   0.292  11.249  0.5659 -0.1493  0.1506
    6TMC3     C14184   4.157   0.532  11.348 -0.0667 -0.1622 -0.2785
    6TMC3     O14185   4.203   0.606  11.432 -0.5258  0.6131 -0.2040
    6TMC3     H14186   4.128   0.303  11.211  1.2129 -2.0565 -0.1216
    6TMC3    H114187   4.393   0.624  11.301 -2.5519  0.9381  0.0344
    6TMC3    H214188   4.540   0.228  11.222  0.0571 -1.4546  1.7479
    6TMC3    C714189   4.624   0.471  11.271  0.6959  0.0401  0.5323
    6TMC3    C814190   4.317   0.147  11.126  0.0649 -0.8279  0.1442
    6TMC3    O114191   4.715   0.394  11.303  0.0780  0.7243 -0.8692
    6TMC3    O214192   4.244   0.172  11.036 -0.2317  0.2741  0.3884
    7MPD2     C14193   0.602   0.043  11.778 -0.4040 -0.2598 -0.2009
    7MPD2    C114194   0.555   0.168  11.808  0.6715  0.2630  0.1654
    7MPD2    C214195   0.463   0.180  11.910 -0.3072  0.7843 -0.7187
    7MPD2    C314196   0.434   0.075  12.000 -0.4381  0.2270  0.4783
    7MPD2    C414197   0.487   4.678  11.968  0.2578  0.2573 -0.0589
    7MPD2    C514198   0.565   4.657  11.853  0.1290  0.3356 -0.3018
    7MPD2     H14199   0.400   0.267  11.924  0.4149  1.1164  0.4103
    7MPD2    H114200   0.458   4.595  12.031  0.4405  0.4026  0.2199
    7MPD2    H214201   0.663   0.023  11.690 -0.3930  2.4055 -0.8000
    7MPD2    H314202   0.607   4.561  11.823  1.9357  1.3024 -0.8484
    7MPD2     N14203   0.351   0.088  12.116  0.2069  0.0407  0.0087
    7MPD2    H514204   0.336   0.000  12.165  1.4635  0.1361  0.5652
    7MPD2    N114205   0.589   0.282  11.728 -0.0086  0.3525 -0.5671
    7MPD2    H714206   0.633   0.268  11.638  2.6375 -2.8348  1.2432
    8TMC3    C114207   0.640   0.508  11.686  0.3746 -0.2553  0.2664
    8TMC3    C214208   0.586   0.502  11.559 -0.4193  0.0962  1.1959
    8TMC3    C314209   0.542   0.607  11.486  0.0359 -0.4808 -0.2354
    8TMC3    C414210   0.635   0.635  11.742  0.2485 -0.6650  0.1715
    8TMC3    C514211   0.585   0.736  11.673  0.1825 -0.6691  0.0567
    8TMC3    C614212   0.548   0.732  11.543 -0.2261  0.0334  0.6204
    8TMC3     C14213   0.584   0.408  11.781 -0.6318 -0.0621 -0.6556
    8TMC3     O14214   0.551   0.450  11.891 -0.4190 -0.2416 -0.4953
    8TMC3     H14215   0.567   0.405  11.513 -0.9601  1.2174 -0.9313
    8TMC3    H114216   0.691   0.646  11.834  1.6219  0.7062 -0.8240
    8TMC3    H214217   0.497   0.816  11.497  1.0974 -0.2588 -1.3440
    8TMC3    C714218   0.479   0.795  11.751 -0.5458 -1.2201 -0.1331
    8TMC3    C814219   0.432   0.583  11.394  0.0117 -0.9836  0.4412
    8TMC3    O114220   0.420   0.895  11.714 -0.6682 -0.3948 -0.1990
    8TMC3    O214221   0.383   0.471  11.397  1.0817  0.5933  0.2366
    9MPD2     C14222   0.244   0.846  11.203  0.3979  0.2002 -0.5263
    9MPD2    C114223   0.267   0.719  11.262 -0.4085 -0.7349 -0.1928
    9MPD2    C214224   0.153   0.635  11.279  0.6644 -0.3771 -0.6206
    9MPD2    C314225   0.023   0.671  11.238  0.0192 -0.2005 -0.1169
    9MPD2    C414226   0.005   0.793  11.178 -0.2134  0.1418  0.8714
    9MPD2    C514227   0.114   0.875  11.160  0.3661 -0.3119  0.6331
    9MPD2     H14228   0.172   0.535  11.318 -1.0104 -0.1127  0.8875
    9MPD2    H114229   4.631   0.827  11.153  0.1517  0.3064 -0.3889
    9MPD2    H214230   0.325   0.917  11.202  1.1691 -0.6721  0.2318
    9MPD2    H314231   0.090   0.976  11.130  0.4844 -0.1279  1.1750
    9MPD2     N14232   4.630   0.608  11.250 -0.3028  0.5770 -0.1000
    9MPD2    H514233   4.544   0.659  11.235 -0.4787  0.6106  1.0729
    9MPD2    N114234   0.397   0.695  11.316  0.0227  0.0363 -0.1200
    9MPD2    H714235   0.464   0.769  11.298  0.4335 -0.0977  0.8746
    1MPD1     C14236   2.924   1.118  16.238  0.6079 -0.1395  0.8049
    1MPD1    C114237   2.844   1.007  16.275 -0.7705 -0.3069  0.0172
    1MPD1    C214238   2.916   0.899  16.332 -0.6864 -0.2117  0.9410
    1MPD1    C314239   3.058   0.905  16.333  0.3958 -0.0273  0.3920
    1MPD1    C414240   3.124   1.012  16.285 -0.1834  0.6469  0.1906
    1MPD1    C514241   3.060   1.127  16.241 -0.2650  0.7687 -0.4616
    1MPD1     H14242   2.868   0.813  16.378 -0.4764 -0.9417 -0.2161
    1MPD1    H114243   3.233   1.015  16.278 -0.1398 -0.2543  0.5089
    1MPD1    H214244   2.871   1.207  16.208  0.5432 -0.5554 -0.3140
    1MPD1    H314245   3.116   1.211  16.201  0.0879  0.2190 -1.1276
    1MPD1     N14246   3.146   0.797  16.376  0.1495 -0.2110  0.6475
    1MPD1    H514247   3.242   0.799  16.343  0.4035  0.4661  1.4345
    1MPD1    N114248   2.704   1.012  16.278  0.1682 -0.0778  0.0308
    1MPD1    H614249   2.663   0.923  16.248 -0.6036  0.0168  0.8194
    1MPD1    H714250   2.664   1.094  16.234  1.7492  0.3045 -0.6836
    2MPD1     C14251   3.771   0.621  15.832  0.2515  0.2140  0.5366
    2MPD1    C114252   3.718   0.733  15.896  0.6243 -0.0257 -0.0736
    2MPD1    C214253   3.624   0.710  15.990 -0.0689  1.2302 -0.7597
    2MPD1    C314254   3.592   0.581  16.028 -0.2462 -0.1454 -0.1652
    2MPD1    C414255   3.642   0.468  15.962  0.6585 -0.2460  0.0362
    2MPD1    C514256   3.731   0.494  15.860  0.7503  0.6281  0.8171
    2MPD1     H14257   3.581   0.798  16.038 -2.8560 -0.5235 -0.0626
    2MPD1    H114258   3.617   0.365  15.983  3.7528 -0.9435  0.2161
    2MPD1    H214259   3.832   0.640  15.745 -0.3863  0.9899  0.2625
    2MPD1    H314260   3.763   0.412  15.797  0.0399  2.7181 -2.3061
    2MPD1     N14261   3.503   0.578  16.135 -0.0030 -0.4553  0.0157
    2MPD1    H514262   3.472   0.667  16.174  0.3907 -0.6024  0.6710
    2MPD1    N114263   3.740   0.857  15.839  0.0697 -0.1202  0.1410
    2MPD1    H614264   3.828   0.873  15.790 -0.2172  1.7079  0.2320
    2MPD1    H714265   3.748   0.926  15.913  1.4680  0.0839 -0.2018
    3TCq2    C114266   3.473   0.456  16.195  0.5867  0.7046  0.0910
    3TCq2    O214267   3.546   0.358  16.197  0.8574 -0.3948  0.1975
    3TCq2    C214268   3.382   0.470  16.309  0.4932  0.5712  0.1854
    3TCq2    C314269   3.405   0.384  16.414 -0.0442 -0.3620 -0.3017
    3TCq2    C414270   3.325   0.403  16.525 -0.0711 -0.1804  0.2453
    3TCq2    C514271   3.230   0.502  16.531 -0.0392 -0.5161  0.9543
    3TCq2    C614272   3.210   0.582  16.426 -0.1906  0.6010 -0.3549
    3TCq2    C714273   3.287   0.568  16.312 -0.3768 -0.0534 -0.1726
    3TCq2    C814274   3.113   0.684  16.440 -0.1154  0.4215  0.4052
    3TCq2    O414275   3.009   0.656  16.502  0.1699 -0.0919  0.6193
    3TCq2    C914276   3.347   0.312  16.637  0.1101 -0.5685  0.2390
    3TCq2    O514277   3.448   0.240  16.634  0.1407 -0.6859 -0.2199
    3TCq2    O614278   3.273   0.336  16.739 -0.5470  0.4056 -0.3503
    3TCq2    H214279   3.493   0.321  16.413  2.0426  2.5551 -2.2698
    3TCq2    H314280   3.160   0.502  16.613 -0.3047 -1.3372  0.7269
    3TCq2    H414281   3.270   0.625  16.221  2.2887  0.6915 -0.2113
    1TCq1    O114282   2.755   2.463  12.651  0.7426  0.5521 -0.3970
    1TCq1    C114283   2.856   2.497  12.735 -0.2813 -0.5541  0.1265
    1TCq1    O214284   2.965   2.440  12.746  0.7602 -0.6666  0.4330
    1TCq1    C214285   2.832   2.632  12.780 -0.3535  0.5992 -0.0268
    1TCq1    C314286   2.702   2.672  12.793 -1.3487  0.5805  0.4062
    1TCq1    C414287   2.686   2.802  12.830  0.0187 -0.0651  0.1988
    1TCq1    C514288   2.790   2.881  12.858 -0.5262 -0.4322  0.0112
    1TCq1    C614289   2.920   2.840  12.840  1.4249 -0.2383 -0.2877
    1TCq1    C714290   2.942   2.711  12.803  0.1308  0.0953  0.4427
    1TCq1    C814291   3.037   2.908  12.879 -0.1659 -0.1846 -0.2985
    1TCq1    O414292   3.147   2.866  12.843  0.0777  0.3130  0.0110
    1TCq1    C914293   2.557   2.863  12.844 -0.6449 -0.3011  0.2684
    1TCq1    O514294   2.558   2.990  12.849  0.8923 -0.1311 -0.0566
    1TCq1    O614295   2.462   2.794  12.804 -0.6855 -0.0615  0.1804
    1TCq1    H114296   2.693   2.535  12.629 -2.2478 -1.4049  1.6799
    1TCq1    H214297   2.616   2.608  12.781 -0.0797 -0.8247 -1.1661
    1TCq1    H314298   2.775   2.982  12.892 -1.0162 -0.5796  0.2412
    1TCq1    H414299   3.045   2.679  12.792 -0.4887 -1.8325  0.1122
    2MPD2     C14300   3.234   3.103  12.991  0.4632 -0.4235  0.2851
    2MPD2    C114301   3.102   3.085  13.040  0.1744 -0.0291 -0.6321
    2MPD2    C214302   3.054   3.149  13.152  0.6631  0.4977  0.1056
    2MPD2    C314303   3.136   3.232  13.230 -0.0680 -0.4912 -0.0274
    2MPD2    C414304   3.260   3.261  13.182  0.4152 -0.4871 -0.6727
    2MPD2    C514305   3.303   3.192  13.069  0.1693  0.1983 -0.1674
    2MPD2     H14306   2.955   3.125  13.189  0.9290 -1.1110 -0.2246
    2MPD2    H114307   3.330   3.332  13.224 -1.8870  0.9848  0.6440
    2MPD2    H214308   3.281   3.064  12.901  0.9120  0.1995  0.2554
    2MPD2    H314309   3.403   3.227  13.042  0.4900 -0.9320 -0.4330
    2MPD2     N14310   3.085   3.289  13.347 -0.4237  0.2774  0.1922
    2MPD2    H514311   2.993   3.257  13.378 -1.4159 -0.5935 -3.7270
    2MPD2    N114312   3.009   3.007  12.972  0.3945 -0.0863 -0.3901
    2MPD2    H714313   2.914   3.002  13.009  0.5688 -1.6806 -0.1761
    3TCq1    O114314   2.671   3.526  13.732  0.0559  0.3691 -0.0926
    3TCq1    C114315   2.737   3.515  13.614 -0.5561  0.1143 -0.0905
    3TCq1    O214316   2.701   3.574  13.510  0.2099 -0.4844  0.0676
    3TCq1    C214317   2.869   3.458  13.642  0.0153  0.1006  0.5739
    3TCq1    C314318   2.927   3.456  13.769  0.6469  0.1433  0.1723
    3TCq1    C414319   3.047   3.392  13.788  0.1177 -0.8508 -0.7572
    3TCq1    C514320   3.118   3.361  13.679  0.9897  0.3437 -0.6465
    3TCq1    C614321   3.067   3.379  13.555  0.2312  0.4008 -0.8172
    3TCq1    C714322   2.946   3.430  13.533  0.3069 -0.4290 -0.7906
    3TCq1    C814323   3.151   3.353  13.439  0.1627 -1.0615 -0.0167
    3TCq1    O414324   3.273   3.366  13.456 -0.2211  0.0892  0.4759
    3TCq1    C914325   3.109   3.390  13.913  0.0070  0.2314 -0.0341
    3TCq1    O514326   3.236   3.372  13.925  0.2371 -0.4741  0.4469
    3TCq1    O614327   3.032   3.396  14.011 -0.3949  0.0698  0.3818
    3TCq1    H114328   2.699   3.452  13.789  0.7058 -0.2943 -1.2745
    3TCq1    H214329   2.872   3.481  13.859  0.4419  0.4006 -0.0242
    3TCq1    H314330   3.219   3.322  13.687  2.2303  3.6103 -0.4922
    3TCq1    H414331   2.910   3.445  13.431  0.4743 -1.0540 -0.9431
    1MPD2     C14332   1.349   4.594  15.436 -0.0113  0.9643 -0.3247
    1MPD2    C114333   1.423   4.496  15.371  0.5622 -0.2144 -0.7208
    1MPD2    C214334   1.474   4.395  15.449 -0.0476  0.4239 -0.4962
    1MPD2    C314335   1.473   4.397  15.581 -0.1901 -0.0177 -0.3973
    1MPD2    C414336   1.417   4.502  15.648 -0.2161 -0.6077  1.0207
    1MPD2    C514337   1.353   4.599  15.573 -0.3533 -0.5973  0.7322
    1MPD2     H14338   1.527   4.313  15.402  0.1377 -0.4562  1.2223
    1MPD2    H114339   1.417   4.518  15.755  0.2358  0.3765  0.8672
    1MPD2    H214340   1.292   4.676  15.393  2.8743  2.7765 -0.6691
    1MPD2    H314341   1.285   4.670  15.618  0.7523  0.3828  0.8387
    1MPD2     N14342   1.549   4.293  15.640  0.3694  0.0663  0.4710
    1MPD2    H514343   1.598   4.237  15.571 -1.2408 -0.4674 -0.2379
    1MPD2    N114344   1.416   4.497  15.226  0.1825  0.4533  0.6447
    1MPD2    H714345   1.378   4.582  15.185 -1.3161 -0.5439 -0.0528
    2TMC3    C114346   1.455   4.405  15.002 -0.1138  0.1609  0.3986
    2TMC3    C214347   1.480   4.272  14.970  0.8795  0.1400  0.4532
    2TMC3    C314348   1.541   4.238  14.858  0.2944 -0.5754 -0.0450
    2TMC3    C414349   1.512   4.500  14.918  0.2572 -0.0803 -0.6198
    2TMC3    C514350   1.571   4.458  14.797 -0.1409  0.1386  0.6845
    2TMC3    C614351   1.580   4.324  14.762  0.5334  0.3103  0.5064
    2TMC3     C14352   1.469   4.397  15.148 -0.7304  0.4786 -0.1101
    2TMC3     O14353   1.533   4.301  15.188 -0.8919 -0.1931  0.3505
    2TMC3     H14354   1.426   4.201  15.030  2.0948 -1.1439  0.0258
    2TMC3    H114355   1.496   4.605  14.937  0.4739  0.0528 -1.1814
    2TMC3    H214356   1.653   4.294  14.689 -0.4618  2.0189 -1.1910
    2TMC3    C714357   1.591   4.553  14.688 -0.3115 -0.0875 -0.0419
    2TMC3    C814358   1.617   4.115  14.870  0.4211  0.1665 -0.2874
    2TMC3    O114359   1.595   4.510  14.574  0.0478  0.1926 -0.1677
    2TMC3    O214360   1.666   4.055  14.774 -0.2462  0.1429  0.0134
    3TCq1    O114361   2.310   0.762  14.567 -0.3164 -0.1631 -1.3201
    3TCq1    C114362   2.291   0.721  14.697  0.4262 -0.0601  0.1357
    3TCq1    O214363   2.367   0.713  14.790 -0.3322 -0.1609  0.7539
    3TCq1    C214364   2.146   0.688  14.717  0.5923 -0.1021 -0.4377
    3TCq1    C314365   2.099   0.699  14.844 -0.1395 -0.5791  0.2909
    3TCq1    C414366   1.982   0.646  14.883  0.3685  0.0246  0.0112
    3TCq1    C514367   1.904   0.582  14.791  0.1633  0.0054  0.5502
    3TCq1    C614368   1.948   0.587  14.657  0.0954 -0.6938  0.2473
    3TCq1    C714369   2.076   0.629  14.618 -0.2821 -0.1822 -0.3179
    3TCq1    C814370   1.890   0.485  14.576 -0.1384 -1.7369  0.0857
    3TCq1    O414371   1.884   0.517  14.457  0.5163  0.4994  0.3134
    3TCq1    C914372   1.945   0.636  15.015 -1.0289  0.3090  0.3556
    3TCq1    O514373   1.987   0.730  15.085 -0.0671  0.8945  0.3163
    3TCq1    O614374   1.839   0.575  15.041 -0.0997  0.0737 -0.1436
    3TCq1    H114375   2.231   0.775  14.511 -2.3010 -0.3495  1.4073
    3TCq1    H214376   2.167   0.752  14.910  1.0999  0.1062 -1.5352
    3TCq1    H314377   1.806   0.548  14.822 -0.1171  1.0852  0.8485
    3TCq1    H414378   2.109   0.630  14.514 -3.5385  0.0306 -1.3307
    4MPD2     C14379   1.702   0.281  14.476 -0.9573 -0.0371 -0.3716
    4MPD2    C114380   1.760   0.277  14.598 -0.2975 -0.0931  0.2602
    4MPD2    C214381   1.735   0.164  14.675 -0.4011 -0.0282  0.0432
    4MPD2    C314382   1.662   0.053  14.635 -0.6306 -0.7772 -0.3337
    4MPD2    C414383   1.608   0.064  14.510  0.3266  0.4629  0.4478
    4MPD2    C514384   1.623   0.176  14.435  0.3065 -0.0763 -0.7538
    4MPD2     H14385   1.783   0.148  14.770 -1.6803 -2.0957  0.3553
    4MPD2    H114386   1.540   4.715  14.470  0.2180  0.8147 -0.0163
    4MPD2    H214387   1.719   0.361  14.405 -0.9044  0.3705  0.0978
    4MPD2    H314388   1.579   0.173  14.336  0.7110 -0.9741 -0.9069
    4MPD2     N14389   1.634   4.677  14.731  0.1791  0.3989  0.1846
    4MPD2    H514390   1.649   4.691  14.831  1.0116 -0.2735  0.1515
    4MPD2    N114391   1.842   0.380  14.650  0.1447  0.5435 -0.3706
    4MPD2    H714392   1.857   0.392  14.750  0.6403  1.4275 -0.5498
    5TMC2    C114393   1.791   4.031  15.647  0.2104  0.8362 -0.0617
    5TMC2    C214394   1.755   3.910  15.706  0.3997  0.1674  0.1582
    5TMC2    C314395   1.657   3.915  15.800  0.0352  0.1025 -0.2597
    5TMC2    C414396   1.753   4.146  15.703  0.5235  0.0956 -0.1524
    5TMC2    C514397   1.653   4.157  15.790 -0.5981  0.3878  1.1182
    5TMC2    C614398   1.602   4.037  15.836 -0.3653 -0.2601  0.6232
    5TMC2     C14399   1.771   4.043  15.505  0.0389 -0.4343 -0.4508
    5TMC2     O14400   1.686   4.129  15.475 -0.2968 -0.7192 -0.2838
    5TMC2     H14401   1.779   3.821  15.648  1.7281 -0.3545  1.5175
    5TMC2    H114402   1.791   4.240  15.665 -0.4075  0.3059 -0.5551
    5TMC2    H214403   1.520   4.048  15.905 -1.4281  1.5937 -0.9306
    5TMC2    C714404   1.554   4.256  15.775 -0.4519  0.5721 -0.6004
    5TMC2    C814405   1.573   3.793  15.829  0.1231  0.2466  0.1286
    5TMC2    O114406   1.484   4.291  15.867  0.1695 -0.8127  0.3093
    5TMC2    O214407   1.453   3.798  15.845  0.3099 -0.5094 -0.5610
    5TMC2    O514408   1.635   3.679  15.804  0.0385  0.1039 -0.4246
    5TMC2    H514409   1.733   3.688  15.811  0.0204  0.3840 -0.5309
    6MPD2     C14410   1.793   3.912  14.999  0.2479 -0.3508  0.1328
    6MPD2    C114411   1.733   4.013  15.069  0.3878 -0.3327  0.0303
    6MPD2    C214412   1.749   4.032  15.209 -0.1036  0.8671 -0.1592
    6MPD2    C314413   1.816   3.938  15.284  0.2937 -0.3373  0.4371
    6MPD2    C414414   1.879   3.836  15.213 -0.7130  0.0577  0.5452
    6MPD2    C514415   1.880   3.829  15.070  0.3741  0.2291  0.0812
    6MPD2     H14416   1.707   4.122  15.253  1.8525  0.8863  1.6360
    6MPD2    H114417   1.927   3.756  15.268 -1.2251 -0.2225  0.5894
    6MPD2    H214418   1.787   3.904  14.891 -0.4787  1.2181  0.0555
    6MPD2    H314419   1.939   3.750  15.024 -1.2984 -0.3642 -1.0473
    6MPD2     N14420   1.835   3.942  15.428 -0.0827 -0.0004  0.6803
    6MPD2    H514421   1.890   3.870  15.473  0.6846 -0.6235 -1.2376
    6MPD2    N114422   1.642   4.097  15.005  0.2732 -0.3239  0.5041
    6MPD2    H714423   1.599   4.168  15.064 -0.1492  0.5813 -0.9003
  945NH3     N114424   2.523   0.618   0.028 -0.1433 -0.3960  0.1936
  945NH3     H214425   2.453   0.580  17.670 -0.2402  0.5767 -0.2850
  945NH3     H314426   2.530   0.717   0.009 -4.1100 -0.0720  0.3473
  945NH3     H414427   2.614   0.588  17.699  0.6452  2.0285  0.1838
  946SOD     NA14428   1.056   2.088  13.552  0.0591 -0.0792 -0.1160
  947SOD     NA14429   1.803   0.656  15.246 -0.0990  0.6382 -0.1792
  948SOD     NA14430   1.266   1.088   8.603  0.0702  0.1201 -0.1711
  949SOD     NA14431   3.234   2.731  11.543  0.2489  0.4044  0.3087
  950SOD     NA14432   0.532   3.908  12.140 -0.2652 -0.5655 -0.0298
  951SOD     NA14433   2.672   0.550   1.070  0.4196  0.1713  0.5354
  952SOD     NA14434   0.904   3.014  10.919 -0.5429  0.5473 -0.8487
  953SOD     NA14435   0.935   0.643   2.778  0.0195 -0.6086  0.2113
  954SOD     NA14436   1.105   3.020  12.854 -0.0062 -0.1472  0.1051
  955SOD     NA14437   3.804   4.157  12.546  0.0481 -0.1076  0.5489
  956SOD     NA14438   0.971   3.321   2.810 -0.2939  0.2643  0.4562
  957SOD     NA14439   2.839   0.601  10.121  0.2170  0.4423 -0.3080
  958SOD     NA14440   2.751   2.914   7.931 -0.3016  0.7170 -0.1462
  959SOD     NA14441   2.602   0.011  15.431 -0.3494 -0.2731 -0.1125
  960SOD     NA14442   4.642   1.629  14.960  0.3042 -0.1744 -0.0260
  961SOD     NA14443   3.528   3.764  17.644 -0.0579  0.1574 -0.1116
  962SOD     NA14444   4.494   0.971  12.138 -0.1711 -0.1209 -0.1989
  963SOD     NA14445   3.010   2.391  10.296  0.4672  0.2514 -0.0769
  964SOD     NA14446   2.975   4.707  10.329 -0.3882  0.3755 -0.2244
  965SOD     NA14447   1.868   0.979   3.152  0.1619 -0.3951 -0.3126
  966SOD     NA14448   3.495   2.799  17.069 -0.0635  0.3666  0.1966
  967SOD     NA14449   1.108   3.865  16.100  0.1353  0.3778  0.1065
  968SOD     NA14450   2.866   2.435   9.917 -0.0896  0.2135 -0.0440
  969SOD     NA14451   4.600   1.429   3.880 -0.4894  0.0088 -0.1809
  970SOD     NA14452   1.172   2.634  10.672  0.0253 -0.4524  0.5064
  971SOD     NA14453   1.546   4.090  14.510 -0.0409  0.3738 -0.4266
  972SOD     NA14454   3.471   4.244  12.668  0.2971 -0.4623 -0.2255
  973SOD     NA14455   2.446   3.447  10.060 -0.4195 -0.4239 -0.3581
  974SOD     NA14456   4.085   2.720  13.127 -0.1847 -0.5033 -0.2925
  975SOD     NA14457   3.901   3.924  14.856  0.0440 -0.3274  0.5359
  976SOD     NA14458   1.670   2.110  12.669  0.6588  0.5126 -0.1455
  977SOD     NA14459   3.076   3.207  11.335  0.5703  0.0642 -0.1136
  978SOD     NA14460   2.269   2.866   0.454  0.2401 -0.2104  0.4309
  979SOD     NA14461   3.500   1.059  14.532 -0.0406  0.5268 -0.4502
  980SOD     NA14462   1.429   2.586  10.503 -0.2611  0.2353  0.1218
  981SOD     NA14463   1.020   1.041   3.246 -0.3378  0.3864  0.1671
  982SOD     NA14464   0.055   2.240   1.367 -0.2766 -0.0709 -0.0447
  983SOD     NA14465   1.938   3.502   9.906  0.2932 -0.1692 -0.1224
  984SOD     NA14466   3.009   2.950  11.606  0.5348  0.0813  0.0789
  985SOD     NA14467   3.638   0.165  16.241  0.3430  0.6454 -0.0105
  986SOD     NA14468   3.223   3.346  14.139  0.3437  0.1123 -0.2110
  987SOD     NA14469   0.491   3.020   8.971  0.4522 -0.0123 -0.0699
  988SOD     NA14470   3.851   4.076   5.828 -0.3371 -0.3910 -0.0312
  989SOD     NA14471   0.112   4.673  13.304  0.1108 -0.4879 -0.4339
  990SOD     NA14472   3.163   3.697   7.086 -0.1187 -0.2414 -0.0122
  991SOD     NA14473   3.519   2.398  13.235  0.8759 -0.3094  0.4080
  992SOD     NA14474   2.491   1.957  17.473 -0.0922  0.5317  0.1849
  993SOD     NA14475   1.546   3.777  10.508  0.1804  0.4213  0.8475
  994SOD     NA14476   2.596   3.301  11.325  0.3279 -0.1496  0.0599
  995SOD     NA14477   1.977   2.175   0.400  0.1480 -0.6359 -0.1534
  996SOD     NA14478   1.960   3.415  10.642 -0.3454 -0.2781  0.2010
  997SOD     NA14479   1.885   3.259   8.082  0.0005 -0.3340 -0.3204
  998SOD     NA14480   4.661   4.677   0.763  0.4483  0.0631  0.3693
  999SOD     NA14481   3.467   0.203   0.741  0.3958 -0.6138  0.4231
 1000SOD     NA14482   1.503   1.920   2.591 -0.3600  0.4723 -0.4649
 1001SOD     NA14483   2.211   0.974  13.445 -0.0080  0.2013  0.0667
 1002SOD     NA14484   4.502   4.334   0.166  0.0888  0.3437 -0.0695
 1003SOD     NA14485   1.290   0.770   1.915 -0.4297 -0.3538 -1.2254
 1004SOD     NA14486   1.744   1.263   7.051 -0.1443  0.2817  0.3038
 1005SOD     NA14487   3.446   3.326  13.886  0.4605 -0.6810 -0.0167
 1006SOD     NA14488   3.545   4.500  10.489  0.4641 -0.5076 -0.1617
 1007SOD     NA14489   3.166   2.426  11.353  0.1187  0.2449 -0.0678
 1008SOD     NA14490   3.751   4.609  15.114 -0.5731  0.2343  0.0720
 1009SOD     NA14491   3.087   4.631  17.397  0.3485  0.0740  0.6332
 1010SOD     NA14492   0.800   2.305   8.887  0.0033  0.0354 -0.4412
 1011SOD     NA14493   2.883   2.161  10.191  0.1019 -0.1922  0.3228
 1012SOL     OW14494   0.109   2.379   7.477 -0.2411 -0.6229 -0.0951
 1012SOL    HW114495   0.188   2.431   7.486 -1.3757  0.6681  2.3084
 1012SOL    HW214496   0.047   2.447   7.451 -1.6492 -2.5070 -1.6679
 1013SOL     OW14497   1.085   0.199   1.926 -0.2910 -0.0448  0.7064
 1013SOL    HW114498   1.100   0.138   1.854  0.7917  1.0833 -0.0169
 1013SOL    HW214499   1.174   0.195   1.961 -0.0637  1.2566  0.2670
 1014SOL     OW14500   2.508   1.721   7.357 -0.1908 -0.0022 -0.2909
 1014SOL    HW114501   2.458   1.671   7.421 -0.7952  1.6215  0.5081
 1014SOL    HW214502   2.602   1.717   7.375 -0.5724 -0.7066  1.5521
 1015SOL     OW14503   1.952   3.932   1.180  0.4002  0.3025 -0.3676
 1015SOL    HW114504   1.868   3.895   1.209 -0.3796  0.5539 -2.3288
 1015SOL    HW214505   2.012   3.895   1.245  1.5752 -0.5001 -1.9218
 1016SOL     OW14506   3.207   3.311  14.380 -0.7000  0.1573 -0.3554
 1016SOL    HW114507   3.216   3.396  14.422 -0.1850  0.4987 -1.1556
 1016SOL    HW214508   3.285   3.274  14.421 -1.3377 -1.5009 -0.6391
 1017SOL     OW14509   0.687   3.981  13.237 -0.1260  0.4484 -0.0864
 1017SOL    HW114510   0.606   3.944  13.203  1.0137 -2.4455  0.3556
 1017SOL    HW214511   0.710   3.928  13.313  0.3230  0.9401  0.1253
 1018SOL     OW14512   0.784   4.162   4.919 -0.0271 -0.1361  0.8377
 1018SOL    HW114513   0.765   4.221   4.992 -0.8110 -1.0005  1.3282
 1018SOL    HW214514   0.845   4.100   4.958 -0.6257 -1.6616 -0.6468
 1019SOL     OW14515   2.050   1.852  11.397 -0.2955  0.3557 -1.3107
 1019SOL    HW114516   2.123   1.859  11.335  0.4666 -0.6817 -0.5404
 1019SOL    HW214517   2.050   1.756  11.402  2.0173  0.5682  3.4718
 1020SOL     OW14518   4.513   1.607  17.642 -0.0991 -0.1432  0.1309
 1020SOL    HW114519   4.605   1.630  17.655 -0.5468  2.0596 -0.6345
 1020SOL    HW214520   4.457   1.681  17.665  0.8682  0.6439 -0.0420
 1021SOL     OW14521   4.093   1.037  16.507 -0.5413  0.1522  0.7397
 1021SOL    HW114522   4.094   1.006  16.597 -0.1041 -1.7276  0.0843
 1021SOL    HW214523   4.150   1.112  16.521 -0.4688  0.1582  0.4304
 1022SOL     OW14524   2.689   1.998   7.152  0.3749  0.2963 -0.0034
 1022SOL    HW114525   2.652   2.010   7.239 -1.2129  0.0725 -0.6460
 1022SOL    HW214526   2.651   1.914   7.125 -0.8589  0.9685 -0.3905
 1023SOL     OW14527   3.777   1.729  17.448  0.1276  0.4675 -0.0235
 1023SOL    HW114528   3.707   1.749  17.509  0.4495  0.5780  0.3125
 1023SOL    HW214529   3.770   1.635  17.430  0.1401  0.5955 -0.6960
 1024SOL     OW14530   2.609   0.324   9.686 -0.5282  0.0205 -0.4851
 1024SOL    HW114531   2.561   0.334   9.768  1.1814 -1.3690  0.6810
 1024SOL    HW214532   2.567   0.246   9.651  2.4900 -1.0601 -1.6941
 1025SOL     OW14533   3.384   4.136   8.756 -0.5108  0.1489  0.7768
 1025SOL    HW114534   3.351   4.048   8.777  0.2099 -0.7463 -1.8355
 1025SOL    HW214535   3.388   4.142   8.660 -1.2505  1.3188  0.8221
 1026SOL     OW14536   2.183   3.502  13.125 -0.6355  0.5718 -0.0184
 1026SOL    HW114537   2.202   3.525  13.034  0.2713  2.0624  0.5482
 1026SOL    HW214538   2.241   3.426  13.133  0.2035  1.2224  0.0748
 1027SOL     OW14539   4.667   0.030   6.277 -0.5309 -0.4293  0.3956
 1027SOL    HW114540   0.001   0.068   6.214 -2.8524  1.6929 -0.5230
 1027SOL    HW214541   4.672   4.661   6.262 -0.6014 -0.6897  1.9955
 1028SOL     OW14542   1.139   3.008   2.225 -0.2023 -0.0228  0.4361
 1028SOL    HW114543   1.095   2.986   2.308 -0.5599  1.3894  0.6188
 1028SOL    HW214544   1.123   2.928   2.175 -2.4327  1.3566 -1.0716
 1029SOL     OW14545   3.583   2.800   3.943 -0.1221 -0.4793 -0.0621
 1029SOL    HW114546   3.562   2.781   3.852  2.1218  1.6240 -1.0261
 1029SOL    HW214547   3.619   2.717   3.973 -0.5830 -0.1424  1.4220
 1030SOL     OW14548   2.113   1.004  16.228 -0.2264  0.5420  0.1851
 1030SOL    HW114549   2.147   1.089  16.257  3.2144 -0.7696  0.0367
 1030SOL    HW214550   2.069   1.020  16.145  1.0027  0.3048 -0.5052
 1031SOL     OW14551   3.880   1.901  12.451 -0.8989 -0.2468  0.0921
 1031SOL    HW114552   3.969   1.917  12.420 -2.0584  2.9563 -1.6068
 1031SOL    HW214553   3.830   1.952  12.386  0.5302  0.3006 -0.5740
 1032SOL     OW14554   1.765   3.790   6.658  0.1008  0.4558 -0.1220
 1032SOL    HW114555   1.703   3.719   6.638  0.5048  0.2170 -0.5376
 1032SOL    HW214556   1.828   3.750   6.718 -1.7629 -0.7904  0.9962
 1033SOL     OW14557   2.569   4.702   9.171  0.2930 -0.1184  0.0120
 1033SOL    HW114558   2.540   4.613   9.191  0.7298  0.2809  2.3956
 1033SOL    HW214559   2.661   4.706   9.195  0.4509  1.1883 -0.8105
 1034SOL     OW14560   3.019   1.659  15.787  0.1758  0.3138 -0.2403
 1034SOL    HW114561   2.994   1.740  15.832  1.1617  0.4716  0.0071
 1034SOL    HW214562   2.939   1.629  15.743  0.5841 -1.9030  0.5121
 1035SOL     OW14563   2.257   1.434   4.396 -0.4773 -0.1830 -0.3802
 1035SOL    HW114564   2.322   1.397   4.337  0.1130 -1.8005  1.2560
 1035SOL    HW214565   2.296   1.406   4.479  0.5109 -0.2319 -0.8691
 1036SOL     OW14566   2.699   1.427  14.707  0.7563  0.3630  0.0600
 1036SOL    HW114567   2.708   1.364  14.634 -1.7383 -1.7593  1.5555
 1036SOL    HW214568   2.788   1.418  14.742  0.6879 -1.0900 -0.1211
 1037SOL     OW14569   1.712   2.055  16.517  0.3940 -0.2210  0.1397
 1037SOL    HW114570   1.691   1.966  16.490  0.4258  0.3005 -1.5879
 1037SOL    HW214571   1.753   2.043  16.603  1.1392  1.1980 -0.0221
 1038SOL     OW14572   2.246   2.058   6.693 -0.0807  0.7898 -0.1023
 1038SOL    HW114573   2.288   2.014   6.767  1.9585  2.2660 -0.3771
 1038SOL    HW214574   2.219   1.973   6.658  2.3137 -1.4305  3.4525
 1039SOL     OW14575   3.451   3.859  13.931 -0.0689 -0.2245  0.2786
 1039SOL    HW114576   3.499   3.937  13.902 -1.0178  0.8085  1.4957
 1039SOL    HW214577   3.519   3.815  13.983  0.4099 -0.2076 -0.3307
 1040SOL     OW14578   2.352   0.493   1.672  0.7948 -0.2411 -0.1542
 1040SOL    HW114579   2.406   0.564   1.635 -1.6052  2.4523  1.5219
 1040SOL    HW214580   2.400   0.417   1.638 -1.9430 -1.7654 -0.5320
 1041SOL     OW14581   1.323   0.532   6.461 -0.0732  0.0534  0.4400
 1041SOL    HW114582   1.326   0.478   6.382  1.5820 -2.5408  2.2970
 1041SOL    HW214583   1.296   0.610   6.413  1.6845 -0.5817 -1.6027
 1042SOL     OW14584   1.450   3.582  10.362 -0.4975 -0.1746 -0.0299
 1042SOL    HW114585   1.369   3.554  10.321 -1.4231 -0.3056  1.8907
 1042SOL    HW214586   1.514   3.521  10.325  2.5253  2.7617  0.3316
 1043SOL     OW14587   3.040   4.021  12.394  0.0212 -0.4635  0.2031
 1043SOL    HW114588   3.120   4.034  12.343 -0.1360  1.8025  0.5420
 1043SOL    HW214589   2.993   3.952  12.346 -0.9696 -1.7040  2.8983
 1044SOL     OW14590   2.780   0.510   8.663  0.2536  0.6122  0.4059
 1044SOL    HW114591   2.770   0.455   8.740  1.4999 -0.0927  0.0616
 1044SOL    HW214592   2.778   0.595   8.706 -1.1006  0.4945  0.5936
 1045SOL     OW14593   2.455   2.545  11.774  0.0871 -0.0665 -0.1002
 1045SOL    HW114594   2.426   2.636  11.773 -1.2306 -0.4866  0.3354
 1045SOL    HW214595   2.549   2.564  11.769 -0.2258  1.4272 -0.3786
 1046SOL     OW14596   1.234   4.638   5.257 -0.0328  0.5636 -0.3044
 1046SOL    HW114597   1.183   4.700   5.310 -1.0141 -1.6538  1.3145
 1046SOL    HW214598   1.206   4.554   5.293  0.2229  0.4434 -0.3876
 1047SOL     OW14599   0.717   3.646   3.648 -0.5709  0.2083  0.1344
 1047SOL    HW114600   0.641   3.588   3.655 -1.3469  1.3974  1.3256
 1047SOL    HW214601   0.734   3.653   3.554  0.0533  2.0917  0.3895
 1048SOL     OW14602   1.109   4.389  17.045 -0.0241  0.3222 -0.0027
 1048SOL    HW114603   1.104   4.437  16.961 -1.5427  1.4068  0.7064
 1048SOL    HW214604   1.015   4.371  17.051 -0.1176  0.2839 -1.4681
 1049SOL     OW14605   2.428   1.429   9.430 -0.1356 -0.0191 -0.3213
 1049SOL    HW114606   2.340   1.441   9.395  0.0520 -0.5660 -0.9784
 1049SOL    HW214607   2.428   1.335   9.411 -1.6474 -0.2796  0.9724
 1050SOL     OW14608   0.015   3.226   7.349  0.1786 -0.0878 -0.1379
 1050SOL    HW114609   0.095   3.185   7.315  0.5969 -0.9236  1.8501
 1050SOL    HW214610   4.726   3.289   7.279  1.2673  1.7317  1.2470
 1051SOL     OW14611   3.957   2.131  13.811  0.4730 -0.5920  0.7652
 1051SOL    HW114612   4.020   2.152  13.742 -0.8290  1.8322  0.3372
 1051SOL    HW214613   3.879   2.179  13.784  1.1591  1.5193  2.5069
 1052SOL     OW14614   4.126   3.293   0.545  0.0032  0.1505 -0.1301
 1052SOL    HW114615   4.090   3.376   0.516 -0.3012  0.1204  0.1600
 1052SOL    HW214616   4.055   3.273   0.606  1.3032 -1.0924  0.9671
 1053SOL     OW14617   2.913   1.401   2.409 -0.3419 -0.4661  0.5933
 1053SOL    HW114618   2.877   1.411   2.321  0.7321  3.8269  0.6481
 1053SOL    HW214619   2.975   1.331   2.388  1.1012  1.1240 -0.3584
 1054SOL     OW14620   1.938   3.662   1.606  0.2507 -0.1689 -0.4920
 1054SOL    HW114621   1.968   3.615   1.529  1.1403 -2.3807  1.2105
 1054SOL    HW214622   1.847   3.676   1.581 -0.0442 -2.7669 -0.8836
 1055SOL     OW14623   1.400   0.501   3.032  0.5565 -0.2039  0.4749
 1055SOL    HW114624   1.426   0.509   2.940 -0.0059 -0.0255  0.3357
 1055SOL    HW214625   1.485   0.473   3.067  1.5188  1.3432 -0.6471
 1056SOL     OW14626   2.943   3.633   3.554  0.4606 -0.3935 -0.0635
 1056SOL    HW114627   2.889   3.578   3.497 -1.0075  0.1241  0.8107
 1056SOL    HW214628   2.945   3.573   3.629  0.6283  0.6535  0.7656
 1057SOL     OW14629   3.565   1.774   3.267 -0.4180 -0.4479 -0.2331
 1057SOL    HW114630   3.505   1.732   3.328 -0.6345  0.1692 -0.0249
 1057SOL    HW214631   3.648   1.764   3.315  0.5088 -1.5626 -2.0502
 1058SOL     OW14632   4.582   0.663   7.871 -0.3205 -0.1932  0.0173
 1058SOL    HW114633   4.582   0.595   7.804 -2.3690  0.3198 -0.5135
 1058SOL    HW214634   4.530   0.620   7.939 -0.2062 -2.4977 -1.3610
 1059SOL     OW14635   2.683   2.087  13.992  0.0120 -0.2055 -0.1471
 1059SOL    HW114636   2.663   2.061  14.082  0.6321 -0.4878 -0.0920
 1059SOL    HW214637   2.666   2.181  13.991 -1.2008 -0.4319 -1.2477
 1060SOL     OW14638   2.281   2.477   9.596  0.5740  0.1171 -0.4260
 1060SOL    HW114639   2.284   2.569   9.622  0.2793 -0.2894  1.0627
 1060SOL    HW214640   2.260   2.494   9.504 -1.3667 -0.1786 -0.0339
 1061SOL     OW14641   4.460   3.213   4.154  0.2004 -0.1532 -0.4784
 1061SOL    HW114642   4.462   3.120   4.129  0.0228 -1.1155  3.0324
 1061SOL    HW214643   4.365   3.220   4.161  0.1969  1.5103 -2.1165
 1062SOL     OW14644   3.836   2.619   8.276  0.3678  0.7586  0.2333
 1062SOL    HW114645   3.923   2.610   8.316  0.1760 -0.6026  0.3421
 1062SOL    HW214646   3.851   2.566   8.198  0.8084  2.8850 -1.1141
 1063SOL     OW14647   3.694   1.888   5.286  0.1014  0.0881  0.2357
 1063SOL    HW114648   3.654   1.974   5.301 -1.6531 -0.7420  0.4177
 1063SOL    HW214649   3.785   1.911   5.303  0.5584 -1.4112 -0.2240
 1064SOL     OW14650   4.693   1.017   8.683  0.3698  0.0493 -0.2559
 1064SOL    HW114651   0.013   0.937   8.658  0.2472  0.0053 -0.3355
 1064SOL    HW214652   4.613   1.013   8.631  0.0794  1.0764  0.1211
 1065SOL     OW14653   1.767   2.023   4.791  0.1363  0.0850  0.3153
 1065SOL    HW114654   1.837   1.958   4.791  1.3344  1.4023 -0.7263
 1065SOL    HW214655   1.748   2.007   4.883 -0.7999 -0.1336  0.0851
 1066SOL     OW14656   3.683   3.547   9.153  0.0707  0.4840  0.4087
 1066SOL    HW114657   3.650   3.471   9.202  2.4802 -0.1382  1.0801
 1066SOL    HW214658   3.618   3.547   9.082  1.6537 -2.7906 -1.0591
 1067SOL     OW14659   3.935   3.990   3.023 -0.1462  0.5138 -0.2050
 1067SOL    HW114660   3.916   3.956   2.936 -1.5900 -1.7497  1.0031
 1067SOL    HW214661   3.859   3.955   3.069  1.9801 -2.5848  0.9796
 1068SOL     OW14662   2.878   3.757  17.570  0.6628  0.3316 -0.0883
 1068SOL    HW114663   2.944   3.749  17.500  1.4759  1.2679  0.5848
 1068SOL    HW214664   2.854   3.664  17.567 -1.8142  1.0223 -1.4344
 1069SOL     OW14665   2.401   3.813   5.404 -0.0435  0.3857 -0.1338
 1069SOL    HW114666   2.449   3.845   5.328 -0.9884  0.0527 -0.8705
 1069SOL    HW214667   2.402   3.718   5.388 -1.2869  0.2636  0.5036
 1070SOL     OW14668   3.722   3.691   8.053 -0.4821 -0.2387  0.1190
 1070SOL    HW114669   3.812   3.708   8.080 -0.5195 -0.2695  0.2614
 1070SOL    HW214670   3.706   3.597   8.053  1.6215 -0.5920 -0.0283
 1071SOL     OW14671   1.353   4.375   7.407 -0.3132 -0.2732 -0.1286
 1071SOL    HW114672   1.382   4.352   7.495 -1.4504  0.9500  0.5778
 1071SOL    HW214673   1.434   4.352   7.362 -0.5136 -2.8598  0.8577
 1072SOL     OW14674   0.709   2.768   8.241 -0.3896  0.1115 -0.1527
 1072SOL    HW114675   0.799   2.776   8.271 -0.5130  0.2291  0.1900
 1072SOL    HW214676   0.672   2.821   8.312 -1.5153  0.0060 -0.6561
 1073SOL     OW14677   2.316   1.908   7.614  1.1167 -0.0470 -0.2858
 1073SOL    HW114678   2.380   1.910   7.685  1.2426  0.3422 -0.4125
 1073SOL    HW214679   2.366   1.942   7.540 -0.1635 -0.4507 -1.3437
 1074SOL     OW14680   2.487   2.317  12.531 -0.4220 -0.0903  0.3974
 1074SOL    HW114681   2.527   2.402  12.549  0.0351 -0.4613  1.1066
 1074SOL    HW214682   2.484   2.305  12.436 -1.1815  0.3132  0.3666
 1075SOL     OW14683   1.522   0.491   7.520  0.1141  0.1464 -0.1614
 1075SOL    HW114684   1.557   0.547   7.590 -0.1206  0.5551 -0.3706
 1075SOL    HW214685   1.440   0.540   7.511  0.0775  0.0182 -0.5213
 1076SOL     OW14686   1.914   1.052   4.359 -0.1446  0.2391  0.5795
 1076SOL    HW114687   1.997   1.094   4.337 -0.4620  0.4063 -0.3005
 1076SOL    HW214688   1.927   0.978   4.300 -2.0978 -1.5621  2.3986
 1077SOL     OW14689   2.602   3.144   5.929 -0.1953 -0.3205 -0.3350
 1077SOL    HW114690   2.559   3.108   5.851 -0.7255  1.2705 -0.7927
 1077SOL    HW214691   2.693   3.145   5.902 -1.1355  1.8783 -3.3990
 1078SOL     OW14692   1.621   2.694   9.337  0.4910 -0.2326 -0.1246
 1078SOL    HW114693   1.662   2.773   9.372 -2.5812  0.7442  1.2723
 1078SOL    HW214694   1.544   2.699   9.393  1.3085  1.2462  0.8467
 1079SOL     OW14695   2.217   0.643   0.596 -0.3197  0.2976  0.8934
 1079SOL    HW114696   2.202   0.652   0.502 -2.3554  0.6067  1.2420
 1079SOL    HW214697   2.299   0.595   0.605 -0.2354  0.0484 -1.2470
 1080SOL     OW14698   3.610   2.348  10.323  0.1838 -0.2728  0.3891
 1080SOL    HW114699   3.668   2.376  10.394 -2.0156  1.0997  1.6207
 1080SOL    HW214700   3.562   2.276  10.364  0.4232 -1.1986 -0.9539
 1081SOL     OW14701   0.476   3.873  13.081  0.7465  0.6460  0.0634
 1081SOL    HW114702   0.444   3.963  13.088 -2.3863 -0.6546  3.0694
 1081SOL    HW214703   0.521   3.879  12.997 -2.5901  1.8897 -1.6494
 1082SOL     OW14704   2.118   1.731   9.417 -0.8393  0.5958 -0.0234
 1082SOL    HW114705   2.158   1.708   9.333 -0.3203  1.3656  0.0112
 1082SOL    HW214706   2.027   1.743   9.391 -1.3362 -2.4621  0.3545
 1083SOL     OW14707   3.509   4.643  14.110  0.2676  0.3130 -0.0117
 1083SOL    HW114708   3.528   0.003  14.148  0.5777  1.4062 -2.6382
 1083SOL    HW214709   3.506   4.662  14.016 -0.4047  0.4452  0.0398
 1084SOL     OW14710   4.480   0.801   8.899  0.0873  0.0152 -0.2780
 1084SOL    HW114711   4.457   0.894   8.902  0.8603  0.2596 -1.7638
 1084SOL    HW214712   4.400   0.750   8.902  0.0750  0.1399  1.5669
 1085SOL     OW14713   0.032   2.715   8.346  0.0475 -0.3952 -0.0023
 1085SOL    HW114714   0.119   2.754   8.349  0.1077 -0.4769 -0.7526
 1085SOL    HW214715   0.035   2.659   8.424  2.8007  0.7984  0.7397
 1086SOL     OW14716   1.418   3.404  13.585 -0.4959 -0.2096  0.2991
 1086SOL    HW114717   1.362   3.442  13.652 -0.5294 -0.9599  0.6892
 1086SOL    HW214718   1.386   3.453  13.509  0.7584  0.8194  0.4343
 1087SOL     OW14719   1.366   4.286   1.903 -0.2105  0.4288 -0.4569
 1087SOL    HW114720   1.406   4.204   1.934 -1.6418  0.1404  0.6076
 1087SOL    HW214721   1.302   4.250   1.842 -0.6440  0.4972 -0.0340
 1088SOL     OW14722   3.229   0.978   6.143  0.2692  0.1140  0.3142
 1088SOL    HW114723   3.214   1.041   6.073  1.3392  0.9653  0.8489
 1088SOL    HW214724   3.138   0.955   6.162  0.3972  0.7945  1.7959
 1089SOL     OW14725   4.331   3.262  14.209 -0.1802 -0.4985  0.2240
 1089SOL    HW114726   4.324   3.313  14.289 -3.1554 -0.9264  0.2452
 1089SOL    HW214727   4.237   3.246  14.206 -0.2552  0.1955 -1.1531
 1090SOL     OW14728   0.670   1.486   6.927 -0.5204 -0.2477 -0.1945
 1090SOL    HW114729   0.629   1.514   6.845 -2.8910 -1.3880  0.5725
 1090SOL    HW214730   0.736   1.554   6.929 -0.8984  0.1367 -0.6065
 1091SOL     OW14731   0.337   3.247   6.637 -0.3828  0.4811  0.3943
 1091SOL    HW114732   0.341   3.229   6.543  0.2570  1.6063  0.2076
 1091SOL    HW214733   0.344   3.161   6.678 -1.2165  0.1371 -0.1757
 1092SOL     OW14734   0.540   3.572  15.988  0.3990 -0.2089  0.5841
 1092SOL    HW114735   0.558   3.547  16.078 -1.9199 -1.3467  0.7369
 1092SOL    HW214736   0.492   3.502  15.944  2.0162 -0.7340 -0.3649
 1093SOL     OW14737   3.262   2.445  12.772 -0.2113  0.4777 -0.3739
 1093SOL    HW114738   3.292   2.523  12.818  0.8613  0.8960 -1.7656
 1093SOL    HW214739   3.168   2.459  12.762 -0.5764 -3.5415 -2.3269
 1094SOL     OW14740   2.375   0.306   0.036  0.1024  0.5424 -0.4046
 1094SOL    HW114741   2.396   0.232   0.092 -1.3485  0.2983 -0.1890
 1094SOL    HW214742   2.433   0.278  17.670 -1.1884 -1.4201 -0.6947
 1095SOL     OW14743   3.342   4.684   6.021 -0.2041  0.2691  0.0719
 1095SOL    HW114744   3.264   0.013   6.027 -0.9292 -0.7283 -0.1405
 1095SOL    HW214745   3.372   4.716   5.936  1.6180 -1.3392  0.0962
 1096SOL     OW14746   0.308   1.559   7.407 -0.0216 -0.2549  0.1683
 1096SOL    HW114747   0.360   1.503   7.464 -1.8161 -2.9939 -0.8877
 1096SOL    HW214748   0.223   1.544   7.449 -0.8536  0.3207 -1.2688
 1097SOL     OW14749   2.534   4.536   8.565 -0.4725 -1.0053  0.1317
 1097SOL    HW114750   2.599   4.558   8.498 -0.8835 -1.7432 -0.4977
 1097SOL    HW214751   2.535   4.611   8.626  2.2779  1.9982 -3.6289
 1098SOL     OW14752   0.114   3.021  10.562  0.0432  0.0325  0.0477
 1098SOL    HW114753   0.052   2.970  10.509 -0.1772  1.1008 -0.7221
 1098SOL    HW214754   0.161   2.954  10.611 -1.0053 -1.4039 -0.9076
 1099SOL     OW14755   1.566   0.628   7.749 -0.1104  0.1016  0.0269
 1099SOL    HW114756   1.512   0.691   7.798 -2.8221 -2.9851  1.0772
 1099SOL    HW214757   1.644   0.678   7.729 -0.3724  0.0478 -1.1026
 1100SOL     OW14758   4.187   0.803   3.925  0.6522  0.4370  0.4556
 1100SOL    HW114759   4.236   0.765   3.997  1.4742  0.3111 -0.1730
 1100SOL    HW214760   4.099   0.797   3.963  0.9397  1.3020  1.2498
 1101SOL     OW14761   1.368   2.802   5.836  0.0478  0.2561 -0.0093
 1101SOL    HW114762   1.403   2.855   5.764 -1.0182  0.1446 -0.6201
 1101SOL    HW214763   1.284   2.845   5.856  0.5775  0.6997  1.2223
 1102SOL     OW14764   0.431   3.957  17.530  0.5270 -0.3786  0.4382
 1102SOL    HW114765   0.450   4.049  17.547  0.1156 -0.5142  1.6832
 1102SOL    HW214766   0.361   3.943  17.594 -1.6414  1.4267 -1.5814
 1103SOL     OW14767   1.863   0.121  11.020  0.4991 -0.2292 -0.0081
 1103SOL    HW114768   1.864   0.026  11.029  1.5860  0.0572  3.0500
 1103SOL    HW214769   1.859   0.157  11.109  1.2548  0.4971 -0.2683
 1104SOL     OW14770   0.942   3.468   3.151 -0.3663 -0.1802  0.0644
 1104SOL    HW114771   0.859   3.428   3.174 -0.2385 -0.7115 -0.4032
 1104SOL    HW214772   1.015   3.411   3.176 -0.7982 -0.2031  1.2710
 1105SOL     OW14773   0.730   3.468  12.772  0.1615 -0.1295  0.1600
 1105SOL    HW114774   0.652   3.515  12.743 -0.2566 -0.1609  1.2431
 1105SOL    HW214775   0.765   3.534  12.832 -0.9581 -0.4681  1.1773
 1106SOL     OW14776   4.522   1.191   7.667 -0.3422  0.5256  1.1400
 1106SOL    HW114777   4.537   1.283   7.687 -1.2525  0.8334  0.3686
 1106SOL    HW214778   4.548   1.191   7.575  2.3246 -0.7522  1.8776
 1107SOL     OW14779   4.034   1.567   4.640  0.4990  0.5121 -0.0434
 1107SOL    HW114780   4.057   1.521   4.720 -0.9384  2.4423  1.4943
 1107SOL    HW214781   4.077   1.511   4.576  0.8768 -1.0799  1.6358
 1108SOL     OW14782   1.705   3.399   7.637 -0.2639  0.1310 -0.6532
 1108SOL    HW114783   1.712   3.456   7.560 -2.0534  0.7463 -0.3672
 1108SOL    HW214784   1.643   3.442   7.697  0.0570  0.7633 -0.7718
 1109SOL     OW14785   2.351   0.208  11.747 -0.2779 -0.0706  0.0011
 1109SOL    HW114786   2.269   0.250  11.774  0.7029 -0.4287  3.5369
 1109SOL    HW214787   2.371   0.147  11.817  2.7760 -1.0420 -1.7363
 1110SOL     OW14788   1.891   4.017   4.905  0.1359  0.3915 -0.3405
 1110SOL    HW114789   1.827   3.954   4.872 -2.3438  1.0423  3.1568
 1110SOL    HW214790   1.924   3.965   4.978  0.0487 -0.6422 -1.0472
 1111SOL     OW14791   4.724   0.203   5.489 -0.6111  0.2566 -0.3352
 1111SOL    HW114792   4.681   0.199   5.575  0.9336  0.5138  0.4642
 1111SOL    HW214793   0.086   0.236   5.510 -0.3105 -0.8929  0.1804
 1112SOL     OW14794   3.444   2.108  12.342 -0.3255 -0.0184 -0.2622
 1112SOL    HW114795   3.447   2.101  12.247  1.5968 -1.6597 -0.0848
 1112SOL    HW214796   3.539   2.096  12.352 -0.1668  1.5100 -0.0013
 1113SOL     OW14797   2.560   0.906   9.106  0.2561  0.3591 -0.4121
 1113SOL    HW114798   2.559   0.811   9.116  2.2023  0.2768 -1.0054
 1113SOL    HW214799   2.529   0.934   9.192 -2.4667  0.7884 -1.5263
 1114SOL     OW14800   3.520   1.459   9.022 -0.3392  0.6314  0.4691
 1114SOL    HW114801   3.527   1.497   8.934 -0.5533 -1.3583 -0.3981
 1114SOL    HW214802   3.489   1.536   9.070 -0.5214  1.6003 -1.2020
 1115SOL     OW14803   1.122   3.529  10.991 -0.2641 -0.0625  0.2697
 1115SOL    HW114804   1.109   3.565  10.903 -1.5510  0.0065  0.4919
 1115SOL    HW214805   1.209   3.560  11.018  0.0298 -0.5718 -0.0815
 1116SOL     OW14806   4.292   2.367   5.690  0.2678  0.2820  0.0049
 1116SOL    HW114807   4.281   2.460   5.711  1.1174 -0.0649  1.9742
 1116SOL    HW214808   4.301   2.335   5.780  2.2645 -2.2702 -1.1093
 1117SOL     OW14809   3.230   3.524   7.710 -0.4191  0.4652 -0.1074
 1117SOL    HW114810   3.316   3.541   7.748  1.0341 -0.7078 -2.8716
 1117SOL    HW214811   3.247   3.564   7.624  2.1964 -0.9693 -0.2480
 1118SOL     OW14812   0.256   2.819   1.050 -0.0108 -0.2484 -0.2490
 1118SOL    HW114813   0.277   2.846   0.961  3.5639 -2.0149  0.0712
 1118SOL    HW214814   0.312   2.880   1.098  0.4303 -1.3756  0.6824
 1119SOL     OW14815   1.083   4.431  13.511 -0.3305 -0.0685 -0.0772
 1119SOL    HW114816   1.139   4.470  13.444  1.0992 -2.0127 -0.0219
 1119SOL    HW214817   1.013   4.408  13.450 -1.5678  3.6674 -0.0681
 1120SOL     OW14818   0.441   0.365   4.258  1.1008  0.0361  0.7651
 1120SOL    HW114819   0.479   0.412   4.332 -0.3440 -0.9389  2.1484
 1120SOL    HW214820   0.443   0.420   4.180  0.8509 -0.5529  0.3377
 1121SOL     OW14821   4.156   4.342  15.151  0.1811  0.0115  0.4094
 1121SOL    HW114822   4.200   4.313  15.071 -0.7563 -1.6250  0.4949
 1121SOL    HW214823   4.214   4.307  15.219 -0.2507 -0.4812  0.5221
 1122SOL     OW14824   1.895   1.284   9.863 -0.8833  0.1568 -0.6410
 1122SOL    HW114825   1.823   1.254   9.918 -1.8755  0.5176 -1.7388
 1122SOL    HW214826   1.853   1.359   9.820 -3.2069 -0.6870  0.1213
 1123SOL     OW14827   1.622   0.423   9.135 -0.1867 -0.6080 -0.2295
 1123SOL    HW114828   1.582   0.456   9.215 -1.2229  0.0368 -1.0136
 1123SOL    HW214829   1.709   0.456   9.156 -0.1619 -0.9773  0.2535
 1124SOL     OW14830   1.302   2.784   4.678  0.0645 -0.3816 -0.2664
 1124SOL    HW114831   1.226   2.843   4.685  1.1269  1.0745 -1.0419
 1124SOL    HW214832   1.269   2.703   4.718 -1.1908 -0.1370 -0.8247
 1125SOL     OW14833   0.256   3.289   8.594 -0.2621  0.2013 -0.3395
 1125SOL    HW114834   0.174   3.335   8.579 -0.2059  1.4536  3.0405
 1125SOL    HW214835   0.297   3.371   8.624  0.4711 -1.6940  3.8558
 1126SOL     OW14836   0.753   0.291   2.406  0.5004 -0.1255 -0.3505
 1126SOL    HW114837   0.681   0.242   2.444  0.7743 -0.4975 -0.3177
 1126SOL    HW214838   0.753   0.252   2.319  1.6976 -0.8163 -0.0451
 1127SOL     OW14839   2.430   0.678   6.610  0.7030 -0.5478 -0.4146
 1127SOL    HW114840   2.446   0.641   6.696  0.9383 -1.3492 -0.8086
 1127SOL    HW214841   2.368   0.617   6.570 -1.7612  1.8977 -0.3840
 1128SOL     OW14842   2.244   1.000   9.744 -0.3454 -0.2090  0.7358
 1128SOL    HW114843   2.319   0.944   9.762 -2.0012 -3.0929 -1.2838
 1128SOL    HW214844   2.268   1.082   9.787  3.6108 -2.0832  2.0678
 1129SOL     OW14845   1.573   2.662   1.989 -0.0092 -0.1163  0.1622
 1129SOL    HW114846   1.576   2.615   2.072  0.5947 -0.2705  0.0521
 1129SOL    HW214847   1.655   2.629   1.953 -0.4316 -1.2866  0.2748
 1130SOL     OW14848   1.554   1.930  11.348  0.0279 -0.0222  0.1560
 1130SOL    HW114849   1.634   1.938  11.295 -0.4840  0.1274 -0.6009
 1130SOL    HW214850   1.513   2.010  11.317  0.5372  0.0374 -0.3788
 1131SOL     OW14851   2.595   2.118   9.721 -0.2322  0.1139 -0.2448
 1131SOL    HW114852   2.502   2.103   9.704 -0.5133 -0.3330  1.7428
 1131SOL    HW214853   2.635   2.071   9.648  1.1796  2.4876 -1.0147
 1132SOL     OW14854   4.477   2.262   8.718 -0.0588 -0.2645 -0.5797
 1132SOL    HW114855   4.564   2.273   8.756 -0.8014 -0.6822  1.2825
 1132SOL    HW214856   4.421   2.302   8.785 -0.9196  1.2725 -2.2185
 1133SOL     OW14857   2.418   1.021   4.222  0.2260  0.1306  0.1992
 1133SOL    HW114858   2.452   0.933   4.204  1.5290  0.1135  2.7646
 1133SOL    HW214859   2.476   1.078   4.171 -1.5897  1.2014 -0.6455
 1134SOL     OW14860   0.943   4.657   9.332  0.0477 -0.1070 -0.0641
 1134SOL    HW114861   0.861   4.611   9.346 -0.2135 -0.3969 -2.6357
 1134SOL    HW214862   0.915   0.022   9.338  0.4987  0.1047 -1.2352
 1135SOL     OW14863   3.044   4.033   9.271 -0.0690  0.4998 -0.3979
 1135SOL    HW114864   3.127   3.999   9.306 -2.4646 -2.3704  2.5516
 1135SOL    HW214865   3.043   3.988   9.187  0.9302 -0.6092  0.1815
 1136SOL     OW14866   0.869   3.443  10.745 -0.0183  0.2360 -0.6398
 1136SOL    HW114867   0.803   3.379  10.719 -0.1199  0.6359 -1.3624
 1136SOL    HW214868   0.935   3.443  10.675 -2.4139 -1.4323 -2.9046
 1137SOL     OW14869   0.045   3.878  15.280  0.4881 -0.2801 -0.2037
 1137SOL    HW114870   4.690   3.903  15.324 -0.2971 -4.1850  0.5953
 1137SOL    HW214871   0.018   3.787  15.265 -0.3713  0.0830 -0.9127
 1138SOL     OW14872   0.223   4.156   9.104 -0.4126 -0.1175 -0.6422
 1138SOL    HW114873   0.284   4.165   9.177  0.8135  1.7801 -1.8839
 1138SOL    HW214874   0.140   4.147   9.150 -0.3113 -0.2092 -0.4773
 1139SOL     OW14875   4.352   0.948   7.893  0.8963 -0.1588  0.3885
 1139SOL    HW114876   4.444   0.940   7.917  1.6276  2.3928 -1.5063
 1139SOL    HW214877   4.314   0.898   7.966  1.3457  0.7632  1.2609
 1140SOL     OW14878   1.725   2.374  14.234 -0.3273  0.0176 -0.3530
 1140SOL    HW114879   1.723   2.285  14.199  0.4523  0.2090 -0.8822
 1140SOL    HW214880   1.681   2.428  14.168 -2.9893 -0.9614  0.6126
 1141SOL     OW14881   1.502   3.881   3.999  0.0893  0.5396 -0.0504
 1141SOL    HW114882   1.418   3.926   3.993  0.0741  0.7653  2.0516
 1141SOL    HW214883   1.569   3.950   3.997  1.8002 -1.0713  1.8569
 1142SOL     OW14884   2.768   1.891   9.807 -0.1507  0.4576 -0.0978
 1142SOL    HW114885   2.709   1.957   9.770 -1.2712  0.0805  1.0049
 1142SOL    HW214886   2.716   1.877   9.886 -0.4318 -0.8709 -0.5158
 1143SOL     OW14887   2.730   1.665  11.531 -0.2240  0.4311 -0.4133
 1143SOL    HW114888   2.672   1.740  11.515  0.9624  1.1964 -1.0523
 1143SOL    HW214889   2.705   1.632  11.618 -0.2985  3.1135  0.5906
 1144SOL     OW14890   1.121   0.712   6.371  0.2384  0.2530 -0.1797
 1144SOL    HW114891   1.067   0.791   6.362  0.0953  0.0291 -1.3618
 1144SOL    HW214892   1.093   0.684   6.458  0.7337  1.5655  0.3880
 1145SOL     OW14893   2.964   1.268   2.798 -0.2410 -1.0247 -0.7336
 1145SOL    HW114894   2.914   1.349   2.795  0.8706 -0.2006  2.4830
 1145SOL    HW214895   3.039   1.299   2.746 -2.0254  2.0871 -1.4637
 1146SOL     OW14896   0.620   1.913   6.173  0.1883  0.2767 -0.0558
 1146SOL    HW114897   0.560   1.846   6.205  1.2156 -1.6025 -2.0600
 1146SOL    HW214898   0.629   1.974   6.247 -0.9227  0.6331 -0.2190
 1147SOL     OW14899   1.470   3.080   8.242 -0.2534 -0.1963 -0.1700
 1147SOL    HW114900   1.419   2.999   8.248  3.3050 -2.4531 -0.0488
 1147SOL    HW214901   1.536   3.040   8.184 -0.3597 -0.2045 -0.2852
 1148SOL     OW14902   2.919   4.527   0.415 -0.1022  0.1352 -0.6554
 1148SOL    HW114903   2.835   4.481   0.411 -0.8787  1.6161 -1.2613
 1148SOL    HW214904   2.978   4.462   0.452 -1.7691 -1.1437 -0.2699
 1149SOL     OW14905   2.278   0.924  12.318  0.2305  0.5820  0.3564
 1149SOL    HW114906   2.251   0.913  12.227 -0.2031 -1.1346  0.6904
 1149SOL    HW214907   2.242   0.843  12.353  0.9524  0.2596  0.3329
 1150SOL     OW14908   2.283   4.569  13.150 -0.2476  0.2066 -0.3576
 1150SOL    HW114909   2.282   4.511  13.073  1.2986 -1.6017  0.9927
 1150SOL    HW214910   2.360   4.533  13.194 -1.4657 -2.3931 -0.3393
 1151SOL     OW14911   3.475   0.480   6.800  0.2065 -0.0080  0.2024
 1151SOL    HW114912   3.545   0.526   6.847  1.8714 -3.1072  0.7360
 1151SOL    HW214913   3.420   0.456   6.875  2.4230  1.3059  2.2704
 1152SOL     OW14914   2.258   3.049   3.569  0.0127 -0.1724 -0.3415
 1152SOL    HW114915   2.290   3.138   3.579 -0.4303 -0.3347  2.5716
 1152SOL    HW214916   2.341   3.008   3.546 -0.3824 -0.3151 -1.5104
 1153SOL     OW14917   3.371   0.301  17.631 -0.5863 -0.3934  0.3341
 1153SOL    HW114918   3.355   0.357  17.555  0.1190 -2.0612 -1.0350
 1153SOL    HW214919   3.303   0.328  17.694 -0.2119 -1.1683  1.0805
 1154SOL     OW14920   3.759   1.704   5.934  0.6334  0.4410 -0.4631
 1154SOL    HW114921   3.753   1.794   5.966  2.9995  0.0967  1.0236
 1154SOL    HW214922   3.802   1.667   6.012 -0.7816 -0.9522 -0.3327
 1155SOL     OW14923   3.395   0.943   5.131  0.0682 -0.5903 -0.3314
 1155SOL    HW114924   3.379   1.036   5.146  0.5662 -0.9164  2.2960
 1155SOL    HW214925   3.309   0.905   5.111 -1.1120  1.9531 -0.0917
 1156SOL     OW14926   4.568   1.038   6.790 -0.3566 -0.3849  0.4001
 1156SOL    HW114927   4.488   1.081   6.757  1.3754  2.3871 -0.2443
 1156SOL    HW214928   4.605   1.105   6.847 -0.1991 -1.0603  1.0857
 1157SOL     OW14929   3.637   0.240   3.223  0.2144  0.0747  0.4007
 1157SOL    HW114930   3.733   0.248   3.222  0.4036 -2.1399  0.6122
 1157SOL    HW214931   3.606   0.230   3.133  2.8243 -0.2609 -0.4704
 1158SOL     OW14932   0.236   2.840   7.711 -0.4289 -0.4057  0.0341
 1158SOL    HW114933   0.250   2.931   7.738  0.7032 -0.3071 -0.9159
 1158SOL    HW214934   0.311   2.791   7.745 -0.2352  1.0198  1.6462
 1159SOL     OW14935   3.989   2.033   7.532  0.0234 -0.1849  0.2131
 1159SOL    HW114936   3.972   1.952   7.483  0.9094 -0.4734  0.3716
 1159SOL    HW214937   3.954   2.089   7.462 -2.2056  0.7051  2.0741
 1160SOL     OW14938   2.609   2.548   4.416  0.0678 -0.8483 -0.0221
 1160SOL    HW114939   2.534   2.599   4.447  0.5518  0.0925 -0.4013
 1160SOL    HW214940   2.630   2.580   4.328 -0.7583 -1.0892 -0.3138
 1161SOL     OW14941   2.355   1.861   6.895 -0.2491 -0.0351  0.5118
 1161SOL    HW114942   2.375   1.771   6.868 -1.0650 -0.3433  0.9417
 1161SOL    HW214943   2.361   1.847   6.989 -0.5816  0.8878  0.6693
 1162SOL     OW14944   4.568   2.063  14.769  0.3232  0.3634 -0.7226
 1162SOL    HW114945   4.585   2.093  14.680 -1.3442 -0.6376 -1.3702
 1162SOL    HW214946   4.473   2.054  14.765  0.4645 -2.3849  1.7704
 1163SOL     OW14947   0.324   1.038   7.152 -0.0147 -0.1077 -0.0086
 1163SOL    HW114948   0.343   1.113   7.207 -2.2242 -0.5380  1.3288
 1163SOL    HW214949   0.229   1.034   7.144  0.0130 -0.6313 -0.0799
 1164SOL     OW14950   2.451   4.227   6.203 -0.3383  0.6340 -0.3354
 1164SOL    HW114951   2.412   4.296   6.257 -1.2450 -0.1403  0.0005
 1164SOL    HW214952   2.467   4.170   6.278  2.9878  1.8604 -0.1426
 1165SOL     OW14953   0.351   3.745  16.826  0.1324 -0.4786  0.0017
 1165SOL    HW114954   0.402   3.681  16.775  0.6699  1.0231 -1.3617
 1165SOL    HW214955   0.281   3.751  16.761  0.3061 -2.8304 -0.4169
 1166SOL     OW14956   2.998   2.615  10.236 -0.3040  0.0472 -0.0270
 1166SOL    HW114957   3.027   2.595  10.147 -0.5889 -3.0008  0.5770
 1166SOL    HW214958   3.050   2.693  10.258 -0.9965  0.4423  0.2267
 1167SOL     OW14959   4.573   1.700   2.576 -0.3807  0.4541 -0.1971
 1167SOL    HW114960   4.524   1.746   2.508 -1.8819 -0.3694  0.3161
 1167SOL    HW214961   4.552   1.607   2.566 -0.8405  0.5062  0.2813
 1168SOL     OW14962   0.951   1.372   8.888  0.2086  0.4522 -0.0948
 1168SOL    HW114963   1.017   1.441   8.894  1.5437 -0.8532  0.0833
 1168SOL    HW214964   0.930   1.389   8.796 -0.4647 -0.8826 -0.1841
 1169SOL     OW14965   1.627   2.513   5.640  0.2661 -0.6346 -0.0423
 1169SOL    HW114966   1.534   2.530   5.627  0.5287 -0.3348 -1.5639
 1169SOL    HW214967   1.646   2.547   5.553 -2.0217  1.8442  0.4154
 1170SOL     OW14968   0.509   0.876   6.736  0.4147 -0.3706 -0.2278
 1170SOL    HW114969   0.514   0.911   6.825 -0.9155 -1.9939  0.4807
 1170SOL    HW214970   0.519   0.782   6.751 -0.0279 -0.0305  2.2517
 1171SOL     OW14971   3.106   2.104   2.006 -0.3740  0.0056  0.0853
 1171SOL    HW114972   3.176   2.055   2.049  0.5616  0.6087 -0.7560
 1171SOL    HW214973   3.153   2.126   1.926  0.3311  0.2481  0.5685
 1172SOL     OW14974   4.259   1.758  10.007 -0.1452 -0.0684 -0.3135
 1172SOL    HW114975   4.185   1.702   9.981 -0.4119 -0.0824  0.4850
 1172SOL    HW214976   4.302   1.779   9.924  1.4399  1.5277  0.9291
 1173SOL     OW14977   4.514   3.079  11.296  0.4056  0.3093 -0.2712
 1173SOL    HW114978   4.485   3.004  11.348 -0.1228  0.1155 -0.8392
 1173SOL    HW214979   4.606   3.076  11.321  0.7542 -0.5786 -1.6824
 1174SOL     OW14980   3.639   3.626   7.531 -0.1364  0.2642 -0.3442
 1174SOL    HW114981   3.680   3.709   7.507 -0.4893  0.3385 -0.6831
 1174SOL    HW214982   3.720   3.575   7.520 -0.1105  0.2331 -0.0269
 1175SOL     OW14983   1.491   3.896   4.949 -0.1596  0.1508  0.6543
 1175SOL    HW114984   1.490   3.821   4.890 -0.3943  0.6470  0.0288
 1175SOL    HW214985   1.574   3.887   4.996 -0.0456 -1.7115  0.0803
 1176SOL     OW14986   1.006   2.765   5.661  0.6208 -0.2196 -0.2574
 1176SOL    HW114987   1.028   2.725   5.745 -0.9383 -0.5010  0.0154
 1176SOL    HW214988   0.915   2.785   5.682 -0.0613 -1.2480 -2.1782
 1177SOL     OW14989   0.636   3.432   8.527  0.1428 -0.5382  0.0620
 1177SOL    HW114990   0.649   3.507   8.586 -0.2510  0.8969 -1.7100
 1177SOL    HW214991   0.678   3.469   8.450  0.8206 -0.5036  0.4450
 1178SOL     OW14992   0.805   1.307   2.788  0.7787 -0.3043 -0.1513
 1178SOL    HW114993   0.882   1.343   2.746 -0.1942  1.6875 -0.2242
 1178SOL    HW214994   0.736   1.340   2.730  1.2333 -0.0154 -0.5212
 1179SOL     OW14995   2.957   3.510  11.059  0.3737 -0.9852  0.2451
 1179SOL    HW114996   3.015   3.544  10.991  0.1220 -1.4621 -0.2106
 1179SOL    HW214997   2.883   3.570  11.046  2.7391  2.0404  0.9043
 1180SOL     OW14998   2.875   0.518  15.769 -0.3267 -0.1071 -0.6382
 1180SOL    HW114999   2.907   0.607  15.786  0.8994 -1.0509  2.0788
 1180SOL    HW215000   2.807   0.544  15.707  0.1365 -0.3626 -1.2447
 1181SOL     OW15001   2.122   3.734   8.891  0.5437  0.1990 -0.1232
 1181SOL    HW115002   2.215   3.713   8.879  0.7988  1.2906 -0.0210
 1181SOL    HW215003   2.073   3.654   8.870  0.1327  0.9247 -1.9376
 1182SOL     OW15004   1.295   1.670  10.760 -0.1521  0.8815 -0.2521
 1182SOL    HW115005   1.319   1.601  10.822  0.4746 -0.2670 -1.7845
 1182SOL    HW215006   1.358   1.663  10.689  0.0103 -0.7921  0.0552
 1183SOL     OW15007   0.061   3.984   3.866 -0.4833 -0.1121 -0.5768
 1183SOL    HW115008   0.019   4.048   3.809 -0.0726 -1.5438 -2.5215
 1183SOL    HW215009   0.127   4.038   3.910  0.6669 -0.9851 -1.2300
 1184SOL     OW15010   2.441   3.339   5.495 -0.1559  0.6379 -0.1881
 1184SOL    HW115011   2.353   3.360   5.528 -0.5594 -0.1585 -0.7675
 1184SOL    HW215012   2.428   3.245   5.487  0.9361  0.2190  2.8322
 1185SOL     OW15013   3.038   3.919   1.877  0.3531 -0.8835  0.0881
 1185SOL    HW115014   2.943   3.920   1.868  0.2569 -0.1652  1.1086
 1185SOL    HW215015   3.040   3.898   1.970  0.5323 -0.0151  0.2797
 1186SOL     OW15016   1.617   2.467   2.198  0.1975  0.3025  0.0163
 1186SOL    HW115017   1.679   2.398   2.172 -1.1463 -1.4862  1.5552
 1186SOL    HW215018   1.538   2.413   2.205  0.1037  0.3081 -1.0287
 1187SOL     OW15019   2.961   4.586   4.495  0.4932 -0.0745  0.1311
 1187SOL    HW115020   2.956   4.586   4.399  1.7885  0.5005  0.0591
 1187SOL    HW215021   3.034   4.525   4.505 -0.0134 -0.6980  0.0303
 1188SOL     OW15022   1.557   1.986  15.308 -0.4270  0.4427 -0.1859
 1188SOL    HW115023   1.545   1.893  15.329  0.9319  0.0167 -1.2582
 1188SOL    HW215024   1.632   2.009  15.362 -1.7435  0.0766  1.7682
 1189SOL     OW15025   2.322   2.082   9.138  0.3243 -0.1149 -0.0165
 1189SOL    HW115026   2.349   2.152   9.079  0.5335  0.4570  0.7573
 1189SOL    HW215027   2.268   2.125   9.204  1.2659  3.0858 -1.3240
 1190SOL     OW15028   2.844   0.269   6.523 -0.6884 -0.1413  0.2465
 1190SOL    HW115029   2.897   0.345   6.500 -0.9258  0.1178  0.5398
 1190SOL    HW215030   2.793   0.258   6.443 -0.8017  1.3962  0.1078
 1191SOL     OW15031   2.456   2.571   7.831 -0.3683  0.2949  0.4111
 1191SOL    HW115032   2.376   2.597   7.785  0.2175 -0.4247 -1.0297
 1191SOL    HW215033   2.517   2.611   7.769  0.9542 -0.3747  1.2943
 1192SOL     OW15034   4.530   1.451   6.615 -0.5923  0.4152 -0.2152
 1192SOL    HW115035   4.621   1.427   6.601 -0.1814  1.4527  0.6557
 1192SOL    HW215036   4.494   1.383   6.671 -1.0244  0.1772 -0.7810
 1193SOL     OW15037   4.604   2.582   4.110 -0.0124 -0.0184 -0.5673
 1193SOL    HW115038   4.581   2.570   4.202 -0.7487 -1.0174 -0.8800
 1193SOL    HW215039   4.698   2.593   4.125 -0.6635  2.4091  1.6227
 1194SOL     OW15040   0.564   4.081   8.918  0.0360  0.3244  0.0983
 1194SOL    HW115041   0.571   4.144   8.846 -1.4428  1.3111  0.8338
 1194SOL    HW215042   0.654   4.062   8.946 -0.7596 -0.4920  2.0524
 1195SOL     OW15043   3.788   0.443   0.849 -0.0401  0.2478 -0.3275
 1195SOL    HW115044   3.845   0.379   0.892 -1.2196  0.3513  1.3848
 1195SOL    HW215045   3.826   0.517   0.895 -0.1065  0.2203 -0.2286
 1196SOL     OW15046   4.023   2.516   6.810  0.4541 -0.4903  0.1348
 1196SOL    HW115047   4.050   2.466   6.732  1.4482  0.1014  0.0960
 1196SOL    HW215048   3.943   2.474   6.840  1.0293 -1.2664  0.5978
 1197SOL     OW15049   0.795   0.695   6.182 -0.1797  0.6944 -0.0155
 1197SOL    HW115050   0.748   0.683   6.100 -0.7430 -0.0692  0.4200
 1197SOL    HW215051   0.833   0.612   6.209 -2.4384 -0.2399  0.2478
 1198SOL     OW15052   4.275   0.704   5.049  0.8472  0.5250 -0.3162
 1198SOL    HW115053   4.298   0.789   5.086 -1.8195  0.4255  1.5060
 1198SOL    HW215054   4.277   0.733   4.957  0.2221 -0.6418 -0.7015
 1199SOL     OW15055   2.620   1.651   1.989  0.0532  0.2731 -0.6275
 1199SOL    HW115056   2.642   1.616   2.076 -0.9761  0.0445 -0.4529
 1199SOL    HW215057   2.682   1.720   1.969  1.2522 -0.4436  0.6295
 1200SOL     OW15058   1.328   0.396  13.934  0.1344 -0.1142  0.1613
 1200SOL    HW115059   1.348   0.488  13.920  0.1972  0.0452  1.3330
 1200SOL    HW215060   1.372   0.374  14.016  1.3663 -1.5633 -0.8860
 1201SOL     OW15061   0.303   0.509   2.754  0.5472  0.2486 -0.2781
 1201SOL    HW115062   0.294   0.561   2.674 -1.2206  3.1402  1.8270
 1201SOL    HW215063   0.219   0.515   2.798  1.5524  0.4508  1.6096
 1202SOL     OW15064   3.379   4.289   7.234 -0.1673  0.0621  0.0021
 1202SOL    HW115065   3.455   4.246   7.194  1.2727  1.7010  0.9630
 1202SOL    HW215066   3.369   4.352   7.163 -0.5615 -0.1200 -0.1017
 1203SOL     OW15067   1.625   3.418  17.432  0.2404  0.5238 -0.2994
 1203SOL    HW115068   1.579   3.426  17.348  0.2456  1.0644 -0.2526
 1203SOL    HW215069   1.603   3.328  17.452 -1.0331  0.9590  0.2885
 1204SOL     OW15070   1.310   3.960   1.989 -0.1419  0.1462 -0.5661
 1204SOL    HW115071   1.353   3.881   2.022  1.8120  1.7007  0.6105
 1204SOL    HW215072   1.232   3.967   2.044 -0.5858 -1.1670 -1.0288
 1205SOL     OW15073   4.258   0.672   4.496 -0.1718  0.8105 -0.1020
 1205SOL    HW115074   4.230   0.638   4.411 -1.3754  4.3681 -1.0953
 1205SOL    HW215075   4.303   0.748   4.461  0.7045  1.4363  2.4198
 1206SOL     OW15076   1.772   3.845   8.364 -0.0002  0.2193 -0.4545
 1206SOL    HW115077   1.779   3.833   8.269  0.7411  0.8629 -0.4810
 1206SOL    HW215078   1.677   3.855   8.369 -0.1499 -1.4025 -0.0241
 1207SOL     OW15079   4.699   3.837   8.490  0.5729 -0.3166  0.4870
 1207SOL    HW115080   4.679   3.928   8.512 -0.8301 -0.4170 -0.3389
 1207SOL    HW215081   0.012   3.852   8.404  0.0731  0.2080  0.3507
 1208SOL     OW15082   2.394   0.298   9.062 -0.3019 -0.1406  0.5092
 1208SOL    HW115083   2.374   0.390   9.045  0.6260 -0.4407 -2.2763
 1208SOL    HW215084   2.320   0.258   9.016  0.0207 -0.1063 -0.0508
 1209SOL     OW15085   0.367   4.641   4.222  0.5398  0.6440  0.1173
 1209SOL    HW115086   0.416   4.692   4.287  1.2030  1.4752 -1.0391
 1209SOL    HW215087   0.395   4.555   4.254 -0.0953  1.3550  2.6325
 1210SOL     OW15088   3.828   2.616  11.113 -0.3674 -0.4022 -0.0845
 1210SOL    HW115089   3.828   2.595  11.206  0.1433 -1.7730 -0.3939
 1210SOL    HW215090   3.890   2.689  11.109 -1.4171  0.6061  1.8174
 1211SOL     OW15091   2.919   2.293   6.466  0.1882  0.9706  0.9211
 1211SOL    HW115092   2.833   2.276   6.504  0.2788  0.4339  0.8958
 1211SOL    HW215093   2.944   2.202   6.483  1.0040  0.9804 -0.2520
 1212SOL     OW15094   4.381   3.654  15.926  0.3729 -0.0840 -0.0735
 1212SOL    HW115095   4.407   3.567  15.896 -1.8597 -0.5661 -0.5696
 1212SOL    HW215096   4.291   3.637  15.954  0.3607 -1.1321 -0.7656
 1213SOL     OW15097   0.823   3.972   8.952  0.1240  0.4894  0.4518
 1213SOL    HW115098   0.875   4.030   9.008  4.4439 -1.3600 -1.6955
 1213SOL    HW215099   0.882   3.896   8.948 -0.6669  0.1417 -3.9465
 1214SOL     OW15100   0.570   4.547  14.939  0.0370 -0.0982 -0.2976
 1214SOL    HW115101   0.589   4.641  14.937  1.1670 -0.3029  0.8627
 1214SOL    HW215102   0.475   4.538  14.946 -0.1477  2.2252  0.0817
 1215SOL     OW15103   2.633   1.236   5.559 -0.0702  0.5487  0.6068
 1215SOL    HW115104   2.665   1.157   5.602 -0.8571 -0.4507 -0.6445
 1215SOL    HW215105   2.544   1.211   5.536  0.0666 -0.2774  0.9935
 1216SOL     OW15106   4.076   0.803  13.566  0.3437  0.1383 -0.1247
 1216SOL    HW115107   4.066   0.708  13.559 -2.4527  0.6041 -2.4877
 1216SOL    HW215108   4.011   0.820  13.634  0.1982  1.5005 -0.5892
 1217SOL     OW15109   4.141   3.883  11.940 -0.1849 -0.0044 -0.0010
 1217SOL    HW115110   4.146   3.970  11.981  1.2203  0.3396 -0.8903
 1217SOL    HW215111   4.229   3.848  11.955 -0.7445 -0.6317  1.7578
 1218SOL     OW15112   4.616   2.988   7.049  0.8947  0.2487 -0.0389
 1218SOL    HW115113   4.584   2.990   7.140  2.1109  0.1067  0.3850
 1218SOL    HW215114   4.587   2.900   7.024 -0.8718  0.7678  0.1698
 1219SOL     OW15115   4.313   2.692   3.248  0.3158 -0.3840 -0.0212
 1219SOL    HW115116   4.394   2.743   3.247  0.8914 -1.3370 -1.3639
 1219SOL    HW215117   4.260   2.736   3.181  0.9574 -0.5323 -0.6240
 1220SOL     OW15118   0.741   2.678  15.667 -0.2658 -0.1810 -0.3417
 1220SOL    HW115119   0.724   2.597  15.715  1.1765 -1.0366 -1.2709
 1220SOL    HW215120   0.803   2.637  15.607  2.7839  3.1143  0.5728
 1221SOL     OW15121   3.092   4.439   9.198 -0.6372  0.1905 -0.3872
 1221SOL    HW115122   3.188   4.433   9.201 -0.5426  1.6121 -0.7695
 1221SOL    HW215123   3.078   4.461   9.290  1.0349  1.7549 -0.5034
 1222SOL     OW15124   3.109   4.629  16.699  0.0112  0.6624 -0.5017
 1222SOL    HW115125   3.085   4.714  16.734  2.8310  0.6452  1.4797
 1222SOL    HW215126   3.121   4.652  16.607 -0.5833  1.1401 -0.4538
 1223SOL     OW15127   1.424   1.737   9.068  0.1464 -0.2867  0.1761
 1223SOL    HW115128   1.501   1.715   9.120 -0.0549 -0.6075  0.3438
 1223SOL    HW215129   1.407   1.830   9.085 -2.3948 -0.3117 -2.2598
 1224SOL     OW15130   2.093   3.463   9.113  0.1844 -0.3799  0.1331
 1224SOL    HW115131   2.170   3.459   9.056 -0.9000 -0.4856 -1.2952
 1224SOL    HW215132   2.150   3.484   9.188  1.3597 -0.9561 -0.6034
 1225SOL     OW15133   2.155   0.760  17.102  0.3695  0.6009 -0.3711
 1225SOL    HW115134   2.102   0.721  17.171 -0.1538 -1.0002 -1.6900
 1225SOL    HW215135   2.238   0.776  17.147  1.5090  1.5696 -2.8159
 1226SOL     OW15136   2.071   0.731   5.487  0.1620  0.1294 -0.6865
 1226SOL    HW115137   2.075   0.649   5.537  0.7173  1.0817  0.8288
 1226SOL    HW215138   2.156   0.740   5.445 -0.4430  2.3440 -1.4262
 1227SOL     OW15139   3.545   2.478   3.860 -0.1428 -0.0269  0.1052
 1227SOL    HW115140   3.617   2.516   3.911 -2.4028  1.0212  2.5485
 1227SOL    HW215141   3.493   2.437   3.929 -0.2285  0.1234  0.1291
 1228SOL     OW15142   1.048   3.802  11.492  1.0238 -0.5748 -0.9547
 1228SOL    HW115143   1.085   3.725  11.449 -1.1839 -1.6229 -0.9824
 1228SOL    HW215144   1.111   3.869  11.466  0.4925 -0.0893 -0.9884
 1229SOL     OW15145   1.795   1.418  11.019  0.1987 -1.0476 -0.1841
 1229SOL    HW115146   1.882   1.386  11.041  0.0719 -0.0175  1.8241
 1229SOL    HW215147   1.801   1.466  10.936 -0.2099 -2.9559 -1.3243
 1230SOL     OW15148   2.830   1.313   4.041 -0.3075 -0.2067  0.4634
 1230SOL    HW115149   2.807   1.375   4.110  1.8488 -0.0014  0.9946
 1230SOL    HW215150   2.890   1.378   4.003  1.4387 -1.8730  0.3935
 1231SOL     OW15151   3.341   1.601   4.033 -0.2972 -0.0962  0.0347
 1231SOL    HW115152   3.390   1.575   4.111 -0.7855 -0.2600  0.2896
 1231SOL    HW215153   3.317   1.693   4.043 -0.3696  0.0780 -1.8260
 1232SOL     OW15154   4.686   2.378   4.880  0.1724 -0.2826 -0.0509
 1232SOL    HW115155   0.046   2.396   4.917  0.5036  2.2876 -2.0578
 1232SOL    HW215156   4.664   2.286   4.891  1.5382 -0.8269 -1.7970
 1233SOL     OW15157   2.400   0.297   7.026  0.0415 -0.1029 -0.3430
 1233SOL    HW115158   2.452   0.217   7.031  0.6093  0.3121  0.4074
 1233SOL    HW215159   2.318   0.262   7.061  0.7084 -0.3874  0.9195
 1234SOL     OW15160   3.169   3.455   9.095 -0.3086  0.0292 -0.0594
 1234SOL    HW115161   3.180   3.380   9.037  0.0716 -1.1818  1.6007
 1234SOL    HW215162   3.118   3.415   9.165  0.3970 -0.2317  0.3072
 1235SOL     OW15163   3.065   4.188   5.477 -0.1515 -0.1970  0.2686
 1235SOL    HW115164   3.056   4.107   5.427  0.4671 -0.1103  0.0136
 1235SOL    HW215165   3.054   4.160   5.568 -0.6038 -1.2232 -0.1130
 1236SOL     OW15166   2.595   3.040   5.178  0.0958  0.1905  0.4604
 1236SOL    HW115167   2.667   2.979   5.191  1.5013  1.8358  0.4619
 1236SOL    HW215168   2.635   3.126   5.191 -1.8453  0.9801  1.2687
 1237SOL     OW15169   3.297   0.092   7.826  0.2100  0.3645  0.2274
 1237SOL    HW115170   3.217   0.077   7.877  0.8649 -1.2597  0.7737
 1237SOL    HW215171   3.343   0.011   7.848 -2.1737 -1.1108 -0.2562
 1238SOL     OW15172   0.169   0.243   2.021  0.4766  0.2897 -0.4533
 1238SOL    HW115173   0.166   0.159   2.067  0.3277  0.3185 -0.4120
 1238SOL    HW215174   0.109   0.224   1.949 -0.6942  0.4863  0.4679
 1239SOL     OW15175   0.454   4.468  17.667  0.3846 -0.5616  0.4129
 1239SOL    HW115176   0.526   4.526  17.642 -0.4362  1.0560  1.7970
 1239SOL    HW215177   0.464   4.460   0.058  0.2697 -1.8962  0.3183
 1240SOL     OW15178   0.367   1.008   2.798 -0.1504  0.3978  0.0183
 1240SOL    HW115179   0.357   0.957   2.718  0.8864  1.1354 -0.5749
 1240SOL    HW215180   0.415   0.945   2.853  0.9926  0.3948 -0.9780
 1241SOL     OW15181   3.959   3.600  10.781 -0.2394 -0.0544  0.1304
 1241SOL    HW115182   4.043   3.599  10.736 -2.0433 -3.5297 -3.1272
 1241SOL    HW215183   3.958   3.694  10.803  1.2470 -0.2530  1.0332
 1242SOL     OW15184   1.572   1.133   5.749  0.2242  0.5311 -0.2194
 1242SOL    HW115185   1.486   1.100   5.721 -0.6580  3.2896 -0.7589
 1242SOL    HW215186   1.603   1.162   5.663 -0.2616 -0.5651 -0.7681
 1243SOL     OW15187   1.024   1.653   5.110 -0.6583 -0.1304  0.1152
 1243SOL    HW115188   0.980   1.573   5.138 -0.0223 -0.3501  0.4776
 1243SOL    HW215189   1.026   1.709   5.187  1.7563 -1.2974  0.9071
 1244SOL     OW15190   1.940   3.134  14.882 -0.4781 -0.4142  0.0369
 1244SOL    HW115191   1.861   3.153  14.933 -0.1006  0.2777  0.3622
 1244SOL    HW215192   1.899   3.094  14.806 -1.0524 -0.2944  0.2796
 1245SOL     OW15193   1.781   3.099   3.534 -0.0404  0.2413 -0.2193
 1245SOL    HW115194   1.798   3.005   3.530 -0.4467  0.1751 -0.4013
 1245SOL    HW215195   1.834   3.133   3.462 -0.2297  3.8825  1.3930
 1246SOL     OW15196   2.093   1.406   6.535  0.2530  0.1682  0.1596
 1246SOL    HW115197   2.060   1.406   6.445 -0.7029  0.9702  0.5060
 1246SOL    HW215198   2.148   1.328   6.532 -1.3873 -0.9352 -1.4949
 1247SOL     OW15199   1.347   0.382  14.408  0.1862 -0.1059 -0.2623
 1247SOL    HW115200   1.278   0.417  14.464  0.0781 -0.5587 -0.1151
 1247SOL    HW215201   1.421   0.415  14.459 -1.7148  2.6884  0.6779
 1248SOL     OW15202   3.598   1.768  12.275  0.3197  0.0765 -0.7494
 1248SOL    HW115203   3.682   1.807  12.251  1.1001 -0.6172  0.8435
 1248SOL    HW215204   3.559   1.739  12.192  0.7937  1.5376 -1.4958
 1249SOL     OW15205   1.774   3.081   7.056  0.2459 -0.2172  0.0045
 1249SOL    HW115206   1.727   3.152   7.100  3.8294  1.6512  0.7767
 1249SOL    HW215207   1.860   3.073   7.097  0.4112  0.2757 -0.2546
 1250SOL     OW15208   1.863   3.229   4.578  0.0151 -0.3924 -0.6613
 1250SOL    HW115209   1.914   3.252   4.656 -3.5205  1.5429  1.0701
 1250SOL    HW215210   1.884   3.138   4.556  3.7086  0.5345 -0.9575
 1251SOL     OW15211   1.388   3.652  15.502 -0.3579 -0.4173 -0.2296
 1251SOL    HW115212   1.449   3.678  15.434  0.2112 -0.8362  0.1213
 1251SOL    HW215213   1.300   3.676  15.471  0.4685  2.3358 -0.4667
 1252SOL     OW15214   0.994   2.006   2.799 -0.2721  0.2877 -0.5404
 1252SOL    HW115215   0.905   1.984   2.829  0.4868 -0.1268  1.4364
 1252SOL    HW215216   1.003   2.100   2.812 -0.6182  0.1121  0.9609
 1253SOL     OW15217   2.109   4.263   6.568 -0.5586  0.0197 -0.0106
 1253SOL    HW115218   2.176   4.286   6.633  0.9780  0.5275 -1.7576
 1253SOL    HW215219   2.044   4.208   6.613 -1.5249  1.0250 -0.1849
 1254SOL     OW15220   0.416   1.945   1.314 -0.0945  0.0421  0.5582
 1254SOL    HW115221   0.492   1.888   1.330 -0.2634 -0.2182  0.4277
 1254SOL    HW215222   0.355   1.885   1.271  0.2640  0.2859 -0.2859
 1255SOL     OW15223   1.891   2.321   2.472 -0.2701  0.8386 -0.0643
 1255SOL    HW115224   1.987   2.321   2.462 -0.3349  1.1281 -0.7117
 1255SOL    HW215225   1.854   2.280   2.395  1.8993 -0.2453 -0.5223
 1256SOL     OW15226   4.234   3.031  11.555  0.3758  0.2368  0.4359
 1256SOL    HW115227   4.295   2.976  11.504 -2.6539 -2.1366 -0.5986
 1256SOL    HW215228   4.255   3.003  11.644  1.1723 -0.2777  0.0918
 1257SOL     OW15229   4.658   2.429   6.581 -0.6572  0.2065  0.1601
 1257SOL    HW115230   4.636   2.493   6.649  0.6799  1.4508 -0.5787
 1257SOL    HW215231   0.000   2.373   6.617 -0.9580 -0.4155 -0.2444
 1258SOL     OW15232   2.501   0.446   0.945  0.2967 -0.0387 -0.3148
 1258SOL    HW115233   2.437   0.517   0.942  1.1790  0.7933  0.1662
 1258SOL    HW215234   2.535   0.446   0.855 -0.6363 -0.1948 -0.6656
 1259SOL     OW15235   1.535   3.123   4.598 -0.1955  0.8537 -0.6951
 1259SOL    HW115236   1.571   3.035   4.602  1.8879  1.7452 -0.0805
 1259SOL    HW215237   1.450   3.108   4.557 -0.2304 -0.8009 -0.0039
 1260SOL     OW15238   3.206   4.217   6.577  0.4480 -0.2983 -0.4638
 1260SOL    HW115239   3.271   4.170   6.525  0.1845  0.1573 -1.2027
 1260SOL    HW215240   3.129   4.162   6.562  1.8774 -1.7975 -2.3227
 1261SOL     OW15241   0.033   1.336   9.591  0.7784  0.2208 -0.0613
 1261SOL    HW115242   4.688   1.281   9.625  2.0605 -1.4704 -0.1141
 1261SOL    HW215243   0.073   1.274   9.529  1.7230  0.1296  0.6449
 1262SOL     OW15244   4.722   3.531  10.530 -0.1932 -0.0921  0.6783
 1262SOL    HW115245   4.632   3.503  10.550 -0.8009 -0.0792 -1.9944
 1262SOL    HW215246   0.032   3.442  10.525  0.9231  0.3474  0.8713
 1263SOL     OW15247   2.125   0.263   5.748 -0.0144  0.5020 -0.1714
 1263SOL    HW115248   2.132   0.175   5.711 -1.9676  0.2558  0.0634
 1263SOL    HW215249   2.047   0.245   5.800  2.9949 -1.5343  3.6218
 1264SOL     OW15250   0.324   0.061  17.625 -0.0992 -0.2353  0.0578
 1264SOL    HW115251   0.282   0.076   0.005  0.3654  1.1017  0.0492
 1264SOL    HW215252   0.346   4.693  17.629  3.0532  0.5887  2.0706
 1265SOL     OW15253   1.852   4.655   6.988  0.2447 -0.3934 -0.2246
 1265SOL    HW115254   1.789   4.659   7.059  0.5945  1.3634 -0.0121
 1265SOL    HW215255   1.834   4.564   6.965 -0.5572 -0.1214 -0.6907
 1266SOL     OW15256   2.948   2.470  11.661  0.1392  0.6071  0.2058
 1266SOL    HW115257   2.979   2.379  11.659 -2.3495 -0.2855  2.4423
 1266SOL    HW215258   2.979   2.504  11.578  3.0297  1.2441  1.5534
 1267SOL     OW15259   3.157   1.743   3.774 -0.7512 -0.3012 -0.3341
 1267SOL    HW115260   3.075   1.732   3.725 -0.8257 -0.2653 -0.2183
 1267SOL    HW215261   3.124   1.796   3.846  1.3273  0.0444  0.3478
 1268SOL     OW15262   3.390   0.218  15.158 -0.0148  0.7409  0.0809
 1268SOL    HW115263   3.305   0.249  15.190 -0.1700  1.6732 -1.2227
 1268SOL    HW215264   3.377   0.239  15.065  0.2425  1.3451  0.1827
 1269SOL     OW15265   3.876   0.773   6.665  0.5139  0.2787 -0.3648
 1269SOL    HW115266   3.971   0.756   6.665  0.6577  1.0867  0.5255
 1269SOL    HW215267   3.858   0.692   6.713  1.6369 -0.3391 -0.9782
 1270SOL     OW15268   4.082   4.287   6.476  0.0590 -0.0492  0.5571
 1270SOL    HW115269   4.111   4.237   6.552 -0.7758 -2.0412 -0.4455
 1270SOL    HW215270   4.133   4.235   6.414  1.0313  0.1539  1.1708
 1271SOL     OW15271   1.014   2.678  10.527 -0.0864 -0.0631  0.2527
 1271SOL    HW115272   0.989   2.765  10.494 -2.1548 -0.8273 -0.1955
 1271SOL    HW215273   0.969   2.629  10.459  2.1884  1.3266 -2.2609
 1272SOL     OW15274   4.591   0.621  11.572 -0.2247 -0.4146 -0.1627
 1272SOL    HW115275   4.640   0.675  11.511 -1.4080  2.1984  1.2310
 1272SOL    HW215276   4.669   0.572  11.601  0.1602 -0.4012 -1.1742
 1273SOL     OW15277   2.135   3.507  13.492  0.1250  0.0464  0.1188
 1273SOL    HW115278   2.174   3.423  13.469 -2.6017 -1.1736 -0.1516
 1273SOL    HW215279   2.051   3.474  13.524  0.5003 -1.9550 -0.8957
 1274SOL     OW15280   1.357   0.505  11.513 -0.3832  0.0659  0.2257
 1274SOL    HW115281   1.390   0.485  11.425 -0.0300 -0.4585  0.4725
 1274SOL    HW215282   1.285   0.567  11.503 -0.8345 -0.2792  1.3021
 1275SOL     OW15283   2.230   3.474   4.529 -0.0476 -0.5607  0.6072
 1275SOL    HW115284   2.218   3.410   4.459 -2.0306  1.7893 -1.2263
 1275SOL    HW215285   2.205   3.551   4.478 -2.4252 -2.6332 -1.3763
 1276SOL     OW15286   1.867   3.894  13.768 -0.2107 -0.3624  0.2826
 1276SOL    HW115287   1.945   3.842  13.751 -0.9074 -1.3588  0.1238
 1276SOL    HW215288   1.902   3.962  13.825  0.6154 -0.7540  0.2375
 1277SOL     OW15289   0.011   2.572  11.582 -0.2341 -0.4145  0.7401
 1277SOL    HW115290   0.010   2.477  11.579 -1.1024 -0.3916  0.3902
 1277SOL    HW215291   4.643   2.587  11.572 -0.0868  0.9698  1.3227
 1278SOL     OW15292   1.452   2.698  17.262 -0.0196 -0.4040  0.1054
 1278SOL    HW115293   1.476   2.772  17.317 -1.8227  0.1956  0.0764
 1278SOL    HW215294   1.373   2.663  17.302  0.7724 -1.0699  1.0614
 1279SOL     OW15295   3.820   3.214   6.126  0.0246 -0.0864 -1.0320
 1279SOL    HW115296   3.801   3.193   6.034  0.1097 -0.9574 -0.8488
 1279SOL    HW215297   3.779   3.300   6.133 -1.6393 -1.1321  1.9747
 1280SOL     OW15298   2.715   1.900   3.352 -0.4623 -0.2574 -0.1639
 1280SOL    HW115299   2.696   1.990   3.329 -0.9680 -0.9076 -2.2872
 1280SOL    HW215300   2.633   1.862   3.383 -0.6358  1.3382  1.3528
 1281SOL     OW15301   0.558   1.902   8.271 -0.2817  0.7851 -0.1077
 1281SOL    HW115302   0.580   1.829   8.330 -1.0573  1.5362  1.1112
 1281SOL    HW215303   0.559   1.979   8.328  1.9006 -0.3624  1.4262
 1282SOL     OW15304   1.438   1.128   5.996 -0.2342 -0.1258 -0.2092
 1282SOL    HW115305   1.503   1.115   5.928 -0.5949  1.3742 -0.8294
 1282SOL    HW215306   1.365   1.156   5.941 -1.7411 -3.8392 -0.1400
 1283SOL     OW15307   1.124   0.336   3.192  0.7565 -0.3356  0.1130
 1283SOL    HW115308   1.118   0.408   3.128 -1.7701 -0.9048 -0.2798
 1283SOL    HW215309   1.079   0.266   3.145 -1.2501 -0.5315  2.3333
 1284SOL     OW15310   0.416   3.414  12.821 -0.1481  0.4517 -0.3462
 1284SOL    HW115311   0.432   3.371  12.905  0.9020  1.1051 -0.2010
 1284SOL    HW215312   0.356   3.484  12.848 -0.5593 -0.3477  0.8184
 1285SOL     OW15313   4.310   1.433   8.438 -0.0861  0.5957 -0.1444
 1285SOL    HW115314   4.235   1.491   8.450  0.9736  1.9113  0.1780
 1285SOL    HW215315   4.346   1.453   8.351 -1.7701  0.5466 -0.8533
 1286SOL     OW15316   1.047   3.509   4.487 -0.2480  0.0349  0.1357
 1286SOL    HW115317   1.065   3.601   4.502 -1.0604 -0.0729  1.7616
 1286SOL    HW215318   1.136   3.476   4.474 -0.6721 -1.2311  0.4574
 1287SOL     OW15319   3.479   4.596  13.517 -0.3395 -0.6218 -0.0099
 1287SOL    HW115320   3.545   4.617  13.583 -0.7676 -0.4527  0.3633
 1287SOL    HW215321   3.497   4.650  13.440  0.5876 -1.3852 -0.3288
 1288SOL     OW15322   2.684   1.924   3.711  0.7949  0.0465 -0.6244
 1288SOL    HW115323   2.700   1.830   3.718 -0.1090  0.0469  1.3052
 1288SOL    HW215324   2.606   1.931   3.656  2.2231  3.0367 -2.2743
 1289SOL     OW15325   2.797   1.643   1.355 -0.0516 -0.1094 -0.1668
 1289SOL    HW115326   2.859   1.571   1.345 -1.1719 -1.1370  0.2932
 1289SOL    HW215327   2.801   1.662   1.448 -1.4524  0.4522 -0.2233
 1290SOL     OW15328   3.792   2.186   7.378  0.1118  0.0194 -0.7598
 1290SOL    HW115329   3.739   2.109   7.356 -1.4415  0.7941  0.2344
 1290SOL    HW215330   3.733   2.255   7.349  0.9641  1.7080  1.4873
 1291SOL     OW15331   4.380   2.412   6.183 -0.1243  0.0678  0.0618
 1291SOL    HW115332   4.382   2.363   6.265  2.0029  2.2543  1.2889
 1291SOL    HW215333   4.441   2.483   6.201 -0.1169  0.5114 -1.6729
 1292SOL     OW15334   3.182   3.501   6.371 -0.1444 -0.2872 -0.2630
 1292SOL    HW115335   3.215   3.435   6.432  3.2587  3.2068  1.6814
 1292SOL    HW215336   3.093   3.520   6.398 -0.2403  1.5143 -1.8236
 1293SOL     OW15337   2.441   0.832   2.704  0.1132  0.3778  0.1338
 1293SOL    HW115338   2.386   0.905   2.678 -0.7783 -0.3633 -0.0448
 1293SOL    HW215339   2.524   0.863   2.667  0.3963 -0.4915  0.0384
 1294SOL     OW15340   0.881   4.513   5.830 -0.1790  0.0556  0.2009
 1294SOL    HW115341   0.956   4.477   5.783 -1.8115 -1.8334 -0.9732
 1294SOL    HW215342   0.887   4.465   5.913 -1.0978 -2.0487 -0.9508
 1295SOL     OW15343   2.855   0.306   2.162 -0.3327 -0.2463 -0.3590
 1295SOL    HW115344   2.921   0.366   2.128  1.6113  0.0564  4.0055
 1295SOL    HW215345   2.914   0.231   2.174  2.6499  2.1960  0.2186
 1296SOL     OW15346   3.950   3.689   6.481  0.5948  0.0834 -0.1411
 1296SOL    HW115347   3.968   3.649   6.396  0.3448 -1.6454  0.6255
 1296SOL    HW215348   3.939   3.782   6.461  1.5964  0.6503  2.0356
 1297SOL     OW15349   0.446   2.468  11.229 -0.2946 -0.0710 -0.0624
 1297SOL    HW115350   0.402   2.543  11.188 -2.6617 -1.5244 -0.2230
 1297SOL    HW215351   0.425   2.400  11.164  1.0615  1.1022 -1.7126
 1298SOL     OW15352   2.716   4.177   4.725 -0.0950  0.3681 -0.0763
 1298SOL    HW115353   2.749   4.260   4.688  1.4055 -0.0332  0.3633
 1298SOL    HW215354   2.636   4.214   4.763 -0.3571  0.4612 -0.7148
 1299SOL     OW15355   3.253   1.642  11.166 -0.3355 -0.2968 -0.2650
 1299SOL    HW115356   3.171   1.634  11.117 -0.2758  2.9217 -0.9041
 1299SOL    HW215357   3.229   1.718  11.219  3.2557 -0.5648  1.7238
 1300SOL     OW15358   3.755   2.864  14.151 -0.2650  0.0658 -0.8319
 1300SOL    HW115359   3.758   2.903  14.239  1.3615 -1.3541 -0.2685
 1300SOL    HW215360   3.753   2.943  14.097  0.7465  1.5234  1.2411
 1301SOL     OW15361   4.301   1.379  14.879  0.4437  0.1815 -0.2634
 1301SOL    HW115362   4.287   1.404  14.970 -1.2856 -2.5686  0.2264
 1301SOL    HW215363   4.227   1.323  14.854  0.2537 -1.1627  3.3504
 1302SOL     OW15364   1.957   2.473   4.847  0.2912 -0.0854  0.7974
 1302SOL    HW115365   1.903   2.442   4.774  0.6627 -2.1372  1.4020
 1302SOL    HW215366   1.926   2.418   4.919 -0.4012  0.3406  0.8325
 1303SOL     OW15367   0.200   2.591   4.374  0.3642 -0.4144  0.0326
 1303SOL    HW115368   0.257   2.515   4.373  0.6697 -0.1457 -2.3336
 1303SOL    HW215369   0.175   2.593   4.466 -0.3238  0.8680 -0.1799
 1304SOL     OW15370   3.804   3.619   7.242  0.4903 -0.4064 -0.0277
 1304SOL    HW115371   3.861   3.556   7.199 -0.2832 -1.0282 -0.1449
 1304SOL    HW215372   3.732   3.564   7.272  1.1162 -0.9517  0.4556
 1305SOL     OW15373   4.095   3.418   4.448  0.7783  0.7317 -0.2527
 1305SOL    HW115374   4.037   3.485   4.412 -0.7148 -1.6601 -2.3551
 1305SOL    HW215375   4.157   3.418   4.375 -1.0695  0.7911 -1.8320
 1306SOL     OW15376   0.363   1.755   4.688  0.2761 -0.3810 -0.2163
 1306SOL    HW115377   0.337   1.700   4.762  2.5428 -0.9739  0.1409
 1306SOL    HW215378   0.313   1.836   4.699  0.9495  0.0444 -0.2894
 1307SOL     OW15379   0.543   1.581   6.194 -0.0447 -0.0100  0.2315
 1307SOL    HW115380   0.465   1.572   6.139 -0.6147  1.2701  0.8218
 1307SOL    HW215381   0.510   1.649   6.253 -1.7050 -0.3847 -0.2676
 1308SOL     OW15382   2.509   3.325  12.717 -0.0496  0.2936 -0.1969
 1308SOL    HW115383   2.524   3.364  12.630  0.4169 -1.6145 -0.9789
 1308SOL    HW215384   2.600   3.306  12.741  0.4786  1.9638 -0.8090
 1309SOL     OW15385   2.831   0.396  14.925 -0.0671 -0.2011 -0.3994
 1309SOL    HW115386   2.787   0.409  15.009 -1.0139 -0.2340 -0.8873
 1309SOL    HW215387   2.753   0.423  14.876  0.0376  2.7797  1.0595
 1310SOL     OW15388   0.398   3.813  12.300 -0.0588  0.1623  0.4903
 1310SOL    HW115389   0.389   3.718  12.303  1.0165  0.0404 -0.1698
 1310SOL    HW215390   0.313   3.833  12.339  1.0531 -0.4780  3.3015
 1311SOL     OW15391   2.421   1.775  17.354 -0.2046  0.0683 -0.2705
 1311SOL    HW115392   2.448   1.731  17.274 -1.4991 -0.0551 -0.6367
 1311SOL    HW215393   2.345   1.724  17.383 -0.6029  1.3453  0.9776
 1312SOL     OW15394   3.338   3.443   5.571  0.2668 -0.2015 -0.0309
 1312SOL    HW115395   3.307   3.457   5.661 -1.0783  1.8658 -0.7983
 1312SOL    HW215396   3.274   3.493   5.521  1.5843  0.0494 -1.4663
 1313SOL     OW15397   1.011   1.628   8.528  0.2593  0.3596  0.3005
 1313SOL    HW115398   1.075   1.612   8.459 -0.9958  0.8640 -0.9736
 1313SOL    HW215399   1.043   1.713   8.560  0.3275  0.7184 -0.7314
 1314SOL     OW15400   4.677   1.381   5.972 -0.3399  0.5546  0.2146
 1314SOL    HW115401   4.626   1.401   5.894 -0.8764 -0.4036  0.3242
 1314SOL    HW215402   0.036   1.355   5.936 -1.6190 -1.9281 -0.9578
 1315SOL     OW15403   2.747   4.716   5.220  0.3025 -0.6055 -0.3778
 1315SOL    HW115404   2.809   4.693   5.152  1.9451  0.0382  0.9075
 1315SOL    HW215405   2.675   0.035   5.176 -0.0195 -0.7143  0.0321
 1316SOL     OW15406   0.707   3.412   4.131  0.5694  0.1310 -0.3463
 1316SOL    HW115407   0.788   3.460   4.117  0.7463  1.0553  4.0946
 1316SOL    HW215408   0.714   3.358   4.210  0.6653  0.0775 -0.3919
 1317SOL     OW15409   0.175   3.702   5.470  1.1313 -0.2587  0.2428
 1317SOL    HW115410   0.093   3.717   5.424 -0.2396 -1.2141  2.3394
 1317SOL    HW215411   0.152   3.741   5.555  1.6871 -0.4340  0.4727
 1318SOL     OW15412   0.266   1.960   5.298  0.0681 -0.5386  0.4109
 1318SOL    HW115413   0.344   1.978   5.245  1.2877  1.0055  2.7106
 1318SOL    HW215414   0.288   1.997   5.383  0.8256 -0.0215 -0.0075
 1319SOL     OW15415   0.269   0.716   6.359  0.3210  0.4047  0.9004
 1319SOL    HW115416   0.359   0.746   6.342 -1.0401  4.3135  0.6068
 1319SOL    HW215417   0.233   0.748   6.276  1.3517 -0.5760  0.0707
 1320SOL     OW15418   3.805   2.794  14.625 -0.6006  0.1998  0.4579
 1320SOL    HW115419   3.842   2.712  14.594 -1.2196  0.2401 -0.3843
 1320SOL    HW215420   3.806   2.780  14.720 -0.3759  0.7121  0.5302
 1321SOL     OW15421   2.791   3.319   7.791 -0.8625 -0.4062  0.0919
 1321SOL    HW115422   2.821   3.410   7.781 -2.1050  0.2642  2.5766
 1321SOL    HW215423   2.855   3.267   7.742  1.0710  1.5066  0.5611
 1322SOL     OW15424   1.417   1.616   3.298 -0.1562 -0.1345 -0.8835
 1322SOL    HW115425   1.432   1.703   3.261 -0.0280  0.4844  0.5817
 1322SOL    HW215426   1.501   1.606   3.343  0.4181 -0.7138 -2.0823
 1323SOL     OW15427   3.838   3.663   2.976 -0.2891 -0.3059 -0.5551
 1323SOL    HW115428   3.869   3.592   3.031 -2.0295 -2.5887 -2.5352
 1323SOL    HW215429   3.825   3.734   3.039  0.3168 -0.8808  0.2045
 1324SOL     OW15430   2.008   4.535   0.513 -0.1676  0.3640 -0.8235
 1324SOL    HW115431   1.976   4.623   0.532  0.1143  0.0227  1.1768
 1324SOL    HW215432   1.926   4.493   0.489 -0.7284  0.9807  0.0395
 1325SOL     OW15433   0.833   0.581   0.909 -0.4696 -0.2210 -0.6476
 1325SOL    HW115434   0.826   0.662   0.857 -0.0433 -0.4737 -1.0974
 1325SOL    HW215435   0.741   0.555   0.918 -0.5785  1.1578  2.2182
 1326SOL     OW15436   0.614   2.324   2.568 -0.1135  0.4041 -0.4781
 1326SOL    HW115437   0.530   2.279   2.584  0.6714  0.3358  3.3560
 1326SOL    HW215438   0.583   2.388   2.504 -1.0202  0.4832  0.0389
 1327SOL     OW15439   1.295   0.906   3.856  0.6513  0.1589 -0.3485
 1327SOL    HW115440   1.249   0.979   3.814 -0.1421  0.2454  0.6910
 1327SOL    HW215441   1.260   0.911   3.944  3.0794  0.1976  0.6210
 1328SOL     OW15442   4.074   2.022   3.829  0.6585  0.0264  0.1035
 1328SOL    HW115443   4.064   2.039   3.735 -2.3971 -0.0067  0.4303
 1328SOL    HW215444   4.157   2.061   3.856  1.5078 -2.8094  1.5620
 1329SOL     OW15445   2.757   0.740   7.465  0.3918 -0.3517  0.3493
 1329SOL    HW115446   2.688   0.806   7.465  0.2857 -0.4443  2.4529
 1329SOL    HW215447   2.764   0.706   7.376 -2.1013  1.2293 -0.4486
 1330SOL     OW15448   1.134   2.569  12.470  0.2898  0.6607  0.6798
 1330SOL    HW115449   1.164   2.513  12.399 -1.8514  1.3242 -0.7187
 1330SOL    HW215450   1.165   2.513  12.541  0.5101  0.1358  0.1702
 1331SOL     OW15451   4.297   1.823  17.628  0.3697 -0.1260  0.4684
 1331SOL    HW115452   4.238   1.808  17.555  0.9975 -1.8420  0.3229
 1331SOL    HW215453   4.257   1.900  17.670 -0.0173 -0.5051  0.8020
 1332SOL     OW15454   3.577   3.769   6.865  0.3443 -0.3041  0.8628
 1332SOL    HW115455   3.565   3.696   6.804  0.7977  0.9136 -0.6579
 1332SOL    HW215456   3.669   3.788   6.850 -0.1296  1.0268 -0.3027
 1333SOL     OW15457   0.064   2.996   1.733  0.2825  0.1586 -0.3062
 1333SOL    HW115458   4.701   2.973   1.762  1.7138 -1.7883  2.4660
 1333SOL    HW215459   0.115   2.917   1.747 -0.4700 -0.2072  0.3734
 1334SOL     OW15460   2.639   0.490   3.891 -0.4476  0.7890  0.2064
 1334SOL    HW115461   2.601   0.428   3.954 -0.1738  0.1833 -0.2224
 1334SOL    HW215462   2.567   0.542   3.854 -0.7842  0.2103  0.0432
 1335SOL     OW15463   3.809   3.781   5.363 -0.0771  0.1098  0.3004
 1335SOL    HW115464   3.724   3.753   5.329  0.1477 -0.2252  0.0089
 1335SOL    HW215465   3.785   3.872   5.382  0.9736  0.4152  0.1760
 1336SOL     OW15466   3.461   3.564  16.552 -0.4005  0.0920 -0.0668
 1336SOL    HW115467   3.471   3.659  16.564  1.1656 -0.0405 -0.3112
 1336SOL    HW215468   3.369   3.542  16.537 -1.3179  3.4328  0.5841
 1337SOL     OW15469   3.133   1.562   9.794  0.3012  0.3776 -0.0472
 1337SOL    HW115470   3.044   1.593   9.808 -0.2793 -0.9562 -0.8233
 1337SOL    HW215471   3.139   1.545   9.700 -1.2361 -1.6307  0.2070
 1338SOL     OW15472   0.916   3.495  15.419  0.7702 -0.6767  0.3188
 1338SOL    HW115473   0.889   3.424  15.361 -0.2049  0.8979 -1.1326
 1338SOL    HW215474   0.876   3.456  15.496  2.3462 -1.6478  0.6562
 1339SOL     OW15475   4.285   2.031  14.032  0.1245 -0.0054  0.8982
 1339SOL    HW115476   4.207   2.057  14.081  1.2920  2.5709  1.3906
 1339SOL    HW215477   4.265   1.946  13.994  1.1660 -0.1274  0.6122
 1340SOL     OW15478   3.630   1.851  12.846  0.7688 -0.3661 -0.1251
 1340SOL    HW115479   3.716   1.851  12.805  0.7540  1.3974 -0.1494
 1340SOL    HW215480   3.630   1.945  12.866 -0.6185 -0.4148  0.1417
 1341SOL     OW15481   0.186   1.308   1.101  0.0991  0.1863 -0.2963
 1341SOL    HW115482   0.131   1.230   1.106  0.9414 -0.3400  0.7787
 1341SOL    HW215483   0.277   1.280   1.105 -0.4300 -1.5207  0.0306
 1342SOL     OW15484   2.526   0.155   2.743 -0.2759  0.3018 -0.5606
 1342SOL    HW115485   2.511   0.080   2.685  0.4795  0.7639 -1.3547
 1342SOL    HW215486   2.607   0.195   2.711  0.1340  0.1266  0.2729
 1343SOL     OW15487   4.064   1.195   4.972  0.2593 -0.8132  0.4101
 1343SOL    HW115488   4.022   1.133   4.912  2.0307 -0.8368 -0.8027
 1343SOL    HW215489   3.990   1.243   5.008  1.0957 -0.2756  1.4155
 1344SOL     OW15490   3.101   4.191   7.556 -0.0044 -0.0891 -0.3220
 1344SOL    HW115491   3.142   4.120   7.606  0.5946  0.8065  0.4528
 1344SOL    HW215492   3.069   4.251   7.624 -0.0958  0.3105 -0.7174
 1345SOL     OW15493   4.052   1.806   2.838  0.1469 -0.8416  0.3923
 1345SOL    HW115494   4.032   1.899   2.832  0.0500 -0.8395  0.7604
 1345SOL    HW215495   4.099   1.792   2.755 -0.6507  2.0034 -0.5182
 1346SOL     OW15496   0.136   0.973  17.515  0.5979 -0.3935 -0.5549
 1346SOL    HW115497   0.150   1.026  17.593 -2.5985 -1.3011  0.6543
 1346SOL    HW215498   0.041   0.975  17.504  0.3643  3.1823  2.1407
 1347SOL     OW15499   3.039   2.869   5.399  0.1769  0.3696 -0.9146
 1347SOL    HW115500   3.039   2.957   5.436  1.8390  0.9178 -2.2161
 1347SOL    HW215501   3.119   2.871   5.346  1.6242 -0.3925  1.2267
 1348SOL     OW15502   1.582   4.237   5.324 -0.0903 -0.5097 -0.5167
 1348SOL    HW115503   1.645   4.224   5.253  1.7205 -1.7343  1.2643
 1348SOL    HW215504   1.626   4.307   5.373  0.6955  0.7487 -3.0310
 1349SOL     OW15505   3.495   0.602   5.939  0.4411  0.5634 -0.5725
 1349SOL    HW115506   3.415   0.649   5.965 -0.3228 -0.4765 -1.0066
 1349SOL    HW215507   3.510   0.636   5.851  0.9420 -0.0475 -0.7173
 1350SOL     OW15508   4.624   0.972  12.870  0.2001 -0.7084 -0.1143
 1350SOL    HW115509   4.622   0.917  12.949  1.1024 -0.6478 -0.0440
 1350SOL    HW215510   4.631   1.062  12.902 -0.9033 -0.6851  0.0613
 1351SOL     OW15511   1.005   2.888   3.536  0.1493  0.5985 -0.0442
 1351SOL    HW115512   1.047   2.974   3.530  2.9288 -0.5867  2.0257
 1351SOL    HW215513   1.005   2.879   3.632  0.8929 -0.5139 -0.1433
 1352SOL     OW15514   3.011   3.567   2.455  0.1960  0.1272 -0.6220
 1352SOL    HW115515   3.071   3.591   2.383 -0.4692 -0.6900 -1.4490
 1352SOL    HW215516   3.059   3.496   2.496  1.0564 -0.2678 -2.3243
 1353SOL     OW15517   0.050   2.410   2.058 -0.0238  0.0717 -0.1006
 1353SOL    HW115518   0.086   2.331   2.099  0.1847 -0.0072 -0.4378
 1353SOL    HW215519   0.061   2.477   2.126 -1.5200  1.2545 -1.0216
 1354SOL     OW15520   0.237   3.952   4.618  0.2856  0.1437  0.6392
 1354SOL    HW115521   0.331   3.973   4.619  0.3609 -0.1987  0.5624
 1354SOL    HW215522   0.237   3.877   4.560  1.6776 -0.2419  1.1296
 1355SOL     OW15523   1.337   2.363   1.148 -0.0229 -0.1585 -0.3623
 1355SOL    HW115524   1.414   2.333   1.099 -0.0808 -2.9651  1.2491
 1355SOL    HW215525   1.320   2.448   1.108  2.1115 -0.1639 -1.3223
 1356SOL     OW15526   4.050   4.545   4.796  0.0384  0.1344  0.5491
 1356SOL    HW115527   3.992   4.609   4.754 -1.5957 -1.6285  0.0951
 1356SOL    HW215528   4.136   4.578   4.770  0.6571 -0.4325  1.9271
 1357SOL     OW15529   3.890   2.974  15.195 -0.0988  0.5450 -0.1439
 1357SOL    HW115530   3.804   3.012  15.175 -1.1700 -2.3584 -0.9742
 1357SOL    HW215531   3.874   2.881  15.181 -0.7171  0.7527 -0.8296
 1358SOL     OW15532   3.761   0.887   7.605 -0.1478  0.0108  0.2537
 1358SOL    HW115533   3.854   0.900   7.584 -0.4987 -0.4579 -1.5443
 1358SOL    HW215534   3.757   0.791   7.612  1.0880 -0.2195 -2.4608
 1359SOL     OW15535   1.716   0.608   1.712  0.5860  0.3379 -0.2784
 1359SOL    HW115536   1.781   0.678   1.722 -0.5675  1.6871 -2.1077
 1359SOL    HW215537   1.743   0.557   1.636  2.1059  0.0660  0.4553
 1360SOL     OW15538   3.906   1.371   4.271  0.2314 -0.4620 -0.0742
 1360SOL    HW115539   3.834   1.316   4.300  1.0897 -1.0583  0.9039
 1360SOL    HW215540   3.934   1.325   4.192  0.1041  0.3715 -0.6039
 1361SOL     OW15541   0.702   0.737   4.883  0.4657  0.6347 -0.0236
 1361SOL    HW115542   0.650   0.771   4.811  2.6595  4.1471  0.0472
 1361SOL    HW215543   0.636   0.709   4.947  1.0292 -1.6002 -0.4195
 1362SOL     OW15544   3.729   0.931   5.370 -0.1301 -0.7721 -0.0109
 1362SOL    HW115545   3.654   0.876   5.347 -0.3738 -1.3678  2.2412
 1362SOL    HW215546   3.778   0.932   5.288 -0.7852  0.3492 -0.3929
 1363SOL     OW15547   4.195   0.159  13.860 -0.2083  0.4943  0.3069
 1363SOL    HW115548   4.254   0.149  13.935 -0.5523  0.7402  0.6088
 1363SOL    HW215549   4.267   0.141  13.799  0.4362  0.8227  0.9715
 1364SOL     OW15550   1.138   1.304   8.173 -0.1968 -0.3376  0.5320
 1364SOL    HW115551   1.043   1.298   8.172 -0.0418 -2.7686  2.2927
 1364SOL    HW215552   1.159   1.283   8.082  0.1783  0.4051  0.4459
 1365SOL     OW15553   1.933   0.813   7.062 -0.3039  0.1794  0.2132
 1365SOL    HW115554   1.925   0.757   7.139 -1.3092  1.4877  1.0542
 1365SOL    HW215555   1.841   0.809   7.036 -0.3778  0.4540  0.4372
 1366SOL     OW15556   2.025   4.611   4.229 -0.1136  0.3088  0.2388
 1366SOL    HW115557   2.013   4.556   4.307  2.7414  0.7590  1.0066
 1366SOL    HW215558   2.053   4.691   4.274 -1.1214  0.5116  0.5181
 1367SOL     OW15559   1.002   0.639  11.453 -0.4225 -0.1640 -0.8441
 1367SOL    HW115560   0.985   0.698  11.527  2.1270  0.4104 -0.7020
 1367SOL    HW215561   1.041   0.700  11.391 -2.4310  1.1226 -0.8099
 1368SOL     OW15562   3.170   1.499   3.533  0.3107  0.0907  0.3114
 1368SOL    HW115563   3.168   1.406   3.513 -1.5387  1.1680 -4.4726
 1368SOL    HW215564   3.236   1.518   3.600  0.1583  0.0379  0.4784
 1369SOL     OW15565   3.572   1.098  13.408  0.0479 -0.2932 -0.1772
 1369SOL    HW115566   3.557   1.065  13.319  1.0101 -2.4294  0.4534
 1369SOL    HW215567   3.667   1.088  13.419  0.3466  0.9759 -1.5893
 1370SOL     OW15568   3.225   2.605   5.613 -0.1521  0.9190 -0.0658
 1370SOL    HW115569   3.136   2.629   5.589 -0.6565  2.1501  3.1016
 1370SOL    HW215570   3.241   2.658   5.691  0.0009  1.5611 -0.5290
 1371SOL     OW15571   2.338   4.198  16.451 -0.0003  0.3443 -0.4482
 1371SOL    HW115572   2.271   4.218  16.516  1.1994  0.5749  0.7280
 1371SOL    HW215573   2.414   4.246  16.486 -0.6826  0.8888  0.2840
 1372SOL     OW15574   2.956   0.534   6.449  0.3903  0.1368  0.5076
 1372SOL    HW115575   2.969   0.561   6.540 -0.5112 -2.0398  1.2647
 1372SOL    HW215576   2.933   0.619   6.411  0.5881 -0.3941 -0.7859
 1373SOL     OW15577   2.262   3.104   1.767 -0.3713  0.2453 -0.0857
 1373SOL    HW115578   2.292   3.034   1.709 -1.2314 -0.4423  0.3059
 1373SOL    HW215579   2.326   3.082   1.835 -0.2440  0.6820 -0.0607
 1374SOL     OW15580   4.544   0.402  10.556 -0.4446  0.0621  0.3499
 1374SOL    HW115581   4.587   0.487  10.557 -0.5441  0.0971  1.3860
 1374SOL    HW215582   4.527   0.404  10.650 -1.3848 -0.1408  0.1876
 1375SOL     OW15583   4.424   2.842  11.428 -0.3509  0.3398  0.1625
 1375SOL    HW115584   4.497   2.791  11.395 -0.6328  1.6671 -2.5032
 1375SOL    HW215585   4.363   2.770  11.445 -0.7629  0.4936 -0.6739
 1376SOL     OW15586   3.140   4.123   0.598 -0.1389  0.1853  0.7308
 1376SOL    HW115587   3.217   4.067   0.607 -1.1953 -1.5885 -1.0698
 1376SOL    HW215588   3.083   4.097   0.670 -0.0721 -2.7562 -0.2678
 1377SOL     OW15589   0.436   2.457   4.065  0.5646 -0.0807 -0.1948
 1377SOL    HW115590   0.437   2.513   3.987 -2.0679  3.0385  1.9691
 1377SOL    HW215591   0.519   2.479   4.107 -0.5218  0.8394  1.4800
 1378SOL     OW15592   0.214   2.677   1.760  0.7378  0.1832  0.4993
 1378SOL    HW115593   0.257   2.599   1.796  1.1119  0.0735 -0.1966
 1378SOL    HW215594   0.284   2.743   1.759  0.4289  0.4854 -0.9758
 1379SOL     OW15595   1.408   0.061   6.222 -0.0217 -0.2846  0.3178
 1379SOL    HW115596   1.342   0.016   6.169 -0.5114  2.1196 -1.0820
 1379SOL    HW215597   1.484   0.035   6.170 -0.0770 -0.6530  0.4189
 1380SOL     OW15598   2.454   3.158  11.418  0.6397 -0.8616 -1.2111
 1380SOL    HW115599   2.471   3.071  11.454 -0.5364 -1.1354 -1.3406
 1380SOL    HW215600   2.359   3.159  11.413  0.4911 -1.2064  2.0557
 1381SOL     OW15601   2.707   1.040  14.319 -0.7379 -0.0381 -0.1900
 1381SOL    HW115602   2.637   0.975  14.316  0.2000 -1.0237 -1.0245
 1381SOL    HW215603   2.675   1.109  14.262 -1.2525 -1.1694 -1.2530
 1382SOL     OW15604   1.719   0.214   8.494 -0.5094 -0.0095 -0.0452
 1382SOL    HW115605   1.706   0.161   8.572  1.0881 -1.4345 -0.7425
 1382SOL    HW215606   1.683   0.165   8.420 -1.5888  0.9493 -0.1599
 1383SOL     OW15607   2.053   0.094   2.513  0.5301 -0.3422 -0.0459
 1383SOL    HW115608   2.004   0.097   2.431  0.5482 -0.5245 -0.0626
 1383SOL    HW215609   2.130   0.140   2.481  1.1903 -1.9177 -0.7122
 1384SOL     OW15610   4.347   1.205   5.328  0.1054 -0.4785 -0.0694
 1384SOL    HW115611   4.287   1.139   5.364  2.1403 -3.1080 -1.4587
 1384SOL    HW215612   4.287   1.278   5.318  0.6031  0.0812  1.0580
 1385SOL     OW15613   1.455   1.283   2.690 -0.0836  0.0504  0.2866
 1385SOL    HW115614   1.370   1.259   2.653 -0.8782 -1.1321  2.8780
 1385SOL    HW215615   1.471   1.367   2.647  0.5343  0.7083  1.8047
 1386SOL     OW15616   1.348   2.699   8.847 -0.2961 -0.2732  1.1236
 1386SOL    HW115617   1.399   2.761   8.795 -0.2418 -0.3737  1.0562
 1386SOL    HW215618   1.326   2.630   8.783  1.4188 -0.5629  0.8464
 1387SOL     OW15619   0.670   3.049  10.920 -0.0419  0.2139 -0.2678
 1387SOL    HW115620   0.585   3.005  10.924 -0.4344  1.1149  1.1077
 1387SOL    HW215621   0.650   3.135  10.957  0.8460 -0.8127  2.6522
 1388SOL     OW15622   0.268   3.309   1.081  0.1571 -0.2385 -0.4812
 1388SOL    HW115623   0.204   3.244   1.110 -0.4336  0.1546 -0.9029
 1388SOL    HW215624   0.223   3.351   1.008  0.1150  1.1238  0.3178
 1389SOL     OW15625   1.425   1.131   7.619  0.5206  0.4085  0.1963
 1389SOL    HW115626   1.464   1.215   7.641  0.1784  0.5936  0.0852
 1389SOL    HW215627   1.347   1.151   7.567 -0.2275  0.8457  1.4902
 1390SOL     OW15628   1.972   1.578   3.988 -0.1041 -0.1360  0.4310
 1390SOL    HW115629   2.032   1.555   4.059  1.1766  0.7548 -0.3898
 1390SOL    HW215630   1.897   1.526   4.020 -2.1806  2.2491 -0.6135
 1391SOL     OW15631   3.229   3.652   4.030  0.4109  0.6186 -0.7034
 1391SOL    HW115632   3.246   3.745   4.045 -0.7914  0.1484  3.7116
 1391SOL    HW215633   3.272   3.620   4.109 -0.3080 -1.5211 -1.1747
 1392SOL     OW15634   2.601   2.505   3.568  0.4705  0.4085  0.0349
 1392SOL    HW115635   2.655   2.546   3.500 -1.8396 -0.9286 -2.6184
 1392SOL    HW215636   2.605   2.568   3.640  1.0576 -0.1353  0.4679
 1393SOL     OW15637   1.396   0.743   5.135  0.5254  0.7205 -0.4385
 1393SOL    HW115638   1.465   0.776   5.192  0.5049 -3.0231  1.7716
 1393SOL    HW215639   1.378   0.662   5.183  0.1058  0.1154 -1.5876
 1394SOL     OW15640   2.630   1.090  12.506  0.0810 -0.6383  0.1865
 1394SOL    HW115641   2.575   1.088  12.427 -0.6861  2.4474  0.6145
 1394SOL    HW215642   2.570   1.103  12.579  1.7865  0.0467  1.4642
 1395SOL     OW15643   1.423   0.686  11.944 -0.0785  0.3240  0.3436
 1395SOL    HW115644   1.362   0.618  11.973 -0.2231  1.5132  2.8024
 1395SOL    HW215645   1.476   0.626  11.891 -1.4537  0.8312 -1.6101
 1396SOL     OW15646   0.906   0.638  10.776 -0.1770 -0.3021  0.7504
 1396SOL    HW115647   0.841   0.674  10.836 -0.1729  2.7395 -1.0647
 1396SOL    HW215648   0.919   0.546  10.799 -1.5049 -0.8316 -0.6506
 1397SOL     OW15649   0.179   4.500  16.404 -0.4357 -0.0731  0.2182
 1397SOL    HW115650   0.191   4.409  16.377  0.5335 -0.2547  1.2766
 1397SOL    HW215651   0.207   4.498  16.495 -1.5054 -0.0107  0.5536
 1398SOL     OW15652   4.543   0.847   4.678 -0.4157 -0.2608  0.3605
 1398SOL    HW115653   4.582   0.930   4.705 -0.9966 -0.3043  1.3607
 1398SOL    HW215654   4.516   0.869   4.589  1.0322  0.7254  0.1682
 1399SOL     OW15655   0.571   0.881   5.163  0.3039 -0.1975  0.2197
 1399SOL    HW115656   0.553   0.794   5.127 -1.7155  0.6389 -0.7927
 1399SOL    HW215657   0.557   0.935   5.086  1.0232  1.7848  1.4864
 1400SOL     OW15658   4.100   3.291   7.695  0.0809 -0.1495 -0.1375
 1400SOL    HW115659   4.028   3.273   7.755  0.6477  1.2213  0.9447
 1400SOL    HW215660   4.172   3.273   7.755 -0.3138  0.1610  0.4150
 1401SOL     OW15661   0.480   3.034   1.191 -0.1195 -0.0424  0.0801
 1401SOL    HW115662   0.501   3.081   1.110  0.4129  0.8362  0.7231
 1401SOL    HW215663   0.561   3.013   1.238 -0.1568  0.0701  0.1938
 1402SOL     OW15664   4.410   3.158   0.501  0.5924 -0.5104 -0.1980
 1402SOL    HW115665   4.327   3.206   0.500  1.1234  0.3776 -0.9649
 1402SOL    HW215666   4.475   3.222   0.475  1.0230 -1.6823 -2.0198
 1403SOL     OW15667   0.766   1.468  11.063  0.3939 -0.4364 -0.1616
 1403SOL    HW115668   0.767   1.529  10.989 -0.5136 -1.5210 -1.0668
 1403SOL    HW215669   0.701   1.518  11.113 -1.1218 -1.2412 -1.3108
 1404SOL     OW15670   0.280   0.075  13.238 -0.0294 -0.4467  0.1668
 1404SOL    HW115671   0.305   0.163  13.266  0.5339 -0.8129  0.8122
 1404SOL    HW215672   0.298   0.079  13.144 -1.7848 -1.8438 -0.2196
 1405SOL     OW15673   2.790   2.140  12.839 -0.6213 -0.3239 -0.2579
 1405SOL    HW115674   2.806   2.144  12.745  0.3282  1.7106 -0.0208
 1405SOL    HW215675   2.872   2.176  12.875 -2.1114  2.4607  0.3716
 1406SOL     OW15676   2.411   3.223   4.018 -0.3062  0.4213 -0.2297
 1406SOL    HW115677   2.420   3.298   4.076  0.4388 -0.0261  0.2198
 1406SOL    HW215678   2.505   3.214   4.001 -0.5321  0.3240 -1.4601
 1407SOL     OW15679   0.676   2.893  12.803 -0.1855  0.1644 -0.2514
 1407SOL    HW115680   0.612   2.847  12.858  0.3376  1.3418  1.3624
 1407SOL    HW215681   0.737   2.926  12.869 -1.5475 -0.9469  1.5729
 1408SOL     OW15682   1.932   4.546   2.536  0.0003  0.8040  0.6621
 1408SOL    HW115683   1.988   4.621   2.513  2.4089 -0.6710  1.7419
 1408SOL    HW215684   1.846   4.571   2.502 -0.6887 -2.5976 -0.0877
 1409SOL     OW15685   0.741   4.707   7.802  0.3489 -0.8013 -0.1069
 1409SOL    HW115686   0.708   4.644   7.738 -1.1029 -0.0447 -0.1000
 1409SOL    HW215687   0.724   4.649   7.877  3.3777 -0.5072  0.8242
 1410SOL     OW15688   4.719   0.562   7.648 -0.1587  0.7630 -0.1888
 1410SOL    HW115689   4.686   0.613   7.574 -2.7345 -0.8112 -0.0810
 1410SOL    HW215690   4.665   0.484   7.650  0.4581  0.3302 -0.4263
 1411SOL     OW15691   4.389   2.298  13.262  0.3651  0.2296  0.2989
 1411SOL    HW115692   4.385   2.268  13.353  0.5547 -0.9359 -0.0842
 1411SOL    HW215693   4.423   2.387  13.271 -0.1926  0.1809  3.0547
 1412SOL     OW15694   0.849   2.294   3.913  0.5591  0.5561 -0.4817
 1412SOL    HW115695   0.876   2.208   3.883 -3.2419 -0.7656 -0.1109
 1412SOL    HW215696   0.799   2.317   3.834  0.3615 -0.7417 -0.7345
 1413SOL     OW15697   0.759   1.443   6.105  0.1988  0.2766  0.3873
 1413SOL    HW115698   0.715   1.357   6.110 -0.9027  0.6186 -4.0031
 1413SOL    HW215699   0.692   1.500   6.142  0.5243  1.0447 -0.2230
 1414SOL     OW15700   2.740   0.308  15.186  0.6633 -0.3963  0.0605
 1414SOL    HW115701   2.833   0.292  15.172 -0.0551 -1.3635 -3.5736
 1414SOL    HW215702   2.715   0.246  15.254 -0.0508 -0.5106 -0.3033
 1415SOL     OW15703   2.265   3.005   4.568  0.2599 -0.1396 -0.2659
 1415SOL    HW115704   2.224   2.925   4.533 -1.5409  0.4729  0.4210
 1415SOL    HW215705   2.243   3.006   4.661  2.2281  0.9287  0.1728
 1416SOL     OW15706   4.607   4.416  16.146 -0.2317  0.2608  0.0190
 1416SOL    HW115707   4.592   4.364  16.067 -1.4345 -0.3328  0.6482
 1416SOL    HW215708   4.572   4.355  16.211 -1.2219 -1.6614 -2.3537
 1417SOL     OW15709   2.653   2.968   7.753  0.0154 -0.6811 -0.3499
 1417SOL    HW115710   2.679   2.896   7.695  0.0438 -0.6109 -0.4230
 1417SOL    HW215711   2.639   3.046   7.699 -0.7533  0.0942  0.9704
 1418SOL     OW15712   2.054   3.827   6.481  0.2973 -0.0702  0.2322
 1418SOL    HW115713   2.063   3.752   6.539  0.6541  0.5674  1.0185
 1418SOL    HW215714   2.008   3.892   6.535 -2.1120 -0.8772 -0.8654
 1419SOL     OW15715   3.435   4.693  16.602  0.6831  0.1856  0.1525
 1419SOL    HW115716   3.431   0.058  16.632 -0.9514  0.1499  0.0730
 1419SOL    HW215717   3.525   4.667  16.621  1.0235 -0.8863 -2.8508
 1420SOL     OW15718   4.544   1.425  16.340 -0.2746 -0.2649  0.3967
 1420SOL    HW115719   4.476   1.473  16.294 -0.7509  1.5348  2.9391
 1420SOL    HW215720   4.576   1.389  16.257 -0.6782  0.7969 -0.2097
 1421SOL     OW15721   4.122   1.958   1.758 -0.1258  0.3838  0.6278
 1421SOL    HW115722   4.084   1.973   1.845  1.8920 -2.3719  1.9760
 1421SOL    HW215723   4.104   1.864   1.754 -0.6318  0.4768  0.6543
 1422SOL     OW15724   1.404   0.471  13.457 -0.0292 -0.3750 -0.3341
 1422SOL    HW115725   1.397   0.413  13.532 -1.8982 -1.0136 -1.0106
 1422SOL    HW215726   1.354   0.549  13.482 -0.4463 -0.5445 -0.6485
 1423SOL     OW15727   0.057   0.312  13.067 -0.0065 -0.1710  0.2817
 1423SOL    HW115728   0.085   0.326  12.977 -2.3468  3.1914  0.0601
 1423SOL    HW215729   0.026   0.401  13.084  1.2036  0.4193 -0.6332
 1424SOL     OW15730   1.308   4.149  16.757  0.0224 -0.1385  0.3154
 1424SOL    HW115731   1.235   4.163  16.697  0.2416 -0.2273  0.0286
 1424SOL    HW215732   1.357   4.228  16.734  0.8654 -0.5556  0.6984
 1425SOL     OW15733   1.394   2.771  14.779  0.1996 -0.1055  0.8396
 1425SOL    HW115734   1.413   2.680  14.756 -2.9617 -1.0833  2.0093
 1425SOL    HW215735   1.336   2.791  14.706  1.9934  0.1477 -0.4989
 1426SOL     OW15736   2.673   4.521  14.297  0.3596  0.7255  0.3219
 1426SOL    HW115737   2.710   4.556  14.216  1.4461  0.3046  0.6403
 1426SOL    HW215738   2.684   4.428  14.279  1.9220  0.5733  2.0719
 1427SOL     OW15739   1.351   3.806   6.173  0.3579  0.2402 -0.7809
 1427SOL    HW115740   1.271   3.850   6.202 -0.6214 -2.5559  0.7424
 1427SOL    HW215741   1.395   3.783   6.255 -1.1712  1.7462  0.4509
 1428SOL     OW15742   0.454   2.753   5.445 -0.0972 -0.0706 -0.1241
 1428SOL    HW115743   0.526   2.705   5.403  0.7951 -1.0703  2.5529
 1428SOL    HW215744   0.382   2.691   5.438  1.2898 -1.7418  0.5214
 1429SOL     OW15745   2.760   0.697   1.565  0.2432  0.0975  0.3942
 1429SOL    HW115746   2.825   0.640   1.609  0.1697  0.4415  0.9490
 1429SOL    HW215747   2.780   0.784   1.599 -0.4129 -0.0096  1.0574
 1430SOL     OW15748   1.893   1.570  10.814 -0.4678 -0.2871  0.0350
 1430SOL    HW115749   1.820   1.569  10.751 -0.4737  0.2913  0.0388
 1430SOL    HW215750   1.970   1.580  10.758 -1.1396 -1.2324 -1.0832
 1431SOL     OW15751   1.906   3.646   2.191  0.1636  0.0340  0.3922
 1431SOL    HW115752   1.914   3.628   2.097 -1.4493 -0.0111  0.2722
 1431SOL    HW215753   1.999   3.630   2.210  0.0033 -0.2302  0.9427
 1432SOL     OW15754   4.003   2.881   8.423 -0.2800  0.4483 -0.1129
 1432SOL    HW115755   4.059   2.903   8.497  0.5612 -0.2571 -0.5447
 1432SOL    HW215756   4.067   2.881   8.352  1.4461  0.7879  1.4718
 1433SOL     OW15757   3.221   4.401   5.418 -0.1501  0.3312  0.4097
 1433SOL    HW115758   3.278   4.366   5.349 -0.3175  1.8546 -0.4820
 1433SOL    HW215759   3.145   4.342   5.420  0.1826 -0.1233 -0.2478
 1434SOL     OW15760   2.625   1.598   9.497 -0.0868  0.8560 -0.3215
 1434SOL    HW115761   2.696   1.574   9.438 -0.6338  2.2135 -1.5117
 1434SOL    HW215762   2.555   1.538   9.474  0.1109 -0.3891  2.2303
 1435SOL     OW15763   4.350   1.232   6.127  0.1954 -0.4902 -0.3996
 1435SOL    HW115764   4.278   1.255   6.187  2.1848 -1.4695  2.3451
 1435SOL    HW215765   4.305   1.160   6.082  1.7917 -2.5037  1.2560
 1436SOL     OW15766   2.039   0.651   9.556 -0.1286  0.4709 -0.1073
 1436SOL    HW115767   1.959   0.619   9.514 -1.6778  1.2187  2.2784
 1436SOL    HW215768   2.021   0.745   9.553  2.9745  1.0859  0.5161
 1437SOL     OW15769   2.180   0.757   7.712 -0.5709 -0.3557  0.3878
 1437SOL    HW115770   2.130   0.740   7.792  1.4888  0.3146  1.8036
 1437SOL    HW215771   2.154   0.685   7.654  0.6790 -1.8592  1.6935
 1438SOL     OW15772   0.985   4.323   4.074 -0.1772  0.6575 -0.0161
 1438SOL    HW115773   0.969   4.230   4.054 -3.1064  1.2364 -0.4347
 1438SOL    HW215774   1.077   4.323   4.100 -0.4707 -0.1386  1.0305
 1439SOL     OW15775   0.853   0.484  17.305  0.0069  0.3649  0.0376
 1439SOL    HW115776   0.762   0.477  17.334  0.3780  0.5871  1.2924
 1439SOL    HW215777   0.860   0.578  17.318 -1.3287  0.3319  1.0779
 1440SOL     OW15778   3.361   4.369   9.214 -0.3271  0.9836  0.5220
 1440SOL    HW115779   3.419   4.357   9.289 -1.7012 -3.8997  0.7717
 1440SOL    HW215780   3.413   4.441   9.177  0.2628  1.1505  1.6930
 1441SOL     OW15781   1.838   1.240   4.919 -0.2208 -0.4515 -0.5431
 1441SOL    HW115782   1.880   1.184   4.853  2.3568  0.1843  0.5632
 1441SOL    HW215783   1.916   1.270   4.967 -1.1880  1.7632 -0.3376
 1442SOL     OW15784   3.514   4.060  11.191  0.2995 -0.0575 -0.5447
 1442SOL    HW115785   3.520   4.078  11.285  0.3202 -0.6562 -0.4260
 1442SOL    HW215786   3.485   3.968  11.190  0.6156 -0.1789  1.4746
 1443SOL     OW15787   2.534   2.520   7.242  0.1664  0.1019  0.5853
 1443SOL    HW115788   2.503   2.512   7.332 -0.4320  2.3111  0.5694
 1443SOL    HW215789   2.455   2.536   7.191  0.1477  2.0680  1.2172
 1444SOL     OW15790   0.289   3.929   3.663  0.0239 -0.1021  0.2175
 1444SOL    HW115791   0.211   3.882   3.635  1.1698 -0.3686 -2.5190
 1444SOL    HW215792   0.322   3.865   3.727  0.4690 -0.8995 -0.8063
 1445SOL     OW15793   1.622   3.732   5.654  0.3930 -0.1252 -0.5167
 1445SOL    HW115794   1.706   3.721   5.609  0.6850 -0.9218  0.2268
 1445SOL    HW215795   1.641   3.696   5.741 -1.5166  1.1563  0.4234
 1446SOL     OW15796   4.348   2.562   4.494  0.2207  0.5334 -0.5039
 1446SOL    HW115797   4.301   2.643   4.471 -1.7148 -0.2670  0.6463
 1446SOL    HW215798   4.343   2.551   4.589  1.6121 -1.2443 -0.6509
 1447SOL     OW15799   0.480   0.100  16.769 -0.5131 -0.0598  0.6310
 1447SOL    HW115800   0.468   0.015  16.726 -1.5092  1.4031 -1.9477
 1447SOL    HW215801   0.569   0.125  16.743 -0.6938  0.6849  0.7420
 1448SOL     OW15802   3.595   1.714  13.805  0.1635  0.2659 -0.3199
 1448SOL    HW115803   3.642   1.635  13.832 -0.8060  0.1929  1.1653
 1448SOL    HW215804   3.522   1.716  13.867 -0.6420 -1.2874 -1.2355
 1449SOL     OW15805   2.308   2.412   9.013  0.3595 -0.8586 -0.2148
 1449SOL    HW115806   2.348   2.415   9.100 -2.0971 -2.3279  0.9712
 1449SOL    HW215807   2.365   2.471   8.963 -0.0418 -2.0085 -2.0221
 1450SOL     OW15808   2.085   1.736  12.199 -0.1324  0.3739 -0.3436
 1450SOL    HW115809   2.143   1.661  12.214 -0.1966  0.2586 -0.6934
 1450SOL    HW215810   2.120   1.783  12.123 -3.2194  2.1931 -0.6332
 1451SOL     OW15811   3.738   2.682  16.264  0.3564  0.0369 -0.1275
 1451SOL    HW115812   3.666   2.701  16.325  1.0022  1.3677  0.2237
 1451SOL    HW215813   3.699   2.645  16.185  0.2216  0.1789 -0.1277
 1452SOL     OW15814   3.398   3.020   7.350 -0.2411 -0.1343 -0.2918
 1452SOL    HW115815   3.380   3.031   7.444  0.2922  1.5330 -0.3709
 1452SOL    HW215816   3.370   2.932   7.328  0.7558 -0.9938  1.8503
 1453SOL     OW15817   1.104   1.753   5.584  0.0331 -0.3484  0.0787
 1453SOL    HW115818   1.055   1.767   5.664  1.7864 -0.3738  1.1574
 1453SOL    HW215819   1.180   1.719   5.631 -0.5018 -0.5798  0.7719
 1454SOL     OW15820   2.150   4.287   4.911  0.2399  0.1556 -0.1597
 1454SOL    HW115821   2.061   4.285   4.946 -0.0258  0.1413 -0.8241
 1454SOL    HW215822   2.187   4.345   4.978  1.2996  0.6117 -1.1293
 1455SOL     OW15823   1.436   3.575   2.858 -0.1696 -0.1582 -0.6660
 1455SOL    HW115824   1.431   3.554   2.764 -0.7190  1.3088 -0.9603
 1455SOL    HW215825   1.503   3.514   2.889  2.4575  1.4746 -3.1206
 1456SOL     OW15826   2.076   0.835   3.598 -0.1137  0.6879  0.9678
 1456SOL    HW115827   2.166   0.838   3.631  0.1786  1.1291  0.1230
 1456SOL    HW215828   2.074   0.892   3.522  0.3910 -0.9809 -0.2872
 1457SOL     OW15829   2.998   4.235  12.598  1.0200 -0.1502 -0.2214
 1457SOL    HW115830   3.068   4.281  12.645  1.4494  0.0904 -1.0980
 1457SOL    HW215831   3.034   4.171  12.538 -0.7531  0.3202 -1.7838
 1458SOL     OW15832   4.618   4.063   2.888  0.2668 -0.2935  0.4862
 1458SOL    HW115833   4.666   4.104   2.960 -1.0429 -2.5099  2.6127
 1458SOL    HW215834   4.598   4.138   2.832  1.5634 -1.1611 -1.1441
 1459SOL     OW15835   4.375   0.085  14.037 -0.2725  0.3702  0.1456
 1459SOL    HW115836   4.361   4.716  14.038  2.5102 -0.0452 -1.7522
 1459SOL    HW215837   4.396   0.099  14.129  1.3798 -0.1483 -0.1483
 1460SOL     OW15838   3.286   4.154   4.499 -0.0155 -0.1961  0.3287
 1460SOL    HW115839   3.240   4.154   4.415  0.4656  3.0703  0.0512
 1460SOL    HW215840   3.263   4.245   4.521 -0.2115 -0.0163 -0.6243
 1461SOL     OW15841   1.310   3.830  14.499 -0.2348  0.5077 -0.3222
 1461SOL    HW115842   1.229   3.788  14.472 -1.4166  2.9581 -0.5551
 1461SOL    HW215843   1.377   3.781  14.450 -1.5777 -0.6672 -0.9691
 1462SOL     OW15844   4.240   2.692   7.849 -0.1859 -0.4878  0.0373
 1462SOL    HW115845   4.154   2.692   7.807  0.4707 -0.0227 -1.3321
 1462SOL    HW215846   4.287   2.639   7.784  0.3659  0.0027  0.0426
 1463SOL     OW15847   4.361   0.256   4.857  0.2188 -0.2464 -0.0461
 1463SOL    HW115848   4.452   0.285   4.866 -0.4315  1.5513  0.7574
 1463SOL    HW215849   4.309   0.332   4.883 -0.6270 -0.1448 -2.0196
 1464SOL     OW15850   1.130   0.284   9.477  0.6059 -0.2935 -0.5587
 1464SOL    HW115851   1.136   0.269   9.571  2.3627  1.6968 -0.3468
 1464SOL    HW215852   1.182   0.210   9.444 -0.7353 -1.3545 -0.2921
 1465SOL     OW15853   0.757   3.499   4.848 -0.1384 -0.0588  0.1192
 1465SOL    HW115854   0.843   3.458   4.846 -0.0705  0.1553 -1.1250
 1465SOL    HW215855   0.707   3.433   4.799  1.6238 -0.9926 -0.4040
 1466SOL     OW15856   3.064   1.755   7.209 -0.0019  0.2134  0.7282
 1466SOL    HW115857   3.157   1.741   7.192  0.2092  1.7112  0.6103
 1466SOL    HW215858   3.051   1.676   7.260 -0.5291  0.5970  1.1822
 1467SOL     OW15859   2.955   4.547   2.843  0.0535 -0.0228 -0.5006
 1467SOL    HW115860   2.895   4.543   2.768 -0.9947  1.0796  0.2710
 1467SOL    HW215861   2.985   4.457   2.837  1.8758  0.5913 -0.7075
 1468SOL     OW15862   0.999   2.608  10.819  0.0474 -0.1973  1.0076
 1468SOL    HW115863   0.935   2.537  10.825 -0.0422 -0.3351 -1.4891
 1468SOL    HW215864   0.943   2.683  10.839  0.0851 -0.3782  1.7818
 1469SOL     OW15865   2.113   1.047   5.637  0.0067  0.5917 -0.0971
 1469SOL    HW115866   2.034   1.090   5.604  1.1377  2.1761 -0.7448
 1469SOL    HW215867   2.074   0.969   5.678  2.5442 -0.2445  0.7115
 1470SOL     OW15868   2.856   3.902  14.850  0.2655  0.6356  0.4669
 1470SOL    HW115869   2.952   3.908  14.850  0.1676  2.3241  0.8013
 1470SOL    HW215870   2.844   3.818  14.805  0.8338  0.3014  0.9276
 1471SOL     OW15871   4.332   2.394   8.925 -0.6015  0.1260 -0.0541
 1471SOL    HW115872   4.360   2.480   8.895 -0.8605 -0.5148 -2.1168
 1471SOL    HW215873   4.237   2.393   8.916 -0.5173 -0.3299 -0.8764
 1472SOL     OW15874   4.455   3.478   6.134 -0.6957 -0.2442 -0.1325
 1472SOL    HW115875   4.451   3.410   6.067 -1.6545  2.0149 -2.3502
 1472SOL    HW215876   4.390   3.445   6.197 -0.6489 -1.1762 -0.5622
 1473SOL     OW15877   2.283   3.105   7.270 -0.2302  0.5698  0.2843
 1473SOL    HW115878   2.301   3.175   7.333 -1.4807  1.0619  0.0919
 1473SOL    HW215879   2.360   3.117   7.214  0.1195 -2.4011  0.1337
 1474SOL     OW15880   4.430   2.425   2.694  0.3198  0.3427  0.0722
 1474SOL    HW115881   4.353   2.371   2.709  0.6533 -0.1288  0.0913
 1474SOL    HW215882   4.384   2.508   2.678  1.5248  0.6197 -2.0481
 1475SOL     OW15883   1.728   2.931   9.043 -0.4862  0.5797  0.3405
 1475SOL    HW115884   1.735   2.981   8.962  1.5925  1.4143  1.0414
 1475SOL    HW215885   1.732   3.003   9.107 -1.3187  1.9953 -1.1832
 1476SOL     OW15886   4.220   0.176   4.182 -0.0122 -0.6092  0.4772
 1476SOL    HW115887   4.263   0.118   4.119  1.4892  1.7555 -0.6786
 1476SOL    HW215888   4.174   0.108   4.231  0.9526 -2.3978 -1.1317
 1477SOL     OW15889   1.792   1.590   4.858  0.1977 -0.0456 -0.2218
 1477SOL    HW115890   1.887   1.582   4.848  0.1341 -1.0184 -0.0802
 1477SOL    HW215891   1.785   1.656   4.927 -1.9267 -1.0643  0.5489
 1478SOL     OW15892   4.349   3.102   6.903  0.5136 -0.2633 -0.8872
 1478SOL    HW115893   4.383   3.142   6.983  2.2054 -0.7690 -1.3649
 1478SOL    HW215894   4.432   3.112   6.857  0.1662  0.2576 -1.4126
 1479SOL     OW15895   1.965   2.914  12.177 -0.0552 -0.0639  0.3292
 1479SOL    HW115896   2.054   2.946  12.193  0.6725 -1.1813 -1.5167
 1479SOL    HW215897   1.923   2.966  12.246 -1.2667 -0.5931 -0.0199
 1480SOL     OW15898   0.047   4.175  12.054  0.3563 -0.3110  0.4353
 1480SOL    HW115899   0.140   4.171  12.033 -0.1041 -1.9126 -1.2806
 1480SOL    HW215900   0.015   4.256  12.015 -1.3804 -1.0699  0.2991
 1481SOL     OW15901   2.025   3.487  10.109 -0.0794 -0.2928 -0.2583
 1481SOL    HW115902   1.969   3.517  10.180 -3.5954 -2.2385 -2.2258
 1481SOL    HW215903   2.014   3.395  10.134 -1.1037 -0.3025 -0.7763
 1482SOL     OW15904   0.006   2.254   4.221  0.0239 -0.1368  0.0643
 1482SOL    HW115905   0.053   2.318   4.167 -0.8654  1.5997  1.3340
 1482SOL    HW215906   4.644   2.255   4.183  0.5938  0.3934 -1.2491
 1483SOL     OW15907   0.652   4.229   7.283  0.0494 -0.9918  0.2297
 1483SOL    HW115908   0.623   4.185   7.363 -0.5418  1.7857  1.5465
 1483SOL    HW215909   0.739   4.267   7.298 -0.3895 -0.3123  1.0394
 1484SOL     OW15910   2.079   0.618   5.994 -0.0329  0.0302 -0.4813
 1484SOL    HW115911   1.990   0.603   5.963 -0.5820 -0.0408  1.1750
 1484SOL    HW215912   2.109   0.534   6.029  0.0932 -0.9214 -2.8294
 1485SOL     OW15913   1.005   2.523  12.827  0.4880 -0.2558  0.3668
 1485SOL    HW115914   1.099   2.506  12.824  0.7203  1.7036 -3.0276
 1485SOL    HW215915   0.962   2.458  12.883 -0.1083 -0.0685  0.1242
 1486SOL     OW15916   2.041   2.571   9.101  0.1754  0.3242 -0.2834
 1486SOL    HW115917   1.986   2.494   9.117  2.3335 -1.4581 -1.4529
 1486SOL    HW215918   2.121   2.533   9.065 -0.0862  0.5629 -1.0999
 1487SOL     OW15919   2.053   4.011   4.677 -0.5538 -0.1541 -0.4854
 1487SOL    HW115920   2.018   3.926   4.650  0.5769  0.0640 -2.5918
 1487SOL    HW215921   2.016   4.022   4.765  2.6482  1.2842  0.6967
 1488SOL     OW15922   3.945   1.640   5.357  0.2740  0.7247 -0.3563
 1488SOL    HW115923   4.028   1.613   5.396 -0.1669  0.1243  0.1642
 1488SOL    HW215924   3.911   1.709   5.415  0.7657 -1.6356  2.7523
 1489SOL     OW15925   0.641   4.265  16.611  0.2279  0.0388 -0.2340
 1489SOL    HW115926   0.691   4.224  16.681 -1.0999 -0.7460  0.2482
 1489SOL    HW215927   0.550   4.245  16.635  0.3370 -2.0295 -1.5441
 1490SOL     OW15928   1.608   0.447   6.045 -0.2191 -0.0533  0.1612
 1490SOL    HW115929   1.569   0.377   5.993  0.9715 -1.1453  0.7312
 1490SOL    HW215930   1.535   0.503   6.068  2.1744  2.3461  1.9541
 1491SOL     OW15931   3.778   0.542   6.760 -0.0634  0.2058 -0.0361
 1491SOL    HW115932   3.714   0.523   6.692 -0.1627 -0.6870  0.3067
 1491SOL    HW215933   3.719   0.574   6.828 -0.3402  2.3024 -1.2661
 1492SOL     OW15934   1.379   4.049   8.119 -0.2315 -0.0096 -0.6635
 1492SOL    HW115935   1.415   4.113   8.180  0.0735 -1.4340  0.6320
 1492SOL    HW215936   1.303   4.092   8.080  0.7268  2.4338  0.1598
 1493SOL     OW15937   2.680   3.076   4.754 -0.0099 -0.1859 -0.9000
 1493SOL    HW115938   2.665   3.134   4.828  1.4065 -2.1950  0.9726
 1493SOL    HW215939   2.650   3.131   4.682  0.5904 -0.0601 -1.0512
 1494SOL     OW15940   0.803   0.855   1.028 -0.1693  0.7081  0.3003
 1494SOL    HW115941   0.845   0.831   0.946  1.8516 -0.3427  1.6353
 1494SOL    HW215942   0.875   0.851   1.091 -1.4813  0.3888  1.7689
 1495SOL     OW15943   4.194   2.380  12.941 -0.1267 -0.7014 -0.0453
 1495SOL    HW115944   4.213   2.465  12.982 -3.8450  0.5322 -0.8869
 1495SOL    HW215945   4.287   2.358  12.945  0.2620  1.0124  0.6448
 1496SOL     OW15946   3.670   3.680   6.281  0.1533 -0.2506  0.3843
 1496SOL    HW115947   3.652   3.731   6.360  2.8818 -0.2324  0.9997
 1496SOL    HW215948   3.766   3.686   6.271  0.1416 -1.2849 -0.4005
 1497SOL     OW15949   2.343   2.615   8.701  0.3261 -0.2574  0.3777
 1497SOL    HW115950   2.426   2.582   8.736 -0.3868 -1.4122  0.9881
 1497SOL    HW215951   2.279   2.555   8.739  0.3467 -0.5126  0.0026
 1498SOL     OW15952   3.403   4.618  15.544  0.1766  0.5523  0.3215
 1498SOL    HW115953   3.427   4.658  15.627 -2.0242  1.1323  0.6741
 1498SOL    HW215954   3.419   4.689  15.481  0.1517  0.0573 -0.2493
 1499SOL     OW15955   1.570   0.342   2.012  0.3589  0.1100 -0.4076
 1499SOL    HW115956   1.617   0.259   2.017  1.7510  0.9295 -0.0246
 1499SOL    HW215957   1.484   0.320   1.976 -0.5998  1.1663  1.2372
 1500SOL     OW15958   1.247   3.799   3.742  0.0443  0.1023  0.0146
 1500SOL    HW115959   1.305   3.864   3.704 -0.8334  1.6398  1.3267
 1500SOL    HW215960   1.311   3.743   3.786 -1.6524 -2.1533 -0.3628
 1501SOL     OW15961   4.583   1.066   2.002 -0.1622 -0.1810 -0.5819
 1501SOL    HW115962   4.661   1.090   1.954 -0.1444 -0.8530 -0.8884
 1501SOL    HW215963   4.524   1.140   1.985 -0.7021 -0.0471  1.7608
 1502SOL     OW15964   0.890   3.463   1.727  0.0797  0.0050  0.4379
 1502SOL    HW115965   0.977   3.451   1.688  0.3491  0.3098  0.9452
 1502SOL    HW215966   0.841   3.402   1.672 -1.3058  0.4699  1.1516
 1503SOL     OW15967   3.890   4.714  14.649 -0.3259  0.3145  0.2969
 1503SOL    HW115968   3.973   4.681  14.616 -1.6909 -2.3795 -0.4325
 1503SOL    HW215969   3.832   4.638  14.645 -0.7759  0.6277  0.8832
 1504SOL     OW15970   1.231   3.943   7.899  0.0032  0.4355  0.2622
 1504SOL    HW115971   1.256   3.989   7.819  0.1141 -1.6175 -0.8767
 1504SOL    HW215972   1.138   3.964   7.899 -0.4821 -1.8235 -4.0441
 1505SOL     OW15973   0.878   0.067   6.341 -0.1794  0.8318  0.0409
 1505SOL    HW115974   0.833   0.151   6.353 -1.9428 -0.1962  0.5977
 1505SOL    HW215975   0.813   0.007   6.376 -0.1177  2.0563  2.2527
 1506SOL     OW15976   1.489   4.700   4.862  0.2163 -0.1823 -0.6119
 1506SOL    HW115977   1.476   4.607   4.883  0.4048 -0.5015 -1.9021
 1506SOL    HW215978   1.493   4.697   4.767  1.2084 -1.6622 -0.5289
 1507SOL     OW15979   1.307   3.166   4.218  0.2400 -0.3454 -0.2744
 1507SOL    HW115980   1.219   3.152   4.181 -0.0092  0.4010  0.0474
 1507SOL    HW215981   1.374   3.131   4.159 -0.8119 -1.5975 -0.7189
 1508SOL     OW15982   2.570   4.419   8.851  0.1739  0.1025 -0.4896
 1508SOL    HW115983   2.551   4.503   8.891  0.4590 -2.1054  4.3137
 1508SOL    HW215984   2.487   4.375   8.868  1.4489 -1.9398  0.5216
 1509SOL     OW15985   0.107   3.135   6.970  0.1245 -0.4307 -0.3696
 1509SOL    HW115986   0.036   3.087   7.011 -0.7043  1.6569  0.6223
 1509SOL    HW215987   0.175   3.132   7.037 -0.2274  1.4031  0.0656
 1510SOL     OW15988   2.856   1.904  14.881  0.1077  0.5880  0.1264
 1510SOL    HW115989   2.850   1.892  14.786  0.0165  2.9254 -0.1530
 1510SOL    HW215990   2.795   1.977  14.891  1.3673  1.6147  0.4018
 1511SOL     OW15991   2.076   2.701   4.109 -0.3494 -0.0632 -0.6768
 1511SOL    HW115992   2.125   2.783   4.100 -1.2841  0.3649 -1.9765
 1511SOL    HW215993   1.984   2.725   4.098 -0.9048 -1.8986  0.0252
 1512SOL     OW15994   0.536   3.053   1.849 -0.2405 -1.1099 -0.2927
 1512SOL    HW115995   0.624   3.064   1.884 -0.2468  0.6843 -0.8312
 1512SOL    HW215996   0.484   3.095   1.918  1.3491  1.2931 -0.5526
 1513SOL     OW15997   3.347   3.974   7.565 -0.4289 -0.7664 -0.3587
 1513SOL    HW115998   3.297   4.031   7.506  0.7604 -0.0385 -0.6533
 1513SOL    HW215999   3.406   4.038   7.604 -1.9510  1.1371 -1.1677
 1514SOL     OW16000   3.615   4.544  15.290  0.4397 -0.0758  0.7651
 1514SOL    HW116001   3.620   4.623  15.343  0.7867 -1.1263  2.3048
 1514SOL    HW216002   3.594   4.473  15.351 -2.4145  1.1578  1.1844
 1515SOL     OW16003   2.930   0.616   1.331 -0.0278  0.0732  0.1048
 1515SOL    HW116004   2.977   0.677   1.388  0.1494 -0.2837  0.3334
 1515SOL    HW216005   2.845   0.623   1.373 -1.6256 -1.9590 -2.7942
 1516SOL     OW16006   1.627   4.718   5.260 -0.1332 -0.0255 -0.2460
 1516SOL    HW116007   1.645   0.074   5.304 -2.0525  0.0779  0.3257
 1516SOL    HW216008   1.548   0.015   5.211  0.3948  1.6367 -0.2921
 1517SOL     OW16009   1.386   1.314   6.926  0.1660 -0.5364  0.8990
 1517SOL    HW116010   1.303   1.290   6.885  0.7484 -0.2546 -0.4727
 1517SOL    HW216011   1.390   1.246   6.993  0.2426 -3.0999 -1.6861
 1518SOL     OW16012   0.013   3.021  12.412  0.0187 -0.1491  0.6234
 1518SOL    HW116013   0.060   2.983  12.337  0.4702 -1.2244  1.4591
 1518SOL    HW216014   4.693   2.946  12.449  0.8034 -0.7937  0.2751
 1519SOL     OW16015   2.432   0.558   8.880 -0.0998  0.0781  0.0114
 1519SOL    HW116016   2.495   0.545   8.810 -1.1875 -1.3449 -0.6876
 1519SOL    HW216017   2.378   0.628   8.843 -0.1203 -1.0491 -2.0418
 1520SOL     OW16018   3.754   4.181  16.340 -0.0308  0.1151 -0.6520
 1520SOL    HW116019   3.801   4.203  16.260 -1.2176  1.0203 -1.1138
 1520SOL    HW216020   3.755   4.086  16.328  1.8589 -0.2661  2.6515
 1521SOL     OW16021   1.566   3.251   2.642 -0.1493  0.3594  0.0042
 1521SOL    HW116022   1.610   3.180   2.689 -0.3000  0.6007  0.5102
 1521SOL    HW216023   1.593   3.229   2.553 -1.5348 -0.0871 -0.2936
 1522SOL     OW16024   3.828   2.708  15.196  0.4409 -0.1914  0.2248
 1522SOL    HW116025   3.733   2.712  15.187  0.1803 -0.5410  2.8454
 1522SOL    HW216026   3.848   2.617  15.220  0.4265 -0.0107  0.9315
 1523SOL     OW16027   3.623   0.911   7.002 -0.2212  0.0855 -0.3127
 1523SOL    HW116028   3.671   0.948   6.928  1.5710  1.6403  1.6113
 1523SOL    HW216029   3.665   0.959   7.073  1.4149 -1.9196  0.0869
 1524SOL     OW16030   3.018   0.643   6.735  0.6966  0.0348 -0.2820
 1524SOL    HW116031   3.066   0.561   6.749  0.8783  0.3693  1.0664
 1524SOL    HW216032   3.085   0.704   6.765  1.7165 -1.5690  0.7113
 1525SOL     OW16033   1.974   4.377   4.376  0.0268  0.4820  0.9015
 1525SOL    HW116034   1.998   4.332   4.457  1.0081 -0.5228  0.0441
 1525SOL    HW216035   1.883   4.349   4.369  0.2220  0.3464 -1.2249
 1526SOL     OW16036   1.599   0.970   4.761 -0.1392  0.4147  0.2595
 1526SOL    HW116037   1.574   0.878   4.763 -2.2502  0.9816  0.4042
 1526SOL    HW216038   1.675   0.972   4.703 -0.4233 -0.2519 -0.1348
 1527SOL     OW16039   2.403   0.874   4.573 -0.1832  0.4205  0.1860
 1527SOL    HW116040   2.380   0.967   4.566 -1.6121  0.0816  0.3496
 1527SOL    HW216041   2.362   0.842   4.493  0.5911  1.7909 -0.7644
 1528SOL     OW16042   2.397   1.063   5.581 -0.4357 -0.0081 -0.3787
 1528SOL    HW116043   2.433   0.975   5.586 -0.5072  0.0686  1.4704
 1528SOL    HW216044   2.307   1.049   5.612  0.8925 -0.9770  3.0857
 1529SOL     OW16045   3.613   0.158   5.714 -0.5635  0.6270 -0.0590
 1529SOL    HW116046   3.645   0.154   5.624  1.9064 -1.3025  0.9031
 1529SOL    HW216047   3.530   0.206   5.713 -0.8895  0.1105  1.2369
 1530SOL     OW16048   4.472   1.751   6.612  0.0262 -0.2457  0.2061
 1530SOL    HW116049   4.544   1.786   6.560  0.3688 -1.0280  0.1484
 1530SOL    HW216050   4.497   1.659   6.608  0.5430 -0.1350  0.7136
 1531SOL     OW16051   4.476   2.574  15.516 -0.2091 -0.2791  0.1730
 1531SOL    HW116052   4.544   2.559  15.450 -0.0390 -0.4651  0.3844
 1531SOL    HW216053   4.477   2.669  15.528 -0.6062 -0.5029  2.0215
 1532SOL     OW16054   1.258   2.321  14.292  0.3675  0.3436 -0.3764
 1532SOL    HW116055   1.210   2.260  14.349 -1.1064  0.5239 -1.4518
 1532SOL    HW216056   1.329   2.342  14.353  0.0085 -0.9239  0.4883
 1533SOL     OW16057   0.272   4.439  14.805  0.2697 -0.1934 -0.5434
 1533SOL    HW116058   0.195   4.391  14.837 -0.5634  1.3493 -0.1957
 1533SOL    HW216059   0.333   4.366  14.808  1.6225  0.9399 -0.9152
 1534SOL     OW16060   4.426   3.620   5.418 -0.1566 -0.5889 -0.2872
 1534SOL    HW116061   4.376   3.571   5.352 -1.7239 -0.7146  0.9957
 1534SOL    HW216062   4.509   3.573   5.412 -0.0091 -0.6393  2.2336
 1535SOL     OW16063   2.901   0.042  14.290  0.3258 -0.3858  0.0528
 1535SOL    HW116064   2.836   0.097  14.246 -1.6149 -1.9855  0.8668
 1535SOL    HW216065   2.874   4.683  14.255 -2.5886  0.8664 -0.7374
 1536SOL     OW16066   0.676   4.361  12.893 -0.2531  0.5415 -0.2234
 1536SOL    HW116067   0.612   4.321  12.834  2.3539 -0.6309 -2.1884
 1536SOL    HW216068   0.681   4.285  12.952  0.5417 -0.1886 -1.2332
 1537SOL     OW16069   2.545   3.726   8.752 -0.7506 -0.1527  0.4435
 1537SOL    HW116070   2.510   3.683   8.829 -2.0845 -0.4582 -0.3314
 1537SOL    HW216071   2.468   3.726   8.694  0.1485  1.3754 -0.7635
 1538SOL     OW16072   4.463   2.549  11.583  0.2635 -0.1977  0.6963
 1538SOL    HW116073   4.437   2.457  11.592  0.0997  0.1104  3.2989
 1538SOL    HW216074   4.375   2.585  11.574  0.3562  0.1496  1.1922
 1539SOL     OW16075   4.600   0.323   7.968 -0.5095 -0.0486  0.4220
 1539SOL    HW116076   4.589   0.242   8.016  1.2431  1.1785  2.8959
 1539SOL    HW216077   4.522   0.323   7.912  0.5276  1.0234 -1.0524
 1540SOL     OW16078   3.488   1.307   7.224 -0.1312  0.3836  0.6897
 1540SOL    HW116079   3.472   1.233   7.165 -0.6948  0.5809  0.6013
 1540SOL    HW216080   3.405   1.354   7.234  0.6830  1.5818  1.8625
 1541SOL     OW16081   2.006   4.381   7.584 -0.2743 -0.2348 -0.8819
 1541SOL    HW116082   2.059   4.448   7.627  0.0522 -0.0916 -1.5205
 1541SOL    HW216083   1.997   4.322   7.659  1.0388 -1.1717 -1.4701
 1542SOL     OW16084   0.091   3.228   1.872 -0.7930  0.2792 -0.3119
 1542SOL    HW116085   0.093   3.161   1.803 -0.0534  1.1527 -1.1356
 1542SOL    HW216086   0.047   3.300   1.827 -0.3554  0.3348 -0.6476
 1543SOL     OW16087   3.232   3.064   5.903 -0.4226  0.2020  0.3734
 1543SOL    HW116088   3.271   2.991   5.951  0.3611 -1.2177 -2.4092
 1543SOL    HW216089   3.156   3.024   5.859  0.4548 -2.4585  1.3207
 1544SOL     OW16090   0.908   3.902   4.963 -0.6051  0.0367  0.6052
 1544SOL    HW116091   0.816   3.879   4.971 -1.3565  2.6407 -0.5690
 1544SOL    HW216092   0.942   3.868   5.045 -1.7005  0.2462  1.1486
 1545SOL     OW16093   2.087   1.643   4.285 -0.3296  0.5118 -0.2053
 1545SOL    HW116094   2.126   1.560   4.312  3.8313  1.8298 -2.0735
 1545SOL    HW216095   2.163   1.701   4.289 -0.7049  0.8578  2.0923
 1546SOL     OW16096   3.064   0.376   7.076 -0.3303 -0.8288  1.0967
 1546SOL    HW116097   3.037   0.307   7.016 -0.5901 -0.2442  0.5505
 1546SOL    HW216098   3.017   0.360   7.158  1.7657  0.6602  2.5796
 1547SOL     OW16099   4.285   2.808   0.879 -0.0840 -0.1504  0.0123
 1547SOL    HW116100   4.368   2.807   0.831  0.7404  1.3572  1.4047
 1547SOL    HW216101   4.255   2.896   0.855  0.1834  0.3816  1.5977
 1548SOL     OW16102   0.155   4.669  12.785  0.7088 -0.4240  0.2867
 1548SOL    HW116103   0.176   4.584  12.748 -2.4641 -1.3518  0.6217
 1548SOL    HW216104   0.106   4.713  12.716  0.1388 -3.2821 -1.1116
 1549SOL     OW16105   2.915   3.883   3.103  0.5438  0.1529 -0.1986
 1549SOL    HW116106   2.856   3.930   3.045  0.0720 -1.1059 -0.7386
 1549SOL    HW216107   2.941   3.960   3.154 -0.5042  0.0381  0.5062
 1550SOL     OW16108   4.564   2.072  14.486 -0.0411  0.4844 -0.0750
 1550SOL    HW116109   4.530   2.022  14.412 -1.1144  1.6671 -0.3954
 1550SOL    HW216110   4.518   2.155  14.469 -1.1279  0.2737  1.8077
 1551SOL     OW16111   0.699   3.610   4.543  0.2331  0.3561 -0.1577
 1551SOL    HW116112   0.698   3.680   4.607  1.7476 -0.8897  1.2274
 1551SOL    HW216113   0.740   3.644   4.464 -0.9279 -2.5138 -2.0082
 1552SOL     OW16114   0.190   0.063   9.454  0.5511 -0.3907  1.0024
 1552SOL    HW116115   0.265   0.117   9.428 -0.5998  0.9748  0.4876
 1552SOL    HW216116   0.162   0.045   9.364  0.4595  2.4140  0.4646
 1553SOL     OW16117   0.345   2.895   5.656  0.6832 -0.3241 -0.6623
 1553SOL    HW116118   0.385   2.842   5.587 -0.9866  1.1130 -2.7424
 1553SOL    HW216119   0.348   2.837   5.732 -1.4611 -0.8576 -0.9952
 1554SOL     OW16120   2.509   2.890  14.118  0.3653 -0.0147  0.5936
 1554SOL    HW116121   2.598   2.902  14.084  0.2242 -0.2796  0.1386
 1554SOL    HW216122   2.485   2.814  14.066  0.2518  0.5496 -0.1880
 1555SOL     OW16123   2.494   0.735   1.636 -0.0893  0.1069 -0.2804
 1555SOL    HW116124   2.498   0.830   1.639 -0.7397  0.1403 -0.5112
 1555SOL    HW216125   2.581   0.714   1.603  0.0083  1.3407 -0.7760
 1556SOL     OW16126   4.483   0.949   7.286 -0.1094  0.4825  0.0525
 1556SOL    HW116127   4.522   0.934   7.372 -0.0336 -0.9253 -0.2297
 1556SOL    HW216128   4.474   1.044   7.296  2.8577  0.2872  4.5665
 1557SOL     OW16129   0.982   2.391   4.417  0.3701  0.7527 -0.1761
 1557SOL    HW116130   0.903   2.379   4.365 -1.1283 -0.3438  2.3562
 1557SOL    HW216131   1.009   2.300   4.430 -0.6849  0.3534 -0.8032
 1558SOL     OW16132   1.414   1.095   6.669 -0.1353 -0.2523  0.4056
 1558SOL    HW116133   1.347   1.090   6.738  0.3113  2.8677  1.0766
 1558SOL    HW216134   1.354   1.088   6.595 -0.2431 -2.2545  0.6862
 1559SOL     OW16135   4.277   4.431   0.610  0.0508  0.0640 -0.0649
 1559SOL    HW116136   4.204   4.470   0.659  0.0343  3.5081 -2.7979
 1559SOL    HW216137   4.299   4.502   0.550 -0.0604  0.8161  0.7791
 1560SOL     OW16138   2.288   3.701  14.470 -0.2026  0.4641  0.1271
 1560SOL    HW116139   2.197   3.696  14.500  0.6764  0.0577  2.6777
 1560SOL    HW216140   2.331   3.716  14.554 -0.2859 -1.5088  0.5008
 1561SOL     OW16141   4.189   1.813   7.748  0.7976  0.0322 -0.1696
 1561SOL    HW116142   4.136   1.749   7.795  0.0199  1.4157  0.8270
 1561SOL    HW216143   4.126   1.881   7.726  2.2579  1.9124  1.5155
 1562SOL     OW16144   2.246   0.089   8.864  0.6049 -0.1257 -0.1629
 1562SOL    HW116145   2.236   0.033   8.786  0.0021  2.6041 -2.0470
 1562SOL    HW216146   2.154   0.117   8.865 -0.3676 -3.2776  0.6766
 1563SOL     OW16147   1.813   1.628  16.535  0.4500  0.1692  0.1258
 1563SOL    HW116148   1.762   1.579  16.472  0.9131 -1.0457  0.7042
 1563SOL    HW216149   1.828   1.558  16.598  1.3375 -0.2230 -0.5222
 1564SOL     OW16150   0.437   3.273   0.728 -0.2630  0.2721 -0.3048
 1564SOL    HW116151   0.386   3.237   0.655  0.6523  0.7881 -1.2003
 1564SOL    HW216152   0.373   3.335   0.764  0.0844  0.4848 -0.0548
 1565SOL     OW16153   4.452   4.716  10.002  0.2952 -0.0333  0.4305
 1565SOL    HW116154   4.514   4.677   9.940 -0.9329  1.0464 -1.4485
 1565SOL    HW216155   4.510   0.054  10.043  0.1569  0.0574  0.4843
 1566SOL     OW16156   3.722   1.827   6.933  0.2271 -0.7868  0.0683
 1566SOL    HW116157   3.772   1.882   6.994 -2.0430  1.1891  0.1534
 1566SOL    HW216158   3.659   1.889   6.895  1.8337  0.4173 -0.6854
 1567SOL     OW16159   2.555   3.586  10.247  0.0969  0.2064  0.0775
 1567SOL    HW116160   2.601   3.670  10.249  0.6144 -0.0359 -2.0870
 1567SOL    HW216161   2.494   3.591  10.321  1.0997  0.7932  0.8661
 1568SOL     OW16162   1.560   0.696   5.854 -0.3908 -0.1839  0.0037
 1568SOL    HW116163   1.592   0.786   5.844  0.1985 -0.3786  0.1413
 1568SOL    HW216164   1.486   0.721   5.910 -3.5254 -1.8850 -3.3648
 1569SOL     OW16165   3.592   4.376  16.443  0.2655  0.5928  0.1677
 1569SOL    HW116166   3.636   4.314  16.385  1.6318  1.2656  0.4931
 1569SOL    HW216167   3.633   4.460  16.421  1.1697 -0.4471 -2.1239
 1570SOL     OW16168   0.706   1.365  17.205  0.0357  0.1515  0.1555
 1570SOL    HW116169   0.782   1.307  17.202 -0.0875  0.0022 -0.1069
 1570SOL    HW216170   0.636   1.334  17.147  0.5984 -2.1144  0.6732
 1571SOL     OW16171   0.131   1.742   5.488 -0.3420  0.0648 -0.1970
 1571SOL    HW116172   0.179   1.781   5.415  0.3086 -1.6967 -0.7068
 1571SOL    HW216173   0.066   1.685   5.448 -0.2289 -0.2040 -0.0019
 1572SOL     OW16174   1.003   3.335  16.811 -0.3216 -0.2442 -0.4363
 1572SOL    HW116175   1.095   3.312  16.825  0.4312  2.8628 -0.3934
 1572SOL    HW216176   0.968   3.273  16.874 -0.5869 -1.6937 -1.9870
 1573SOL     OW16177   1.230   0.545   2.032  0.3718  0.3902 -0.2324
 1573SOL    HW116178   1.300   0.487   2.000 -2.6148 -3.6876  0.6073
 1573SOL    HW216179   1.172   0.548   1.956 -0.5936  2.0886  0.5573
 1574SOL     OW16180   1.305   1.861   9.776 -0.3668  0.1442 -0.0017
 1574SOL    HW116181   1.380   1.805   9.755 -0.4878 -0.8220  2.1048
 1574SOL    HW216182   1.241   1.796   9.805 -1.4516  3.0818  4.0807
 1575SOL     OW16183   3.851   0.794   4.591  0.5015 -0.1408  0.2166
 1575SOL    HW116184   3.861   0.699   4.601  0.3342 -0.3789 -1.8582
 1575SOL    HW216185   3.759   0.808   4.568  1.2630  4.1302 -0.2569
 1576SOL     OW16186   1.665   1.460   2.557 -0.1012 -0.8354 -0.2424
 1576SOL    HW116187   1.750   1.498   2.536 -0.0824  0.7439  2.7029
 1576SOL    HW216188   1.677   1.366   2.566  1.7386 -0.4298  1.4595
 1577SOL     OW16189   0.076   2.112   9.192 -0.1015 -0.3752 -0.0781
 1577SOL    HW116190   0.001   2.070   9.150 -0.5506 -1.6528  2.0489
 1577SOL    HW216191   0.055   2.116   9.285  1.6849  0.2799  0.2992
 1578SOL     OW16192   2.436   4.117   8.150  0.4681 -0.2353  0.1844
 1578SOL    HW116193   2.510   4.091   8.205 -0.4485 -3.8959 -0.2879
 1578SOL    HW216194   2.436   4.207   8.182  0.2533 -0.7861  1.7362
 1579SOL     OW16195   0.488   2.587   3.227 -0.8784  0.1796  0.3270
 1579SOL    HW116196   0.450   2.671   3.202  2.2121  1.1689 -1.1099
 1579SOL    HW216197   0.545   2.568   3.152 -1.3920  1.8981 -0.4958
 1580SOL     OW16198   0.281   1.831   6.059 -0.3982 -0.5156  0.3184
 1580SOL    HW116199   0.191   1.855   6.037 -0.6363  0.3813  2.2880
 1580SOL    HW216200   0.292   1.889   6.134 -0.4930  2.5081 -1.9989
 1581SOL     OW16201   3.560   2.158   9.061 -0.3818  0.2030  0.5153
 1581SOL    HW116202   3.479   2.207   9.050  0.8020  1.9763 -0.3152
 1581SOL    HW216203   3.579   2.178   9.152 -0.8104 -0.7766  0.8208
 1582SOL     OW16204   0.187   0.419   7.493  0.1210 -0.2959  0.3551
 1582SOL    HW116205   0.112   0.466   7.532 -0.2292 -0.8923  0.3944
 1582SOL    HW216206   0.239   0.490   7.456  0.8050 -1.4358 -0.8614
 1583SOL     OW16207   3.577   1.959   2.909 -0.1327  0.7567 -0.5346
 1583SOL    HW116208   3.608   1.869   2.917 -1.3919  0.3807  0.1386
 1583SOL    HW216209   3.642   2.003   2.964  2.0343 -2.3547 -0.6015
 1584SOL     OW16210   4.331   0.525   2.615  0.0595  0.4700  0.0085
 1584SOL    HW116211   4.399   0.463   2.591 -1.2960 -0.5729 -1.1086
 1584SOL    HW216212   4.310   0.553   2.526 -1.8058  2.9088  1.1848
 1585SOL     OW16213   2.991   0.577   1.723  0.0933 -0.3583  0.6099
 1585SOL    HW116214   2.946   0.496   1.746  0.0667  0.4063  3.1806
 1585SOL    HW216215   3.017   0.602   1.811 -0.4283  0.6086  0.4861
 1586SOL     OW16216   0.955   0.586   5.237  0.0732  0.5140 -0.2565
 1586SOL    HW116217   0.964   0.634   5.155  1.0587  1.8706  0.6384
 1586SOL    HW216218   0.931   0.655   5.298  0.7857 -1.3869  2.1907
 1587SOL     OW16219   1.369   2.070   3.203  0.0843  0.0849 -0.8787
 1587SOL    HW116220   1.437   2.111   3.256 -3.1902  2.6663  1.3495
 1587SOL    HW216221   1.403   2.081   3.114 -0.4162  2.2822 -0.7971
 1588SOL     OW16222   2.957   0.304  17.617  0.4521 -0.0529  0.0424
 1588SOL    HW116223   3.035   0.290  17.671 -0.0888 -1.8880  0.3517
 1588SOL    HW216224   2.938   0.211  17.607 -0.8525  0.2179  0.0547
 1589SOL     OW16225   4.124   0.299   3.614  0.1381 -0.0507 -0.1984
 1589SOL    HW116226   4.108   0.374   3.673  2.2924  0.6237 -0.4741
 1589SOL    HW216227   4.053   0.311   3.551 -0.9137 -0.1861  0.9594
 1590SOL     OW16228   0.876   2.515   7.862 -0.2250  0.2271 -0.5974
 1590SOL    HW116229   0.916   2.437   7.824 -1.7966 -0.4380 -0.8859
 1590SOL    HW216230   0.897   2.582   7.796  1.7556 -1.0427 -1.2777
 1591SOL     OW16231   1.770   2.036   3.714 -0.6571  0.6270  0.1725
 1591SOL    HW116232   1.828   2.108   3.739 -1.0458  0.3922  1.7749
 1591SOL    HW216233   1.821   1.957   3.734 -0.9035  0.5805  0.6229
 1592SOL     OW16234   1.005   3.156  11.303  0.2094 -0.2022  0.7181
 1592SOL    HW116235   1.001   3.218  11.231  0.4837 -4.5145 -2.9968
 1592SOL    HW216236   0.917   3.168  11.338 -0.2858 -1.8205  0.0367
 1593SOL     OW16237   3.990   0.565   8.445 -0.2881  0.5029 -0.2971
 1593SOL    HW116238   3.987   0.549   8.539 -0.9853 -0.6938 -0.5187
 1593SOL    HW216239   3.964   0.480   8.409 -3.6321  1.7244 -0.7469
 1594SOL     OW16240   3.568   3.451   5.929 -0.3370  0.0459  0.0096
 1594SOL    HW116241   3.612   3.380   5.882 -1.0193  0.7848 -1.7314
 1594SOL    HW216242   3.479   3.418   5.919 -0.9028  1.4510  0.5184
 1595SOL     OW16243   2.354   0.190   8.508 -0.2483  0.2116 -0.1605
 1595SOL    HW116244   2.406   0.179   8.587  0.8038 -1.3463 -1.0744
 1595SOL    HW216245   2.428   0.190   8.447 -2.0533 -0.5499 -2.3495
 1596SOL     OW16246   1.736   2.969   7.786 -0.3756  0.1457 -1.0555
 1596SOL    HW116247   1.708   3.039   7.727  0.3781  0.7787 -0.6723
 1596SOL    HW216248   1.743   2.894   7.728 -3.0348 -0.5830 -0.4269
 1597SOL     OW16249   4.443   3.475   7.642  0.0803 -0.3333 -0.4141
 1597SOL    HW116250   4.449   3.387   7.606 -0.9493 -1.1358  1.3482
 1597SOL    HW216251   4.533   3.503   7.625  1.1043 -2.9575  0.7142
 1598SOL     OW16252   4.140   3.314   3.941  0.2530  0.0506  0.0220
 1598SOL    HW116253   4.230   3.306   3.911 -0.4447  2.1151 -2.5993
 1598SOL    HW216254   4.084   3.323   3.864  0.0297 -0.9502  0.0698
 1599SOL     OW16255   1.150   3.029   8.396 -0.1527  0.1800  0.7070
 1599SOL    HW116256   1.189   3.116   8.410 -1.5097  1.0495 -0.9893
 1599SOL    HW216257   1.118   3.036   8.307 -1.2095 -2.0596  0.9318
 1600SOL     OW16258   4.643   1.575   6.157  0.5240  0.6779 -0.1490
 1600SOL    HW116259   4.549   1.571   6.139  0.5900 -1.7350 -0.0458
 1600SOL    HW216260   4.681   1.503   6.106 -0.6427 -0.0952  0.0686
 1601SOL     OW16261   1.723   3.862   9.928  0.3399 -0.1590  0.3011
 1601SOL    HW116262   1.781   3.831   9.998  2.5835  0.5148 -1.2797
 1601SOL    HW216263   1.790   3.905   9.875  0.9367 -1.4455  0.0041
 1602SOL     OW16264   3.819   2.494  13.567 -0.2755  0.2265 -0.1139
 1602SOL    HW116265   3.885   2.515  13.634 -1.0878 -0.2773  0.8463
 1602SOL    HW216266   3.784   2.411  13.599  0.1575 -0.0672 -0.3947
 1603SOL     OW16267   0.324   3.367  16.559 -0.5238  0.2631  0.3323
 1603SOL    HW116268   0.335   3.300  16.626 -1.2548 -0.3627 -0.1744
 1603SOL    HW216269   0.254   3.328  16.507  0.2094  0.0975 -0.5467
 1604SOL     OW16270   1.986   3.464   6.989  0.1787  0.1885  0.2541
 1604SOL    HW116271   1.984   3.539   6.929 -1.8787  0.5479  0.7779
 1604SOL    HW216272   1.899   3.425   6.980  1.2661 -2.0012 -0.6162
 1605SOL     OW16273   3.023   1.021   0.383 -0.0419 -0.6979 -0.0107
 1605SOL    HW116274   3.019   1.107   0.424 -1.2776 -1.9250  2.4590
 1605SOL    HW216275   2.976   0.969   0.448 -0.1888  1.7418  1.8316
 1606SOL     OW16276   1.802   0.696   6.123  0.1428  0.3624  0.1964
 1606SOL    HW116277   1.782   0.692   6.029  1.4107 -0.6625 -0.0371
 1606SOL    HW216278   1.802   0.606   6.156  0.6196 -0.8131 -2.9000
 1607SOL     OW16279   0.451   1.600   7.076 -0.6217 -0.3659  0.0740
 1607SOL    HW116280   0.501   1.530   7.035 -1.5611  0.9107 -3.2752
 1607SOL    HW216281   0.497   1.610   7.159 -0.0604  0.0671 -0.2844
 1608SOL     OW16282   4.006   3.364   5.443 -0.5697 -0.0744  0.2012
 1608SOL    HW116283   3.935   3.396   5.388  1.4570  1.8997 -1.2983
 1608SOL    HW216284   4.067   3.436   5.458  1.0350 -1.4409  0.2441
 1609SOL     OW16285   1.827   1.985  11.292 -0.5272  0.4576  0.5983
 1609SOL    HW116286   1.908   1.966  11.338 -0.7017  0.1705  0.7851
 1609SOL    HW216287   1.847   2.069  11.251  1.3195 -1.2198 -1.9494
 1610SOL     OW16288   1.924   0.295   3.409  0.7829 -0.0932 -0.5137
 1610SOL    HW116289   1.911   0.299   3.503  1.5373  1.4943 -0.4728
 1610SOL    HW216290   1.854   0.232   3.390  0.4053  0.8360 -2.2113
 1611SOL     OW16291   1.931   2.740   5.602  0.5333 -0.1711 -0.5772
 1611SOL    HW116292   1.979   2.790   5.669 -2.1293  0.7363  0.6433
 1611SOL    HW216293   1.847   2.730   5.647 -0.0071 -0.9636 -1.7800
 1612SOL     OW16294   2.866   3.056   2.957  0.5126  0.1078 -0.0542
 1612SOL    HW116295   2.873   3.031   2.865  0.7501 -3.3786  0.9084
 1612SOL    HW216296   2.960   3.045   2.973  0.8116  0.6773 -1.4136
 1613SOL     OW16297   4.623   0.097   2.171 -0.0249 -0.2174 -0.0807
 1613SOL    HW116298   4.711   0.078   2.204  0.3661 -1.8604 -2.0645
 1613SOL    HW216299   4.617   0.060   2.083 -0.6462  1.9685 -0.9465
 1614SOL     OW16300   1.862   2.693  16.699  0.6728  0.5238 -0.2863
 1614SOL    HW116301   1.847   2.665  16.608 -1.6093  1.1574 -0.1084
 1614SOL    HW216302   1.770   2.692  16.726  0.3343 -2.6977 -1.5095
 1615SOL     OW16303   3.823   4.286   2.845  0.2526 -0.2194 -0.3380
 1615SOL    HW116304   3.846   4.278   2.753 -1.0855 -0.9813 -0.6067
 1615SOL    HW216305   3.727   4.291   2.840 -0.0182 -3.5299  1.8154
 1616SOL     OW16306   1.831   0.373   7.992 -0.6847  0.0169  0.1203
 1616SOL    HW116307   1.846   0.290   7.947  0.7247 -0.0734  0.7517
 1616SOL    HW216308   1.862   0.348   8.079 -0.8366 -0.4293  0.0492
 1617SOL     OW16309   3.773   0.997   6.752 -0.1446  0.0156  0.2178
 1617SOL    HW116310   3.699   1.005   6.692  2.0612 -0.0890 -2.5420
 1617SOL    HW216311   3.814   0.923   6.707  1.8715  1.0121  0.4120
 1618SOL     OW16312   3.117   0.784   5.077  0.1622  0.7398 -0.3712
 1618SOL    HW116313   3.066   0.854   5.118  0.5539  1.5446 -1.2701
 1618SOL    HW216314   3.100   0.779   4.983 -1.2238 -3.0003  0.0842
 1619SOL     OW16315   2.511   0.087   8.691 -0.4927 -0.1621  0.2524
 1619SOL    HW116316   2.473   0.035   8.762  1.5252 -0.3691  1.1826
 1619SOL    HW216317   2.572   0.133   8.749 -0.3711 -1.1613  0.9271
 1620SOL     OW16318   4.153   0.471   7.278  0.0518  0.8034  0.9572
 1620SOL    HW116319   4.152   0.433   7.190 -1.1776 -0.8950  1.7033
 1620SOL    HW216320   4.229   0.530   7.276 -1.2638  2.4530 -0.3269
 1621SOL     OW16321   2.973   1.522   3.892 -0.5925 -0.2449  0.0669
 1621SOL    HW116322   3.041   1.461   3.920 -0.9146 -1.2801 -1.4573
 1621SOL    HW216323   3.026   1.570   3.828 -0.8313  0.6904  0.5727
 1622SOL     OW16324   1.742   2.665   8.941 -0.0150  0.2651  0.2212
 1622SOL    HW116325   1.754   2.694   8.850 -0.2362  1.3820  0.5480
 1622SOL    HW216326   1.745   2.747   8.991  0.8992  0.1911  0.2959
 1623SOL     OW16327   1.751   0.313   7.527 -0.0118 -0.3902 -0.2750
 1623SOL    HW116328   1.669   0.359   7.547  1.3874  1.5452  1.0927
 1623SOL    HW216329   1.725   0.230   7.488  1.6191 -1.0779  0.1318
 1624SOL     OW16330   1.571   1.921   4.483 -0.1575 -0.3203 -0.5029
 1624SOL    HW116331   1.562   1.990   4.417  2.4338  0.1060 -0.4016
 1624SOL    HW216332   1.480   1.906   4.507 -1.1287  1.6909 -2.8712
 1625SOL     OW16333   2.669   2.671   3.782  0.2360  0.5885 -0.0989
 1625SOL    HW116334   2.595   2.731   3.775 -0.7762 -0.7835 -0.8432
 1625SOL    HW216335   2.716   2.734   3.838 -1.3482  2.4449 -0.8318
 1626SOL     OW16336   3.691   0.235   0.104 -0.9736  0.2471  0.4474
 1626SOL    HW116337   3.778   0.273   0.114 -1.2969  1.0905  0.0523
 1626SOL    HW216338   3.643   0.305   0.148  0.3198  1.7827 -0.6070
 1627SOL     OW16339   3.256   0.106   6.848 -0.3843 -0.1032  0.4832
 1627SOL    HW116340   3.294   0.053   6.778  1.0394  1.4399  0.0976
 1627SOL    HW216341   3.309   0.090   6.926 -0.0973 -0.3317  0.2416
 1628SOL     OW16342   4.222   2.902   5.564  0.2565  0.5801  0.2395
 1628SOL    HW116343   4.268   2.983   5.540 -0.7859  0.7786 -1.1260
 1628SOL    HW216344   4.184   2.879   5.479  1.7315  1.5215 -0.6650
 1629SOL     OW16345   0.085   0.564   4.533 -0.3895 -0.1602  0.2371
 1629SOL    HW116346   0.078   0.562   4.628 -0.3658 -2.0771  0.2012
 1629SOL    HW216347   0.175   0.592   4.516 -0.9591  1.6607  0.1673
 1630SOL     OW16348   2.916   3.256  12.302  0.6131 -0.1334 -0.1495
 1630SOL    HW116349   2.968   3.301  12.369 -1.5477  1.0554  0.7577
 1630SOL    HW216350   2.930   3.320  12.232 -2.2772 -0.9945 -1.5447
 1631SOL     OW16351   4.186   2.512  16.196 -0.0122  0.0243 -0.4336
 1631SOL    HW116352   4.156   2.453  16.265 -0.4110  0.8780  0.1294
 1631SOL    HW216353   4.253   2.463  16.148  2.3574  0.9718  1.8906
 1632SOL     OW16354   3.581   4.510   7.581  0.3127  0.3819 -0.1304
 1632SOL    HW116355   3.537   4.530   7.498  1.4053  0.3193 -0.7233
 1632SOL    HW216356   3.512   4.501   7.647  0.6207 -0.1754  0.1184
 1633SOL     OW16357   1.427   0.980   3.567  0.6330 -0.0184 -0.3836
 1633SOL    HW116358   1.376   1.061   3.572 -0.2974 -0.6761  0.7097
 1633SOL    HW216359   1.361   0.911   3.561 -1.1147  1.7144 -1.1508
 1634SOL     OW16360   1.110   0.450  11.247 -0.3408 -0.2448  0.0208
 1634SOL    HW116361   1.185   0.484  11.198 -0.3563 -1.2802 -0.7461
 1634SOL    HW216362   1.043   0.507  11.210 -1.8242 -1.1429  1.3300
 1635SOL     OW16363   0.537   1.611   4.922 -0.8424 -0.5338 -0.3198
 1635SOL    HW116364   0.443   1.591   4.916 -1.2700  1.4682 -0.3501
 1635SOL    HW216365   0.560   1.566   4.840 -3.9280 -1.1861 -0.8597
 1636SOL     OW16366   0.845   2.339  10.526 -0.2137  0.5724  0.4506
 1636SOL    HW116367   0.758   2.367  10.499  0.1620  0.6817 -0.6312
 1636SOL    HW216368   0.895   2.337  10.444  1.9802 -0.7061  1.7951
 1637SOL     OW16369   2.402   3.442  15.986  0.3988 -0.5586  0.3287
 1637SOL    HW116370   2.461   3.457  15.913 -0.7933 -0.4209 -0.6056
 1637SOL    HW216371   2.456   3.378  16.032  1.1325 -0.3037 -0.1822
 1638SOL     OW16372   2.843   3.465   8.371  0.0848 -0.0792 -0.0742
 1638SOL    HW116373   2.806   3.502   8.291  0.3600 -1.2402 -0.7410
 1638SOL    HW216374   2.804   3.508   8.447 -1.1756 -1.0365 -0.1788
 1639SOL     OW16375   3.558   4.244   2.825 -0.5353  0.3865  0.2965
 1639SOL    HW116376   3.519   4.201   2.749 -0.5618 -0.7585  0.9578
 1639SOL    HW216377   3.500   4.216   2.896 -0.8857  0.5013  0.0617
 1640SOL     OW16378   4.158   1.081   7.489 -0.2098  0.5715  0.1998
 1640SOL    HW116379   4.216   1.013   7.523 -0.1625  0.8508  0.6721
 1640SOL    HW216380   4.115   1.096   7.573  0.7034  1.9019  0.4194
 1641SOL     OW16381   3.342   3.174   9.756  0.0857 -0.0878  0.2378
 1641SOL    HW116382   3.382   3.087   9.749 -0.2867 -0.3697  1.4792
 1641SOL    HW216383   3.282   3.159   9.829  0.7372 -1.8218  0.4272
 1642SOL     OW16384   1.554   3.212   8.453  0.7339  0.1756  0.2394
 1642SOL    HW116385   1.466   3.228   8.487  0.6954 -1.9021  1.1098
 1642SOL    HW216386   1.530   3.194   8.363 -1.9309 -0.5432  1.1088
 1643SOL     OW16387   2.065   3.416   3.330 -0.1553 -0.3856  0.3513
 1643SOL    HW116388   2.020   3.501   3.335  2.3697  0.8733  2.0545
 1643SOL    HW216389   2.132   3.425   3.263 -0.6807  1.1445  0.0183
 1644SOL     OW16390   0.845   1.266   8.100  0.2070  0.4197  0.3104
 1644SOL    HW116391   0.751   1.250   8.091  0.1800  1.5686 -1.4018
 1644SOL    HW216392   0.873   1.218   8.022  1.6186 -1.1453  1.7585
 1645SOL     OW16393   2.636   3.655   4.802 -0.1130 -0.1469  0.4343
 1645SOL    HW116394   2.595   3.721   4.747  1.7675  2.7939  2.5760
 1645SOL    HW216395   2.565   3.591   4.810  0.0438 -0.3158  0.4887
 1646SOL     OW16396   3.899   1.684   6.200  0.0709  0.0152 -0.5212
 1646SOL    HW116397   3.898   1.736   6.280 -1.9587 -0.2970 -0.3407
 1646SOL    HW216398   3.991   1.698   6.177 -0.2299  0.3792 -1.5185
 1647SOL     OW16399   4.608   1.815  17.045 -0.1094 -0.0861  0.1121
 1647SOL    HW116400   4.523   1.858  17.057  0.7225  1.4183  0.5546
 1647SOL    HW216401   4.658   1.880  16.997  1.2135 -0.4753  0.9707
 1648SOL     OW16402   2.198   0.562   3.896  0.0059 -0.1640  0.0747
 1648SOL    HW116403   2.126   0.510   3.859  0.2018 -0.3066 -0.1115
 1648SOL    HW216404   2.228   0.514   3.973 -0.9827 -1.6822 -0.4794
 1649SOL     OW16405   3.018   4.408  17.363  0.0389 -0.1443  0.5047
 1649SOL    HW116406   2.968   4.420  17.282 -0.7666 -1.2360  0.8393
 1649SOL    HW216407   3.021   4.313  17.373 -0.1089 -0.2604 -0.5239
 1650SOL     OW16408   2.450   4.008   6.356  0.3021 -1.0922  0.4459
 1650SOL    HW116409   2.362   3.972   6.356 -0.7791  1.5698 -2.3538
 1650SOL    HW216410   2.484   3.976   6.440 -0.9730 -1.9812  0.6091
 1651SOL     OW16411   0.088   0.876  11.503  1.3103 -0.0537  0.3156
 1651SOL    HW116412   0.178   0.906  11.513  1.6906 -1.1841  0.3327
 1651SOL    HW216413   0.089   0.840  11.414  1.3743  0.1952  0.2166
 1652SOL     OW16414   3.889   3.511   7.532 -0.4179  0.2531  0.1989
 1652SOL    HW116415   3.926   3.547   7.612  1.5690 -2.8101  0.6155
 1652SOL    HW216416   3.962   3.480   7.479 -0.1936  0.9421  0.1017
 1653SOL     OW16417   1.156   3.563   5.423 -0.0940 -0.3923  0.7174
 1653SOL    HW116418   1.114   3.550   5.339  1.0814 -0.0408  0.0686
 1653SOL    HW216419   1.234   3.613   5.396  0.1833 -0.0100  2.2267
 1654SOL     OW16420   0.779   3.212   3.325 -0.1402 -0.5355 -0.0548
 1654SOL    HW116421   0.871   3.218   3.354 -0.4816  1.1590  0.6924
 1654SOL    HW216422   0.742   3.278   3.383 -2.7149 -0.7287 -1.5038
 1655SOL     OW16423   1.606   0.297   9.455 -0.1759  0.3440 -0.0133
 1655SOL    HW116424   1.678   0.235   9.463 -0.8312  0.0140  3.6702
 1655SOL    HW216425   1.544   0.252   9.398 -0.5242 -0.3604  0.9241
 1656SOL     OW16426   3.660   0.865   6.325  0.4959  0.5628  0.5838
 1656SOL    HW116427   3.718   0.800   6.364 -0.3232  0.2179  1.2280
 1656SOL    HW216428   3.662   0.922   6.402  1.3251 -0.6387  1.4368
 1657SOL     OW16429   3.077   2.578   2.611 -0.0531  0.5177 -0.0846
 1657SOL    HW116430   3.006   2.601   2.672 -0.6874  0.2311 -0.7267
 1657SOL    HW216431   3.028   2.538   2.540  0.8677 -0.0040 -0.4282
 1658SOL     OW16432   4.454   1.806   9.169 -0.4231  0.1267 -0.9691
 1658SOL    HW116433   4.498   1.721   9.178 -1.2995 -0.1875  0.2852
 1658SOL    HW216434   4.361   1.791   9.152 -1.0547  1.0738  1.7337
 1659SOL     OW16435   0.223   3.324  10.833  0.3615 -0.1900  0.2583
 1659SOL    HW116436   0.233   3.413  10.867 -0.7310  0.2251 -0.5185
 1659SOL    HW216437   0.310   3.284  10.836  0.5623  0.3171  1.0394
 1660SOL     OW16438   4.295   3.319   6.273  0.0002  0.0691 -0.2473
 1660SOL    HW116439   4.334   3.233   6.284 -0.7519 -0.2307  0.0484
 1660SOL    HW216440   4.202   3.300   6.257  0.3180 -0.7337 -1.1552
 1661SOL     OW16441   1.250   2.990   7.866  0.1903  0.3599  0.6077
 1661SOL    HW116442   1.189   2.945   7.925 -2.7585  2.2466 -1.0053
 1661SOL    HW216443   1.323   2.953   7.916  2.0705  2.0047 -0.9240
 1662SOL     OW16444   4.418   2.202  15.495 -0.3047 -0.0432  0.1939
 1662SOL    HW116445   4.493   2.146  15.513 -0.5700 -0.7902 -1.0086
 1662SOL    HW216446   4.452   2.258  15.426  0.0882  0.9263  1.1774
 1663SOL     OW16447   0.090   1.895   2.474  0.2025 -0.1304 -0.0526
 1663SOL    HW116448   0.009   1.846   2.488  0.6209 -1.0950 -1.0144
 1663SOL    HW216449   0.055   1.983   2.460  0.2379 -0.0477  0.3569
 1664SOL     OW16450   3.713   1.075   3.372  0.5027  0.0896  0.2076
 1664SOL    HW116451   3.772   1.150   3.366 -1.4396  1.5859  0.0131
 1664SOL    HW216452   3.730   1.019   3.296 -0.1269  0.3869 -0.1537
 1665SOL     OW16453   3.067   1.275   0.545 -0.1376  0.4067  0.0817
 1665SOL    HW116454   3.154   1.282   0.585 -0.2930 -3.9781  1.1751
 1665SOL    HW216455   3.009   1.260   0.620 -1.1855 -0.9255 -1.0007
 1666SOL     OW16456   0.450   1.341   4.432 -0.2180  0.1838  0.1228
 1666SOL    HW116457   0.415   1.429   4.447  3.1369  1.6234 -0.5384
 1666SOL    HW216458   0.533   1.369   4.394  0.5583 -0.6640  1.2086
 1667SOL     OW16459   2.829   1.859   9.115  0.2024  0.1185 -0.2783
 1667SOL    HW116460   2.807   1.893   9.202  2.4543 -1.6677  0.9889
 1667SOL    HW216461   2.810   1.768   9.136  1.9585 -0.3312 -0.6188
 1668SOL     OW16462   1.868   1.438   3.008 -0.2347 -0.2469  0.4785
 1668SOL    HW116463   1.891   1.530   3.025  0.4215 -0.4643  0.7353
 1668SOL    HW216464   1.926   1.438   2.932  1.1635 -2.2683  1.5666
 1669SOL     OW16465   0.769   1.462   3.772  0.3821  0.3254 -0.7408
 1669SOL    HW116466   0.694   1.522   3.773  0.1950  0.0769  0.2183
 1669SOL    HW216467   0.724   1.378   3.764  0.8991 -0.2922  2.6503
 1670SOL     OW16468   3.302   3.194   5.340 -0.1769 -0.3028  0.1139
 1670SOL    HW116469   3.284   3.171   5.249 -0.1033  1.0781 -0.2346
 1670SOL    HW216470   3.248   3.273   5.346  0.4971  0.2282 -0.8626
 1671SOL     OW16471   1.981   4.474   9.042 -0.2065 -0.6357 -0.3892
 1671SOL    HW116472   1.944   4.386   9.041  0.1588 -0.8044  1.0770
 1671SOL    HW216473   2.036   4.465   9.120 -0.1425  2.5385 -0.0626
 1672SOL     OW16474   3.018   4.542   4.208 -0.4350 -0.3488  0.3247
 1672SOL    HW116475   3.021   4.504   4.120  1.8016 -1.6669  0.9991
 1672SOL    HW216476   2.973   4.621   4.177  2.5148  0.4685 -1.8815
 1673SOL     OW16477   2.841   2.342   2.987  0.4755  0.1379 -0.3396
 1673SOL    HW116478   2.753   2.346   3.026  0.2122  0.5345 -0.9687
 1673SOL    HW216479   2.817   2.299   2.905  1.5796 -1.1685  0.0402
 1674SOL     OW16480   3.223   2.773  13.930 -0.1891 -0.5379  0.2118
 1674SOL    HW116481   3.232   2.686  13.891  1.7436 -0.2361 -0.0412
 1674SOL    HW216482   3.148   2.804  13.879 -0.3393 -1.0564  0.1237
 1675SOL     OW16483   2.027   2.890  17.478  0.8143  0.0697 -0.2412
 1675SOL    HW116484   1.962   2.835  17.434 -2.4073  1.6229  2.5841
 1675SOL    HW216485   2.104   2.855  17.432 -1.2782  0.2222 -3.8739
 1676SOL     OW16486   3.242   4.598   2.293  0.0403 -0.2865 -0.2091
 1676SOL    HW116487   3.182   4.555   2.233 -1.6214 -0.0766  1.3031
 1676SOL    HW216488   3.189   4.596   2.373  0.3899  1.4483  0.0595
 1677SOL     OW16489   1.359   0.170   3.243  0.4068  0.5313 -0.7704
 1677SOL    HW116490   1.405   0.220   3.312 -0.7676 -1.2466  1.2983
 1677SOL    HW216491   1.284   0.228   3.232 -0.5445 -0.7411 -0.9235
 1678SOL     OW16492   3.726   2.254   6.496 -0.3574 -0.4583 -0.2311
 1678SOL    HW116493   3.664   2.190   6.531  0.6778 -3.1838 -3.4117
 1678SOL    HW216494   3.682   2.337   6.480  0.5408 -0.0602 -0.6289
 1679SOL     OW16495   1.425   3.269   6.211  0.5996 -0.2378 -0.2122
 1679SOL    HW116496   1.456   3.187   6.172  2.0089  0.5964 -0.8364
 1679SOL    HW216497   1.399   3.327   6.140 -0.1453 -0.7577 -0.3555
 1680SOL     OW16498   2.380   3.236   2.568  0.2541  0.1444 -0.0001
 1680SOL    HW116499   2.346   3.316   2.531  0.0497 -0.7938 -1.8302
 1680SOL    HW216500   2.473   3.237   2.542 -0.6182 -1.6164 -3.1929
 1681SOL     OW16501   2.066   4.160  12.093  0.2339  0.4076 -0.8039
 1681SOL    HW116502   2.024   4.245  12.098  0.9316  0.6972  0.1765
 1681SOL    HW216503   2.152   4.182  12.129  0.5697 -0.6261 -0.9535
 1682SOL     OW16504   0.145   3.307  10.566  0.2808 -0.2215  0.1675
 1682SOL    HW116505   0.134   3.213  10.579 -0.4161 -0.0767  0.6091
 1682SOL    HW216506   0.202   3.322  10.642  0.2865  2.2326 -0.3479
 1683SOL     OW16507   2.115   4.242   4.555  0.7018  0.2666  0.2651
 1683SOL    HW116508   2.076   4.161   4.589 -3.2626  3.7353  3.9811
 1683SOL    HW216509   2.158   4.209   4.476  1.0257  0.0047  0.5502
 1684SOL     OW16510   2.314   4.287  12.108 -0.3731  0.3915  0.3398
 1684SOL    HW116511   2.399   4.269  12.147  0.5369  1.0712 -1.3263
 1684SOL    HW216512   2.331   4.284  12.014  2.7364  1.2324  0.8905
 1685SOL     OW16513   3.258   0.444   2.950  0.5095 -0.0979 -0.2543
 1685SOL    HW116514   3.210   0.518   2.911  0.2089 -0.2890 -0.2462
 1685SOL    HW216515   3.314   0.416   2.878  1.0024 -0.4794  0.2846
 1686SOL     OW16516   1.028   2.724   2.198  0.2191 -0.5077  0.6259
 1686SOL    HW116517   0.937   2.751   2.182  1.0276  2.0523  0.5014
 1686SOL    HW216518   1.020   2.671   2.277  0.0606 -0.9548  0.3158
 1687SOL     OW16519   3.843   1.347   8.157  0.2369 -0.6881 -0.4309
 1687SOL    HW116520   3.922   1.369   8.107 -1.1393  3.7928 -0.6727
 1687SOL    HW216521   3.882   1.343   8.245  0.0332  1.0187 -0.2507
 1688SOL     OW16522   2.055   1.393  11.142  0.4201  0.5416  0.4422
 1688SOL    HW116523   2.124   1.351  11.193  2.5041  1.2271 -1.7909
 1688SOL    HW216524   2.104   1.469  11.111 -0.2325  1.2462  1.1305
 1689SOL     OW16525   2.674   3.899   5.333 -0.2055  0.4196  0.2387
 1689SOL    HW116526   2.733   3.894   5.409 -1.3236 -2.5230  0.9216
 1689SOL    HW216527   2.609   3.955   5.375 -1.6001 -0.0123 -1.3707
 1690SOL     OW16528   3.950   1.801   6.433  0.3869  0.5887 -0.1033
 1690SOL    HW116529   3.895   1.768   6.504  1.4207  0.4761  0.6499
 1690SOL    HW216530   4.036   1.778   6.467 -1.0858 -0.7048  2.7249
 1691SOL     OW16531   0.969   4.658   3.053 -0.3492 -0.3561  0.0547
 1691SOL    HW116532   0.892   4.652   3.109 -0.9793 -0.0590 -0.7648
 1691SOL    HW216533   0.939   4.612   2.974 -1.5847  1.9608 -0.8106
 1692SOL     OW16534   3.277   4.195   0.037  0.9681 -0.4228  0.0094
 1692SOL    HW116535   3.279   4.148   0.120 -2.5970  1.2166  1.0117
 1692SOL    HW216536   3.358   4.242   0.058  0.4696  0.2820  0.3328
 1693SOL     OW16537   2.491   0.413  14.964 -0.2027 -0.2111 -0.6003
 1693SOL    HW116538   2.511   0.394  14.872  0.6381 -0.7934 -0.2951
 1693SOL    HW216539   2.396   0.420  14.961 -0.1522  0.8558  0.1409
 1694SOL     OW16540   3.474   0.777  13.548  0.2876  0.1121 -0.0821
 1694SOL    HW116541   3.412   0.769  13.476 -0.1457 -3.0274  0.6361
 1694SOL    HW216542   3.529   0.703  13.521  0.9298  0.2623  0.7954
 1695SOL     OW16543   1.847   3.468   5.409  1.1666 -0.0147  0.3375
 1695SOL    HW116544   1.835   3.393   5.467  0.9820 -0.9483 -0.9003
 1695SOL    HW216545   1.764   3.489   5.367  1.5106 -0.9840 -0.8169
 1696SOL     OW16546   4.155   1.538  12.449 -0.0850 -0.3396  0.3613
 1696SOL    HW116547   4.158   1.630  12.422 -0.2117 -0.6739 -0.7640
 1696SOL    HW216548   4.077   1.505  12.406 -0.3772  1.6311 -0.6307
 1697SOL     OW16549   0.302   4.274   8.091 -0.1660  0.6198 -0.4219
 1697SOL    HW116550   0.243   4.276   8.167 -0.8834  1.7161 -1.0002
 1697SOL    HW216551   0.352   4.355   8.101 -0.5526  0.8892 -0.6764
 1698SOL     OW16552   3.635   2.377   6.819  0.1477  0.4586 -0.3770
 1698SOL    HW116553   3.629   2.284   6.839  1.2532  0.5182  0.2131
 1698SOL    HW216554   3.555   2.381   6.767  0.2571 -0.4828 -0.6213
 1699SOL     OW16555   0.436   2.702  14.946 -0.6394 -0.6133 -0.8382
 1699SOL    HW116556   0.518   2.692  14.899 -0.6657  0.0129 -1.0181
 1699SOL    HW216557   0.375   2.649  14.895 -1.9168  0.0422  0.0016
 1700SOL     OW16558   1.840   2.633   3.085 -0.3493 -0.0341 -0.2902
 1700SOL    HW116559   1.878   2.647   2.998  2.6121 -0.7357  0.9137
 1700SOL    HW216560   1.751   2.616   3.054  0.0794  0.0480 -1.5546
 1701SOL     OW16561   3.731   2.218   9.715  0.1939 -0.2241 -0.2327
 1701SOL    HW116562   3.787   2.233   9.639  3.2897  0.6720  2.2359
 1701SOL    HW216563   3.684   2.137   9.692 -1.3878  0.7930 -0.6328
 1702SOL     OW16564   1.623   0.746   2.446 -0.5056  0.6491 -0.3635
 1702SOL    HW116565   1.594   0.830   2.408 -0.3265  1.1918  0.7122
 1702SOL    HW216566   1.663   0.780   2.526 -1.8190  0.5726  0.3219
 1703SOL     OW16567   2.698   3.961   8.328 -0.0742  0.2010  0.1105
 1703SOL    HW116568   2.640   3.885   8.322 -0.2373  0.3737 -0.5190
 1703SOL    HW216569   2.689   3.992   8.418  0.4559 -0.2688  0.3270
 1704SOL     OW16570   1.065   3.352  13.358 -0.0817  0.5903  0.0378
 1704SOL    HW116571   1.103   3.273  13.398 -3.2439 -0.7201  0.4078
 1704SOL    HW216572   0.990   3.315  13.313 -1.2226  2.3413  0.4979
 1705SOL     OW16573   2.252   3.914   2.198 -0.3693  0.2273 -0.3158
 1705SOL    HW116574   2.310   3.990   2.203  1.6557 -1.1967 -1.9946
 1705SOL    HW216575   2.306   3.850   2.151 -0.2439  0.9891 -1.2009
 1706SOL     OW16576   1.241   0.866   8.692 -0.0558  0.2969  0.1402
 1706SOL    HW116577   1.294   0.863   8.772 -0.0597  2.1999  0.2135
 1706SOL    HW216578   1.154   0.866   8.732  0.3962 -2.2309  1.0728
 1707SOL     OW16579   4.423   2.743   8.920  0.1466  0.1433 -0.0125
 1707SOL    HW116580   4.332   2.773   8.927 -0.6574 -1.5392 -3.0875
 1707SOL    HW216581   4.443   2.748   9.013 -1.2105  0.1520  0.2762
 1708SOL     OW16582   1.054   3.784  17.617 -0.3516 -0.1962 -0.2071
 1708SOL    HW116583   1.045   3.869  17.660  0.5898 -1.2248  2.0018
 1708SOL    HW216584   1.064   3.724  17.691  2.4898 -0.1864 -0.5909
 1709SOL     OW16585   1.518   4.231   0.844  0.2172 -0.2202 -0.4353
 1709SOL    HW116586   1.440   4.277   0.877  0.5214  0.1895 -0.2840
 1709SOL    HW216587   1.549   4.196   0.928 -1.9850  1.8368  1.2789
 1710SOL     OW16588   1.343   3.003   9.606 -0.2915  0.5747  0.4560
 1710SOL    HW116589   1.355   3.093   9.578 -0.8004  0.3251 -0.5440
 1710SOL    HW216590   1.347   2.963   9.519  1.8727  0.6549  0.5197
 1711SOL     OW16591   0.918   2.954   7.418  0.1380  0.5803  0.3038
 1711SOL    HW116592   0.859   3.027   7.399  0.2649  0.4475 -0.5877
 1711SOL    HW216593   0.863   2.876   7.410 -1.2200  1.2527  3.0729
 1712SOL     OW16594   3.455   3.874   8.619  0.4432 -0.7077  0.5697
 1712SOL    HW116595   3.549   3.889   8.619  0.0776  1.6182 -1.5389
 1712SOL    HW216596   3.450   3.809   8.549 -0.8212  0.4966 -0.4721
 1713SOL     OW16597   2.533   0.855   3.288  0.6803  0.5328  0.1070
 1713SOL    HW116598   2.545   0.926   3.351  1.2069 -1.2790  2.0551
 1713SOL    HW216599   2.614   0.805   3.285  1.0327  0.9984  1.6354
 1714SOL     OW16600   3.171   2.989  11.362  0.2199  0.0913 -0.6664
 1714SOL    HW116601   3.192   3.004  11.454  2.3390 -0.6871 -1.0188
 1714SOL    HW216602   3.105   2.921  11.377 -0.3367  1.2222  1.8889
 1715SOL     OW16603   4.111   3.714  11.424  0.1304  0.5590  0.3799
 1715SOL    HW116604   4.151   3.652  11.486  0.7386  0.2768 -0.2906
 1715SOL    HW216605   4.046   3.659  11.380 -0.3108  1.2802  0.1300
 1716SOL     OW16606   0.593   1.783   7.561  0.5505 -0.2140 -0.4917
 1716SOL    HW116607   0.506   1.790   7.598  0.4679  1.1705 -0.9244
 1716SOL    HW216608   0.596   1.864   7.509 -1.7941  0.5305  0.5186
 1717SOL     OW16609   3.845   3.080   3.237 -0.0482 -0.0261 -0.2782
 1717SOL    HW116610   3.782   3.148   3.262  0.7926  1.0427 -1.0752
 1717SOL    HW216611   3.800   3.047   3.158 -0.4907  2.1128 -0.9310
 1718SOL     OW16612   0.689   0.503   7.838 -0.1384 -0.4459  0.0403
 1718SOL    HW116613   0.774   0.524   7.877 -0.9052  1.7231  0.5056
 1718SOL    HW216614   0.695   0.407   7.839 -1.1753 -0.4968  1.3081
 1719SOL     OW16615   4.096   3.047   3.387  0.1929  0.5748  0.4504
 1719SOL    HW116616   4.164   3.090   3.336  1.0813  0.2644  1.3551
 1719SOL    HW216617   4.030   3.034   3.318  1.9266 -0.4023 -1.0120
 1720SOL     OW16618   0.992   1.800   5.333  0.1347  0.7337  0.2801
 1720SOL    HW116619   0.896   1.801   5.333  0.1153 -0.2597 -0.9881
 1720SOL    HW216620   1.009   1.803   5.427  0.7702 -2.4964  0.2912
 1721SOL     OW16621   4.153   3.862   7.931 -0.0233 -0.0306  0.1309
 1721SOL    HW116622   4.164   3.897   8.020 -0.6981  2.3742 -0.7426
 1721SOL    HW216623   4.134   3.770   7.948 -1.3136  0.2697  0.3376
 1722SOL     OW16624   2.810   0.763   4.273  0.5593 -0.7110  0.3718
 1722SOL    HW116625   2.793   0.812   4.192  0.1948 -1.7770 -0.1972
 1722SOL    HW216626   2.899   0.798   4.286 -0.4788  1.5389  1.4540
 1723SOL     OW16627   0.659   0.799   7.664 -0.1159 -0.5633  0.5644
 1723SOL    HW116628   0.656   0.887   7.626  3.3490 -0.8473 -0.4377
 1723SOL    HW216629   0.631   0.748   7.588 -0.7038  0.8527 -0.1831
 1724SOL     OW16630   2.002   2.484  16.826 -0.1329 -0.2497  0.0581
 1724SOL    HW116631   1.958   2.568  16.839  0.0320 -0.0811 -0.4639
 1724SOL    HW216632   2.001   2.454  16.917  1.0555 -0.4754  0.0014
 1725SOL     OW16633   0.307   2.083   2.846 -0.0421 -0.3477 -0.4920
 1725SOL    HW116634   0.244   2.079   2.918  0.0247  0.9408 -0.3720
 1725SOL    HW216635   0.327   1.990   2.834  0.7569 -0.1326 -0.8306
 1726SOL     OW16636   0.053   2.372   8.372 -0.1367  0.9011 -0.0150
 1726SOL    HW116637   0.041   2.444   8.434 -1.0929  0.4011  0.3904
 1726SOL    HW216638   0.032   2.305   8.438 -1.2686  1.2905  0.0178
 1727SOL     OW16639   2.766   4.587  14.651 -0.4435  0.3857 -0.4486
 1727SOL    HW116640   2.728   4.672  14.633  1.6319  1.1801 -1.1062
 1727SOL    HW216641   2.699   4.530  14.615  0.8940 -2.1700  1.0930
 1728SOL     OW16642   0.519   3.479  16.987 -0.2264  0.2879  0.3816
 1728SOL    HW116643   0.538   3.558  17.036  2.1634 -1.1362  1.7543
 1728SOL    HW216644   0.510   3.417  17.060 -3.5602  1.5922  1.0473
 1729SOL     OW16645   0.931   0.174   7.162 -0.1783 -0.0999  0.2078
 1729SOL    HW116646   0.920   0.239   7.231  2.0284  0.4421  0.0620
 1729SOL    HW216647   1.023   0.147   7.167 -0.1454 -0.0313 -0.0244
 1730SOL     OW16648   3.551   2.874   2.290  0.9078  0.9686 -0.3217
 1730SOL    HW116649   3.548   2.968   2.270  3.2954  1.0819 -0.1313
 1730SOL    HW216650   3.624   2.846   2.235  1.5431 -2.2307  2.1795
 1731SOL     OW16651   3.205   2.564   0.012 -0.2508  0.3404  0.1692
 1731SOL    HW116652   3.285   2.533   0.056 -0.3465  0.2827  0.3031
 1731SOL    HW216653   3.135   2.543   0.073  1.0798 -0.9578  1.2465
 1732SOL     OW16654   0.719   1.935  13.019 -0.0498  0.1892  0.6697
 1732SOL    HW116655   0.709   1.974  12.932 -0.3692  2.6038  1.7889
 1732SOL    HW216656   0.715   2.015  13.071  0.3938  1.8258 -1.8030
 1733SOL     OW16657   3.349   2.529   4.067 -0.4992  0.5985  0.4088
 1733SOL    HW116658   3.359   2.434   4.067 -0.6477  0.5899 -1.5406
 1733SOL    HW216659   3.254   2.537   4.068 -0.5150  0.3231  0.9602
 1734SOL     OW16660   4.310   1.652   5.119  0.1120 -0.6318 -0.1903
 1734SOL    HW116661   4.379   1.616   5.063  1.3244 -1.8058  2.0344
 1734SOL    HW216662   4.248   1.579   5.114  0.4133 -0.8596 -0.6042
 1735SOL     OW16663   2.699   3.549   9.105 -0.5381  0.2005  0.1050
 1735SOL    HW116664   2.677   3.492   9.031 -1.2677 -0.0407  0.5082
 1735SOL    HW216665   2.785   3.511   9.124 -0.0263  1.3488  0.0863
 1736SOL     OW16666   4.618   4.250  12.498  0.1808 -0.3126 -0.3444
 1736SOL    HW116667   4.609   4.181  12.564  0.5102  0.9097  0.9687
 1736SOL    HW216668   4.541   4.237  12.442  0.3182  2.7000 -1.2522
 1737SOL     OW16669   4.477   1.087  14.559 -0.3237  0.4649 -0.0634
 1737SOL    HW116670   4.476   1.183  14.566  0.3784  0.4883 -0.3437
 1737SOL    HW216671   4.460   1.063  14.650 -0.6186  0.6653 -0.0636
 1738SOL     OW16672   2.365   0.605   5.820 -0.2641  0.1762 -0.2243
 1738SOL    HW116673   2.379   0.689   5.862 -0.5290 -0.5628  1.3423
 1738SOL    HW216674   2.322   0.556   5.891 -1.2496 -1.1696 -1.7455
 1739SOL     OW16675   2.134   2.000   8.002  0.0366  0.5604  0.0441
 1739SOL    HW116676   2.041   2.021   8.008 -0.2381 -0.3659 -0.9734
 1739SOL    HW216677   2.154   1.985   8.095  2.0438  0.0164 -0.4800
 1740SOL     OW16678   1.785   0.915   6.762  0.0700  0.3171  0.5592
 1740SOL    HW116679   1.810   1.002   6.731 -1.6473  0.4275 -0.4959
 1740SOL    HW216680   1.868   0.868   6.757  0.3643  0.6145  2.5889
 1741SOL     OW16681   0.302   2.938  10.884  0.2823 -0.3115 -0.1662
 1741SOL    HW116682   0.325   2.994  10.958  0.8212 -0.3069 -0.3351
 1741SOL    HW216683   0.353   2.988  10.820  1.7285  0.3585  1.5178
 1742SOL     OW16684   2.854   1.333   6.623 -0.2416 -0.1716 -0.3036
 1742SOL    HW116685   2.896   1.259   6.667 -0.3713 -0.4525 -0.6442
 1742SOL    HW216686   2.765   1.317   6.656 -1.3809  1.6726 -2.4388
 1743SOL     OW16687   3.586   1.281  13.591  0.2497 -0.0391  0.1551
 1743SOL    HW116688   3.546   1.264  13.676  0.7261  1.8232  0.7566
 1743SOL    HW216689   3.552   1.217  13.528  0.4896  0.2055 -0.2267
 1744SOL     OW16690   2.022   1.406   5.689  0.0361 -0.0180  0.4429
 1744SOL    HW116691   2.063   1.486   5.656 -2.6302  0.7724 -0.9720
 1744SOL    HW216692   2.094   1.366   5.737  0.0403 -1.7476 -1.0548
 1745SOL     OW16693   2.239   1.047   7.719  0.5059  0.8921 -0.4443
 1745SOL    HW116694   2.227   0.957   7.690 -0.3800  1.2262 -1.1242
 1745SOL    HW216695   2.331   1.065   7.703  1.0805 -1.6732 -0.0055
 1746SOL     OW16696   4.715   4.544   5.721 -0.4183 -0.0165 -0.1258
 1746SOL    HW116697   4.695   4.515   5.810 -0.0451 -1.2800 -0.4523
 1746SOL    HW216698   0.073   4.587   5.737 -0.2490 -0.4738  0.2126
 1747SOL     OW16699   2.171   1.609   5.609 -0.0458 -0.1086  0.1008
 1747SOL    HW116700   2.203   1.699   5.622  1.5669 -0.2559 -2.7179
 1747SOL    HW216701   2.253   1.566   5.632  0.3666 -0.1091 -1.3727
 1748SOL     OW16702   1.969   3.994   8.501  0.2231  0.1957  0.0508
 1748SOL    HW116703   2.046   3.996   8.445  0.7582 -0.1148  0.7705
 1748SOL    HW216704   1.908   3.926   8.471  0.9484  0.3490 -1.7130
 1749SOL     OW16705   1.744   1.627   1.537  0.1874 -0.0276  0.3857
 1749SOL    HW116706   1.724   1.652   1.627  0.7475  0.3894  0.3927
 1749SOL    HW216707   1.817   1.686   1.519  0.2317 -0.0806  0.3908
 1750SOL     OW16708   0.890   2.890  10.401 -0.2516  0.4525  0.3769
 1750SOL    HW116709   0.886   2.935  10.486 -0.0619  4.1550 -1.5458
 1750SOL    HW216710   0.870   2.964  10.343  2.2107  1.2049  0.4912
 1751SOL     OW16711   1.542   3.970   7.417  0.3052 -0.0220 -0.3285
 1751SOL    HW116712   1.624   3.971   7.466 -0.2354  0.7880  0.5561
 1751SOL    HW216713   1.570   4.031   7.349  2.1150  1.0419  1.3766
 1752SOL     OW16714   3.032   4.281   6.938 -0.2864  0.1114 -0.4114
 1752SOL    HW116715   3.076   4.366   6.941  0.0062 -0.0581  0.1111
 1752SOL    HW216716   3.095   4.231   6.990 -0.2263  0.9529  0.3283
 1753SOL     OW16717   4.190   0.771   5.680 -0.3408  0.3776  0.0196
 1753SOL    HW116718   4.150   0.856   5.665 -3.7378 -0.8658  2.0387
 1753SOL    HW216719   4.133   0.719   5.623  0.4900  0.1908 -0.6303
 1754SOL     OW16720   1.746   1.959   9.085 -0.5656  0.9832 -0.1983
 1754SOL    HW116721   1.734   2.028   9.150  2.1190  1.9583 -0.7477
 1754SOL    HW216722   1.841   1.957   9.089 -0.6147  0.7870  0.9170
 1755SOL     OW16723   2.163   0.281   9.648  0.0282  0.0803 -0.4682
 1755SOL    HW116724   2.209   0.324   9.719  1.3622 -0.6857 -0.8754
 1755SOL    HW216725   2.154   0.192   9.682  0.3189 -0.4074 -1.6534
 1756SOL     OW16726   3.337   2.073  14.492 -0.4851  0.3472  0.2843
 1756SOL    HW116727   3.376   2.152  14.528 -1.0455  0.4843  0.5884
 1756SOL    HW216728   3.415   2.018  14.487 -1.2791 -0.7157 -0.4197
 1757SOL     OW16729   3.828   4.178   2.596 -0.4857  0.4487 -0.3918
 1757SOL    HW116730   3.881   4.102   2.617 -1.2288 -0.1881 -0.8242
 1757SOL    HW216731   3.739   4.144   2.598  0.2655 -1.2546  3.8740
 1758SOL     OW16732   4.694   2.211   3.257 -0.1573 -0.5973 -0.0538
 1758SOL    HW116733   4.630   2.280   3.239 -0.4411 -0.9314 -0.3200
 1758SOL    HW216734   0.046   2.266   3.260 -1.4402  1.2508 -0.3590
 1759SOL     OW16735   2.834   2.354   3.461  0.1382 -0.1618 -0.4208
 1759SOL    HW116736   2.824   2.447   3.481 -0.3398  0.2967 -2.6897
 1759SOL    HW216737   2.824   2.317   3.548 -2.2354  0.6374 -0.3417
 1760SOL     OW16738   2.255   2.522   5.208  0.4203 -0.5311  0.1114
 1760SOL    HW116739   2.283   2.574   5.284  0.2107 -0.6675  0.2820
 1760SOL    HW216740   2.333   2.514   5.154  1.1257  2.5401  0.6505
 1761SOL     OW16741   2.968   4.274   4.098  0.5492 -0.1650  0.1261
 1761SOL    HW116742   2.974   4.323   4.016  2.0504 -1.9385 -0.8086
 1761SOL    HW216743   2.894   4.317   4.140 -1.8121 -2.1579 -2.0245
 1762SOL     OW16744   0.413   0.103   5.147  0.6653  0.1281  0.6600
 1762SOL    HW116745   0.327   0.078   5.179 -0.1574  2.1546  0.0123
 1762SOL    HW216746   0.474   0.063   5.209  1.1169 -0.2029  0.0089
 1763SOL     OW16747   1.762   3.196   6.162 -0.0316  0.3067 -0.1167
 1763SOL    HW116748   1.767   3.212   6.256 -0.7515  0.5979 -0.1286
 1763SOL    HW216749   1.794   3.108   6.144  1.6460  0.6197  1.3573
 1764SOL     OW16750   3.074   1.837   8.043  0.1068 -0.3628  0.1497
 1764SOL    HW116751   3.139   1.899   8.076 -1.1830  1.8761 -1.4742
 1764SOL    HW216752   2.994   1.887   8.060 -0.5707 -1.6577  0.7727
 1765SOL     OW16753   0.558   3.824  15.648 -0.5302  0.1461  0.9878
 1765SOL    HW116754   0.630   3.769  15.680 -0.9078 -0.5490  0.6566
 1765SOL    HW216755   0.514   3.764  15.587 -0.4497  0.4817  0.5988
 1766SOL     OW16756   4.157   2.738  15.451  0.4492  0.2332 -0.1258
 1766SOL    HW116757   4.213   2.675  15.405  2.0694  2.1469 -0.7709
 1766SOL    HW216758   4.142   2.798  15.378 -0.5695  0.6375  0.4167
 1767SOL     OW16759   2.585   1.219   8.586 -0.4033  0.0661 -0.1963
 1767SOL    HW116760   2.494   1.240   8.608 -0.7839 -0.5102 -1.2244
 1767SOL    HW216761   2.633   1.211   8.668 -1.0764  2.2674  0.4325
 1768SOL     OW16762   2.931   0.434  14.634  0.4286  0.1006  0.3750
 1768SOL    HW116763   2.838   0.449  14.647  0.6963 -0.0642  2.5321
 1768SOL    HW216764   2.922   0.351  14.587  0.0661  0.1562  0.3509
 1769SOL     OW16765   0.994   1.570   3.681  0.7871 -0.0983  0.0399
 1769SOL    HW116766   0.976   1.592   3.590 -2.2342  1.1424  0.9302
 1769SOL    HW216767   0.919   1.523   3.717 -1.6809  2.3436 -1.9512
 1770SOL     OW16768   1.789   4.650  13.411  0.4982  0.0841  0.5417
 1770SOL    HW116769   1.742   4.567  13.423 -0.4665  0.6438  0.6197
 1770SOL    HW216770   1.724   4.719  13.424 -1.4052 -1.6189  0.0885
 1771SOL     OW16771   0.943   0.547   9.956 -0.7263  0.2874  0.0568
 1771SOL    HW116772   0.910   0.625   9.911 -0.0579 -0.5173 -1.7996
 1771SOL    HW216773   0.964   0.493   9.880  3.6059  0.3493  1.2525
 1772SOL     OW16774   4.160   0.738   6.673 -0.1257 -0.2421 -0.5039
 1772SOL    HW116775   4.200   0.806   6.728 -1.1402 -0.3308  0.3566
 1772SOL    HW216776   4.230   0.679   6.648  1.6253  0.4659  2.7270
 1773SOL     OW16777   1.772   3.876   4.646 -0.1502  0.6143  0.1879
 1773SOL    HW116778   1.696   3.867   4.589  1.0552 -3.7436 -0.6917
 1773SOL    HW216779   1.831   3.926   4.589 -0.2175  0.1815 -0.2598
 1774SOL     OW16780   0.706   4.291   0.180  0.5626  0.4021 -0.3636
 1774SOL    HW116781   0.675   4.259   0.265 -0.7443  0.5151 -0.8063
 1774SOL    HW216782   0.663   4.376   0.172  0.5532  0.5172  0.8733
 1775SOL     OW16783   2.524   4.158   3.227 -0.3103 -1.1157  0.9717
 1775SOL    HW116784   2.514   4.235   3.171  0.0758 -3.6114 -2.4772
 1775SOL    HW216785   2.446   4.168   3.282 -1.2763 -1.6222 -0.3157
 1776SOL     OW16786   3.910   3.993  17.589  0.7226 -0.0408  0.1616
 1776SOL    HW116787   3.906   3.982  17.684 -0.2781  1.7919  0.3333
 1776SOL    HW216788   3.825   4.028  17.562  0.5004 -0.9687 -0.3312
 1777SOL     OW16789   2.287   2.254   4.374  0.4159 -0.0562 -0.2444
 1777SOL    HW116790   2.290   2.343   4.339 -0.7302  0.1908  0.2728
 1777SOL    HW216791   2.211   2.261   4.431  0.8999 -0.0181  0.3890
 1778SOL     OW16792   0.537   1.179  12.184  0.1423 -0.2160  0.1262
 1778SOL    HW116793   0.529   1.161  12.278  0.9442 -0.6047  0.1267
 1778SOL    HW216794   0.547   1.088  12.156 -0.5905 -0.4009  0.4498
 1779SOL     OW16795   3.030   0.246   2.783 -0.5412 -0.4681  0.0651
 1779SOL    HW116796   3.082   0.326   2.799 -1.5518  0.2795 -0.4020
 1779SOL    HW216797   3.096   0.185   2.750 -0.3012  0.7242 -1.6556
 1780SOL     OW16798   1.684   1.282  15.130 -0.1618  0.4123 -0.6183
 1780SOL    HW116799   1.608   1.255  15.080  0.2206 -1.7813 -0.0011
 1780SOL    HW216800   1.710   1.193  15.153  1.9150  0.5833 -2.2853
 1781SOL     OW16801   3.532   3.466   6.440 -0.7176  0.4630 -0.1704
 1781SOL    HW116802   3.560   3.519   6.365 -0.4741 -0.1477 -0.5141
 1781SOL    HW216803   3.569   3.381   6.413 -2.1990 -0.3490  0.3188
 1782SOL     OW16804   2.089   0.308  16.877  0.0755 -0.2017  0.7648
 1782SOL    HW116805   1.994   0.304  16.882  0.1317  0.8892  2.7131
 1782SOL    HW216806   2.110   0.401  16.881 -1.2657  0.0429  1.8636
 1783SOL     OW16807   2.098   0.177  12.834  0.0277 -0.2602 -0.3305
 1783SOL    HW116808   2.105   0.185  12.930  0.0978 -1.7140 -0.2023
 1783SOL    HW216809   2.094   0.081  12.827  1.0488 -0.3597  0.3985
 1784SOL     OW16810   3.510   3.269   7.926 -0.0393 -0.4999  0.1650
 1784SOL    HW116811   3.496   3.205   7.997 -0.3356  0.8023  1.2763
 1784SOL    HW216812   3.564   3.215   7.868 -1.0372 -0.4067 -0.8365
 1785SOL     OW16813   1.647   1.439   5.059 -0.5656 -0.1414 -0.7559
 1785SOL    HW116814   1.604   1.364   5.017  0.6468 -1.6348  0.7124
 1785SOL    HW216815   1.680   1.478   4.978 -0.0791  0.9268 -0.0545
 1786SOL     OW16816   0.800   0.240   4.830  0.5859  0.1410 -0.1803
 1786SOL    HW116817   0.757   0.158   4.807 -0.4808  0.4500  0.7081
 1786SOL    HW216818   0.869   0.216   4.892  0.2354  0.6145  0.3975
 1787SOL     OW16819   0.325   4.100  13.010  0.3545 -0.2095  0.1169
 1787SOL    HW116820   0.308   4.093  12.916 -1.5504  0.5431  0.4087
 1787SOL    HW216821   0.303   4.192  13.027  1.2603 -0.1087  0.7805
 1788SOL     OW16822   1.906   0.737  16.159  0.1387 -0.4172  0.4480
 1788SOL    HW116823   1.942   0.663  16.109  1.9724  0.3361  0.6287
 1788SOL    HW216824   1.950   0.722  16.243  1.8745 -0.2063 -0.4061
 1789SOL     OW16825   2.284   1.442  10.402  0.1309  0.4806 -0.1020
 1789SOL    HW116826   2.357   1.505  10.404 -0.1486  0.6295  4.9141
 1789SOL    HW216827   2.268   1.439  10.308 -2.4007  0.9017  0.3253
 1790SOL     OW16828   1.587   1.192   2.359  0.0404 -0.2858 -0.2498
 1790SOL    HW116829   1.545   1.113   2.393  1.0688 -1.1203 -0.9224
 1790SOL    HW216830   1.523   1.243   2.310  0.0834 -1.1441 -1.1964
 1791SOL     OW16831   2.881   0.139   8.020 -0.2351  0.1181 -0.2698
 1791SOL    HW116832   2.815   0.155   7.952  1.1937  2.1225 -1.1801
 1791SOL    HW216833   2.861   0.211   8.079 -1.3703 -0.1737 -0.3007
 1792SOL     OW16834   4.037   2.975   1.462 -0.3723 -0.6506  0.1697
 1792SOL    HW116835   4.025   2.946   1.372 -1.6859  1.1572 -0.2243
 1792SOL    HW216836   3.959   2.942   1.507  0.3745 -1.8455  0.5984
 1793SOL     OW16837   0.907   0.197   9.306  0.1667 -0.0238 -0.0297
 1793SOL    HW116838   0.984   0.240   9.344  0.2464  2.0874 -2.6334
 1793SOL    HW216839   0.853   0.275   9.296 -1.4451 -1.0536  0.6617
 1794SOL     OW16840   0.086   1.124   2.542 -0.3986  0.5809  0.0690
 1794SOL    HW116841   0.039   1.062   2.596  0.8384 -1.0086 -0.6786
 1794SOL    HW216842   0.120   1.065   2.475 -1.1950 -1.0171  1.0738
 1795SOL     OW16843   0.653   4.400   3.801 -0.2040 -0.1473  0.0606
 1795SOL    HW116844   0.569   4.438   3.827 -1.8595 -3.1028 -1.0402
 1795SOL    HW216845   0.639   4.377   3.709  1.6505 -3.4563  0.6190
 1796SOL     OW16846   2.731   0.566   3.522  0.0100 -0.1550  0.0310
 1796SOL    HW116847   2.641   0.577   3.554 -0.0835 -0.5231 -0.0981
 1796SOL    HW216848   2.715   0.615   3.441 -1.0243 -1.2589 -0.4456
 1797SOL     OW16849   2.254   1.911   8.558  0.1704 -0.0865 -0.0840
 1797SOL    HW116850   2.325   1.915   8.621  1.2812  1.1480 -1.4361
 1797SOL    HW216851   2.205   1.845   8.608 -0.3666 -0.6088 -1.2876
 1798SOL     OW16852   3.243   4.505   5.664 -0.1662  0.2392  0.3289
 1798SOL    HW116853   3.209   4.418   5.686 -0.3319  0.1484 -0.2769
 1798SOL    HW216854   3.248   4.496   5.569 -0.7867 -0.7753  0.3889
 1799SOL     OW16855   0.081   3.336  16.238  0.3597  0.3589 -0.0939
 1799SOL    HW116856   4.723   3.378  16.214  1.3645  2.4412  0.0212
 1799SOL    HW216857   0.135   3.381  16.173 -1.3636  0.2680 -1.6225
 1800SOL     OW16858   3.086   2.996   4.172  0.0491  0.1111 -0.1755
 1800SOL    HW116859   2.997   3.011   4.202  0.4739  0.3459  0.9553
 1800SOL    HW216860   3.080   2.946   4.090  2.3403 -1.0919  0.3776
 1801SOL     OW16861   3.535   1.771  17.199 -0.4398 -0.1484 -0.3551
 1801SOL    HW116862   3.543   1.865  17.183 -1.9312  0.1277  0.5328
 1801SOL    HW216863   3.627   1.752  17.220 -0.0856  1.4144 -0.5170
 1802SOL     OW16864   2.967   1.539   7.374  0.5322 -0.4981 -0.2011
 1802SOL    HW116865   2.925   1.613   7.417  1.2303  0.3873 -1.0245
 1802SOL    HW216866   2.894   1.478   7.371  0.8893 -0.9551  0.6765
 1803SOL     OW16867   1.557   4.507   2.731 -0.0963 -0.2857  0.1601
 1803SOL    HW116868   1.521   4.504   2.819 -0.8832  0.8118 -0.1180
 1803SOL    HW216869   1.487   4.459   2.686 -0.8387 -0.4228  1.4806
 1804SOL     OW16870   3.401   2.232   5.390  0.5919  0.1217 -0.3363
 1804SOL    HW116871   3.358   2.160   5.344  0.7634  0.6704 -1.3599
 1804SOL    HW216872   3.491   2.225   5.357  0.4877  2.4506 -1.1156
 1805SOL     OW16873   3.069   3.161   2.161  0.2820  0.1570 -0.5831
 1805SOL    HW116874   3.087   3.113   2.080  0.9834  0.9131 -0.8731
 1805SOL    HW216875   3.149   3.214   2.170  0.0141  0.7544 -1.7020
 1806SOL     OW16876   4.160   3.491  14.555  0.0823 -0.3282 -0.0992
 1806SOL    HW116877   4.083   3.521  14.507 -0.3219 -0.6392  0.3496
 1806SOL    HW216878   4.231   3.484  14.491 -0.5645  1.3001 -0.9808
 1807SOL     OW16879   3.601   2.889   5.106  0.1566 -0.1062 -0.3439
 1807SOL    HW116880   3.673   2.841   5.064 -2.2013 -2.0678 -2.1482
 1807SOL    HW216881   3.633   2.977   5.123 -0.7371  0.3625 -1.1339
 1808SOL     OW16882   3.075   2.825   2.813  0.3212 -0.2363  0.1519
 1808SOL    HW116883   3.027   2.756   2.858  0.7772  0.0178  1.0167
 1808SOL    HW216884   3.005   2.856   2.754  0.8181  0.0143 -0.3082
 1809SOL     OW16885   2.389   4.528   0.948 -0.3817  0.3480  0.3226
 1809SOL    HW116886   2.354   4.540   0.860 -0.3263  0.5829  0.3316
 1809SOL    HW216887   2.309   4.545   0.998 -1.1359  1.6316 -1.3345
 1810SOL     OW16888   1.292   2.570   8.609 -0.2076 -0.1750  0.9185
 1810SOL    HW116889   1.198   2.588   8.617 -1.1770 -3.4483 -3.0759
 1810SOL    HW216890   1.302   2.479   8.584 -0.2914 -0.6337  2.5429
 1811SOL     OW16891   2.903   0.415   8.133 -0.7625 -0.6214 -0.1817
 1811SOL    HW116892   2.968   0.463   8.184 -1.6129  0.1493  0.1796
 1811SOL    HW216893   2.841   0.486   8.153 -1.1141 -0.2504 -2.5465
 1812SOL     OW16894   3.555   0.270   2.184 -0.1313  0.2101  0.3085
 1812SOL    HW116895   3.573   0.285   2.277 -1.6434 -0.0208  0.6464
 1812SOL    HW216896   3.483   0.208   2.198  0.7102 -0.8292  0.0336
 1813SOL     OW16897   2.351   1.262   3.260 -0.0249  0.0494  0.4953
 1813SOL    HW116898   2.410   1.318   3.210  1.5004 -0.5158  1.6898
 1813SOL    HW216899   2.290   1.243   3.188  0.8899  0.1120 -0.2995
 1814SOL     OW16900   0.560   3.113  11.616 -0.0212  0.5545  0.0114
 1814SOL    HW116901   0.578   3.172  11.690 -0.3737  0.4241  0.2022
 1814SOL    HW216902   0.475   3.077  11.641 -0.8296  0.9355 -2.2356
 1815SOL     OW16903   4.381   2.009  12.921  0.2697  0.3004  0.1339
 1815SOL    HW116904   4.464   1.989  12.877 -0.4757  0.7721 -1.4687
 1815SOL    HW216905   4.395   2.103  12.919  3.1453 -0.1812 -1.6197
 1816SOL     OW16906   2.529   0.834   5.655  0.3605  0.2646 -0.1645
 1816SOL    HW116907   2.509   0.827   5.749 -1.1734  0.0932 -0.5028
 1816SOL    HW216908   2.489   0.757   5.614  0.6126 -0.8674  1.7288
 1817SOL     OW16909   1.547   3.868   3.227  0.0729  0.1359  0.3122
 1817SOL    HW116910   1.554   3.847   3.134  0.9191  0.5281  0.2794
 1817SOL    HW216911   1.465   3.824   3.249  0.2946 -1.4143 -1.9993
 1818SOL     OW16912   3.703   4.424  13.958 -0.0153 -0.3941  0.1977
 1818SOL    HW116913   3.622   4.393  13.998 -1.3038 -0.4770 -2.5488
 1818SOL    HW216914   3.745   4.339  13.942  0.6761 -0.1272  0.5582
 1819SOL     OW16915   2.950   0.929   7.250 -0.0501  0.2585  0.1062
 1819SOL    HW116916   3.023   0.926   7.311  1.7127  1.2581 -1.9562
 1819SOL    HW216917   2.999   0.893   7.176  1.7750 -1.2053  2.0118
 1820SOL     OW16918   0.684   0.177   2.947  0.3411 -0.3030  0.1314
 1820SOL    HW116919   0.691   0.112   2.878  2.0513  0.9482 -0.8595
 1820SOL    HW216920   0.617   0.241   2.922 -0.2467 -0.9590  0.0052
 1821SOL     OW16921   1.736   2.749   4.916 -0.6495  0.2214 -1.0737
 1821SOL    HW116922   1.701   2.837   4.899 -2.4854 -0.2245  0.3391
 1821SOL    HW216923   1.769   2.776   5.002  0.8616  1.7312 -2.1089
 1822SOL     OW16924   1.556   0.263   4.880  0.6263 -0.6408 -0.4257
 1822SOL    HW116925   1.598   0.329   4.825 -0.3575  1.4198  1.3039
 1822SOL    HW216926   1.600   0.181   4.858 -0.2385 -1.2069 -0.0407
 1823SOL     OW16927   3.690   4.341   5.546  0.0886  0.1349  0.3363
 1823SOL    HW116928   3.714   4.339   5.454 -0.4594  0.4782  0.1896
 1823SOL    HW216929   3.639   4.422   5.544 -0.5258 -0.2602  0.0620
 1824SOL     OW16930   1.770   4.518   5.755  0.0127 -0.1033  0.1985
 1824SOL    HW116931   1.702   4.583   5.772 -0.8755 -0.9790 -0.0082
 1824SOL    HW216932   1.732   4.456   5.692 -1.4772  1.1038 -0.0837
 1825SOL     OW16933   3.166   2.500   2.254  0.0540  0.0347  0.1410
 1825SOL    HW116934   3.085   2.449   2.263  0.2993 -0.0995  1.5872
 1825SOL    HW216935   3.225   2.432   2.221 -0.2538  0.6966 -1.7322
 1826SOL     OW16936   4.118   1.540   7.449  0.0100 -0.3194 -0.5065
 1826SOL    HW116937   4.056   1.566   7.518 -0.0339  0.5513 -0.8727
 1826SOL    HW216938   4.161   1.623   7.427  0.1225 -1.3942 -4.2822
 1827SOL     OW16939   2.633   4.162   1.126  0.4746 -0.0307 -0.5116
 1827SOL    HW116940   2.551   4.183   1.081  0.0239  0.2869  0.4762
 1827SOL    HW216941   2.622   4.073   1.158  0.1449  0.3693  0.4601
 1828SOL     OW16942   4.329   0.076   7.959  0.2611  0.1321 -0.2349
 1828SOL    HW116943   4.330   0.064   7.864 -2.3625 -0.0333 -0.2421
 1828SOL    HW216944   4.423   0.079   7.980  0.3949  3.9924 -1.2355
 1829SOL     OW16945   1.554   3.600   6.662  0.1280 -0.8350 -0.1221
 1829SOL    HW116946   1.484   3.623   6.601  1.0586  0.0264 -0.8886
 1829SOL    HW216947   1.511   3.528   6.708 -0.8521  0.1210  0.4633
 1830SOL     OW16948   1.249   1.925   5.358  0.2330 -0.0917 -0.3301
 1830SOL    HW116949   1.210   1.854   5.409 -2.8656 -0.2441 -2.8761
 1830SOL    HW216950   1.171   1.979   5.344  1.0688  1.1558 -0.1937
 1831SOL     OW16951   4.719   3.207  13.051  0.0411  0.2114 -0.6856
 1831SOL    HW116952   4.693   3.123  13.013  0.7379  0.6769 -2.1931
 1831SOL    HW216953   0.089   3.199  13.059 -0.1291  0.4406  1.6214
 1832SOL     OW16954   1.684   3.462   8.517 -0.1424 -0.2589 -0.2581
 1832SOL    HW116955   1.688   3.503   8.431 -0.1766  3.3059  1.4296
 1832SOL    HW216956   1.645   3.377   8.495  0.8537 -0.9995  0.8157
 1833SOL     OW16957   0.153   1.106   8.251  0.2179 -1.0795  0.3822
 1833SOL    HW116958   0.139   1.178   8.313 -0.2084  0.0957 -1.1001
 1833SOL    HW216959   0.193   1.155   8.179  2.3721 -2.6788  0.4766
 1834SOL     OW16960   1.052   3.858  16.560  0.1444  0.0540 -0.2733
 1834SOL    HW116961   1.026   3.767  16.568 -1.1980  0.5112  0.5702
 1834SOL    HW216962   1.040   3.892  16.649 -4.0647  0.9582 -1.2076
 1835SOL     OW16963   2.203   1.261  16.829 -0.2962  0.1863 -0.1082
 1835SOL    HW116964   2.158   1.218  16.756  1.0200  1.4101 -1.6644
 1835SOL    HW216965   2.180   1.353  16.816 -0.8943  0.0781  0.1902
 1836SOL     OW16966   0.707   3.150  16.756 -0.2603  0.4106 -0.1721
 1836SOL    HW116967   0.669   3.237  16.744  1.5471  1.2159 -0.1144
 1836SOL    HW216968   0.751   3.155  16.671  2.5722  3.4739  1.4808
 1837SOL     OW16969   1.875   3.303   7.847 -0.1463 -1.0974 -0.4629
 1837SOL    HW116970   1.802   3.332   7.792  1.2353 -1.1958 -2.3686
 1837SOL    HW216971   1.942   3.359   7.806  0.7595 -2.0089 -0.2338
 1838SOL     OW16972   4.108   3.393   3.249 -0.4236  0.0919  0.1051
 1838SOL    HW116973   4.100   3.394   3.344  1.6814  1.2475  0.2646
 1838SOL    HW216974   4.163   3.315   3.249 -0.7979 -0.1707 -1.1611
 1839SOL     OW16975   0.044   1.119   1.418  0.2523 -0.1032  0.7692
 1839SOL    HW116976   0.133   1.143   1.393  1.1022 -1.9931  1.9736
 1839SOL    HW216977   0.041   1.025   1.400  2.4686 -0.0172 -0.0072
 1840SOL     OW16978   1.848   3.146   0.743 -0.7430 -0.0289 -0.2074
 1840SOL    HW116979   1.876   3.236   0.723 -1.8087  0.1426 -0.9550
 1840SOL    HW216980   1.860   3.110   0.655  0.5143  0.4582 -0.2449
 1841SOL     OW16981   1.028   2.905   4.715  0.0908 -0.0913 -0.6925
 1841SOL    HW116982   0.996   2.835   4.658 -0.7708 -0.8868  0.7792
 1841SOL    HW216983   0.945   2.936   4.753 -0.7387  0.8248 -3.2284
 1842SOL     OW16984   1.792   4.053   3.206  0.2680 -0.0945  0.0112
 1842SOL    HW116985   1.720   4.010   3.160 -0.7485 -1.3068  2.7558
 1842SOL    HW216986   1.751   4.139   3.215  0.2162 -0.0856 -0.3276
 1843SOL     OW16987   2.912   4.709   5.014  0.5778  0.3302 -0.6960
 1843SOL    HW116988   2.925   0.072   4.981 -0.6363  0.8737  0.2738
 1843SOL    HW216989   2.996   4.664   5.012  0.2245 -0.3506 -0.1215
 1844SOL     OW16990   2.592   3.889   9.282  0.4886 -0.2273  0.3200
 1844SOL    HW116991   2.605   3.984   9.282  0.8258 -0.2653 -3.7493
 1844SOL    HW216992   2.669   3.869   9.228  0.3873  1.5854 -0.4825
 1845SOL     OW16993   4.170   2.462   6.015  0.4768 -0.1452  0.1798
 1845SOL    HW116994   4.235   2.445   6.084 -0.2884 -0.0147  0.9323
 1845SOL    HW216995   4.196   2.548   5.982 -0.8614 -0.5008 -1.7545
 1846SOL     OW16996   0.130   1.809  10.744 -0.1563  0.4673  0.7272
 1846SOL    HW116997   0.131   1.806  10.648 -0.8641  2.4825  0.6533
 1846SOL    HW216998   0.074   1.884  10.761  0.4679  0.7513  1.5679
 1847SOL     OW16999   2.033   1.963   9.978 -0.0648 -0.4451 -0.2322
 1847SOL    HW117000   2.048   2.055  10.001 -0.7479  0.0240 -1.6534
 1847SOL    HW217001   2.071   1.922  10.056 -1.2257 -1.2113 -0.0697
 1848SOL     OW17002   2.580   2.593   2.358  0.1446  0.0767  0.1172
 1848SOL    HW117003   2.652   2.628   2.305  1.4035 -1.2876  0.9317
 1848SOL    HW217004   2.538   2.676   2.383  1.2828  1.0097 -1.0742
 1849SOL     OW17005   3.277   0.761   4.140  0.3160 -0.2515  0.6074
 1849SOL    HW117006   3.237   0.847   4.156  1.7855  0.4209  0.6879
 1849SOL    HW217007   3.202   0.713   4.104  0.0208 -0.3213  1.3200
 1850SOL     OW17008   1.775   0.387   7.027 -0.3970  0.4054  0.5986
 1850SOL    HW117009   1.720   0.429   6.961  3.0129  2.3707 -0.9590
 1850SOL    HW217010   1.732   0.417   7.106 -0.8540  1.0564  0.0973
 1851SOL     OW17011   0.687   0.833  14.110 -0.3289 -0.0873 -0.0422
 1851SOL    HW117012   0.693   0.800  14.200  0.8597 -0.6297 -0.3252
 1851SOL    HW217013   0.612   0.788  14.071 -1.2083  2.1217 -0.8881
 1852SOL     OW17014   0.657   4.000   3.835 -0.1166  0.2222  0.4511
 1852SOL    HW117015   0.725   4.007   3.767 -0.7938  1.7424 -0.0690
 1852SOL    HW217016   0.687   3.922   3.881  3.8940  1.3707 -0.2484
 1853SOL     OW17017   3.333   4.370   4.145 -0.1424  0.3875 -0.6849
 1853SOL    HW117018   3.284   4.410   4.073 -1.5392 -0.0063  0.0480
 1853SOL    HW217019   3.419   4.409   4.131 -1.2112  3.8459  2.2920
 1854SOL     OW17020   1.608   3.382   0.455 -0.3123  0.3682 -0.3245
 1854SOL    HW117021   1.686   3.377   0.399  1.1978 -1.7595  1.9977
 1854SOL    HW217022   1.585   3.290   0.440  1.0018  0.2125 -1.4075
 1855SOL     OW17023   4.175   2.702  10.414  0.1763 -0.4638 -0.2957
 1855SOL    HW117024   4.155   2.790  10.444  0.1400 -0.5000 -0.2152
 1855SOL    HW217025   4.149   2.649  10.489 -0.3434  3.2155  2.0822
 1856SOL     OW17026   2.436   2.031   5.077  0.3400  0.3066 -0.1207
 1856SOL    HW117027   2.444   2.111   5.025  1.2531 -0.3611 -1.0079
 1856SOL    HW217028   2.524   2.022   5.114 -0.3518 -1.3599  1.1525
 1857SOL     OW17029   2.861   2.701   8.608  0.8160  0.9334  0.4021
 1857SOL    HW117030   2.912   2.631   8.648 -0.7408  0.3621  1.4150
 1857SOL    HW217031   2.846   2.762   8.681 -0.6320 -0.7297  1.5136
 1858SOL     OW17032   2.019   3.038  10.171  0.8246  0.1197 -0.5574
 1858SOL    HW117033   2.038   3.049  10.264 -0.0467  0.0832 -0.3733
 1858SOL    HW217034   2.019   2.942  10.163 -1.5139  0.1650 -1.1083
 1859SOL     OW17035   0.359   2.224  16.761  0.4910  0.1698  0.4282
 1859SOL    HW117036   0.313   2.297  16.803  0.9243  1.4773 -1.4004
 1859SOL    HW217037   0.427   2.270  16.713  0.9467 -0.2408  0.6768
 1860SOL     OW17038   1.391   0.164   8.836 -0.1582 -0.1488 -0.4621
 1860SOL    HW117039   1.298   0.183   8.847 -0.3630 -1.6517  0.3372
 1860SOL    HW217040   1.422   0.167   8.927  0.6886  1.0310 -0.7763
 1861SOL     OW17041   2.485   4.122   5.797  0.1792 -0.3632 -0.1337
 1861SOL    HW117042   2.536   4.055   5.752  2.4483  1.1614  0.1314
 1861SOL    HW217043   2.515   4.206   5.761  1.1530 -0.0462  1.3765
 1862SOL     OW17044   2.116   0.470   4.615 -0.1322 -0.4552 -0.1765
 1862SOL    HW117045   2.088   0.382   4.592 -1.3017  0.0794 -0.8229
 1862SOL    HW217046   2.207   0.452   4.639 -0.1891  1.0028  1.1331
 1863SOL     OW17047   0.279   3.566  11.863 -0.1580  0.1432  0.5195
 1863SOL    HW117048   0.343   3.584  11.932  0.2323  0.4008  0.0895
 1863SOL    HW217049   0.330   3.618  11.801 -1.5217  2.6510  1.4807
 1864SOL     OW17050   3.442   1.750  13.028  0.4093  0.5873 -0.3043
 1864SOL    HW117051   3.500   1.750  12.952 -0.3121 -0.3198 -0.8535
 1864SOL    HW217052   3.498   1.807  13.081  1.3237  1.1315 -1.8733
 1865SOL     OW17053   3.879   1.305   2.784 -0.2647  0.3567 -0.2065
 1865SOL    HW117054   3.797   1.344   2.753 -0.1768  1.3383  0.7985
 1865SOL    HW217055   3.899   1.234   2.723  0.2780 -0.6096  1.1052
 1866SOL     OW17056   0.620   0.121   2.547  0.0722  0.1253  0.4014
 1866SOL    HW117057   0.587   0.041   2.506 -2.1692  2.2011 -1.8090
 1866SOL    HW217058   0.547   0.139   2.606  0.5482 -0.1283  1.0712
 1867SOL     OW17059   1.516   1.658   7.585 -0.1599 -0.7300  0.2693
 1867SOL    HW117060   1.449   1.724   7.601  0.1948 -0.2444 -0.2499
 1867SOL    HW217061   1.522   1.653   7.490 -2.3186 -0.9047  0.1620
 1868SOL     OW17062   3.603   4.415   4.593  0.2036  0.0847 -0.5322
 1868SOL    HW117063   3.663   4.383   4.660 -1.5727 -1.2794  0.3972
 1868SOL    HW217064   3.538   4.465   4.643  2.8707  0.3695  2.6485
 1869SOL     OW17065   2.659   0.891   3.738  0.2797 -0.2843 -0.0727
 1869SOL    HW117066   2.639   0.979   3.769  1.8758  0.1518 -0.2356
 1869SOL    HW217067   2.724   0.855   3.798 -0.0903  0.0972  0.5569
 1870SOL     OW17068   2.145   2.924   6.988 -0.3121 -0.6345  0.0863
 1870SOL    HW117069   2.152   2.836   6.950 -1.7334 -1.7805  2.4984
 1870SOL    HW217070   2.112   2.911   7.076 -3.5830  1.1062 -0.8824
 1871SOL     OW17071   3.333   1.538  15.403 -0.6072  0.1330 -0.0323
 1871SOL    HW117072   3.326   1.632  15.418  0.4257  0.1974  0.0694
 1871SOL    HW217073   3.252   1.513  15.446  0.1367 -0.1351  1.2311
 1872SOL     OW17074   3.538   2.453   6.476 -0.3520 -0.0543  0.6950
 1872SOL    HW117075   3.465   2.462   6.537 -1.0749  1.1807 -0.3653
 1872SOL    HW217076   3.497   2.437   6.391  0.5465 -1.4468  0.5227
 1873SOL     OW17077   4.021   4.601   3.899  0.0569 -0.5572  0.5285
 1873SOL    HW117078   4.087   4.547   3.856 -0.0911 -1.0831  0.9634
 1873SOL    HW217079   3.989   4.536   3.961 -0.7911  1.8497  2.6369
 1874SOL     OW17080   3.705   0.338  13.693  0.0456  0.3551 -0.3011
 1874SOL    HW117081   3.732   0.260  13.645 -2.2892 -0.1262 -0.8289
 1874SOL    HW217082   3.649   0.314  13.766  1.0799  0.6899  0.5968
 1875SOL     OW17083   0.025   0.640   6.794 -0.4777 -0.0581 -0.0652
 1875SOL    HW117084   0.047   0.597   6.877 -0.6368 -0.9935 -0.5159
 1875SOL    HW217085   0.081   0.593   6.733 -0.9998  0.2293 -0.7670
 1876SOL     OW17086   4.025   4.243   3.047 -0.5336  0.0046  0.3486
 1876SOL    HW117087   4.006   4.150   3.061  1.2125 -0.6959 -2.0295
 1876SOL    HW217088   3.949   4.248   2.988  2.2963  0.0460 -3.2970
 1877SOL     OW17089   2.945   0.574   1.066  0.1023 -0.6412  0.0037
 1877SOL    HW117090   3.010   0.503   1.069  0.6964 -0.0653  0.7469
 1877SOL    HW217091   2.931   0.601   1.157 -3.0136  1.9854 -1.2646
 1878SOL     OW17092   3.415   0.527   7.611  0.4760  0.0524 -0.4944
 1878SOL    HW117093   3.354   0.467   7.653 -1.0012  0.8846 -1.4658
 1878SOL    HW217094   3.490   0.470   7.596  0.0383 -0.6555  0.0250
 1879SOL     OW17095   0.544   1.053   4.958 -0.1126 -0.1528  0.0744
 1879SOL    HW117096   0.507   1.131   4.917  1.9208  0.6459 -0.2714
 1879SOL    HW217097   0.619   1.034   4.902 -1.3747  1.5675 -2.1953
 1880SOL     OW17098   0.558   0.446   5.567 -0.3954 -0.4634 -0.5054
 1880SOL    HW117099   0.515   0.434   5.483 -0.1577  0.9348 -0.8346
 1880SOL    HW217100   0.608   0.526   5.551  0.0319  0.1446  3.7083
 1881SOL     OW17101   3.284   4.463   3.131 -0.3733 -0.2445  0.5930
 1881SOL    HW117102   3.249   4.549   3.151  0.4338  0.4221 -0.8513
 1881SOL    HW217103   3.340   4.445   3.207  1.3117  2.8851  0.0888
 1882SOL     OW17104   2.502   4.151  13.531 -0.1625 -0.1086 -0.4884
 1882SOL    HW117105   2.502   4.071  13.477 -1.4143 -1.0171  0.8490
 1882SOL    HW217106   2.588   4.158  13.571  0.4700 -0.8004 -1.7208
 1883SOL     OW17107   3.897   1.365  13.250  0.3547 -0.1647 -0.4039
 1883SOL    HW117108   3.841   1.379  13.173 -1.8689 -1.4570  0.9606
 1883SOL    HW217109   3.864   1.435  13.306 -1.8454 -1.0743 -0.5534
 1884SOL     OW17110   3.689   4.112   2.312  0.0799  0.4923  0.2079
 1884SOL    HW117111   3.718   4.132   2.223 -0.6692 -0.8346 -0.3434
 1884SOL    HW217112   3.774   4.132   2.350 -0.6429  1.9102  1.0793
 1885SOL     OW17113   0.071   4.585  13.033  0.4426  0.3405  0.1529
 1885SOL    HW117114   0.067   4.612  12.942 -2.2959  0.5669  0.3568
 1885SOL    HW217115   0.025   4.645  13.091 -1.9802  2.4048 -3.9771
 1886SOL     OW17116   1.251   3.731   0.571  0.1139 -0.7581  0.2704
 1886SOL    HW117117   1.179   3.743   0.633  0.5924  0.1938  0.6404
 1886SOL    HW217118   1.285   3.820   0.568 -0.1097 -0.7288 -1.3271
 1887SOL     OW17119   4.301   4.561   2.911  0.3662 -0.0872 -0.7612
 1887SOL    HW117120   4.206   4.557   2.912  0.4084 -1.1250 -0.9280
 1887SOL    HW217121   4.320   4.581   2.819  1.2832  1.6307 -0.2161
 1888SOL     OW17122   2.939   0.005   3.613 -0.0968  0.6048  0.2799
 1888SOL    HW117123   2.931   0.095   3.645  1.0431  1.2201 -1.1931
 1888SOL    HW217124   2.940   0.026   3.520  2.0804  0.4553  0.2784
 1889SOL     OW17125   3.001   3.196   6.489 -0.4561 -0.2134  0.3474
 1889SOL    HW117126   2.913   3.228   6.470  0.2168  1.5636  0.2327
 1889SOL    HW217127   3.006   3.227   6.580 -1.4913 -2.7406  1.2743
 1890SOL     OW17128   0.876   1.443   2.159  0.4094 -0.5161 -0.0632
 1890SOL    HW117129   0.933   1.496   2.214 -2.0863  1.9472  0.1558
 1890SOL    HW217130   0.937   1.417   2.090  0.3485 -1.1591  0.1224
 1891SOL     OW17131   2.736   4.465   5.270  0.1962 -0.4234  0.3229
 1891SOL    HW117132   2.668   4.463   5.338  0.0815 -1.4494  0.1875
 1891SOL    HW217133   2.756   4.558   5.262 -0.1451 -0.5896 -2.2336
 1892SOL     OW17134   4.714   2.346   4.477  0.2525 -0.5380 -0.0875
 1892SOL    HW117135   0.041   2.304   4.545  0.2388  1.9991  1.5057
 1892SOL    HW217136   0.005   2.293   4.399  0.6258  1.3039 -1.2775
 1893SOL     OW17137   2.803   4.434  11.105  0.2834  0.5284 -0.3078
 1893SOL    HW117138   2.830   4.448  11.196 -1.5345  0.6771  0.2064
 1893SOL    HW217139   2.733   4.500  11.103  0.9461  1.2287 -0.4076
 1894SOL     OW17140   2.705   1.923   5.174  0.0915  0.3900  0.6418
 1894SOL    HW117141   2.715   1.829   5.161 -0.0255  0.2945  1.2329
 1894SOL    HW217142   2.745   1.939   5.260 -0.4047  1.6108  0.6462
 1895SOL     OW17143   0.512   3.098   0.939  0.1679  0.1053 -0.3131
 1895SOL    HW117144   0.483   3.020   0.892  1.8448 -0.2858 -0.6941
 1895SOL    HW217145   0.492   3.160   0.868 -1.0953  1.9756  1.6869
 1896SOL     OW17146   1.533   2.716   6.526  0.0858 -0.0039  0.1755
 1896SOL    HW117147   1.565   2.702   6.615 -0.3224 -0.9475  0.1735
 1896SOL    HW217148   1.603   2.725   6.461  2.9170 -0.4220  3.1009
 1897SOL     OW17149   3.520   1.146   2.264 -0.7168  1.0045 -0.0792
 1897SOL    HW117150   3.519   1.241   2.248 -1.4113  1.2539  1.4295
 1897SOL    HW217151   3.442   1.120   2.216  0.4276 -0.5723 -1.0733
 1898SOL     OW17152   0.439   1.345   3.828 -0.4734  0.1399  0.0934
 1898SOL    HW117153   0.368   1.404   3.850 -0.3584  0.5238 -0.5701
 1898SOL    HW217154   0.399   1.298   3.755  0.3997  1.0987 -1.0077
 1899SOL     OW17155   1.511   2.098  14.245 -0.5138  0.6124  0.8263
 1899SOL    HW117156   1.567   2.020  14.252 -1.1289  0.0199 -0.8668
 1899SOL    HW217157   1.426   2.054  14.247  0.2500 -0.8442  1.5735
 1900SOL     OW17158   0.691   3.879   8.271 -0.1978  0.0900 -0.3300
 1900SOL    HW117159   0.747   3.931   8.330 -0.4172 -1.8418  1.6006
 1900SOL    HW217160   0.704   3.925   8.188 -0.1737  0.1044 -0.3184
 1901SOL     OW17161   2.848   4.612  13.659  0.0843  0.1048 -0.3951
 1901SOL    HW117162   2.810   4.695  13.629 -1.0792 -0.0026  0.7551
 1901SOL    HW217163   2.804   4.555  13.596 -3.9481 -0.0921  2.5524
 1902SOL     OW17164   3.886   2.476   1.156 -0.4815 -0.5255  0.2859
 1902SOL    HW117165   3.853   2.495   1.244  0.3128 -1.9401  0.8798
 1902SOL    HW217166   3.892   2.564   1.119 -0.3274 -0.7920 -0.3297
 1903SOL     OW17167   1.159   0.559  10.150 -0.9349 -0.2181  0.3658
 1903SOL    HW117168   1.236   0.548  10.094 -0.1809 -0.1517  1.4147
 1903SOL    HW217169   1.081   0.551  10.094  1.0433  1.5854 -2.6339
 1904SOL     OW17170   4.641   3.703  16.614 -0.0979  0.7515  0.1684
 1904SOL    HW117171   4.704   3.640  16.578 -0.3352 -0.7950  2.4524
 1904SOL    HW217172   4.598   3.733  16.534 -2.1477  0.2801  1.1050
 1905SOL     OW17173   3.684   2.386  10.584 -0.6007 -0.1365 -0.4140
 1905SOL    HW117174   3.636   2.467  10.601  0.2185  0.3510 -0.4041
 1905SOL    HW217175   3.721   2.368  10.670 -0.0541 -0.2405 -0.6713
 1906SOL     OW17176   4.586   1.530   3.663 -0.1447 -0.0022 -0.5707
 1906SOL    HW117177   4.621   1.614   3.635  0.8854 -0.3316 -0.2803
 1906SOL    HW217178   4.508   1.535   3.608 -2.3062 -2.1120  2.2776
 1907SOL     OW17179   0.336   0.896  14.274  0.0848 -0.4529  0.3291
 1907SOL    HW117180   0.337   0.990  14.254  0.6895 -0.2042  1.5381
 1907SOL    HW217181   0.264   0.893  14.338 -0.4279  4.2205 -0.0476
 1908SOL     OW17182   2.731   3.309   2.918  0.2953  0.0107  0.2283
 1908SOL    HW117183   2.797   3.239   2.913 -0.3658 -0.4062 -3.1410
 1908SOL    HW217184   2.704   3.291   2.828 -1.7482  2.0193  0.4681
 1909SOL     OW17185   2.576   2.476   2.841  0.2897  0.8837 -0.4169
 1909SOL    HW117186   2.639   2.534   2.797  0.9411  1.3936  1.1783
 1909SOL    HW217187   2.523   2.462   2.763  1.0913 -0.0071 -0.7931
 1910SOL     OW17188   2.043   1.844   5.902  0.3007  0.4115  0.0229
 1910SOL    HW117189   1.963   1.826   5.951  0.0096  1.7064  0.0343
 1910SOL    HW217190   2.010   1.852   5.813  3.1046 -3.1251 -1.3261
 1911SOL     OW17191   1.676   4.081   4.015 -0.2870 -0.0383  0.6240
 1911SOL    HW117192   1.748   4.117   3.963 -0.6998  0.1998  0.2269
 1911SOL    HW217193   1.653   4.162   4.061 -2.8516  0.6633 -1.8933
 1912SOL     OW17194   4.263   3.219   5.114 -0.0560  0.0671 -0.0049
 1912SOL    HW117195   4.286   3.127   5.101 -1.0033 -0.0594 -0.7701
 1912SOL    HW217196   4.322   3.268   5.056 -1.0196  0.8912 -0.2840
 1913SOL     OW17197   3.355   1.268  11.509 -0.0530  0.2300 -0.0319
 1913SOL    HW117198   3.304   1.291  11.431 -1.6114 -0.0216  0.9279
 1913SOL    HW217199   3.325   1.179  11.528  0.6274 -0.4067 -1.8668
 1914SOL     OW17200   0.704   3.628   6.308 -0.1181 -0.6665  0.3758
 1914SOL    HW117201   0.616   3.647   6.338  0.7953  4.4468 -0.2203
 1914SOL    HW217202   0.743   3.597   6.390  0.6244 -0.0325  0.2662
 1915SOL     OW17203   3.048   2.852  13.248  0.0266 -0.2796 -0.0599
 1915SOL    HW117204   2.966   2.868  13.293  0.6831  1.6753  0.4606
 1915SOL    HW217205   3.033   2.841  13.155 -2.0937 -0.1604  0.2832
 1916SOL     OW17206   1.870   0.243   6.470 -0.0550  0.5539 -0.8903
 1916SOL    HW117207   1.835   0.313   6.414 -1.5406 -1.2802 -2.2409
 1916SOL    HW217208   1.964   0.253   6.454  0.1137  2.3903  1.3151
 1917SOL     OW17209   1.193   1.167  16.322  0.5843  0.0359  0.5923
 1917SOL    HW117210   1.124   1.227  16.350  0.4364  1.2465 -2.3017
 1917SOL    HW217211   1.265   1.223  16.292  0.0431  0.4207  0.0056
 1918SOL     OW17212   3.838   0.463   1.776 -0.3082 -0.1760  0.8890
 1918SOL    HW117213   3.913   0.488   1.830  2.1305 -2.4891 -1.4168
 1918SOL    HW217214   3.842   0.368   1.765 -2.0203 -0.0159 -1.0485
 1919SOL     OW17215   1.010   3.724  17.020  0.2180  0.4642  0.3240
 1919SOL    HW117216   0.993   3.631  17.036 -0.9518  0.4420 -1.0735
 1919SOL    HW217217   1.040   3.748  17.108 -0.5955  0.1211  0.6964
 1920SOL     OW17218   2.972   2.385   6.894 -0.2859 -0.1636  0.1412
 1920SOL    HW117219   2.986   2.291   6.905  0.3012 -0.0427  0.3899
 1920SOL    HW217220   2.881   2.393   6.865 -0.3688  1.3894  0.8384
 1921SOL     OW17221   1.005   4.575   1.194  0.5866  0.3087  0.2775
 1921SOL    HW117222   0.931   4.627   1.227 -1.6481 -0.4931 -3.4468
 1921SOL    HW217223   0.995   4.492   1.239  0.9201  1.8153  3.1151
 1922SOL     OW17224   4.577   1.734  16.471  0.4238 -0.7520 -0.0865
 1922SOL    HW117225   4.540   1.751  16.557 -0.1873 -1.1095 -0.2835
 1922SOL    HW217226   4.589   1.640  16.482  0.5181 -0.9106 -1.4878
 1923SOL     OW17227   4.215   0.642   8.859 -0.3055 -0.1476 -0.2323
 1923SOL    HW117228   4.260   0.567   8.897  0.1092 -0.1096 -0.6639
 1923SOL    HW217229   4.171   0.667   8.941  0.2143 -0.6959  0.2110
 1924SOL     OW17230   2.826   0.923   9.017  0.0456 -0.0381 -0.1077
 1924SOL    HW117231   2.738   0.907   9.052  0.3406 -1.8673 -0.1538
 1924SOL    HW217232   2.880   0.946   9.093  0.1080 -1.4465  0.2824
 1925SOL     OW17233   1.960   0.302   8.221 -0.3992 -0.1098  0.0587
 1925SOL    HW117234   1.974   0.270   8.310 -0.2537 -2.7068 -0.9090
 1925SOL    HW217235   2.041   0.283   8.174 -1.5849 -0.5701 -1.8115
 1926SOL     OW17236   4.494   2.946  13.327  0.4363 -0.4585 -0.2908
 1926SOL    HW117237   4.407   2.936  13.368 -0.0450 -2.9125 -1.8652
 1926SOL    HW217238   4.546   2.989  13.394 -0.1620 -1.5671  0.8868
 1927SOL     OW17239   0.936   2.754  11.349 -0.4338 -0.7746 -0.3592
 1927SOL    HW117240   0.925   2.697  11.425 -1.7587  1.1231  0.8478
 1927SOL    HW217241   1.026   2.734  11.323  0.5037  0.5030  1.9707
 1928SOL     OW17242   4.436   3.197   1.229  0.2913 -0.2178 -0.5327
 1928SOL    HW117243   4.374   3.153   1.288 -0.5551  0.1629 -1.1488
 1928SOL    HW217244   4.370   3.235   1.171 -0.6073  0.2471  0.8058
 1929SOL     OW17245   0.233   1.817   7.341  0.1644 -0.0530 -0.4568
 1929SOL    HW117246   0.298   1.747   7.335  0.0925 -0.2041  0.5553
 1929SOL    HW217247   0.190   1.794   7.423  1.5180 -0.3402  0.1697
 1930SOL     OW17248   1.138   4.506   4.405 -0.3757  0.4867  0.0743
 1930SOL    HW117249   1.219   4.466   4.370 -1.7682 -0.7109 -1.7866
 1930SOL    HW217250   1.128   4.580   4.345  0.9860 -0.4576 -1.3440
 1931SOL     OW17251   2.499   3.415   4.179 -0.1278 -0.5389  0.0396
 1931SOL    HW117252   2.497   3.510   4.166  1.3485 -0.5910 -0.5352
 1931SOL    HW217253   2.594   3.406   4.172 -0.0657  0.9421 -1.1188
 1932SOL     OW17254   0.994   0.228   4.338  0.8226 -0.3680 -0.8331
 1932SOL    HW117255   0.940   0.174   4.397 -0.4981  0.9143 -0.8624
 1932SOL    HW217256   1.062   0.162   4.326  0.6574 -1.4491  4.2496
 1933SOL     OW17257   1.846   0.195   2.101  0.0810 -0.3658  0.1328
 1933SOL    HW117258   1.845   0.121   2.161 -0.6861  1.3021  2.1946
 1933SOL    HW217259   1.940   0.207   2.087 -0.3163  0.2214 -2.1012
 1934SOL     OW17260   4.348   4.165  14.996 -0.2197 -0.0167  0.4194
 1934SOL    HW117261   4.438   4.147  14.968 -0.4181 -0.6094  0.1672
 1934SOL    HW217262   4.359   4.132  15.085  0.6180  0.5811  0.5423
 1935SOL     OW17263   0.059   0.495   1.915  0.0774 -0.0284 -0.2599
 1935SOL    HW117264   0.104   0.442   1.981  0.5515  1.3720  0.5530
 1935SOL    HW217265   4.704   0.444   1.912  1.4430 -2.0505 -2.2800
 1936SOL     OW17266   4.404   0.376   5.681 -0.2266  0.4158  0.1403
 1936SOL    HW117267   4.435   0.427   5.606  0.3737 -0.5629 -0.2809
 1936SOL    HW217268   4.328   0.333   5.643 -0.0308  0.2912 -0.1054
 1937SOL     OW17269   1.834   2.938   6.129  0.0622  0.2489  0.1819
 1937SOL    HW117270   1.865   2.877   6.062  2.9903  0.7191  1.1308
 1937SOL    HW217271   1.755   2.887   6.147  0.1416  0.1375  0.2153
 1938SOL     OW17272   3.187   1.762   9.316  0.3135  0.3636 -0.0488
 1938SOL    HW117273   3.233   1.806   9.388  0.8195  1.0760 -0.8080
 1938SOL    HW217274   3.096   1.780   9.339  0.7392  1.4082  0.8432
 1939SOL     OW17275   2.692   2.635   6.125  0.1725 -0.2495  0.1865
 1939SOL    HW117276   2.782   2.655   6.151  0.4973 -2.0383  0.4056
 1939SOL    HW217277   2.658   2.724   6.115 -0.1224 -0.2318  1.3627
 1940SOL     OW17278   2.495   1.917   3.515  0.2585 -0.1766  0.1409
 1940SOL    HW117279   2.427   1.855   3.539 -0.7203  0.9532  0.2538
 1940SOL    HW217280   2.456   2.004   3.524 -0.7083 -0.6219  0.2138
 1941SOL     OW17281   4.673   3.352  13.383  0.2773 -0.0170  0.0351
 1941SOL    HW117282   4.678   3.278  13.443 -2.6138 -3.0754 -3.4878
 1941SOL    HW217283   4.582   3.378  13.401  0.6469 -1.0472  3.2341
 1942SOL     OW17284   0.110   0.224   9.820  0.8470 -0.2378 -0.5884
 1942SOL    HW117285   0.204   0.223   9.832  0.7734 -1.1240 -0.1042
 1942SOL    HW217286   0.074   0.169   9.890  0.7750  3.1533  2.0408
 1943SOL     OW17287   1.871   2.225  15.349  0.3440  0.4815 -0.4871
 1943SOL    HW117288   1.878   2.290  15.419 -1.5109  0.5812 -0.3945
 1943SOL    HW217289   1.808   2.169  15.395 -1.4106  2.0096 -0.9876
 1944SOL     OW17290   4.229   3.577  17.155 -0.7624 -0.1207  0.3337
 1944SOL    HW117291   4.150   3.553  17.204 -2.1218  0.5817 -1.5361
 1944SOL    HW217292   4.285   3.511  17.196  0.3189 -2.8666 -5.5613
 1945SOL     OW17293   3.484   2.188  12.081 -0.5446  0.0909  0.4279
 1945SOL    HW117294   3.495   2.277  12.048 -1.9195  0.5227  1.1574
 1945SOL    HW217295   3.561   2.146  12.043 -0.8072  0.7654 -0.8405
 1946SOL     OW17296   0.457   0.332  12.905 -0.0670 -0.3276  0.2881
 1946SOL    HW117297   0.395   0.263  12.927  1.0153 -1.2239  0.5724
 1946SOL    HW217298   0.536   0.283  12.880 -1.4489 -1.6717 -1.4710
 1947SOL     OW17299   4.296   3.487   6.952  0.1851  0.2631 -0.5386
 1947SOL    HW117300   4.253   3.571   6.937  0.6811  0.2357 -2.0660
 1947SOL    HW217301   4.349   3.471   6.874  0.1478 -0.8067 -0.3471
 1948SOL     OW17302   3.432   1.014   4.099 -0.2831  0.3186  0.6687
 1948SOL    HW117303   3.342   0.987   4.118 -0.5923 -0.4346 -1.9936
 1948SOL    HW217304   3.473   0.952   4.040 -0.7419 -0.0834  0.7770
 1949SOL     OW17305   0.379   4.211  12.282  0.3377 -0.5196 -0.1302
 1949SOL    HW117306   0.418   4.255  12.357 -0.7504 -0.6165  0.4819
 1949SOL    HW217307   0.286   4.221  12.302  0.3544 -1.0626  0.2026
 1950SOL     OW17308   0.594   1.090  16.339  0.1249  0.1483  0.0280
 1950SOL    HW117309   0.512   1.139  16.350  0.8321  0.8963  1.8677
 1950SOL    HW217310   0.585   1.058  16.249  0.0261 -0.0142  0.0958
 1951SOL     OW17311   2.290   1.718   5.928 -0.3513 -0.5815 -0.0757
 1951SOL    HW117312   2.197   1.739   5.934 -0.7264 -2.1902 -0.4875
 1951SOL    HW217313   2.328   1.797   5.889 -0.0428 -0.9806 -0.5836
 1952SOL     OW17314   0.874   2.369   5.177  0.1012 -0.1314  0.3631
 1952SOL    HW117315   0.940   2.409   5.234  0.6236  0.4878 -0.6823
 1952SOL    HW217316   0.800   2.388   5.235  1.8561  1.0840  2.2083
 1953SOL     OW17317   2.573   2.934  14.796 -0.2779 -0.5261 -0.1801
 1953SOL    HW117318   2.655   2.980  14.815  1.4559 -3.7082 -0.0506
 1953SOL    HW217319   2.571   2.961  14.704  0.3587 -1.3336 -0.4283
 1954SOL     OW17320   0.894   4.372  15.663  0.3095  0.4889  0.3400
 1954SOL    HW117321   0.836   4.447  15.675 -0.9288 -0.4958  0.5112
 1954SOL    HW217322   0.868   4.329  15.745 -0.9459  0.1971 -0.1995
 1955SOL     OW17323   2.983   1.665  11.828  0.1068 -0.0709 -0.9647
 1955SOL    HW117324   3.043   1.610  11.776  0.2306 -1.7904  1.0218
 1955SOL    HW217325   2.898   1.630  11.801 -1.1828  2.1435  0.3217
 1956SOL     OW17326   4.359   3.635  14.299  0.7983 -0.5203  0.1063
 1956SOL    HW117327   4.351   3.568  14.367  0.0515 -0.3389  0.1946
 1956SOL    HW217328   4.426   3.692  14.336  2.5284 -2.6588  0.2953
 1957SOL     OW17329   2.379   2.283   3.396  0.6366  0.3205  0.2264
 1957SOL    HW117330   2.434   2.286   3.474 -0.3128 -0.9371  0.9254
 1957SOL    HW217331   2.410   2.368   3.363  0.8038  0.4056  0.6073
 1958SOL     OW17332   2.130   3.639   6.663  0.7587  0.1103  0.8462
 1958SOL    HW117333   2.223   3.663   6.666  0.2171  1.8925  3.6741
 1958SOL    HW217334   2.137   3.549   6.633 -0.4110 -0.1205  1.2868
 1959SOL     OW17335   1.624   1.603  16.844 -0.7302 -0.3306 -0.4961
 1959SOL    HW117336   1.714   1.619  16.817 -1.1085  2.3879 -0.1706
 1959SOL    HW217337   1.615   1.516  16.807 -0.1697 -0.3119 -0.6781
 1960SOL     OW17338   4.056   0.189  14.959 -0.0073  0.2082 -0.7242
 1960SOL    HW117339   4.151   0.176  14.955  0.0353 -0.9439  3.6686
 1960SOL    HW217340   4.049   0.256  14.892 -1.3667 -0.3528 -1.1551
 1961SOL     OW17341   0.918   2.757   4.377 -0.1014 -0.1070  0.6269
 1961SOL    HW117342   0.935   2.726   4.467 -0.8370 -0.5663  0.6031
 1961SOL    HW217343   0.953   2.688   4.321 -0.3202  0.5516 -0.3010
 1962SOL     OW17344   3.487   2.756   9.045  0.5574 -0.0587 -0.0234
 1962SOL    HW117345   3.450   2.703   9.116 -0.5849 -0.3905 -0.8642
 1962SOL    HW217346   3.564   2.798   9.083  1.1687 -2.5987  1.5495
 1963SOL     OW17347   1.978   4.713   3.671  0.5165 -0.3013  0.2666
 1963SOL    HW117348   2.035   4.638   3.688 -0.9836 -1.8228 -1.5719
 1963SOL    HW217349   1.954   4.701   3.579  1.0084 -1.3358  0.2712
 1964SOL     OW17350   1.616   0.472  17.553  0.1284 -0.5007  0.6887
 1964SOL    HW117351   1.663   0.535  17.608 -0.5112 -0.5926  1.3428
 1964SOL    HW217352   1.674   0.434  17.487 -0.2356 -1.3824  0.8761
 1965SOL     OW17353   0.734   3.683  12.465 -0.2856 -0.0209  0.3221
 1965SOL    HW117354   0.815   3.723  12.496  0.2998 -0.7077 -0.3264
 1965SOL    HW217355   0.693   3.680  12.551 -1.2572 -0.3334 -0.1481
 1966SOL     OW17356   3.451   2.139   4.701  0.4110 -0.0660  0.0208
 1966SOL    HW117357   3.447   2.219   4.753  2.2282  1.0007 -1.4459
 1966SOL    HW217358   3.468   2.073   4.768  1.4818  2.0300  1.8068
 1967SOL     OW17359   0.509   1.320   4.090 -0.1709  0.2545  0.3879
 1967SOL    HW117360   0.567   1.395   4.091  1.2421 -0.8420  0.8405
 1967SOL    HW217361   0.512   1.304   3.996 -0.6736 -0.7644  0.5337
 1968SOL     OW17362   2.347   0.851   4.882 -0.0960  0.0520 -0.3254
 1968SOL    HW117363   2.413   0.866   4.815  1.5063 -0.0072  1.2500
 1968SOL    HW217364   2.266   0.885   4.844 -1.7264 -1.1608  2.0157
 1969SOL     OW17365   3.244   2.385   5.192 -0.3976  0.0601  0.0768
 1969SOL    HW117366   3.333   2.389   5.157  0.5696 -1.4378  2.3567
 1969SOL    HW217367   3.266   2.354   5.280  1.7899 -2.2950 -1.3155
 1970SOL     OW17368   2.936   2.137   7.890  0.3015  0.6927  0.3533
 1970SOL    HW117369   3.015   2.183   7.863 -0.1369  1.1384 -0.1821
 1970SOL    HW217370   2.943   2.066   7.826 -3.2561 -1.5633  2.4762
 1971SOL     OW17371   2.529   1.578   3.376 -0.4651 -0.0438  0.0154
 1971SOL    HW117372   2.529   1.539   3.288 -2.0234  0.3786 -0.1733
 1971SOL    HW217373   2.491   1.658   3.341 -0.4046 -0.4053 -0.8851
 1972SOL     OW17374   0.431   3.289  16.137 -0.3270 -0.2581 -0.1217
 1972SOL    HW117375   0.379   3.213  16.165 -1.5650 -0.0562 -1.8628
 1972SOL    HW217376   0.515   3.251  16.112 -0.0964 -0.5547  1.0793
 1973SOL     OW17377   3.168   0.424   1.536  0.2606  0.7547  0.2753
 1973SOL    HW117378   3.099   0.459   1.592 -1.7339  1.3728 -2.5599
 1973SOL    HW217379   3.241   0.482   1.555  0.5876  0.4667 -0.1129
 1974SOL     OW17380   1.750   3.886   0.858 -0.5557 -0.0763 -0.2840
 1974SOL    HW117381   1.787   3.838   0.783 -0.5511  0.2268 -0.4748
 1974SOL    HW217382   1.662   3.897   0.821 -0.6815 -2.0180 -0.5940
 1975SOL     OW17383   1.586   4.385   6.674 -0.1290  0.1311  0.3785
 1975SOL    HW117384   1.589   4.295   6.704 -1.8124 -0.2125 -0.4952
 1975SOL    HW217385   1.603   4.373   6.580 -2.5310 -0.5781  0.0469
 1976SOL     OW17386   4.636   0.798   2.025 -0.5344 -0.0547  0.2975
 1976SOL    HW117387   4.621   0.892   2.012 -0.6452  0.1599  1.9119
 1976SOL    HW217388   0.005   0.795   2.009 -0.7691  2.0180 -1.4996
 1977SOL     OW17389   1.344   0.573   8.086 -0.2151 -0.2418  0.6020
 1977SOL    HW117390   1.436   0.547   8.093  0.4686  1.9939 -0.2189
 1977SOL    HW217391   1.347   0.570   7.990  0.1781  1.0736  0.5793
 1978SOL     OW17392   4.437   2.928   7.535  0.3454  0.0491 -0.3088
 1978SOL    HW117393   4.437   2.857   7.599  1.7702  2.7208  2.6579
 1978SOL    HW217394   4.408   3.004   7.586  0.4878  1.4300 -2.2795
 1979SOL     OW17395   2.777   1.821   5.874 -0.1205  0.3440 -0.0892
 1979SOL    HW117396   2.776   1.746   5.815 -0.6795 -0.9344  1.5320
 1979SOL    HW217397   2.726   1.884   5.825  1.4269  1.9875  0.3948
 1980SOL     OW17398   0.612   3.519   0.830 -0.0714 -0.0945  0.2084
 1980SOL    HW117399   0.697   3.478   0.843  0.5820 -0.0061 -3.6136
 1980SOL    HW217400   0.565   3.438   0.810 -2.7912  1.4855  0.1858
 1981SOL     OW17401   2.994   4.018   5.716  0.7413  0.3492 -0.3541
 1981SOL    HW117402   2.974   4.098   5.763  0.7699  0.6242 -0.8066
 1981SOL    HW217403   3.086   4.014   5.743  0.7417 -0.0076 -0.4058
 1982SOL     OW17404   3.834   3.223  15.334  0.0520 -0.3756 -0.3260
 1982SOL    HW117405   3.892   3.147  15.320  1.1822  0.1849  1.2344
 1982SOL    HW217406   3.784   3.175  15.401 -1.2237 -0.6838 -1.5129
 1983SOL     OW17407   1.844   0.590   5.844 -0.2733 -0.0340 -0.6726
 1983SOL    HW117408   1.764   0.636   5.819  0.6810  0.9835 -1.8697
 1983SOL    HW217409   1.841   0.520   5.779 -2.1877  1.2817 -1.9817
 1984SOL     OW17410   0.432   3.485   4.541 -0.1261 -0.2556 -0.1894
 1984SOL    HW117411   0.459   3.393   4.547  0.4738  0.0503  1.8630
 1984SOL    HW217412   0.517   3.525   4.561  0.7206 -2.0416 -0.1296
 1985SOL     OW17413   2.522   4.619   7.499 -0.7488 -0.7901  0.1712
 1985SOL    HW117414   2.601   4.567   7.483  0.1935  0.3672  1.1210
 1985SOL    HW217415   2.464   4.558   7.544  0.3358 -2.0479 -0.1269
 1986SOL     OW17416   2.944   1.562   2.159 -0.3254 -0.3318 -0.0588
 1986SOL    HW117417   2.997   1.583   2.082  1.2910  0.9096  1.3951
 1986SOL    HW217418   2.984   1.623   2.221  4.1704 -1.0141 -2.2668
 1987SOL     OW17419   1.327   1.428   7.144 -0.2322  0.6873 -0.0148
 1987SOL    HW117420   1.333   1.407   7.051  0.3621  1.8590 -0.2422
 1987SOL    HW217421   1.259   1.494   7.153 -0.5775  0.1294  1.5607
 1988SOL     OW17422   4.017   1.505   6.580 -0.1724  0.4933  0.0423
 1988SOL    HW117423   4.097   1.556   6.569 -0.7375  1.3349 -0.2381
 1988SOL    HW217424   4.055   1.419   6.566  0.6328  0.8924 -0.1985
 1989SOL     OW17425   2.379   2.517  16.283  0.1983 -0.1238 -0.0699
 1989SOL    HW117426   2.299   2.555  16.319  1.1921  1.2775  0.6379
 1989SOL    HW217427   2.337   2.446  16.234 -2.3728  1.5475 -0.3004
 1990SOL     OW17428   2.913   0.856   3.645 -0.4881 -0.2486 -0.0012
 1990SOL    HW117429   2.818   0.848   3.654 -0.6464  1.2177 -0.4441
 1990SOL    HW217430   2.923   0.949   3.624  1.4401 -0.1000  1.6348
 1991SOL     OW17431   0.772   2.122   5.417 -0.2404 -0.4504  0.1852
 1991SOL    HW117432   0.833   2.124   5.344 -0.5975 -4.1419 -0.2570
 1991SOL    HW217433   0.799   2.050   5.474  2.8045 -0.1375 -0.8632
 1992SOL     OW17434   1.489   3.028   1.410  0.2253 -0.0379 -0.0975
 1992SOL    HW117435   1.488   3.056   1.501 -0.9799  0.2400 -0.2012
 1992SOL    HW217436   1.442   2.945   1.415  1.4250 -0.5522  2.7759
 1993SOL     OW17437   4.347   0.411   3.458 -0.5087 -0.1109 -0.3029
 1993SOL    HW117438   4.265   0.378   3.495  0.2190 -2.3110 -0.6438
 1993SOL    HW217439   4.364   0.488   3.511  1.8092 -0.0897 -1.0625
 1994SOL     OW17440   0.748   0.436   1.949 -0.1436 -0.0647 -0.0460
 1994SOL    HW117441   0.740   0.364   1.887 -0.1659  0.2618 -0.4221
 1994SOL    HW217442   0.742   0.507   1.885  2.5931  1.0193  0.8803
 1995SOL     OW17443   2.870   0.986  11.429  0.6226 -0.4043 -0.1514
 1995SOL    HW117444   2.911   1.072  11.438  0.8217 -0.3440 -1.6299
 1995SOL    HW217445   2.782   1.003  11.396  0.3134  0.9210  1.3596
 1996SOL     OW17446   1.113   0.332   1.646 -0.4108  0.1167  0.3650
 1996SOL    HW117447   1.053   0.395   1.605  3.3695  1.3576 -3.2427
 1996SOL    HW217448   1.116   0.264   1.579  0.7367 -0.4544  0.9821
 1997SOL     OW17449   4.723   2.191   7.240  0.3599  0.3340  0.0327
 1997SOL    HW117450   4.717   2.221   7.330  1.4700  0.4035  0.0829
 1997SOL    HW217451   0.054   2.114   7.238 -0.7530 -0.5360  2.6463
 1998SOL     OW17452   2.094   0.796  13.622  0.1173 -0.1940  0.0953
 1998SOL    HW117453   2.058   0.753  13.545 -0.5090 -1.9548  1.3611
 1998SOL    HW217454   2.034   0.866  13.650 -2.5349 -1.5567 -2.1975
 1999SOL     OW17455   4.087   4.498  14.004  0.4797  0.2798  0.5929
 1999SOL    HW117456   4.162   4.542  14.045  1.5051  0.2072 -1.1747
 1999SOL    HW217457   4.013   4.550  14.037  2.0510  1.9754  1.4870
 2000SOL     OW17458   3.875   1.625   5.071 -0.1855  0.6148  0.2195
 2000SOL    HW117459   3.892   1.656   5.160  2.2509  0.0160 -0.0575
 2000SOL    HW217460   3.922   1.689   5.017 -0.1137  0.3355 -0.0504
 2001SOL     OW17461   1.064   3.827   5.982 -0.7656 -0.5073 -0.0081
 2001SOL    HW117462   1.140   3.826   5.924 -0.4243  1.2524  0.3965
 2001SOL    HW217463   0.996   3.883   5.943 -0.9450  1.3012  2.9168
 2002SOL     OW17464   3.222   3.605   8.090  0.1938  0.2405  1.0185
 2002SOL    HW117465   3.204   3.621   8.182  0.3099 -1.1323  1.2875
 2002SOL    HW217466   3.140   3.558   8.073  0.4763  0.3916 -0.8270
 2003SOL     OW17467   2.305   3.182   3.191 -0.0157 -0.5091 -0.8209
 2003SOL    HW117468   2.277   3.113   3.131  2.3547 -2.0885 -0.1089
 2003SOL    HW217469   2.268   3.264   3.157 -0.2738 -0.3869 -0.2434
 2004SOL     OW17470   4.218   1.816   2.589 -0.0741 -0.4022 -0.7911
 2004SOL    HW117471   4.264   1.899   2.588 -0.8973  0.0577 -0.0464
 2004SOL    HW217472   4.201   1.802   2.496  1.2958  0.3530 -1.1466
 2005SOL     OW17473   0.364   3.193   2.036 -0.0295  0.9703  0.1182
 2005SOL    HW117474   0.287   3.234   1.997  0.8096 -0.0875 -2.6274
 2005SOL    HW217475   0.416   3.271   2.057  2.4136 -0.2171 -1.4981
 2006SOL     OW17476   2.911   3.253  10.970  0.6722  0.2305 -0.1637
 2006SOL    HW117477   2.932   3.183  11.031 -1.2159 -1.5752 -1.5981
 2006SOL    HW217478   2.930   3.334  11.017  0.3838  1.3196 -1.9194
 2007SOL     OW17479   0.636   3.883   6.138  0.5329 -0.2480  0.5497
 2007SOL    HW117480   0.684   3.808   6.173  1.6774  0.4055  0.4213
 2007SOL    HW217481   0.610   3.937   6.212 -0.3028  0.1304 -0.0161
 2008SOL     OW17482   4.559   3.454  16.121  0.0686 -0.6277  0.0175
 2008SOL    HW117483   4.513   3.537  16.129  0.4623 -0.5455  1.4012
 2008SOL    HW217484   4.541   3.433  16.029 -0.2914 -1.1492  0.2138
 2009SOL     OW17485   4.222   2.051   4.992  0.4493  0.2313 -0.2317
 2009SOL    HW117486   4.159   2.033   5.062 -0.5610 -0.9560 -1.4648
 2009SOL    HW217487   4.301   2.016   5.033  0.5208 -2.0902 -2.3528
 2010SOL     OW17488   3.376   4.359  14.721 -0.3847  0.5816 -0.3312
 2010SOL    HW117489   3.331   4.299  14.662 -1.6366  0.7799  0.4284
 2010SOL    HW217490   3.376   4.316  14.807  0.1880  0.5346 -0.3541
 2011SOL     OW17491   2.900   2.769   8.932  0.0287  0.1008  0.0054
 2011SOL    HW117492   2.982   2.720   8.936  1.2706  2.0378 -1.5359
 2011SOL    HW217493   2.932   2.853   8.965  0.4328  0.9779 -2.6078
 2012SOL     OW17494   0.213   3.479  16.874 -0.3268  0.2906  0.2116
 2012SOL    HW117495   0.206   3.385  16.854  0.7187 -0.0534  1.4276
 2012SOL    HW217496   0.302   3.492  16.907 -1.2834  0.2284  2.8006
 2013SOL     OW17497   1.485   1.247   4.444  0.4798 -0.4604  0.4217
 2013SOL    HW117498   1.507   1.332   4.482  0.9211  0.8303 -2.7630
 2013SOL    HW217499   1.560   1.239   4.385 -0.2272  1.2531 -0.7042
 2014SOL     OW17500   2.281   3.993   6.043 -0.2169  1.3620 -0.1288
 2014SOL    HW117501   2.222   4.058   6.004 -3.4008 -1.7852 -0.5453
 2014SOL    HW217502   2.355   4.048   6.069  1.9633 -1.5975 -0.0662
 2015SOL     OW17503   1.490   4.725   7.390  0.4839 -0.1996 -0.1434
 2015SOL    HW117504   1.444   0.022   7.471  2.2170 -1.6567  1.2745
 2015SOL    HW217505   1.482   4.631   7.372  0.8172 -0.5999  1.7792
 2016SOL     OW17506   3.586   1.683   4.398 -0.3478  0.5640  0.3899
 2016SOL    HW117507   3.669   1.731   4.396 -0.1016  0.0812 -0.9315
 2016SOL    HW217508   3.623   1.619   4.459  0.4939  2.0676  1.4513
 2017SOL     OW17509   2.741   0.452   8.924  0.1524  0.3372  0.2373
 2017SOL    HW117510   2.744   0.470   9.018 -1.5608 -2.2336  0.7792
 2017SOL    HW217511   2.697   0.367   8.926 -1.4044  1.1330 -0.8545
 2018SOL     OW17512   1.402   1.101   0.911 -0.3601 -0.3192  0.0664
 2018SOL    HW117513   1.341   1.074   0.980  1.9968 -2.9956  1.1323
 2018SOL    HW217514   1.413   1.018   0.865  0.5658 -0.1859  0.0503
 2019SOL     OW17515   4.108   3.180   2.490  0.1100  0.1416  0.0678
 2019SOL    HW117516   4.104   3.176   2.394  1.1875 -0.1890  0.0295
 2019SOL    HW217517   4.016   3.173   2.515  0.0342 -0.0237 -0.2463
 2020SOL     OW17518   4.194   2.616  12.761 -0.4351  0.7348 -0.3141
 2020SOL    HW117519   4.270   2.576  12.804 -1.9355 -0.4991  1.2333
 2020SOL    HW217520   4.237   2.687  12.714 -0.6297 -0.3034 -2.0657
 2021SOL     OW17521   4.196   1.402   5.077  0.2978 -0.2900 -0.3595
 2021SOL    HW117522   4.145   1.426   5.000  0.3874 -0.9543 -0.6250
 2021SOL    HW217523   4.192   1.309   5.055  1.7485 -0.1023 -1.4890
 2022SOL     OW17524   0.253   0.324   0.691 -0.0452 -0.0367  0.0318
 2022SOL    HW117525   0.316   0.289   0.753  0.6768 -1.1272 -1.3068
 2022SOL    HW217526   0.263   0.419   0.700 -1.4047  0.1837 -0.7100
 2023SOL     OW17527   1.050   3.781  14.830 -0.3554 -0.0845  0.7627
 2023SOL    HW117528   1.049   3.817  14.742 -1.5027 -1.7845  0.0778
 2023SOL    HW217529   1.090   3.854  14.876  1.8435 -2.0322  1.9691
 2024SOL     OW17530   1.934   4.535   0.003 -0.5535  0.5482  0.3922
 2024SOL    HW117531   1.851   4.576   0.027 -0.4052  1.9016 -1.4173
 2024SOL    HW217532   1.914   4.442   0.013  1.1973  0.3412  1.9377
 2025SOL     OW17533   4.387   2.653   6.586  0.3579  0.4717  0.0396
 2025SOL    HW117534   4.463   2.657   6.644 -1.2631  0.4336  2.1690
 2025SOL    HW217535   4.323   2.690   6.647 -1.4357 -1.1360 -0.8718
 2026SOL     OW17536   2.051   2.119   3.564 -0.4813  0.4454 -0.3956
 2026SOL    HW117537   2.040   2.212   3.584 -2.2223  0.1498  0.0896
 2026SOL    HW217538   2.070   2.126   3.471 -2.4793  1.2010 -0.7580
 2027SOL     OW17539   4.114   2.503   0.423 -0.0690 -0.0096 -0.3819
 2027SOL    HW117540   4.198   2.463   0.402 -0.1788 -0.0637 -0.7120
 2027SOL    HW217541   4.104   2.482   0.516 -0.7039  4.7582  0.6453
 2028SOL     OW17542   0.246   3.117  13.033  0.2395  0.0234  0.9886
 2028SOL    HW117543   0.270   3.041  13.086 -0.0992  0.7398  2.1562
 2028SOL    HW217544   0.306   3.122  12.958 -2.0056 -0.7753 -0.8480
 2029SOL     OW17545   3.790   3.165   4.106  0.1490 -0.1952 -0.2581
 2029SOL    HW117546   3.749   3.133   4.026  1.5278 -1.4771 -0.4673
 2029SOL    HW217547   3.874   3.124   4.087  0.2895 -0.2228  0.4226
 2030SOL     OW17548   3.973   2.891   5.286  0.3064 -0.2285 -0.2450
 2030SOL    HW117549   3.980   2.845   5.202  1.5993 -1.5761  0.5794
 2030SOL    HW217550   4.003   2.979   5.262  0.5409 -0.0746  0.6145
 2031SOL     OW17551   2.587   1.515  10.648 -0.0450  0.3369 -0.2813
 2031SOL    HW117552   2.593   1.486  10.557  0.0144  0.3686 -0.2876
 2031SOL    HW217553   2.511   1.465  10.678 -1.8829  1.1455 -3.5897
 2032SOL     OW17554   1.100   1.844  11.691 -0.2746 -0.5434 -0.5268
 2032SOL    HW117555   1.153   1.765  11.680  0.4980 -0.1486  0.3513
 2032SOL    HW217556   1.047   1.830  11.613  0.3027  0.5585 -1.1219
 2033SOL     OW17557   3.809   0.395   7.253  0.2502  0.0319  0.5361
 2033SOL    HW117558   3.717   0.417   7.242 -0.6873 -3.2037  1.8243
 2033SOL    HW217559   3.847   0.473   7.213 -1.1150  0.1164 -0.5739
 2034SOL     OW17560   1.820   1.134   2.478 -0.2246  0.3222  0.0606
 2034SOL    HW117561   1.737   1.156   2.435  0.8008  0.1290 -2.0478
 2034SOL    HW217562   1.779   1.080   2.546 -2.0600  1.3070 -0.2729
 2035SOL     OW17563   0.361   0.826  15.970  0.0052  0.3587  0.4557
 2035SOL    HW117564   0.287   0.766  15.971 -0.1856  0.5690 -1.7578
 2035SOL    HW217565   0.320   0.884  16.034 -2.0111 -0.9890  0.4115
 2036SOL     OW17566   2.367   4.287  11.850  0.4942  0.0579 -0.0282
 2036SOL    HW117567   2.433   4.313  11.786 -0.7836  1.4913 -0.7670
 2036SOL    HW217568   2.296   4.339  11.812 -0.4536 -1.2513 -0.0512
 2037SOL     OW17569   3.078   1.409  15.152  0.1340 -0.0454 -0.2980
 2037SOL    HW117570   3.117   1.492  15.179 -2.0025  1.0378 -0.5541
 2037SOL    HW217571   3.148   1.352  15.184  0.6199 -0.2528 -1.7172
 2038SOL     OW17572   3.765   2.711  13.409  0.3229  0.0625 -0.3895
 2038SOL    HW117573   3.706   2.766  13.461 -0.2128 -0.4632 -0.4452
 2038SOL    HW217574   3.800   2.645  13.469  1.2861 -0.3674 -1.4270
 2039SOL     OW17575   0.218   3.655   8.506 -0.1980 -0.2206 -0.1266
 2039SOL    HW117576   0.282   3.684   8.571 -0.0616 -0.8456  0.0142
 2039SOL    HW217577   0.165   3.734   8.498 -1.5945 -1.1258  0.0858
 2040SOL     OW17578   1.032   3.000   1.393 -0.3803 -0.1920 -0.1274
 2040SOL    HW117579   0.992   2.951   1.465  0.4292  0.1013  0.5263
 2040SOL    HW217580   1.034   2.928   1.330  0.1683  1.8667 -2.4506
 2041SOL     OW17581   0.329   2.165   7.946  0.4901 -0.2721  0.3565
 2041SOL    HW117582   0.312   2.080   7.985 -1.2900 -0.5507 -0.9879
 2041SOL    HW217583   0.424   2.171   7.951  0.5042  1.7138 -2.1134
 2042SOL     OW17584   3.981   0.364   3.399  0.4677  0.0545 -0.3980
 2042SOL    HW117585   3.970   0.317   3.316 -3.2886  0.9800 -0.4424
 2042SOL    HW217586   3.996   0.454   3.371  2.7822 -0.2431 -0.0696
 2043SOL     OW17587   3.688   0.952   5.734  0.8520  0.3158  0.2033
 2043SOL    HW117588   3.732   0.935   5.817  0.0591 -1.6908  0.2100
 2043SOL    HW217589   3.753   1.004   5.686  0.1409  0.4530 -0.6003
 2044SOL     OW17590   3.619   4.474  14.951 -0.7370 -0.1162  0.1018
 2044SOL    HW117591   3.571   4.550  14.917 -1.3875 -1.0668 -1.0828
 2044SOL    HW217592   3.552   4.424  14.995  1.1510 -0.4730  2.5673
 2045SOL     OW17593   0.244   3.775   7.570  0.1947 -0.0253 -0.6039
 2045SOL    HW117594   0.292   3.699   7.603  1.4087  0.9824 -0.0751
 2045SOL    HW217595   0.161   3.772   7.618  1.6234 -0.4350  1.8672
 2046SOL     OW17596   0.695   1.445   2.505 -0.3411 -0.0001 -0.1584
 2046SOL    HW117597   0.635   1.489   2.565  0.2512  1.0626 -0.3447
 2046SOL    HW217598   0.761   1.513   2.489 -1.9363  1.4358 -0.5918
 2047SOL     OW17599   0.788   0.598   3.949  0.5995 -0.5128  0.3663
 2047SOL    HW117600   0.784   0.600   4.045 -1.1299 -0.6087  0.2925
 2047SOL    HW217601   0.878   0.622   3.926  0.2513  1.2486  0.8982
 2048SOL     OW17602   0.169   0.738   1.951 -0.2535  0.2410 -0.1214
 2048SOL    HW117603   0.131   0.652   1.935 -0.1521  0.1227  0.2929
 2048SOL    HW217604   0.261   0.711   1.952  0.7132  3.3945 -0.7423
 2049SOL     OW17605   2.365   4.570   4.055  0.4203  0.1514 -0.5602
 2049SOL    HW117606   2.417   4.581   3.975 -2.2977  1.6101 -2.1610
 2049SOL    HW217607   2.370   4.659   4.091  2.6335 -0.3925  0.4709
 2050SOL     OW17608   1.861   2.310   8.704  0.2974  0.0683  0.2646
 2050SOL    HW117609   1.922   2.284   8.635  0.3858  1.6040 -0.2301
 2050SOL    HW217610   1.899   2.264   8.780  2.8605  1.1667 -0.3428
 2051SOL     OW17611   2.828   1.048  12.030  0.2286 -0.2068  0.0773
 2051SOL    HW117612   2.874   1.130  12.014  0.6815 -0.5018 -0.1612
 2051SOL    HW217613   2.785   1.035  11.945  0.3493 -0.4634  0.0532
 2052SOL     OW17614   4.717   4.198  16.534  0.2850 -0.3966  0.2049
 2052SOL    HW117615   0.018   4.276  16.584 -0.1286 -0.9453  1.2905
 2052SOL    HW217616   4.634   4.219  16.492 -0.3591 -0.6632  1.3619
 2053SOL     OW17617   2.748   4.665  15.569  0.1526 -0.6776 -0.4604
 2053SOL    HW117618   2.818   4.607  15.599  0.2054  1.1893  3.1133
 2053SOL    HW217619   2.799   0.020  15.567 -1.1798  0.2475  2.4674
 2054SOL     OW17620   2.765   2.452   5.251  0.2054 -0.0063  0.4193
 2054SOL    HW117621   2.850   2.432   5.213  0.7805  0.4525  1.4680
 2054SOL    HW217622   2.775   2.424   5.342  0.4598 -2.0235 -0.2177
 2055SOL     OW17623   2.635   4.548  13.212 -0.7220  0.9069  0.2614
 2055SOL    HW117624   2.582   4.473  13.240 -0.4624  0.8171  0.5176
 2055SOL    HW217625   2.703   4.550  13.279 -0.0766  0.3838 -0.3712
 2056SOL     OW17626   4.170   3.137   4.753  1.1674 -0.1133 -0.1464
 2056SOL    HW117627   4.156   3.140   4.658 -0.3549 -1.9185  0.0103
 2056SOL    HW217628   4.248   3.082   4.752  0.1654 -1.4919 -1.8138
 2057SOL     OW17629   0.030   1.911   6.495 -0.0488 -0.3394 -0.2144
 2057SOL    HW117630   0.104   1.967   6.518 -0.0477 -0.3184 -0.2685
 2057SOL    HW217631   0.080   1.839   6.456  0.6422  1.1048 -2.0456
 2058SOL     OW17632   2.725   1.192   8.839 -0.4378  0.2260 -0.0319
 2058SOL    HW117633   2.779   1.247   8.896 -0.5898  0.5069 -0.1575
 2058SOL    HW217634   2.713   1.116   8.896  0.2103  1.6144  1.9676
 2059SOL     OW17635   3.413   3.387   1.376  0.4717  0.4789  0.1531
 2059SOL    HW117636   3.477   3.457   1.362  0.4129 -0.0536 -2.8888
 2059SOL    HW217637   3.333   3.438   1.360  1.0252  1.3579  0.1914
 2060SOL     OW17638   2.526   1.244   6.234 -0.5012 -0.4526  0.2150
 2060SOL    HW117639   2.610   1.247   6.281 -0.1075 -0.0257 -0.5100
 2060SOL    HW217640   2.511   1.150   6.239  0.0130 -0.7111 -2.7410
 2061SOL     OW17641   3.061   1.235  11.163 -0.3937  0.2709 -0.8187
 2061SOL    HW117642   3.035   1.214  11.253  1.2546  0.4602 -0.3021
 2061SOL    HW217643   3.010   1.316  11.156  0.8717  1.0163 -1.4237
 2062SOL     OW17644   0.411   0.843   3.487  0.5481  0.6505  0.6585
 2062SOL    HW117645   0.395   0.892   3.406 -0.3274  0.4967  0.7432
 2062SOL    HW217646   0.481   0.785   3.456  2.4946  2.6000  1.3687
 2063SOL     OW17647   1.619   2.491  14.870 -0.7043 -0.5749 -0.0372
 2063SOL    HW117648   1.652   2.573  14.906  0.0631  0.4687 -3.1281
 2063SOL    HW217649   1.553   2.465  14.934 -1.6284  0.3907 -0.6142
 2064SOL     OW17650   0.758   1.811  11.996 -0.0708  0.3427 -0.8132
 2064SOL    HW117651   0.737   1.896  11.958  1.7826 -0.0657 -2.7977
 2064SOL    HW217652   0.852   1.825  12.008 -0.4340  2.5445 -0.5560
 2065SOL     OW17653   4.709   1.447   5.057  0.0839 -0.2166  0.7373
 2065SOL    HW117654   4.665   1.364   5.076 -0.9090  0.7704  2.7429
 2065SOL    HW217655   4.631   1.492   5.027  1.3925  0.6164 -1.4133
 2066SOL     OW17656   3.564   2.974   0.526  0.2206  0.0366 -0.3428
 2066SOL    HW117657   3.595   2.987   0.437  1.8989 -2.2590 -0.0889
 2066SOL    HW217658   3.625   2.912   0.568  0.0780 -0.9100 -1.5531
 2067SOL     OW17659   0.759   1.205  10.971 -0.3683  0.4597 -0.4105
 2067SOL    HW117660   0.789   1.239  10.887 -0.7698  0.1244 -0.6964
 2067SOL    HW217661   0.735   1.284  11.019  1.8554  0.2292  1.0590
 2068SOL     OW17662   4.413   1.606  13.742  0.2931  0.3864 -0.2822
 2068SOL    HW117663   4.470   1.645  13.675  1.5760 -1.6197 -0.3486
 2068SOL    HW217664   4.399   1.691  13.783 -0.0218 -1.1037  2.7174
 2069SOL     OW17665   1.800   4.130  13.041 -0.4294  0.7081  0.2720
 2069SOL    HW117666   1.871   4.072  13.068 -0.7300 -0.2342 -0.9818
 2069SOL    HW217667   1.804   4.205  13.100  0.0376  1.8879 -1.2584
 2070SOL     OW17668   1.181   0.338   8.368  0.2043  0.3572  0.4208
 2070SOL    HW117669   1.133   0.403   8.420 -1.7834 -1.2554  0.6064
 2070SOL    HW217670   1.111   0.273   8.357  0.9809 -0.5268  0.6694
 2071SOL     OW17671   1.397   0.940  14.766  0.2641 -0.0754  0.1812
 2071SOL    HW117672   1.379   0.955  14.859  1.2653  0.5292  0.2739
 2071SOL    HW217673   1.478   0.986  14.746 -1.3112  2.5777 -0.0078
 2072SOL     OW17674   2.227   3.929   1.722  0.1266 -0.0669 -1.0369
 2072SOL    HW117675   2.263   3.859   1.666 -2.5629 -1.6057 -0.8398
 2072SOL    HW217676   2.178   3.880   1.787  1.1234  1.6104  0.9627
 2073SOL     OW17677   2.298   0.920   0.671  0.3040  0.3258 -0.2374
 2073SOL    HW117678   2.232   0.854   0.689  1.6472 -0.6060  1.2632
 2073SOL    HW217679   2.362   0.860   0.634  0.0326  0.3419 -0.7242
 2074SOL     OW17680   1.317   1.260   3.544 -0.3491  0.2116  0.4273
 2074SOL    HW117681   1.340   1.325   3.611 -0.2816  1.4048 -0.7603
 2074SOL    HW217682   1.228   1.237   3.568 -0.5684  0.1592 -0.4262
 2075SOL     OW17683   1.096   2.496   3.198  0.0802  0.4149  0.1349
 2075SOL    HW117684   1.091   2.573   3.254 -3.2316  2.8944 -3.5969
 2075SOL    HW217685   1.174   2.510   3.144  0.6041  1.0140  1.0546
 2076SOL     OW17686   4.632   0.353   3.041 -0.1348 -0.4486 -0.1577
 2076SOL    HW117687   4.536   0.350   3.045 -0.2617 -0.1111 -3.0834
 2076SOL    HW217688   4.648   0.393   3.126 -0.3674 -1.0636  0.1790
 2077SOL     OW17689   3.702   1.819   4.876 -0.2322 -0.1837  0.2337
 2077SOL    HW117690   3.734   1.868   4.800 -0.4029  1.6346  1.3388
 2077SOL    HW217691   3.783   1.812   4.925 -0.7888 -2.4442  0.7995
 2078SOL     OW17692   4.574   1.211   4.537  0.5795  0.8141 -0.3644
 2078SOL    HW117693   4.502   1.208   4.474  1.0513 -2.5461 -0.7365
 2078SOL    HW217694   4.628   1.280   4.499  0.0897  0.4993 -1.6454
 2079SOL     OW17695   3.517   1.728   5.416  0.0786  0.5561  0.1887
 2079SOL    HW117696   3.579   1.757   5.349  1.6683  0.4364  1.6296
 2079SOL    HW217697   3.469   1.664   5.362 -0.0771 -0.1311  1.1510
 2080SOL     OW17698   2.733   0.812   8.124  0.0908  0.0555 -0.4062
 2080SOL    HW117699   2.705   0.903   8.136  0.1597  0.1433 -0.9120
 2080SOL    HW217700   2.824   0.829   8.097 -0.0345  1.3614 -0.0022
 2081SOL     OW17701   2.789   2.701  15.172  0.2271 -0.0080 -0.1908
 2081SOL    HW117702   2.712   2.677  15.223 -0.1958 -0.0794 -0.8696
 2081SOL    HW217703   2.796   2.636  15.102 -1.1547 -0.5041  0.1321
 2082SOL     OW17704   0.540   0.906   3.111 -0.6208 -0.1644 -0.1960
 2082SOL    HW117705   0.472   0.925   3.176 -1.1069  0.4015 -0.8596
 2082SOL    HW217706   0.614   0.959   3.141  0.9833 -2.1621 -0.6626
 2083SOL     OW17707   0.180   4.472   3.040  0.2413  0.6380 -0.2791
 2083SOL    HW117708   0.217   4.409   2.979 -1.3242 -0.3271 -0.2383
 2083SOL    HW217709   0.257   4.524   3.064 -0.7011 -0.1119  4.3078
 2084SOL     OW17710   1.799   2.736  16.396  0.4322 -0.1724 -0.0939
 2084SOL    HW117711   1.719   2.790  16.402  1.3671  1.2799 -0.6316
 2084SOL    HW217712   1.751   2.658  16.425 -0.0003  0.0852 -0.1087
 2085SOL     OW17713   3.739   3.436   7.812  0.3371  0.6169  0.1993
 2085SOL    HW117714   3.655   3.481   7.816  0.9623  1.7973 -0.1620
 2085SOL    HW217715   3.713   3.344   7.808  1.3380  0.2946  1.0590
 2086SOL     OW17716   2.913   2.164   4.268 -0.0901  0.2262 -0.2144
 2086SOL    HW117717   2.854   2.236   4.246 -0.7633 -0.2603  0.0110
 2086SOL    HW217718   2.837   2.108   4.279 -0.2596  0.1551 -1.8264
 2087SOL     OW17719   2.039   3.053   1.109  0.4283 -0.0205  0.8729
 2087SOL    HW117720   2.024   3.112   1.183 -0.1877 -1.6569  2.0530
 2087SOL    HW217721   2.122   3.086   1.076  0.4280  0.6690  1.5735
 2088SOL     OW17722   4.084   0.936   4.541 -0.0929  0.2785 -0.1930
 2088SOL    HW117723   4.158   0.893   4.584  0.9288  0.5875 -1.6407
 2088SOL    HW217724   4.012   0.896   4.590  1.3287  0.1470  1.7730
 2089SOL     OW17725   1.989   1.939   4.914  0.2559 -0.4222 -0.4004
 2089SOL    HW117726   2.010   2.027   4.944  0.1666 -0.1630 -1.0864
 2089SOL    HW217727   2.071   1.915   4.871  0.5564  0.3082 -0.2403
 2090SOL     OW17728   3.864   3.776  11.610  0.3505 -0.3243  0.1424
 2090SOL    HW117729   3.942   3.735  11.573 -0.7241 -0.3239 -2.1308
 2090SOL    HW217730   3.815   3.787  11.529 -0.6277 -1.1440  0.6255
 2091SOL     OW17731   0.814   0.423   9.050  0.0114  0.3540  0.1727
 2091SOL    HW117732   0.733   0.414   9.099 -0.6891  1.4214 -0.7776
 2091SOL    HW217733   0.810   0.511   9.011  1.2179  1.1051  1.7604
 2092SOL     OW17734   2.987   1.565   8.690  0.5264  0.3109  0.1661
 2092SOL    HW117735   3.080   1.578   8.713  0.5004 -1.1760  1.1105
 2092SOL    HW217736   2.991   1.524   8.604 -1.0233 -2.7563  1.5633
 2093SOL     OW17737   3.846   0.038  16.933  0.4641  0.1403 -0.2348
 2093SOL    HW117738   3.779   0.087  16.886 -1.4032 -1.3540  0.8308
 2093SOL    HW217739   3.912   0.104  16.952  0.0995 -0.8120  4.4741
 2094SOL     OW17740   4.700   3.068   8.692 -0.1855  0.0753  0.0295
 2094SOL    HW117741   4.705   3.109   8.606  2.6081 -2.4241 -1.0038
 2094SOL    HW217742   4.637   3.121   8.741 -0.9816 -1.0649  0.2506
 2095SOL     OW17743   1.650   2.078   7.622 -0.3021 -0.3595  0.3479
 2095SOL    HW117744   1.691   2.025   7.554 -2.0883 -0.7570 -0.4247
 2095SOL    HW217745   1.714   2.071   7.692  1.2297  0.4326 -0.9600
 2096SOL     OW17746   4.007   0.131  10.250  0.3368 -0.0209  0.0466
 2096SOL    HW117747   3.949   0.103  10.178 -0.2635  0.2794  0.4159
 2096SOL    HW217748   4.092   0.127  10.206  2.0276 -0.3853  3.3442
 2097SOL     OW17749   3.877   4.182   4.978 -0.1166 -0.3253  0.2698
 2097SOL    HW117750   3.908   4.126   5.049  0.6623  0.1286  0.2873
 2097SOL    HW217751   3.941   4.253   4.972  0.1899 -0.5819  0.5402
 2098SOL     OW17752   1.375   0.139   2.866 -0.5027 -0.5298  0.0324
 2098SOL    HW117753   1.336   0.074   2.924  0.1264 -0.0855  0.9497
 2098SOL    HW217754   1.463   0.126   2.901 -0.2494  2.0989  0.3808
 2099SOL     OW17755   1.762   0.831   2.992  0.0372 -0.2482  0.0864
 2099SOL    HW117756   1.746   0.818   2.898 -1.5309  1.0508  0.1715
 2099SOL    HW217757   1.693   0.780   3.034  0.5680  0.2589  1.5913
 2100SOL     OW17758   0.328   0.708  10.826 -0.2018  0.1900  0.6906
 2100SOL    HW117759   0.257   0.658  10.866  0.4175 -0.5983  0.8140
 2100SOL    HW217760   0.402   0.665  10.870  0.2126 -0.8829 -1.0540
 2101SOL     OW17761   4.072   3.231  12.949 -0.4175 -0.0320 -0.3889
 2101SOL    HW117762   4.147   3.287  12.934  0.2631 -1.1701 -1.2610
 2101SOL    HW217763   4.093   3.195  13.036  0.6501  0.5042 -0.4237
 2102SOL     OW17764   4.523   1.261   5.131 -0.2260 -0.1756  0.4566
 2102SOL    HW117765   4.459   1.258   5.203 -1.3055  1.3824 -0.4275
 2102SOL    HW217766   4.474   1.213   5.065  0.7885  0.0438 -0.4440
 2103SOL     OW17767   0.362   2.616   8.776 -0.7157 -0.7534 -0.0496
 2103SOL    HW117768   0.420   2.567   8.834  0.5020  1.1525  0.3599
 2103SOL    HW217769   0.274   2.581   8.792 -0.2123 -2.0815 -0.1872
 2104SOL     OW17770   0.146   3.355   5.675  0.3291  0.5708 -0.8247
 2104SOL    HW117771   0.183   3.384   5.758 -1.4728 -0.7351  0.4437
 2104SOL    HW217772   0.216   3.377   5.614  1.4644 -1.0812 -0.0844
 2105SOL     OW17773   4.489   1.623  14.355  0.1116  0.2965 -0.2283
 2105SOL    HW117774   4.461   1.630  14.264 -0.4998  1.4897  0.0570
 2105SOL    HW217775   4.507   1.529  14.352  1.7030  0.6597 -1.5395
 2106SOL     OW17776   4.034   2.396   3.021  0.5879  0.1241 -0.1174
 2106SOL    HW117777   4.067   2.309   3.043  0.8427  0.1556 -0.3721
 2106SOL    HW217778   4.001   2.427   3.105 -0.3883 -1.8998  0.2571
 2107SOL     OW17779   1.731   1.385   4.629 -0.1771 -0.3156  0.0101
 2107SOL    HW117780   1.799   1.318   4.623  0.9158  0.5665  2.6239
 2107SOL    HW217781   1.696   1.390   4.718  0.5460  1.1734  0.2117
 2108SOL     OW17782   4.221   0.442   6.763 -0.4038  0.2775 -0.3067
 2108SOL    HW117783   4.243   0.352   6.788 -0.3718  0.3810  0.0484
 2108SOL    HW217784   4.151   0.432   6.700  0.8434  0.3578 -1.6961
 2109SOL     OW17785   2.481   0.840  14.293 -0.7907  0.5816 -0.9844
 2109SOL    HW117786   2.420   0.910  14.314 -0.8729  0.9869 -2.5763
 2109SOL    HW217787   2.438   0.785  14.227 -1.1131  0.2352 -0.4807
 2110SOL     OW17788   3.881   4.427  15.172  0.1157  0.2045 -0.1747
 2110SOL    HW117789   3.973   4.401  15.180  0.1752  1.0387  1.8281
 2110SOL    HW217790   3.843   4.345  15.139 -0.3555  0.6273 -0.6881
 2111SOL     OW17791   1.360   2.798   1.398 -0.5855  0.0739 -0.2088
 2111SOL    HW117792   1.313   2.767   1.475 -1.9668  2.5462 -0.0259
 2111SOL    HW217793   1.389   2.715   1.362 -1.9763 -0.4067 -0.2456
 2112SOL     OW17794   3.336   1.747   6.327 -0.1855 -0.0075  0.0502
 2112SOL    HW117795   3.378   1.802   6.261 -2.4740  0.4890 -0.9780
 2112SOL    HW217796   3.402   1.699   6.378  0.0930 -0.0496 -0.3525
 2113SOL     OW17797   3.202   0.860   2.372  0.0589 -0.2384 -0.7296
 2113SOL    HW117798   3.176   0.787   2.427 -0.8803  0.1276 -0.6813
 2113SOL    HW217799   3.284   0.880   2.416 -0.6589  0.7412  0.1611
 2114SOL     OW17800   3.225   1.329  12.962  0.0635 -0.1968 -0.0676
 2114SOL    HW117801   3.266   1.269  12.900 -0.0703 -0.7082  0.3481
 2114SOL    HW217802   3.293   1.317  13.027  0.9823 -2.9192 -1.5132
 2115SOL     OW17803   3.031   4.045   8.661 -0.1454 -0.5121  0.1559
 2115SOL    HW117804   3.119   4.010   8.676 -0.7982 -2.6574 -0.9518
 2115SOL    HW217805   3.029   4.100   8.738 -2.6664 -0.4443  0.0542
 2116SOL     OW17806   1.786   3.128  16.026  0.3311 -0.0042 -0.3394
 2116SOL    HW117807   1.753   3.154  16.112 -1.7729  3.6212 -2.2360
 2116SOL    HW217808   1.774   3.213  15.984  0.1860  0.3126  0.3494
 2117SOL     OW17809   2.124   3.726  13.721 -0.2047  0.0600 -0.0944
 2117SOL    HW117810   2.198   3.696  13.774  0.9640  2.4801 -0.3407
 2117SOL    HW217811   2.140   3.664  13.650 -0.5835 -0.6854  0.4664
 2118SOL     OW17812   3.469   3.903   2.458  0.1051  0.2970  0.1563
 2118SOL    HW117813   3.435   3.814   2.452 -0.6244  0.5844  0.0916
 2118SOL    HW217814   3.559   3.891   2.488  0.1472 -0.8147 -0.4194
 2119SOL     OW17815   2.440   4.540   3.479  0.0631  0.4578 -0.8265
 2119SOL    HW117816   2.485   4.593   3.415 -0.9907 -0.1883 -2.1061
 2119SOL    HW217817   2.509   4.484   3.514  0.4060  0.7695 -1.0151
 2120SOL     OW17818   0.910   2.784   5.085 -0.2118 -0.6242  0.0630
 2120SOL    HW117819   0.967   2.826   5.149 -0.8923  1.1377 -0.4810
 2120SOL    HW217820   0.872   2.867   5.056  1.4483 -0.4711 -1.6398
 2121SOL     OW17821   3.280   2.714   7.337 -0.2726 -0.1653  0.3818
 2121SOL    HW117822   3.346   2.646   7.330 -1.5466 -1.5411  1.7391
 2121SOL    HW217823   3.249   2.714   7.246 -0.2590  0.3526  0.3760
 2122SOL     OW17824   2.164   1.948  14.225 -0.0256 -0.1701 -1.1278
 2122SOL    HW117825   2.072   1.923  14.217 -0.4266  0.7906  0.5941
 2122SOL    HW217826   2.180   1.941  14.319 -0.6589  1.6970 -0.8771
 2123SOL     OW17827   1.305   4.553   9.533 -0.7515 -0.3367 -0.2556
 2123SOL    HW117828   1.272   4.572   9.445  0.6796  1.5558 -0.3960
 2123SOL    HW217829   1.236   4.500   9.571  0.4554 -0.7190  1.4007
 2124SOL     OW17830   4.102   0.312   7.067 -0.7166  0.3055  0.1507
 2124SOL    HW117831   4.022   0.276   7.029 -0.4251  0.6700 -0.7978
 2124SOL    HW217832   4.172   0.280   7.010 -0.2337  2.5020 -0.4899
 2125SOL     OW17833   1.841   1.091  13.207  0.0891 -0.5886  0.1463
 2125SOL    HW117834   1.838   1.049  13.121  0.8476  0.0344 -0.1779
 2125SOL    HW217835   1.758   1.052  13.233  1.2874 -2.7089  0.7353
 2126SOL     OW17836   3.167   4.691   2.933 -0.2684  0.1146  0.0422
 2126SOL    HW117837   3.093   4.647   2.891  1.5650 -4.0930  1.2448
 2126SOL    HW217838   3.244   4.646   2.897 -0.1136 -0.1079  0.6341
 2127SOL     OW17839   0.037   2.023   7.709 -0.3068 -0.2360 -0.6632
 2127SOL    HW117840   0.063   2.113   7.688 -0.2949 -0.4564 -1.5783
 2127SOL    HW217841   0.015   2.041   7.800  0.5465 -1.5901 -0.1812
 2128SOL     OW17842   4.045   4.329   7.300 -0.5729 -0.1372 -0.0062
 2128SOL    HW117843   4.101   4.407   7.304  0.2479 -0.7365  0.1541
 2128SOL    HW217844   4.021   4.315   7.392 -0.0497  0.2309  0.1855
 2129SOL     OW17845   2.051   3.955   3.121  0.1936 -0.1642  0.2212
 2129SOL    HW117846   1.976   3.977   3.176  0.8695  0.1908  1.0014
 2129SOL    HW217847   2.020   4.016   3.053  2.3237 -1.7565 -2.1629
 2130SOL     OW17848   4.710   0.194   4.608  0.0407 -0.0233  0.3265
 2130SOL    HW117849   0.053   0.229   4.663 -2.1321  1.2310  2.2571
 2130SOL    HW217850   4.651   0.269   4.601  0.4185  0.2748  0.3509
 2131SOL     OW17851   4.722   0.875   6.641 -0.4703  0.9832  0.3844
 2131SOL    HW117852   4.722   0.799   6.698 -2.7006  0.9308  0.2912
 2131SOL    HW217853   4.687   0.942   6.699  1.5441  2.3082  0.0843
 2132SOL     OW17854   3.595   1.158   4.787 -0.1948  0.0435  0.0667
 2132SOL    HW117855   3.652   1.133   4.715 -1.1949 -2.1342  0.0294
 2132SOL    HW217856   3.602   1.084   4.848 -1.7395  1.4683  1.9881
 2133SOL     OW17857   3.013   4.168   6.390  0.3410 -0.3100  0.1472
 2133SOL    HW117858   3.000   4.228   6.316  1.7589 -2.4525 -1.8595
 2133SOL    HW217859   2.975   4.224   6.458 -0.0549 -0.4087  0.0049
 2134SOL     OW17860   1.102   2.482   4.074 -0.1130  0.1475  0.0122
 2134SOL    HW117861   1.144   2.458   3.991  0.5067 -0.4269  0.4955
 2134SOL    HW217862   1.024   2.427   4.078  0.0246  0.0065  0.6396
 2135SOL     OW17863   3.302   1.158   8.429 -0.8734 -0.6558  0.0634
 2135SOL    HW117864   3.364   1.185   8.497 -0.6351 -0.2579 -0.3134
 2135SOL    HW217865   3.220   1.133   8.472 -1.3660  2.3909  0.8781
 2136SOL     OW17866   3.978   3.840   3.770 -0.1418  0.1235  0.1286
 2136SOL    HW117867   4.044   3.899   3.807 -0.6871  1.3738 -0.9041
 2136SOL    HW217868   4.018   3.853   3.684 -1.2440  1.0740 -0.2253
 2137SOL     OW17869   3.468   0.728   7.787 -0.0295  0.0181 -0.1942
 2137SOL    HW117870   3.453   0.676   7.709  1.2308  1.0400 -1.1161
 2137SOL    HW217871   3.439   0.664   7.851  1.7543  0.7888  1.4020
 2138SOL     OW17872   1.118   4.098  11.004  0.7313 -0.0815 -0.0291
 2138SOL    HW117873   1.051   4.104  10.935  0.8402 -1.3148 -0.2417
 2138SOL    HW217874   1.195   4.098  10.948  0.0074 -0.1216 -1.0315
 2139SOL     OW17875   2.996   0.905   8.131 -0.1409 -0.0637 -0.2583
 2139SOL    HW117876   3.063   0.839   8.149 -0.6390  0.2092  2.5518
 2139SOL    HW217877   3.049   0.945   8.062  0.6504  1.5302  1.2929
 2140SOL     OW17878   2.278   3.084   7.876 -0.1553  0.1640 -0.3710
 2140SOL    HW117879   2.323   3.022   7.819  0.7267  0.6691 -0.2133
 2140SOL    HW217880   2.186   3.060   7.860  0.0549 -1.0266  0.1951
 2141SOL     OW17881   3.181   3.090   1.897  0.2744 -0.3356 -0.1473
 2141SOL    HW117882   3.192   3.010   1.948 -2.2649  0.5401  1.8265
 2141SOL    HW217883   3.272   3.116   1.888 -0.5189  3.8806  3.8392
 2142SOL     OW17884   1.018   0.246   4.983  0.3381  0.4567  0.3667
 2142SOL    HW117885   1.094   0.235   4.926  0.1482 -0.3937  0.2769
 2142SOL    HW217886   1.046   0.312   5.047  1.7003 -1.4539  1.7297
 2143SOL     OW17887   0.227   3.600  15.307  0.1091  0.4669  0.4281
 2143SOL    HW117888   0.135   3.600  15.283  0.8197 -1.0447 -2.3247
 2143SOL    HW217889   0.267   3.607  15.220 -0.6867 -0.2630  0.0044
 2144SOL     OW17890   2.494   3.813  14.315 -0.6674 -0.1230  0.0572
 2144SOL    HW117891   2.571   3.768  14.282  0.3414  0.3996  1.7164
 2144SOL    HW217892   2.431   3.749  14.349 -2.6114  0.9116 -1.5581
 2145SOL     OW17893   4.460   3.254   8.776  0.2539  0.7009 -0.7219
 2145SOL    HW117894   4.413   3.325   8.732 -0.6674 -0.8223 -2.2216
 2145SOL    HW217895   4.394   3.198   8.815 -1.2941  1.4497 -2.2545
 2146SOL     OW17896   4.206   0.390  12.815 -0.7883 -0.5566  0.0775
 2146SOL    HW117897   4.223   0.481  12.788 -0.1847 -1.3271 -2.2037
 2146SOL    HW217898   4.118   0.369  12.785 -0.7419 -1.6042  0.7132
 2147SOL     OW17899   3.506   0.122   6.477 -0.0077  0.2015 -0.3808
 2147SOL    HW117900   3.541   0.205   6.442 -0.4480  1.3617  1.9340
 2147SOL    HW217901   3.537   0.061   6.410  1.1432  0.5406 -0.1712
 2148SOL     OW17902   0.751   1.960   8.583  0.1411 -0.1626  0.7824
 2148SOL    HW117903   0.782   2.038   8.537  1.1469 -0.7061  0.5391
 2148SOL    HW217904   0.785   1.972   8.671 -0.5465 -2.2231  1.3099
 2149SOL     OW17905   0.604   3.215  12.679 -0.1951  0.1082 -0.1944
 2149SOL    HW117906   0.556   3.296  12.694  0.3844  0.4623 -0.2363
 2149SOL    HW217907   0.532   3.154  12.692  0.4814 -0.2614  1.8999
 2150SOL     OW17908   1.106   0.005   4.259 -0.3768  0.3229  0.1516
 2150SOL    HW117909   1.179   4.690   4.213  0.6890  0.4475  1.7263
 2150SOL    HW217910   1.052   0.015   4.181 -0.2311  0.9408  0.1349
 2151SOL     OW17911   2.382   2.736   9.174 -0.6822 -0.5204 -0.0659
 2151SOL    HW117912   2.343   2.767   9.092 -2.5946  0.8167  1.3379
 2151SOL    HW217913   2.377   2.819   9.221  1.3567  1.5281 -3.4995
 2152SOL     OW17914   1.424   1.126  16.872 -0.4674 -0.0195  0.0224
 2152SOL    HW117915   1.352   1.152  16.814  1.4217 -0.7795 -2.6598
 2152SOL    HW217916   1.502   1.151  16.822  0.8104 -0.4640  1.7993
 2153SOL     OW17917   4.165   3.673   1.922  0.3666 -0.3186  0.1610
 2153SOL    HW117918   4.126   3.586   1.914  0.1741 -0.1979 -0.2176
 2153SOL    HW217919   4.147   3.706   1.834  1.3942  0.9387  0.4245
 2154SOL     OW17920   1.442   0.702   7.196  0.3180  0.4082 -0.6522
 2154SOL    HW117921   1.373   0.643   7.165  0.6289 -0.0877 -0.4190
 2154SOL    HW217922   1.503   0.638   7.232 -2.0663 -1.6000 -0.1554
 2155SOL     OW17923   4.178   1.006   6.435 -0.2488 -0.1586 -0.3871
 2155SOL    HW117924   4.132   0.966   6.509  0.7995  0.6094  0.6868
 2155SOL    HW217925   4.264   0.977   6.467 -1.1315 -0.6491  1.5632
 2156SOL     OW17926   0.411   3.007   5.330  0.1410 -0.6181  0.5318
 2156SOL    HW117927   0.432   2.916   5.351  0.5378 -0.4201  0.9897
 2156SOL    HW217928   0.438   3.005   5.238 -1.6308 -0.4403  0.0200
 2157SOL     OW17929   1.594   2.028   3.515 -0.4769 -0.0517  0.3352
 2157SOL    HW117930   1.556   2.110   3.485 -1.9049 -1.6464 -2.1636
 2157SOL    HW217931   1.659   2.053   3.580 -0.4544 -1.4991  0.8784
 2158SOL     OW17932   1.509   4.550  14.093  0.0489 -0.2891 -0.5560
 2158SOL    HW117933   1.573   4.557  14.163  1.5769 -2.6845 -1.6972
 2158SOL    HW217934   1.474   4.462  14.109 -0.7685  0.2402  0.5586
 2159SOL     OW17935   3.445   4.112   5.541 -0.4126  0.0845 -0.4686
 2159SOL    HW117936   3.433   4.062   5.460 -0.4117  0.9710 -1.0187
 2159SOL    HW217937   3.419   4.202   5.521  1.9079  0.9551  0.4478
 2160SOL     OW17938   0.784   2.042   7.678 -0.1110 -0.4365  0.2237
 2160SOL    HW117939   0.803   2.081   7.593  0.8296 -3.4571 -0.9552
 2160SOL    HW217940   0.797   1.949   7.658  1.5756  0.1780 -1.5639
 2161SOL     OW17941   3.014   0.056  16.102 -0.1072  0.2400  0.3679
 2161SOL    HW117942   3.025   4.723  16.177  2.6911  0.8269  0.4334
 2161SOL    HW217943   2.938   0.112  16.117 -0.1834 -0.2085  1.6962
 2162SOL     OW17944   3.550   3.284  15.216  0.6700  0.5320 -0.2495
 2162SOL    HW117945   3.594   3.222  15.157  0.3698 -1.3373  1.5052
 2162SOL    HW217946   3.616   3.353  15.208  0.1966  0.8501 -1.4370
 2163SOL     OW17947   3.414   0.538   3.594  0.4109  0.3551  0.4210
 2163SOL    HW117948   3.384   0.570   3.679 -0.6138  0.8054 -0.1082
 2163SOL    HW217949   3.458   0.456   3.617  0.0607 -0.1729 -0.7682
 2164SOL     OW17950   3.298   1.900  12.248 -0.3705  0.8686 -0.5150
 2164SOL    HW117951   3.326   1.963  12.315  2.1326  0.7012 -1.3963
 2164SOL    HW217952   3.381   1.853  12.243 -0.5460  0.6205 -1.0629
 2165SOL     OW17953   2.232   3.770  10.802 -0.2743  0.2518  0.0123
 2165SOL    HW117954   2.250   3.728  10.886 -1.2393  0.0639  0.1318
 2165SOL    HW217955   2.188   3.703  10.749 -0.0834  0.0440  0.1205
 2166SOL     OW17956   1.631   1.055   2.685  0.0405  0.1553  0.1015
 2166SOL    HW117957   1.578   0.999   2.741  2.4587 -0.9322  1.2451
 2166SOL    HW217958   1.595   1.144   2.691  1.4937  0.6017  1.9735
 2167SOL     OW17959   0.626   3.219   5.228  0.2115 -0.1287  0.5645
 2167SOL    HW117960   0.548   3.235   5.175  1.3478 -1.4245 -1.5087
 2167SOL    HW217961   0.601   3.253   5.313 -0.1255 -0.3936  0.5687
 2168SOL     OW17962   1.076   3.994  13.682 -0.3549 -0.1020 -0.5433
 2168SOL    HW117963   1.049   3.905  13.703  0.4998 -0.6380 -1.7285
 2168SOL    HW217964   1.164   3.963  13.661 -0.3281  0.7452 -1.6936
 2169SOL     OW17965   1.051   3.755  12.161 -0.1749  0.3059 -0.2122
 2169SOL    HW117966   1.073   3.819  12.229  2.5523  0.0074 -0.8095
 2169SOL    HW217967   1.128   3.697  12.165  1.4652  2.4287 -0.9158
 2170SOL     OW17968   0.718   3.946  11.435  0.5070  0.3169 -0.3616
 2170SOL    HW117969   0.757   4.031  11.452 -0.3927  0.7764 -0.6217
 2170SOL    HW217970   0.730   3.890  11.512 -2.7129 -0.5780 -0.5421
 2171SOL     OW17971   2.168   1.026   3.352 -0.0659 -0.0986 -0.1847
 2171SOL    HW117972   2.254   1.046   3.387  0.2725  0.2759 -1.2278
 2171SOL    HW217973   2.185   0.951   3.295 -0.8075 -1.2195  1.0715
 2172SOL     OW17974   0.660   2.486   8.924 -0.3154  0.0884  0.4713
 2172SOL    HW117975   0.691   2.572   8.954  3.0327 -0.8946 -0.1774
 2172SOL    HW217976   0.580   2.471   8.974 -1.9912  1.6908 -1.7096
 2173SOL     OW17977   3.755   2.590   3.999 -0.0584  0.4847  0.4545
 2173SOL    HW117978   3.787   2.501   3.985 -1.8009 -0.0249 -0.3703
 2173SOL    HW217979   3.825   2.624   4.055  0.7444  1.5440 -1.2069
 2174SOL     OW17980   0.405   4.242  16.909 -0.3149 -0.4441  0.1763
 2174SOL    HW117981   0.457   4.175  16.953  0.0796 -0.1349  0.1751
 2174SOL    HW217982   0.327   4.228  16.963  1.0143 -2.6140  1.5315
 2175SOL     OW17983   0.483   0.518   3.596  0.2572  0.0178 -0.1327
 2175SOL    HW117984   0.562   0.484   3.639 -0.4437  1.7075  2.5042
 2175SOL    HW217985   0.441   0.448   3.547  0.0499  0.8037 -1.0647
 2176SOL     OW17986   1.064   3.258  12.870 -0.3226  0.5544 -0.4858
 2176SOL    HW117987   1.003   3.327  12.844 -1.0081  1.1062  2.5620
 2176SOL    HW217988   1.141   3.308  12.899 -1.1507  1.4071  0.2358
 2177SOL     OW17989   2.576   2.255   6.098  0.0288 -0.4585  0.3865
 2177SOL    HW117990   2.661   2.298   6.091  1.0532 -2.6603 -0.5037
 2177SOL    HW217991   2.556   2.252   6.004 -0.8098  1.3000  0.5138
 2178SOL     OW17992   4.434   1.152   3.101  0.2861  0.7159 -0.4895
 2178SOL    HW117993   4.492   1.189   3.035  1.8417 -2.6935 -1.0434
 2178SOL    HW217994   4.367   1.124   3.038  1.0527  0.8829 -1.3720
 2179SOL     OW17995   1.057   0.369   9.117 -0.0990 -0.2584 -0.4532
 2179SOL    HW117996   1.043   0.301   9.052  1.3132 -1.2804  0.3140
 2179SOL    HW217997   0.965   0.395   9.111  0.2901  0.6993 -2.0814
 2180SOL     OW17998   3.922   0.453  10.232  0.3369  0.1748  0.4391
 2180SOL    HW117999   3.912   0.504  10.312 -4.0131  0.8629 -0.5193
 2180SOL    HW218000   3.828   0.434  10.229  0.4015  0.0691 -0.9253
 2181SOL     OW18001   0.865   1.394   8.588  0.3728  0.1307  0.6482
 2181SOL    HW118002   0.897   1.482   8.567  0.6259 -0.0789  0.1615
 2181SOL    HW218003   0.881   1.345   8.508  0.3550  0.5385  0.3965
 2182SOL     OW18004   4.700   0.325   7.031  0.0736 -0.3937  0.1154
 2182SOL    HW118005   0.032   0.398   7.050 -1.5881  0.1724  2.9548
 2182SOL    HW218006   0.017   0.254   7.079 -2.3209 -2.7254 -1.1634
 2183SOL     OW18007   0.088   2.919   1.350  0.0340  0.5213 -0.0178
 2183SOL    HW118008   0.059   2.840   1.304 -1.1586  0.0170  1.6250
 2183SOL    HW218009   0.029   2.938   1.422  0.4515 -3.0831  1.2835
 2184SOL     OW18010   3.755   0.281  14.935 -0.2295  0.9088  0.3445
 2184SOL    HW118011   3.848   0.280  14.911 -0.6109 -4.1168 -1.0830
 2184SOL    HW218012   3.736   0.371  14.961 -2.0762  0.4953  0.4130
 2185SOL     OW18013   4.231   0.168   6.852 -0.2983  0.4950  0.1818
 2185SOL    HW118014   4.179   0.142   6.776  0.7772 -0.4820 -0.2267
 2185SOL    HW218015   4.321   0.139   6.836 -1.3273 -2.7648  0.4110
 2186SOL     OW18016   4.267   2.676   8.111  0.4345  0.7893  0.3237
 2186SOL    HW118017   4.256   2.680   8.016  0.2564  0.2432  0.3178
 2186SOL    HW218018   4.333   2.742   8.129  0.6926  0.3323  1.0272
 2187SOL     OW18019   3.501   1.541  12.408 -0.6965 -0.1567 -0.0010
 2187SOL    HW118020   3.509   1.628  12.368 -1.0917  0.2801  0.8766
 2187SOL    HW218021   3.509   1.566  12.500 -1.4695  0.2869 -0.0546
 2188SOL     OW18022   0.103   1.129   9.107  0.1767 -0.2552 -0.2880
 2188SOL    HW118023   0.031   1.109   9.047 -1.6840 -0.4451  2.0253
 2188SOL    HW218024   0.179   1.114   9.051  1.5498  1.8554  1.0096
 2189SOL     OW18025   4.214   3.738   2.823  0.2869  0.2101  0.8085
 2189SOL    HW118026   4.145   3.721   2.759 -1.3024  1.6952  2.1228
 2189SOL    HW218027   4.208   3.667   2.887  1.2042  0.6547  1.3846
 2190SOL     OW18028   4.082   0.450   3.858  0.0411 -0.2780 -0.5928
 2190SOL    HW118029   4.051   0.433   3.946 -0.2416  0.9497 -0.4575
 2190SOL    HW218030   4.169   0.411   3.866  0.0871 -0.0099  0.1397
 2191SOL     OW18031   3.880   3.925  15.104  0.5841  0.1816 -0.3783
 2191SOL    HW118032   3.864   3.853  15.165 -1.1941  0.1821 -0.8324
 2191SOL    HW218033   3.962   3.953  15.145  0.5051  2.1592 -1.5727
 2192SOL     OW18034   3.058   1.606   4.169  0.1883  0.4028  0.2638
 2192SOL    HW118035   3.067   1.693   4.130 -1.7616  0.3183 -0.3989
 2192SOL    HW218036   3.147   1.572   4.160  0.3180  0.6034  0.7865
 2193SOL     OW18037   2.277   4.701   0.447 -0.1722 -0.3790 -0.0054
 2193SOL    HW118038   2.215   4.644   0.401  2.8147 -2.3630 -1.5664
 2193SOL    HW218039   2.228   0.057   0.441  1.5468  0.6785  0.4774
 2194SOL     OW18040   4.512   0.137   2.818 -0.3076 -0.5358 -0.1717
 2194SOL    HW118041   4.462   0.129   2.899  0.9015 -1.1532  0.5159
 2194SOL    HW218042   4.537   0.046   2.799  0.9169  0.0261 -1.1968
 2195SOL     OW18043   4.262   2.303  12.517 -0.1170 -0.2469  0.4000
 2195SOL    HW118044   4.323   2.331  12.586 -1.0319  1.9178  0.3429
 2195SOL    HW218045   4.306   2.329  12.436 -1.2070 -1.5692 -0.6034
 2196SOL     OW18046   4.028   4.212   3.685 -0.1869 -0.2833 -0.2965
 2196SOL    HW118047   4.101   4.270   3.661 -0.9093  0.6104 -0.3654
 2196SOL    HW218048   4.027   4.216   3.781  1.0313 -1.5647 -0.2402
 2197SOL     OW18049   0.968   3.149   5.475  0.1293 -0.6520  0.1915
 2197SOL    HW118050   0.967   3.244   5.487  0.8909 -0.9671  2.7355
 2197SOL    HW218051   0.875   3.131   5.485 -0.2422  1.3387  0.2276
 2198SOL     OW18052   0.060   2.605  13.540 -0.6583  0.2572 -0.1362
 2198SOL    HW118053   0.121   2.542  13.579  1.8531  1.7341 -1.6776
 2198SOL    HW218054   4.697   2.600  13.577 -0.4483  1.2778  0.4794
 2199SOL     OW18055   3.397   2.100   4.239 -0.0277  0.1205 -0.2784
 2199SOL    HW118056   3.469   2.134   4.187  0.9742 -0.2660  0.8744
 2199SOL    HW218057   3.397   2.165   4.309 -0.8722  1.0411 -1.1226
 2200SOL     OW18058   2.075   4.496   8.225 -0.0877 -0.2853 -0.0958
 2200SOL    HW118059   2.017   4.484   8.299  0.5160 -2.7423 -0.0201
 2200SOL    HW218060   2.139   4.540   8.282 -0.1393 -0.5798  0.1882
 2201SOL     OW18061   4.495   2.830  15.566 -0.2625 -0.1205 -0.2050
 2201SOL    HW118062   4.522   2.841  15.657 -1.7951 -1.5161  0.4068
 2201SOL    HW218063   4.440   2.908  15.553  2.3140  1.7088  0.0330
 2202SOL     OW18064   3.245   4.624  17.238  0.5501 -0.3095  0.2281
 2202SOL    HW118065   3.221   4.681  17.165  2.3045  0.1987  0.0546
 2202SOL    HW218066   3.312   4.569  17.196  0.0258 -1.8016  1.3469
 2203SOL     OW18067   2.254   0.328  12.670  0.6199 -0.0371  0.8320
 2203SOL    HW118068   2.202   0.280  12.734 -0.8373  0.5129  0.0743
 2203SOL    HW218069   2.286   0.260  12.611  1.7500  0.4953  0.8370
 2204SOL     OW18070   0.236   1.323   3.067  0.2006  0.4994 -1.1482
 2204SOL    HW118071   0.198   1.237   3.054  0.1201  0.2616  0.7588
 2204SOL    HW218072   0.269   1.316   3.156  1.6600  0.8559 -1.6597
 2205SOL     OW18073   4.465   1.134   2.535 -0.7062  0.3792 -0.4986
 2205SOL    HW118074   4.532   1.093   2.590 -0.5982 -0.8656 -1.5693
 2205SOL    HW218075   4.500   1.221   2.517  0.3329 -0.4343 -2.2852
 2206SOL     OW18076   3.464   2.689  12.689 -0.1703  0.1928  0.2177
 2206SOL    HW118077   3.513   2.607  12.693  0.6395  0.6799  0.3417
 2206SOL    HW218078   3.405   2.684  12.764 -0.5111 -3.2030 -0.3027
 2207SOL     OW18079   4.379   1.414  13.361 -0.3333  0.0432  0.0484
 2207SOL    HW118080   4.311   1.477  13.385 -2.2751 -1.9416 -0.1660
 2207SOL    HW218081   4.333   1.357  13.299  2.5307 -1.8252 -0.3447
 2208SOL     OW18082   3.430   0.862  16.266  0.2723 -0.6210 -0.1902
 2208SOL    HW118083   3.453   0.915  16.190  1.2631  1.0273  1.2218
 2208SOL    HW218084   3.493   0.901  16.328  0.3445  0.6502 -1.0695
 2209SOL     OW18085   1.342   0.843   7.796 -0.2976 -0.3121 -0.4106
 2209SOL    HW118086   1.320   0.932   7.769 -1.8327 -0.0547  1.6349
 2209SOL    HW218087   1.265   0.807   7.840  0.9232 -0.7091  1.4172
 2210SOL     OW18088   1.441   2.888   6.278  0.2517  0.0892 -0.3644
 2210SOL    HW118089   1.447   2.804   6.233 -1.7255 -0.2955  0.0682
 2210SOL    HW218090   1.454   2.856   6.367 -1.8624 -0.8395 -0.3863
 2211SOL     OW18091   1.240   1.668  11.950  0.3563  0.2959 -0.3749
 2211SOL    HW118092   1.289   1.599  11.906 -1.2778 -1.0710 -0.0456
 2211SOL    HW218093   1.273   1.748  11.909 -0.3105  0.7006 -0.1314
 2212SOL     OW18094   1.190   3.307  17.451 -0.2621  0.6941  0.1950
 2212SOL    HW118095   1.215   3.345  17.535 -0.5308 -1.0948  1.0786
 2212SOL    HW218096   1.096   3.296  17.463 -0.3712  1.7030  0.3290
 2213SOL     OW18097   3.431   2.223  15.446 -0.1387  0.0549  0.3751
 2213SOL    HW118098   3.441   2.310  15.408  1.5905 -1.1422 -1.8890
 2213SOL    HW218099   3.419   2.172  15.366 -1.8896  1.7870 -0.4886
 2214SOL     OW18100   3.897   2.343   2.650  0.3739  0.3657  0.7992
 2214SOL    HW118101   3.943   2.286   2.589  0.4058  1.8596 -0.5848
 2214SOL    HW218102   3.806   2.321   2.635  0.7207 -0.1305 -0.5165
 2215SOL     OW18103   2.426   4.663   5.776 -0.4156  0.3077 -0.0966
 2215SOL    HW118104   2.344   4.633   5.735  0.2920 -1.1413 -0.4339
 2215SOL    HW218105   2.441   0.016   5.724 -0.7063  1.1404  1.1012
 2216SOL     OW18106   1.944   3.721   6.847  0.0030 -0.8939  0.7193
 2216SOL    HW118107   2.004   3.685   6.782  0.1930 -0.2123  0.5270
 2216SOL    HW218108   2.003   3.779   6.894  0.9922 -2.2866  1.2098
 2217SOL     OW18109   4.206   3.209  13.483  0.2491 -0.9552  0.2032
 2217SOL    HW118110   4.279   3.267  13.504 -2.3132  1.8450  1.2776
 2217SOL    HW218111   4.132   3.254  13.522  1.7704  1.1636  0.6600
 2218SOL     OW18112   4.689   0.952   5.911 -0.4064  0.2228  0.2802
 2218SOL    HW118113   4.597   0.965   5.887 -0.1400 -1.6174 -1.7893
 2218SOL    HW218114   4.680   0.971   6.004 -0.9238  0.7999  0.1155
 2219SOL     OW18115   0.660   4.225   8.328 -0.0192  0.0698 -0.0690
 2219SOL    HW118116   0.680   4.283   8.255 -0.0283  0.0628 -0.0771
 2219SOL    HW218117   0.735   4.233   8.388  0.5547 -2.9540 -0.3556
 2220SOL     OW18118   3.320   1.577   5.094 -0.0582  0.1322 -0.3221
 2220SOL    HW118119   3.308   1.535   5.009 -0.2464 -0.8379  0.1827
 2220SOL    HW218120   3.414   1.587   5.107  0.1890 -1.2503 -1.0363
 2221SOL     OW18121   2.917   2.385   8.048 -0.1355 -0.5184  0.1698
 2221SOL    HW118122   2.823   2.399   8.042  0.0712  0.7101 -0.2936
 2221SOL    HW218123   2.930   2.307   8.102 -0.1107 -1.0914 -0.6487
 2222SOL     OW18124   2.666   0.486   4.867  0.0001 -0.3697  0.4375
 2222SOL    HW118125   2.681   0.578   4.846  3.9294 -1.0867  0.1103
 2222SOL    HW218126   2.695   0.484   4.958 -0.3318 -1.7875  0.5057
 2223SOL     OW18127   0.032   1.884  17.439  0.4126  0.4075 -0.0627
 2223SOL    HW118128   4.672   1.872  17.400  1.7091  0.9256 -3.0404
 2223SOL    HW218129   0.030   1.979  17.453 -1.2293  0.3547  0.0229
 2224SOL     OW18130   2.854   0.294  12.666  0.1311 -0.6535  0.8888
 2224SOL    HW118131   2.800   0.292  12.588 -0.3063  2.5680  1.0947
 2224SOL    HW218132   2.935   0.316  12.620  1.0048 -1.6386  1.9287
 2225SOL     OW18133   2.972   3.288   4.554 -0.3839 -0.2124  0.2104
 2225SOL    HW118134   2.892   3.338   4.541 -0.2078 -0.0364 -0.1898
 2225SOL    HW218135   2.966   3.256   4.645 -2.0945 -0.5883 -0.0294
 2226SOL     OW18136   0.279   1.599   4.909 -0.2300  0.0251  0.1790
 2226SOL    HW118137   0.216   1.650   4.960 -0.8695 -0.7120  0.1227
 2226SOL    HW218138   0.230   1.519   4.890  0.7675 -0.2225 -1.3410
 2227SOL     OW18139   0.882   1.432   5.250  0.2085  0.2189  0.4216
 2227SOL    HW118140   0.941   1.367   5.212  0.3092  0.3139  0.4156
 2227SOL    HW218141   0.801   1.418   5.202  1.1161 -0.4100 -0.9407
 2228SOL     OW18142   3.608   3.397  14.599  0.2997 -0.6379 -0.1680
 2228SOL    HW118143   3.548   3.374  14.670 -0.9919 -0.6746 -1.2564
 2228SOL    HW218144   3.645   3.478  14.634 -2.8696  0.7088  0.0389
 2229SOL     OW18145   2.408   4.192  15.744 -0.0738 -0.2172 -0.4131
 2229SOL    HW118146   2.406   4.173  15.838 -1.0990  0.2940 -0.3268
 2229SOL    HW218147   2.498   4.221  15.734  0.4712 -1.3138  1.3102
 2230SOL     OW18148   2.407   1.601   6.199  1.0421  0.5443  0.0917
 2230SOL    HW118149   2.388   1.625   6.109  2.8532 -3.8005 -1.4654
 2230SOL    HW218150   2.353   1.523   6.215 -0.1188  1.5212  0.9916
 2231SOL     OW18151   3.385   2.072   8.471 -0.4477  0.2261  0.3050
 2231SOL    HW118152   3.296   2.044   8.493  0.6013 -2.3269  1.2632
 2231SOL    HW218153   3.384   2.152   8.524 -3.3782  0.3879 -0.0019
 2232SOL     OW18154   4.394   2.952   5.805 -0.2316  0.4705 -0.5987
 2232SOL    HW118155   4.337   2.922   5.735 -2.4364  0.6270  1.1270
 2232SOL    HW218156   4.329   2.987   5.865 -1.6727  1.0184 -2.4979
 2233SOL     OW18157   1.899   2.483   6.090 -0.2087  0.1058  0.1890
 2233SOL    HW118158   1.807   2.502   6.070  0.0503  2.2624  1.0055
 2233SOL    HW218159   1.907   2.395   6.053 -2.1826  0.8535 -1.9971
 2234SOL     OW18160   1.374   3.758   5.902 -0.1753 -0.0066 -0.0515
 2234SOL    HW118161   1.358   3.773   5.995  0.2398  0.5860 -0.0772
 2234SOL    HW218162   1.416   3.841   5.880 -0.7822  1.4620  4.2251
 2235SOL     OW18163   4.198   2.204  15.133  0.3727  0.1843 -0.4011
 2235SOL    HW118164   4.261   2.180  15.065 -0.9638 -2.6279 -0.6735
 2235SOL    HW218165   4.113   2.188  15.092  0.6104 -0.7420 -0.5301
 2236SOL     OW18166   3.016   3.937   5.271  0.5793  0.0036 -0.6708
 2236SOL    HW118167   2.946   3.996   5.242 -0.5492 -0.2225  1.6038
 2236SOL    HW218168   2.977   3.855   5.243  4.5040 -2.5811  1.3295
 2237SOL     OW18169   1.695   2.341  12.571 -0.0539 -0.6649 -0.5875
 2237SOL    HW118170   1.786   2.355  12.547  0.8701  0.0128  3.3284
 2237SOL    HW218171   1.656   2.381  12.493 -0.5371 -3.4455 -1.7963
 2238SOL     OW18172   0.766   2.941   6.237  0.4621 -0.5855  0.2241
 2238SOL    HW118173   0.853   2.951   6.275  0.9844  0.5521 -1.2695
 2238SOL    HW218174   0.784   2.852   6.208  2.3939  0.0444 -0.4937
 2239SOL     OW18175   0.234   1.333   7.233 -0.4515  0.3845 -0.3272
 2239SOL    HW118176   0.145   1.358   7.260 -0.2323  0.2739  0.4905
 2239SOL    HW218177   0.284   1.411   7.256  2.0691 -0.7707 -1.8888
 2240SOL     OW18178   0.464   2.932   5.055 -0.3048 -0.4240 -0.1450
 2240SOL    HW118179   0.396   2.979   5.007  2.6848  1.6677 -2.3109
 2240SOL    HW218180   0.444   2.844   5.023 -0.7693 -0.2547 -0.3251
 2241SOL     OW18181   2.292   0.755   2.927  0.2751 -0.0888  0.0039
 2241SOL    HW118182   2.349   0.827   2.903  0.4074 -0.4795 -0.8624
 2241SOL    HW218183   2.298   0.699   2.849 -1.9705  0.2908 -0.4304
 2242SOL     OW18184   3.625   1.648   8.281 -0.2824 -0.7735  0.1138
 2242SOL    HW118185   3.638   1.743   8.282  2.5735 -1.1599 -1.3903
 2242SOL    HW218186   3.711   1.613   8.260 -1.5472 -3.1467 -1.1462
 2243SOL     OW18187   2.089   0.086   6.197 -0.0836 -0.0334 -0.4178
 2243SOL    HW118188   2.065   0.068   6.106 -1.9703 -0.7997  0.2166
 2243SOL    HW218189   2.020   0.028   6.230  1.0467 -1.7256 -1.0177
 2244SOL     OW18190   3.336   1.053   8.183  0.1301 -0.4226 -0.1025
 2244SOL    HW118191   3.315   1.095   8.266 -0.6256  1.0356 -1.0335
 2244SOL    HW218192   3.416   1.011   8.214  0.6370 -0.6427 -1.7209
 2245SOL     OW18193   2.266   2.920   2.125 -0.2371 -0.4475  0.2127
 2245SOL    HW118194   2.312   2.999   2.155 -0.7753 -0.2700  0.5550
 2245SOL    HW218195   2.330   2.884   2.063 -0.2383 -1.7286  0.9504
 2246SOL     OW18196   0.308   1.956   8.414  0.4500  0.1059  0.1854
 2246SOL    HW118197   0.398   1.979   8.439  1.7912 -3.3565 -1.5300
 2246SOL    HW218198   0.265   1.964   8.499 -1.4147  2.2540 -0.9680
 2247SOL     OW18199   3.442   1.853   3.656 -0.6667  0.7622  0.0788
 2247SOL    HW118200   3.438   1.892   3.569  0.0646  0.1898 -0.2120
 2247SOL    HW218201   3.372   1.787   3.656  0.7585 -0.7461  0.2018
 2248SOL     OW18202   4.005   0.110   6.371 -0.8368  0.5669 -0.6127
 2248SOL    HW118203   3.931   0.054   6.349 -0.1581 -0.2648 -0.7851
 2248SOL    HW218204   3.991   0.177   6.305 -0.8697 -0.3909 -1.5698
 2249SOL     OW18205   3.507   0.656   2.855  0.1456  0.6490  0.2258
 2249SOL    HW118206   3.586   0.694   2.818  0.3327  0.6894  0.6663
 2249SOL    HW218207   3.443   0.723   2.832  0.9727  1.8590  1.4468
 2250SOL     OW18208   4.449   4.657   6.575  0.5381 -0.0460 -0.0864
 2250SOL    HW118209   4.396   4.581   6.597 -0.9894  0.4212 -2.1413
 2250SOL    HW218210   4.393   4.702   6.512  1.7749  0.8911 -0.5281
 2251SOL     OW18211   1.153   0.044   9.179  0.3600  0.4061  0.5669
 2251SOL    HW118212   1.075   0.013   9.226  0.4596 -2.3439 -1.0728
 2251SOL    HW218213   1.119   0.075   9.095  1.7155 -1.9369 -0.8442
 2252SOL     OW18214   3.736   2.836  15.514  0.3009 -0.4895 -0.1027
 2252SOL    HW118215   3.734   2.740  15.522 -0.0674 -0.3876  0.8955
 2252SOL    HW218216   3.830   2.850  15.525  0.1426 -0.6641  1.3691
 2253SOL     OW18217   3.952   2.445  15.275  1.1720  0.0362  0.0646
 2253SOL    HW118218   4.047   2.457  15.278  1.1077  0.2227  1.4203
 2253SOL    HW218219   3.929   2.430  15.367 -1.4391  1.3694 -0.3635
 2254SOL     OW18220   1.278   0.513   4.886  0.2329 -1.0069  0.4101
 2254SOL    HW118221   1.237   0.504   4.972  0.0471 -0.5868  0.3650
 2254SOL    HW218222   1.251   0.434   4.839  0.1663  0.2874 -1.7340
 2255SOL     OW18223   0.594   1.781   4.251 -0.3393  0.3401  0.7136
 2255SOL    HW118224   0.512   1.761   4.206  1.2608  0.8489 -2.3954
 2255SOL    HW218225   0.635   1.837   4.185 -3.0490  0.3986 -0.8911
 2256SOL     OW18226   0.861   0.633   2.995 -0.0020 -0.4381  0.3247
 2256SOL    HW118227   0.787   0.591   3.039 -3.7053  3.2713 -2.3184
 2256SOL    HW218228   0.945   0.607   3.032 -0.3958 -1.2766  0.6490
 2257SOL     OW18229   0.570   4.613   2.406 -0.7684  0.4687 -0.3265
 2257SOL    HW118230   0.662   4.598   2.384 -0.4559  0.7339  0.7564
 2257SOL    HW218231   0.539   4.528   2.435 -0.2572  0.6699  0.8126
 2258SOL     OW18232   1.390   3.494   5.106  0.0361  0.2059  0.1734
 2258SOL    HW118233   1.315   3.459   5.154  0.5613 -1.6117 -0.3350
 2258SOL    HW218234   1.394   3.441   5.026 -1.1030 -0.2810  0.4413
 2259SOL     OW18235   3.843   2.387   6.976  0.1711 -0.0688 -0.3498
 2259SOL    HW118236   3.871   2.428   7.058 -0.5929  1.3947 -0.8147
 2259SOL    HW218237   3.754   2.414   6.955 -0.2980 -0.5704  0.9625
 2260SOL     OW18238   0.189   0.772   4.932  0.1685 -0.4005 -0.2327
 2260SOL    HW118239   0.179   0.783   4.837 -3.4195  0.1786  0.1902
 2260SOL    HW218240   0.186   0.862   4.963  1.5193 -0.8154  1.1192
 2261SOL     OW18241   2.676   3.973  10.973  0.2271 -0.0742  0.0130
 2261SOL    HW118242   2.687   4.056  10.926  0.6006 -0.5200 -0.6967
 2261SOL    HW218243   2.725   3.995  11.052 -0.7877 -1.9250  1.1344
 2262SOL     OW18244   1.294   1.585   4.520 -0.3384 -0.2000 -0.3132
 2262SOL    HW118245   1.299   1.680   4.523 -0.5425 -0.2389  1.2952
 2262SOL    HW218246   1.389   1.570   4.523  0.2157  4.2759  3.8067
 2263SOL     OW18247   0.863   1.753   7.808  0.1001 -0.1810  0.1255
 2263SOL    HW118248   0.804   1.774   7.881 -0.7255 -1.3653 -0.2001
 2263SOL    HW218249   0.918   1.831   7.808  1.5398 -1.2133 -1.8711
 2264SOL     OW18250   2.893   1.238   6.154  0.0817 -0.5465 -0.2348
 2264SOL    HW118251   2.869   1.260   6.243  0.4231  0.4020 -0.3783
 2264SOL    HW218252   2.901   1.329   6.127  2.6004 -0.1322  1.9784
 2265SOL     OW18253   4.244   3.979   0.224 -0.4022 -0.4595  0.1620
 2265SOL    HW118254   4.317   3.968   0.286  0.5963  1.4579 -0.6424
 2265SOL    HW218255   4.239   4.075   0.224  2.4403 -0.2939  2.5326
 2266SOL     OW18256   3.725   3.320   0.178  0.1486 -0.1816 -0.2850
 2266SOL    HW118257   3.820   3.325   0.169  0.0199  0.8858 -1.0232
 2266SOL    HW218258   3.709   3.321   0.273 -2.2967 -1.9295 -0.6646
 2267SOL     OW18259   4.401   2.776   2.893 -0.1623  0.0347 -0.5934
 2267SOL    HW118260   4.315   2.798   2.929 -0.6412 -0.7224 -1.2715
 2267SOL    HW218261   4.455   2.795   2.969 -2.6177  0.1723  1.1234
 2268SOL     OW18262   1.244   2.177   4.090 -0.0574  0.5689  0.4555
 2268SOL    HW118263   1.326   2.129   4.083 -0.6700 -0.2961 -0.8545
 2268SOL    HW218264   1.238   2.228   4.009 -0.8167  0.0040  0.1505
 2269SOL     OW18265   3.221   1.402   7.256  0.1526  0.7971 -0.0468
 2269SOL    HW118266   3.195   1.421   7.346  0.8610  2.9109 -0.3012
 2269SOL    HW218267   3.137   1.380   7.216 -0.3388  2.6917 -0.0417
 2270SOL     OW18268   4.237   4.021   2.439  0.1595 -0.1966 -0.3951
 2270SOL    HW118269   4.237   4.014   2.535  0.7145 -1.3560 -0.4829
 2270SOL    HW218270   4.251   3.933   2.406 -1.6856 -0.6228 -0.0310
 2271SOL     OW18271   3.637   2.052  12.586  0.3619  0.8124  0.0754
 2271SOL    HW118272   3.684   2.127  12.550 -3.1363  2.5498 -0.9047
 2271SOL    HW218273   3.558   2.104  12.598 -0.9922 -1.0341 -0.7456
 2272SOL     OW18274   4.653   4.509   2.857  0.3523 -0.4997  1.2126
 2272SOL    HW118275   4.607   4.439   2.810  0.0686  1.1010 -0.9192
 2272SOL    HW218276   4.723   4.454   2.893  1.4997  1.3735  1.7998
 2273SOL     OW18277   3.347   1.523   4.794 -0.3853  0.0066  0.3942
 2273SOL    HW118278   3.316   1.504   4.706 -2.0266  1.3890  0.6823
 2273SOL    HW218279   3.324   1.616   4.796 -0.2856  0.0052  2.2277
 2274SOL     OW18280   1.411   2.549  15.059 -0.1228  0.2036  0.3388
 2274SOL    HW118281   1.319   2.557  15.034  0.4442 -1.5338 -2.3359
 2274SOL    HW218282   1.392   2.509  15.144 -1.3602 -0.8777 -0.4474
 2275SOL     OW18283   3.114   4.392   0.576 -0.3384 -0.4685  0.2216
 2275SOL    HW118284   3.184   4.458   0.576 -0.8722  0.1017 -1.4391
 2275SOL    HW218285   3.159   4.308   0.585 -0.8982 -0.9266 -1.2783
 2276SOL     OW18286   2.308   2.302   6.151 -0.1224  0.1709 -0.0190
 2276SOL    HW118287   2.390   2.257   6.174 -0.7097 -0.9447 -0.1063
 2276SOL    HW218288   2.258   2.235   6.105 -1.0992  0.7262  0.2296
 2277SOL     OW18289   1.566   1.268  12.251  0.0142 -0.1649  0.2252
 2277SOL    HW118290   1.617   1.188  12.237  0.4732  0.3426 -0.9354
 2277SOL    HW218291   1.624   1.341  12.274  0.1852 -0.1615 -0.2275
 2278SOL     OW18292   1.086   0.509   7.516  0.0916  0.4480 -0.2136
 2278SOL    HW118293   1.044   0.576   7.569 -0.9208  0.6925 -1.3605
 2278SOL    HW218294   1.164   0.562   7.498 -0.2207  0.9822  0.0179
 2279SOL     OW18295   1.418   0.369   4.519 -0.3646 -0.0652  0.0785
 2279SOL    HW118296   1.355   0.418   4.466  0.6967  0.2896 -0.8604
 2279SOL    HW218297   1.400   0.278   4.497  0.7141 -0.0600 -0.8135
 2280SOL     OW18298   2.447   0.647   7.465 -0.3495 -0.0719 -0.2560
 2280SOL    HW118299   2.443   0.555   7.489  0.1175 -0.2050 -0.7078
 2280SOL    HW218300   2.542   0.654   7.478 -0.1112 -0.0873 -2.0392
 2281SOL     OW18301   0.410   2.723   2.271  0.0093 -0.6308  0.1983
 2281SOL    HW118302   0.403   2.798   2.212 -0.9482  0.7679  2.0863
 2281SOL    HW218303   0.390   2.760   2.357  0.2751 -0.7200  0.2985
 2282SOL     OW18304   4.116   4.179  12.072  0.4455 -0.7600 -0.2547
 2282SOL    HW118305   4.036   4.216  12.109  1.6566 -0.1056  1.7258
 2282SOL    HW218306   4.098   4.192  11.979 -0.8543 -0.2983  0.0604
 2283SOL     OW18307   2.611   1.385   1.510  0.3328 -0.3373 -0.1610
 2283SOL    HW118308   2.530   1.430   1.489 -0.5649 -1.9596 -0.2100
 2283SOL    HW218309   2.613   1.383   1.605 -5.0503  2.5409 -0.0214
 2284SOL     OW18310   4.611   3.262  12.417  0.0241 -0.0259  0.7585
 2284SOL    HW118311   4.541   3.211  12.375  0.8973 -0.2221 -0.4667
 2284SOL    HW218312   4.682   3.198  12.416 -0.4833 -0.5670 -0.6932
 2285SOL     OW18313   0.907   1.322  10.754 -0.7061  1.0652 -0.3490
 2285SOL    HW118314   0.982   1.265  10.768 -0.4430  1.2380 -1.0425
 2285SOL    HW218315   0.951   1.407  10.752  0.1639  0.6359  0.5505
 2286SOL     OW18316   0.551   3.803  15.250  0.5679 -0.0838 -0.1554
 2286SOL    HW118317   0.634   3.845  15.272  0.6655 -0.2338 -0.2373
 2286SOL    HW218318   0.554   3.728  15.310  1.4268 -1.3556 -1.7843
 2287SOL     OW18319   3.175   4.309   4.844  0.0598  0.0896 -0.5395
 2287SOL    HW118320   3.242   4.279   4.904 -0.1909 -0.2953 -0.4526
 2287SOL    HW218321   3.098   4.263   4.877 -0.8438  1.5691 -0.5740
 2288SOL     OW18322   3.848   2.854   8.030 -0.0245  0.4970  0.5732
 2288SOL    HW118323   3.822   2.765   8.004 -0.7281  0.8190  0.1875
 2288SOL    HW218324   3.781   2.884   8.091  0.2747  0.6352  0.8345
 2289SOL     OW18325   3.709   1.991  15.682  0.1423  0.5790 -0.0066
 2289SOL    HW118326   3.779   2.021  15.625  2.6407 -2.3250  1.4949
 2289SOL    HW218327   3.654   2.069  15.682 -0.7833 -0.0894 -1.3012
 2290SOL     OW18328   0.170   4.699  16.721 -0.5531  0.3712 -0.4557
 2290SOL    HW118329   0.162   4.712  16.816  1.2757 -2.6371  0.1025
 2290SOL    HW218330   0.082   0.001  16.696 -0.7206 -0.2327 -0.5286
 2291SOL     OW18331   0.968   0.604  10.375 -0.2370 -0.2352 -0.2434
 2291SOL    HW118332   0.921   0.529  10.409  1.1288 -0.4964  1.0625
 2291SOL    HW218333   1.033   0.559  10.322 -1.7397 -1.5566 -0.9502
 2292SOL     OW18334   3.026   3.644  11.509  0.0790  0.1446  0.3104
 2292SOL    HW118335   3.103   3.595  11.482 -0.9286  0.7002 -3.4886
 2292SOL    HW218336   2.957   3.617  11.449  0.9002 -0.4058 -0.3727
 2293SOL     OW18337   1.837   2.153  13.654 -0.4662 -0.0019  0.3328
 2293SOL    HW118338   1.758   2.140  13.706 -1.3489  1.6614 -0.5945
 2293SOL    HW218339   1.849   2.247  13.667  2.9399 -0.5971  1.5436
 2294SOL     OW18340   2.274   3.741   7.315 -0.4042 -0.1315  0.0669
 2294SOL    HW118341   2.362   3.711   7.339 -0.3172 -0.3722 -0.5576
 2294SOL    HW218342   2.284   3.729   7.221 -1.5982  0.5886 -0.1413
 2295SOL     OW18343   0.973   3.430   5.594  0.1524  0.4943 -0.2217
 2295SOL    HW118344   1.044   3.476   5.549  0.7846 -0.8083 -0.5555
 2295SOL    HW218345   1.030   3.380   5.653  1.3553  0.6123 -1.2902
 2296SOL     OW18346   0.041   4.090   4.348  0.4661  0.2296  0.1214
 2296SOL    HW118347   0.119   4.066   4.299  1.4367  4.4513 -0.3950
 2296SOL    HW218348   0.083   4.149   4.409  0.3083  0.1416  0.3151
 2297SOL     OW18349   3.875   0.391   4.919 -0.2509 -0.1743 -0.3293
 2297SOL    HW118350   3.913   0.338   4.989 -0.1755 -1.5434 -1.4329
 2297SOL    HW218351   3.797   0.341   4.897 -0.0563  0.1433 -1.7160
 2298SOL     OW18352   2.795   0.666   0.539 -0.0999 -0.2698 -0.2144
 2298SOL    HW118353   2.730   0.599   0.518 -1.2456  0.2872  1.5249
 2298SOL    HW218354   2.870   0.609   0.558  1.6304  2.3221  0.6227
 2299SOL     OW18355   2.644   2.785   8.824 -0.2167 -0.1343 -0.9850
 2299SOL    HW118356   2.733   2.767   8.855 -0.1786  1.2724 -0.2783
 2299SOL    HW218357   2.604   2.700   8.843  0.3846 -0.1277  0.3130
 2300SOL     OW18358   0.612   2.652   0.568  0.4866 -0.1367  0.3757
 2300SOL    HW118359   0.632   2.563   0.597 -0.0776 -0.3173  0.1994
 2300SOL    HW218360   0.537   2.641   0.509  0.9909  0.7820 -0.4469
 2301SOL     OW18361   0.733   4.654   3.430 -0.6857 -0.4660 -0.8591
 2301SOL    HW118362   0.724   4.695   3.344 -0.3091  1.3148 -0.0441
 2301SOL    HW218363   0.641   4.631   3.441 -0.4152 -3.3380 -4.5442
 2302SOL     OW18364   0.057   1.662   8.240  0.0984  0.7199  0.1641
 2302SOL    HW118365   0.029   1.717   8.166 -2.2435 -0.0624  0.4662
 2302SOL    HW218366   4.722   1.704   8.300  1.4538  1.5025  0.9906
 2303SOL     OW18367   3.524   3.746   7.175 -0.0474  0.0948  0.7094
 2303SOL    HW118368   3.553   3.711   7.090 -0.3193  0.8521  0.3065
 2303SOL    HW218369   3.601   3.798   7.198  0.9219 -0.2994 -1.5943
 2304SOL     OW18370   4.016   1.245   9.636  0.9922  0.0134  0.2861
 2304SOL    HW118371   4.000   1.229   9.543  1.1670  1.3092  0.0450
 2304SOL    HW218372   3.944   1.302   9.663  1.0341  0.6090 -0.8914
 2305SOL     OW18373   0.343   0.055   9.218  0.1272  0.1064  0.6185
 2305SOL    HW118374   0.251   0.077   9.203  0.5662  1.5003 -0.0166
 2305SOL    HW218375   0.341   4.698   9.171 -0.2165 -0.0739  0.9493
 2306SOL     OW18376   0.781   3.356   3.544 -0.4945  0.4206  0.0622
 2306SOL    HW118377   0.839   3.416   3.590  0.8372 -1.6171  1.0440
 2306SOL    HW218378   0.817   3.280   3.590 -1.3635 -0.1395 -0.1793
 2307SOL     OW18379   4.057   0.219  16.902  0.1580  0.0385 -0.1794
 2307SOL    HW118380   4.010   0.275  16.962  2.4857  1.3172  0.4719
 2307SOL    HW218381   4.114   0.178  16.967 -0.9473  0.3372  0.9559
 2308SOL     OW18382   2.186   2.671   7.766 -0.4592 -0.7215 -0.4006
 2308SOL    HW118383   2.098   2.689   7.798 -0.3915  0.3965 -0.8425
 2308SOL    HW218384   2.169   2.624   7.684 -2.2467 -1.2047  0.2640
 2309SOL     OW18385   2.213   3.513   9.567  0.5305 -0.5467 -0.0250
 2309SOL    HW118386   2.119   3.520   9.550  0.9826  0.9172 -2.0450
 2309SOL    HW218387   2.234   3.594   9.614  0.8751 -1.2159  0.9637
 2310SOL     OW18388   2.713   2.332   8.722  0.0011  0.0333 -0.0753
 2310SOL    HW118389   2.780   2.272   8.753  3.7021  4.4063  0.2058
 2310SOL    HW218390   2.749   2.340   8.634 -1.5597  0.5968 -0.6761
 2311SOL     OW18391   2.031   2.584  16.352  0.0162 -0.6142  1.0273
 2311SOL    HW118392   1.962   2.648  16.369 -1.1938 -2.1051  1.6931
 2311SOL    HW218393   2.022   2.555  16.262  1.3373 -1.1850  1.0742
 2312SOL     OW18394   1.527   1.819   8.449  0.5753 -0.1406 -0.4177
 2312SOL    HW118395   1.552   1.734   8.486  0.4789 -0.8790 -2.0512
 2312SOL    HW218396   1.532   1.881   8.522 -2.0428 -0.0546 -0.3061
 2313SOL     OW18397   0.968   4.592   4.038  0.6512  0.0575  0.0378
 2313SOL    HW118398   0.979   4.497   4.049 -0.2120 -0.3232 -2.4123
 2313SOL    HW218399   0.930   4.578   3.952 -1.2801  0.7596  0.7789
 2314SOL     OW18400   1.101   1.050   7.152  0.1128  0.4047  0.0241
 2314SOL    HW118401   1.030   0.986   7.162  0.9136 -0.5410 -0.4217
 2314SOL    HW218402   1.084   1.088   7.066  0.1408  1.4101  0.4577
 2315SOL     OW18403   2.385   2.083  16.309  0.0416  0.4584  0.3170
 2315SOL    HW118404   2.413   1.991  16.312  0.5878  0.5932 -0.5964
 2315SOL    HW218405   2.302   2.092  16.262  1.5610  1.3283 -2.2507
 2316SOL     OW18406   1.666   4.275   5.693 -0.0359 -0.0752  0.2370
 2316SOL    HW118407   1.693   4.188   5.664  0.0995  0.1076 -0.2026
 2316SOL    HW218408   1.576   4.271   5.661 -0.1977  0.1220  0.6728
 2317SOL     OW18409   3.229   0.663   5.950  0.1816 -0.8174  0.4890
 2317SOL    HW118410   3.153   0.640   6.003  1.6358 -3.2117  1.5283
 2317SOL    HW218411   3.189   0.727   5.891 -0.7968 -1.9526 -0.0723
 2318SOL     OW18412   3.718   1.296  16.854  0.4118  0.6905  0.3480
 2318SOL    HW118413   3.781   1.307  16.783  0.4710  1.7131  0.5543
 2318SOL    HW218414   3.787   1.279  16.919  0.8250  0.7630 -0.0701
 2319SOL     OW18415   4.701   0.745  13.048  0.1234  0.0265 -0.1177
 2319SOL    HW118416   0.016   0.685  13.110  0.5402  0.9304  0.4846
 2319SOL    HW218417   0.058   0.776  13.012  1.1588 -1.7892  0.7684
 2320SOL     OW18418   0.847   3.073  17.269 -0.5066  0.3383  0.3458
 2320SOL    HW118419   0.865   2.993  17.318 -2.0063 -0.6993 -0.7855
 2320SOL    HW218420   0.858   3.143  17.333  2.5653 -0.6606  0.9245
 2321SOL     OW18421   3.737   2.142   7.880  0.2784 -0.1369 -0.2838
 2321SOL    HW118422   3.661   2.085   7.894 -0.1103  0.1651 -1.1546
 2321SOL    HW218423   3.725   2.222   7.932  0.3512  0.8275 -1.7457
 2322SOL     OW18424   1.676   0.436   8.754 -0.5181  0.2409 -0.0899
 2322SOL    HW118425   1.583   0.457   8.751 -0.9778 -1.7017  0.0533
 2322SOL    HW218426   1.712   0.501   8.815  1.9707  0.2104 -1.5249
 2323SOL     OW18427   4.703   3.768   4.576  0.2163 -0.5240  0.2169
 2323SOL    HW118428   4.697   3.797   4.485  2.1145 -0.7741  0.0003
 2323SOL    HW218429   0.059   3.718   4.575 -0.3372 -1.4558  1.1009
 2324SOL     OW18430   0.172   2.370   3.240  0.5498  0.0290  0.2220
 2324SOL    HW118431   0.165   2.460   3.209 -2.2014  0.2207  1.3924
 2324SOL    HW218432   0.189   2.365   3.334 -2.4682  0.5747  0.8024
 2325SOL     OW18433   4.690   3.411   6.349  0.3961  0.3557 -0.3210
 2325SOL    HW118434   4.646   3.327   6.334  0.3673  0.4222 -0.6029
 2325SOL    HW218435   4.617   3.460   6.387  0.6463 -1.7170  2.8415
 2326SOL     OW18436   0.357   1.796  13.369 -0.0655 -0.0334 -0.1187
 2326SOL    HW118437   0.399   1.760  13.290  0.7706  1.4201 -0.3378
 2326SOL    HW218438   0.433   1.825  13.420 -0.8463  3.2372 -0.8258
 2327SOL     OW18439   3.991   2.936   2.818  0.1257  0.3743 -0.1632
 2327SOL    HW118440   3.933   3.012   2.829  0.0645  0.4928 -1.3007
 2327SOL    HW218441   3.966   2.896   2.735 -0.7708 -0.0943  0.3353
 2328SOL     OW18442   2.275   3.370   1.793 -0.2300  0.1243 -0.2389
 2328SOL    HW118443   2.258   3.277   1.780  0.3620  0.3190 -2.3175
 2328SOL    HW218444   2.359   3.369   1.840 -0.7025  0.4762  0.6128
 2329SOL     OW18445   1.482   2.249   3.384  0.0489 -0.0135  0.0598
 2329SOL    HW118446   1.572   2.279   3.392  0.6494 -0.9683 -2.9574
 2329SOL    HW218447   1.449   2.324   3.335  1.0609  0.3735 -0.0131
 2330SOL     OW18448   2.717   1.861  17.148  0.1723  0.6865 -0.2539
 2330SOL    HW118449   2.632   1.878  17.189 -0.0932 -0.9276 -0.1278
 2330SOL    HW218450   2.776   1.880  17.220 -0.6178  1.1790  0.2641
 2331SOL     OW18451   3.849   1.974  16.952 -0.2564 -0.3408  0.4226
 2331SOL    HW118452   3.846   1.953  17.046 -1.0983  0.4982  0.5818
 2331SOL    HW218453   3.780   1.919  16.917 -2.2255  2.0858  0.5261
 2332SOL     OW18454   4.313   1.064   2.302 -0.0539 -0.1562  0.6994
 2332SOL    HW118455   4.254   1.125   2.346 -2.4321 -1.7381 -0.2752
 2332SOL    HW218456   4.375   1.042   2.372  0.7473 -2.9093 -0.8793
 2333SOL     OW18457   2.607   2.841   2.223 -0.0333 -0.2225 -0.0237
 2333SOL    HW118458   2.596   2.930   2.188  0.0571 -1.2498 -2.6595
 2333SOL    HW218459   2.651   2.799   2.150  0.0347  1.5660 -1.0270
 2334SOL     OW18460   0.992   0.309   6.024 -0.1361 -0.1709 -0.0011
 2334SOL    HW118461   0.985   0.397   6.062  1.3591 -0.2203  0.3982
 2334SOL    HW218462   1.077   0.312   5.980 -0.0335  0.1848  0.2193
 2335SOL     OW18463   4.171   4.152   4.211  0.0674 -0.5864 -0.2318
 2335SOL    HW118464   4.119   4.208   4.270  0.7839 -1.2810  1.0656
 2335SOL    HW218465   4.216   4.097   4.275 -2.2632 -1.5226  0.6120
 2336SOL     OW18466   0.345   1.611  10.312  0.1810  0.5584  0.7608
 2336SOL    HW118467   0.422   1.648  10.269  0.0306 -1.4379 -1.2069
 2336SOL    HW218468   0.333   1.527  10.268 -0.0507  2.8097 -3.4231
 2337SOL     OW18469   3.049   1.748   8.342  0.4077 -0.3442 -0.5999
 2337SOL    HW118470   2.966   1.724   8.301  1.6591 -3.1703 -1.4869
 2337SOL    HW218471   3.103   1.673   8.316 -0.1082 -1.5094  1.7057
 2338SOL     OW18472   0.843   1.632   4.760 -0.0188  0.3040 -0.3628
 2338SOL    HW118473   0.814   1.541   4.761  1.4824 -0.1301  2.0408
 2338SOL    HW218474   0.776   1.671   4.703 -1.2720 -0.6278  0.4633
 2339SOL     OW18475   0.368   3.930   6.955 -0.3153  0.3488  1.0346
 2339SOL    HW118476   0.443   3.875   6.934  0.4394  1.8445 -0.1752
 2339SOL    HW218477   0.328   3.918   6.868  1.7622 -1.5982  0.3393
 2340SOL     OW18478   1.624   2.951   8.530 -0.0311  0.0102  0.0324
 2340SOL    HW118479   1.627   3.042   8.501 -0.4932  0.2540  0.7398
 2340SOL    HW218480   1.544   2.944   8.584  0.4421 -2.2527  0.4441
 2341SOL     OW18481   1.403   0.810   6.047  0.2855  0.4474 -0.8972
 2341SOL    HW118482   1.435   0.900   6.054 -0.6817  0.7531 -0.4205
 2341SOL    HW218483   1.469   0.758   6.093  0.3591  1.5173  0.2062
 2342SOL     OW18484   0.347   3.963  12.032  0.6338 -0.2226  0.6258
 2342SOL    HW118485   0.274   3.904  12.013  1.9460 -1.9506  0.8983
 2342SOL    HW218486   0.324   4.046  11.990 -2.0536 -1.5055 -0.4465
 2343SOL     OW18487   3.221   0.091  13.860  0.2763 -0.1770 -0.3170
 2343SOL    HW118488   3.265   0.147  13.925 -1.3296 -0.3873  0.9553
 2343SOL    HW218489   3.174   0.162  13.816 -0.7611 -0.0818  0.9360
 2344SOL     OW18490   3.204   3.248   3.122  0.2191 -0.0440  0.1455
 2344SOL    HW118491   3.111   3.270   3.130  0.4003  0.1254  1.7848
 2344SOL    HW218492   3.203   3.155   3.097  0.2125 -0.0066  0.0083
 2345SOL     OW18493   4.404   0.783   0.209 -0.4151 -0.0416 -0.1930
 2345SOL    HW118494   4.404   0.848   0.279 -1.4823 -1.3371  1.0002
 2345SOL    HW218495   4.310   0.772   0.192 -0.2342 -0.6019 -0.8391
 2346SOL     OW18496   0.695   0.560  15.520 -0.6194  0.1441 -0.1708
 2346SOL    HW118497   0.677   0.513  15.602 -0.2152 -0.0434 -0.1879
 2346SOL    HW218498   0.613   0.608  15.513 -0.4498  0.4885  0.1721
 2347SOL     OW18499   2.999   1.421   4.393 -0.3958  0.0241 -0.2544
 2347SOL    HW118500   2.913   1.402   4.430 -0.6203  1.3246 -0.0942
 2347SOL    HW218501   2.971   1.473   4.317  0.6032 -0.2593 -0.8079
 2348SOL     OW18502   0.697   2.761  11.042  0.2893  0.5409  0.5338
 2348SOL    HW118503   0.718   2.668  11.028  0.1892  0.4366  1.1071
 2348SOL    HW218504   0.742   2.802  10.968  1.9573  1.3556  2.0137
 2349SOL     OW18505   0.653   3.385  15.561 -0.0185  0.4982  0.1297
 2349SOL    HW118506   0.600   3.356  15.635  0.7927 -1.9703 -0.2687
 2349SOL    HW218507   0.740   3.358  15.592 -1.2120 -4.1545 -0.6022
 2350SOL     OW18508   2.995   4.397   2.474  0.3862  0.1077 -0.5230
 2350SOL    HW118509   3.058   4.466   2.493 -0.2364 -0.6187  4.0502
 2350SOL    HW218510   2.924   4.425   2.531  0.3256 -0.9027 -0.1120
 2351SOL     OW18511   2.113   2.217   3.324  0.2368 -0.0846 -0.1612
 2351SOL    HW118512   2.205   2.240   3.334 -0.0316  0.1623  1.6626
 2351SOL    HW218513   2.076   2.281   3.263  0.7808  0.6065  0.2401
 2352SOL     OW18514   0.189   0.213  17.339  0.5525  0.3949  0.2180
 2352SOL    HW118515   0.148   0.217  17.253 -0.8945  0.6896  0.9244
 2352SOL    HW218516   0.165   0.302  17.365 -0.0398  0.6858 -1.3472
 2353SOL     OW18517   0.423   1.937   5.560  0.2886  0.7685  0.1289
 2353SOL    HW118518   0.345   1.957   5.611  0.1994  2.0934 -0.5133
 2353SOL    HW218519   0.491   1.969   5.619 -0.5937  0.7379  1.1616
 2354SOL     OW18520   0.336   0.977   3.272  0.0903  0.5207 -0.4900
 2354SOL    HW118521   0.243   0.956   3.262  0.4917 -1.4805  0.0129
 2354SOL    HW218522   0.332   1.070   3.295  0.8272 -0.5430  3.9349
 2355SOL     OW18523   1.789   2.707  12.266  0.6647  0.1176  0.8384
 2355SOL    HW118524   1.763   2.795  12.238  0.8422 -0.5985 -1.6341
 2355SOL    HW218525   1.881   2.730  12.273  1.0200 -1.5410  1.5160
 2356SOL     OW18526   4.419   4.169   9.318  0.1469 -0.5012 -0.6187
 2356SOL    HW118527   4.341   4.210   9.280  0.2968  1.6961  1.4235
 2356SOL    HW218528   4.441   4.123   9.237 -1.3127 -2.1409 -0.0724
 2357SOL     OW18529   1.768   4.301   5.123  0.1957 -0.0611 -0.0439
 2357SOL    HW118530   1.781   4.388   5.160  1.4079  0.2503 -1.1821
 2357SOL    HW218531   1.836   4.255   5.172  0.1618 -0.4444 -0.3526
 2358SOL     OW18532   0.966   2.909  14.063 -0.6447  0.7915 -0.2719
 2358SOL    HW118533   0.960   2.814  14.067  0.1436  0.8118  1.6916
 2358SOL    HW218534   0.878   2.924  14.097 -0.1029  0.3831  1.3216
 2359SOL     OW18535   3.312   3.577   6.150 -0.1973 -0.8287  0.2098
 2359SOL    HW118536   3.369   3.506   6.180  1.4572  0.6451  0.5839
 2359SOL    HW218537   3.246   3.569   6.219 -0.2786  0.9792  0.3301
 2360SOL     OW18538   0.338   0.260   7.146 -0.1799 -0.5255 -0.3445
 2360SOL    HW118539   0.340   0.291   7.055  0.2735 -0.2852 -0.2569
 2360SOL    HW218540   0.411   0.318   7.169 -1.5825  0.9388  0.4132
 2361SOL     OW18541   2.249   2.440   0.656 -0.4565 -0.6181  0.5495
 2361SOL    HW118542   2.303   2.385   0.713 -0.6438 -0.0676  1.2636
 2361SOL    HW218543   2.160   2.423   0.687 -0.3898 -1.5903  0.2050
 2362SOL     OW18544   4.530   2.991   2.462  0.3526  0.1382 -0.0503
 2362SOL    HW118545   4.556   3.079   2.490 -0.8542  0.2003  0.8802
 2362SOL    HW218546   4.495   3.008   2.374 -1.0603  1.2060  0.7274
 2363SOL     OW18547   2.976   4.413  16.799  0.1543  0.1756 -0.6034
 2363SOL    HW118548   3.061   4.458  16.804  1.0783 -1.4209 -1.8321
 2363SOL    HW218549   2.923   4.469  16.741  0.1031  1.0375  0.2789
 2364SOL     OW18550   1.902   2.653   7.786 -0.1846  0.0925 -0.1367
 2364SOL    HW118551   1.821   2.701   7.768 -0.4722 -1.6489 -3.4170
 2364SOL    HW218552   1.900   2.647   7.882 -1.8792  1.7481 -0.0496
 2365SOL     OW18553   2.081   4.690  10.756 -0.3565 -0.3730  0.1766
 2365SOL    HW118554   2.052   0.046  10.716  0.8723  0.9037  1.8784
 2365SOL    HW218555   2.122   4.649  10.680 -0.8718  1.6154 -1.1718
 2366SOL     OW18556   2.340   3.110  12.949  0.2311 -0.2534  0.0965
 2366SOL    HW118557   2.428   3.074  12.932 -0.8004 -2.5943 -0.2857
 2366SOL    HW218558   2.289   3.119  12.869  1.5161  0.4449 -0.6437
 2367SOL     OW18559   2.951   1.107  14.160  0.7686 -0.3568  0.2905
 2367SOL    HW118560   2.880   1.113  14.223 -1.6466  0.8068 -2.5302
 2367SOL    HW218561   2.911   1.051  14.093  1.3341  1.1836 -1.3330
 2368SOL     OW18562   0.870   3.741   2.141 -0.3018  0.2531 -0.5092
 2368SOL    HW118563   0.849   3.744   2.048  1.7560  2.8556 -0.9056
 2368SOL    HW218564   0.880   3.833   2.166  2.5322 -0.5044  1.1952
 2369SOL     OW18565   2.294   2.925   9.367  0.4738  0.1521  0.4676
 2369SOL    HW118566   2.311   3.019   9.361 -2.8697  0.7201 -0.3262
 2369SOL    HW218567   2.264   2.921   9.458  3.0955  1.7914  1.3859
 2370SOL     OW18568   0.144   4.719   6.976 -0.0983 -0.6583 -0.7119
 2370SOL    HW118569   0.127   4.640   6.925  2.1238 -1.8580  0.4650
 2370SOL    HW218570   0.098   4.697   7.057  1.7873 -4.3057 -0.6575
 2371SOL     OW18571   3.459   0.209   1.328  0.2843  0.0654 -0.3660
 2371SOL    HW118572   3.468   0.291   1.281 -3.3141  0.5665 -0.1921
 2371SOL    HW218573   3.454   0.152   1.251 -1.4902 -2.0069  1.2586
 2372SOL     OW18574   1.568   3.371  15.699 -0.7359 -0.0919  0.4740
 2372SOL    HW118575   1.540   3.280  15.709 -0.7099 -0.2385 -0.8744
 2372SOL    HW218576   1.493   3.423  15.727 -1.9606 -1.7263  0.2207
 2373SOL     OW18577   2.997   2.784   3.532 -0.5109 -0.2922  0.7398
 2373SOL    HW118578   3.022   2.769   3.623  0.9775  1.6627  0.6415
 2373SOL    HW218579   3.076   2.753   3.489  0.4216  3.4546 -0.2311
 2374SOL     OW18580   3.378   0.847  14.939 -0.2836  0.0394  0.1794
 2374SOL    HW118581   3.399   0.756  14.958  0.5728 -0.0454 -1.2125
 2374SOL    HW218582   3.358   0.878  15.028 -0.4992  0.1535  0.0908
 2375SOL     OW18583   4.632   3.415   7.127 -0.1520  0.1336 -1.1260
 2375SOL    HW118584   0.002   3.411   7.118 -0.0866  0.5477 -0.5311
 2375SOL    HW218585   4.611   3.475   7.055  2.5027  2.1686 -0.1824
 2376SOL     OW18586   0.471   3.639  12.021 -0.1009 -0.0747 -0.2405
 2376SOL    HW118587   0.546   3.591  12.057  0.3809  0.2507 -0.8110
 2376SOL    HW218588   0.521   3.697  11.964 -1.5722  0.2901 -1.1583
 2377SOL     OW18589   2.670   1.964   5.654 -0.1546  0.9777 -0.4657
 2377SOL    HW118590   2.596   1.934   5.601 -0.8214  0.0124  0.9868
 2377SOL    HW218591   2.640   2.044   5.697 -1.5552 -0.3415  1.0083
 2378SOL     OW18592   2.181   1.540  14.059  0.1859  0.2010  0.2887
 2378SOL    HW118593   2.088   1.524  14.072  0.5464 -0.5610  1.9300
 2378SOL    HW218594   2.179   1.619  14.006 -2.1229 -0.1153 -0.0787
 2379SOL     OW18595   2.804   3.856   9.087  0.2987 -0.3824  0.5925
 2379SOL    HW118596   2.881   3.871   9.032 -1.0214 -0.5277 -1.3122
 2379SOL    HW218597   2.799   3.762   9.074  0.7773 -0.5051  1.3289
 2380SOL     OW18598   1.933   1.383  11.663  0.8905 -0.1150  0.6502
 2380SOL    HW118599   1.867   1.334  11.615 -1.3903  2.0012  1.6387
 2380SOL    HW218600   1.878   1.455  11.695  0.0486 -0.3668 -0.2382
 2381SOL     OW18601   2.840   0.118   9.182  0.0776  0.2720  0.2619
 2381SOL    HW118602   2.911   0.157   9.234  0.3300 -0.2079  0.2848
 2381SOL    HW218603   2.883   0.044   9.139  2.4052  1.4265  0.5833
 2382SOL     OW18604   1.437   2.515   2.594 -0.0598 -0.4113 -0.8215
 2382SOL    HW118605   1.382   2.536   2.519 -1.8314  1.8518  1.1095
 2382SOL    HW218606   1.497   2.452   2.554  0.1676 -0.2698 -0.7062
 2383SOL     OW18607   0.675   2.829  11.318 -0.1961 -0.1532 -0.2229
 2383SOL    HW118608   0.684   2.788  11.232  0.8951  0.7206 -0.5379
 2383SOL    HW218609   0.768   2.825  11.341  0.2490  2.6075 -1.4490
 2384SOL     OW18610   3.980   2.842  11.099  0.0857 -0.3506 -0.0447
 2384SOL    HW118611   3.954   2.873  11.185 -0.6256  0.0555 -0.4073
 2384SOL    HW218612   3.991   2.930  11.065 -1.6582  0.0296  0.4140
 2385SOL     OW18613   3.882   1.698   7.267 -0.2289  0.1189 -0.3267
 2385SOL    HW118614   3.967   1.742   7.275 -1.1046  1.6714  0.3447
 2385SOL    HW218615   3.894   1.650   7.185 -0.4927  0.0610 -0.3315
 2386SOL     OW18616   0.496   3.409   1.206  0.5707  0.7058  0.4339
 2386SOL    HW118617   0.501   3.480   1.142  2.0150  0.7519  0.6109
 2386SOL    HW218618   0.414   3.369   1.176  0.4554 -0.2043  1.9608
 2387SOL     OW18619   2.933   1.124   1.773  0.3556  0.8023  0.6206
 2387SOL    HW118620   2.899   1.178   1.844 -1.5754  1.3427 -0.7034
 2387SOL    HW218621   2.951   1.191   1.706 -0.2030  0.3639  0.0257
 2388SOL     OW18622   1.222   2.617  11.282 -0.6366  0.5471  0.2183
 2388SOL    HW118623   1.209   2.610  11.376 -2.4812 -1.4952 -0.1877
 2388SOL    HW218624   1.190   2.530  11.258  1.4508  0.3115 -1.7313
 2389SOL     OW18625   1.844   3.921   3.877  0.4047 -0.0382 -0.4250
 2389SOL    HW118626   1.931   3.926   3.917 -0.5376  0.0388  1.6081
 2389SOL    HW218627   1.787   3.937   3.952 -0.5123 -3.0442 -0.4947
 2390SOL     OW18628   1.438   0.535   5.681  0.4191 -0.3476 -0.0821
 2390SOL    HW118629   1.506   0.521   5.616  0.1615 -2.2684  0.0474
 2390SOL    HW218630   1.472   0.605   5.737 -0.7627  0.4460 -0.3516
 2391SOL     OW18631   4.454   0.907   4.419  0.1206 -0.4676 -0.4035
 2391SOL    HW118632   4.392   0.930   4.350  0.5868  0.8554 -0.3929
 2391SOL    HW218633   4.532   0.947   4.381  2.4055 -2.7851  1.8452
 2392SOL     OW18634   0.671   2.767  11.600 -0.3229 -0.0340 -0.3417
 2392SOL    HW118635   0.614   2.834  11.635 -2.6857 -2.5013  0.4770
 2392SOL    HW218636   0.638   2.767  11.510 -1.5772 -0.2654  0.1286
 2393SOL     OW18637   2.027   4.185   8.926 -0.5761 -1.0270  0.2918
 2393SOL    HW118638   1.991   4.112   8.875 -0.2238  0.2174 -1.7480
 2393SOL    HW218639   2.006   4.159   9.015 -0.0651  0.7852  0.9182
 2394SOL     OW18640   4.175   2.752   4.426  0.6025  0.4255 -0.1755
 2394SOL    HW118641   4.173   2.788   4.337 -2.2296  2.5627  0.7644
 2394SOL    HW218642   4.109   2.810   4.462  0.2396 -0.0028 -0.1606
 2395SOL     OW18643   0.276   1.461   6.331  0.4478 -0.2774  0.9176
 2395SOL    HW118644   0.294   1.485   6.240  0.0247 -1.0773  0.6239
 2395SOL    HW218645   0.200   1.405   6.316 -0.9732  1.8146  0.1846
 2396SOL     OW18646   1.671   0.578   5.531  0.2368 -0.7421 -0.1553
 2396SOL    HW118647   1.732   0.508   5.554  1.1487  0.0205 -0.2506
 2396SOL    HW218648   1.738   0.632   5.490  2.0578 -3.5675 -0.9206
 2397SOL     OW18649   1.555   3.787   1.893 -0.0935 -0.0007  0.0732
 2397SOL    HW118650   1.517   3.845   1.827 -1.4002 -1.1805 -0.1990
 2397SOL    HW218651   1.580   3.707   1.848 -1.3856  0.9102 -2.2952
 2398SOL     OW18652   3.889   1.550   8.664  0.0532 -0.8549  0.5181
 2398SOL    HW118653   3.837   1.597   8.729  0.5545 -0.1069  0.3781
 2398SOL    HW218654   3.818   1.520   8.608  0.9991  0.3788 -1.3541
 2399SOL     OW18655   0.004   1.743   8.693 -0.1426  0.1292 -0.1391
 2399SOL    HW118656   0.090   1.702   8.706 -0.5513  0.4072  3.6185
 2399SOL    HW218657   0.016   1.831   8.727  0.3323  0.3057 -0.7800
 2400SOL     OW18658   0.315   2.501   7.116  0.5021  0.0307  0.3693
 2400SOL    HW118659   0.232   2.501   7.069  0.1906 -1.9403  0.9247
 2400SOL    HW218660   0.308   2.411   7.147 -2.5395 -0.0975 -0.6646
 2401SOL     OW18661   3.437   3.912   3.558 -0.1498 -0.9080 -0.1173
 2401SOL    HW118662   3.415   3.843   3.619  2.5339 -1.3267  0.3776
 2401SOL    HW218663   3.393   3.986   3.600 -0.7366 -1.9420  1.0925
 2402SOL     OW18664   1.856   1.661   3.746 -0.1782 -0.2169 -0.0544
 2402SOL    HW118665   1.921   1.703   3.689 -0.6473 -0.6315 -0.8939
 2402SOL    HW218666   1.888   1.669   3.836 -2.1583 -0.8219  0.7018
 2403SOL     OW18667   4.257   3.083   8.892 -0.7352 -0.5974 -0.1160
 2403SOL    HW118668   4.270   2.989   8.907  0.9074 -0.2934  0.4039
 2403SOL    HW218669   4.178   3.075   8.839 -2.5634  3.9241  1.9459
 2404SOL     OW18670   4.298   3.603   6.614 -0.6865  0.2309 -1.2647
 2404SOL    HW118671   4.228   3.667   6.626 -2.2071 -1.9301  1.4008
 2404SOL    HW218672   4.246   3.526   6.637 -0.9963  0.6282 -0.6188
 2405SOL     OW18673   1.305   4.243   0.420 -0.2908 -0.2055  0.2043
 2405SOL    HW118674   1.256   4.208   0.346  2.0233 -0.4676 -1.2076
 2405SOL    HW218675   1.395   4.238   0.387 -0.5567 -2.3048 -0.1918
 2406SOL     OW18676   0.367   0.042   7.795  0.9732 -0.1294  0.2276
 2406SOL    HW118677   0.351   4.673   7.797  0.9066 -0.1211  0.0969
 2406SOL    HW218678   0.451   0.047   7.750  0.9822  1.1458  0.3814
 2407SOL     OW18679   2.784   2.938   6.574 -0.2333 -0.6851  0.4142
 2407SOL    HW118680   2.809   2.972   6.488 -0.2477 -0.7414  0.3876
 2407SOL    HW218681   2.694   2.914   6.555 -0.2880 -0.4193  0.3335
 2408SOL     OW18682   2.666   4.718   4.444 -0.2210 -0.2371  0.1145
 2408SOL    HW118683   2.574   0.018   4.453 -0.1508  0.1744 -0.3333
 2408SOL    HW218684   2.698   0.063   4.387  0.0564 -0.5090 -0.0666
 2409SOL     OW18685   3.852   0.845   2.893  0.4025  0.2065  0.4290
 2409SOL    HW118686   3.940   0.879   2.911  1.3519 -2.6084  1.1143
 2409SOL    HW218687   3.857   0.760   2.936 -0.5579 -0.3096 -0.4945
 2410SOL     OW18688   1.857   2.912   4.569 -0.0825  0.6261  0.4884
 2410SOL    HW118689   1.862   2.852   4.495  0.1785  2.6088 -1.1145
 2410SOL    HW218690   1.764   2.895   4.587  0.3611 -1.1297  1.1297
 2411SOL     OW18691   1.521   4.585   4.113  0.5892 -0.4659 -0.0859
 2411SOL    HW118692   1.610   4.613   4.133  0.8626 -1.6814  0.3708
 2411SOL    HW218693   1.482   4.654   4.059 -1.4267  0.0162  1.9260
 2412SOL     OW18694   1.621   3.273   5.030  0.4079  0.2683  0.0554
 2412SOL    HW118695   1.703   3.296   4.987  1.1282  2.2582  2.4974
 2412SOL    HW218696   1.629   3.330   5.107 -0.0597 -0.7631  0.8686
 2413SOL     OW18697   4.073   4.663  16.279  0.1201  0.3529 -0.3784
 2413SOL    HW118698   4.037   4.685  16.365 -0.3512 -1.0390 -0.2127
 2413SOL    HW218699   4.162   4.693  16.297 -0.0141  1.4047 -1.5057
 2414SOL     OW18700   0.237   0.170  15.118 -0.4204 -0.1316  0.4735
 2414SOL    HW118701   0.302   0.104  15.093  1.2761  1.4747  0.5944
 2414SOL    HW218702   0.276   0.197  15.201 -0.1870 -0.6081  0.5138
 2415SOL     OW18703   3.457   1.115   5.785 -0.4147 -0.2720 -0.1750
 2415SOL    HW118704   3.471   1.028   5.746 -0.3929  0.2738 -1.3972
 2415SOL    HW218705   3.530   1.121   5.847  1.1021  0.1890 -1.9927
 2416SOL     OW18706   2.694   1.610   6.306  0.5550 -0.0243  0.6915
 2416SOL    HW118707   2.621   1.645   6.255 -0.5304 -1.3348  1.3467
 2416SOL    HW218708   2.766   1.644   6.253 -0.5969  2.9958  1.0506
 2417SOL     OW18709   4.283   2.107  14.880  0.1086  0.1605  0.1905
 2417SOL    HW118710   4.281   2.012  14.866 -4.3032 -0.2183  3.1903
 2417SOL    HW218711   4.277   2.133  14.789  2.1688  0.0908  0.0326
 2418SOL     OW18712   0.380   0.329   3.446  0.3819  0.2644 -0.0602
 2418SOL    HW118713   0.401   0.236   3.436  0.4465  0.2038  0.6619
 2418SOL    HW218714   0.296   0.335   3.401  0.4585  1.6346 -0.0170
 2419SOL     OW18715   4.525   3.440  11.432  0.4178  0.0950 -0.2750
 2419SOL    HW118716   4.443   3.400  11.404  0.1529 -0.3513  1.1092
 2419SOL    HW218717   4.594   3.411  11.373  0.6491 -1.3729  0.7214
 2420SOL     OW18718   1.957   4.445  10.666  0.4740  0.5419  0.2073
 2420SOL    HW118719   1.984   4.504  10.737 -0.1746  2.0987 -0.8558
 2420SOL    HW218720   2.007   4.479  10.592  0.0144  3.1074  1.0787
 2421SOL     OW18721   1.907   1.782   2.787 -0.5853 -0.1261 -0.1993
 2421SOL    HW118722   1.913   1.869   2.746 -0.0373 -0.3014 -0.5010
 2421SOL    HW218723   1.968   1.790   2.861 -0.9777 -3.4600  0.4981
 2422SOL     OW18724   1.932   2.906  16.933 -0.0313 -0.2699 -0.5656
 2422SOL    HW118725   1.906   2.862  16.852 -0.0608 -0.6034 -0.3738
 2422SOL    HW218726   1.980   2.975  16.885  0.9566 -0.4438  0.1710
 2423SOL     OW18727   4.044   1.659   7.911  0.2487 -0.2531  0.0890
 2423SOL    HW118728   4.079   1.571   7.925  0.4995  0.0822  1.6440
 2423SOL    HW218729   4.070   1.696   7.996  3.6375  1.6703 -1.7805
 2424SOL     OW18730   2.646   2.077   4.664  0.2106  0.1594  0.4496
 2424SOL    HW118731   2.648   2.155   4.610 -0.4776 -0.0531  0.1170
 2424SOL    HW218732   2.602   2.018   4.603  1.1501 -0.3662  0.2773
 2425SOL     OW18733   4.051   4.388   5.316 -0.2636 -0.1998  0.6298
 2425SOL    HW118734   3.998   4.352   5.245 -1.1845  0.7715  0.8257
 2425SOL    HW218735   4.128   4.332   5.321  0.1525  0.0746 -2.2352
 2426SOL     OW18736   0.885   3.140   2.928 -1.0514  0.4085 -0.1470
 2426SOL    HW118737   0.802   3.108   2.893 -1.3022  1.0324 -0.1362
 2426SOL    HW218738   0.942   3.065   2.939  0.4137  1.7714  1.5733
 2427SOL     OW18739   0.001   0.246  13.638  0.2179  0.4230  0.2417
 2427SOL    HW118740   4.694   0.220  13.724  1.1316 -2.6763 -0.3346
 2427SOL    HW218741   4.653   0.302  13.613 -0.4644 -0.4778  0.2542
 2428SOL     OW18742   2.232   0.827   4.350 -0.1569 -0.0071  0.2082
 2428SOL    HW118743   2.171   0.826   4.423 -0.2301  0.5388  0.1566
 2428SOL    HW218744   2.166   0.811   4.282  2.0171 -0.9663 -1.6777
 2429SOL     OW18745   4.598   1.104   6.138  1.4604  0.0190 -0.3135
 2429SOL    HW118746   4.524   1.160   6.161  0.7972 -0.2570 -1.8111
 2429SOL    HW218747   4.543   1.028   6.120 -1.8047  2.0771  1.0074
 2430SOL     OW18748   4.462   0.774   2.429 -0.0003 -0.1819  0.1144
 2430SOL    HW118749   4.488   0.837   2.362 -3.5196 -0.5800 -1.6780
 2430SOL    HW218750   4.544   0.741   2.465  0.4103  1.7033  0.8775
 2431SOL     OW18751   2.836   1.615   8.975 -0.5687  0.6481 -0.8178
 2431SOL    HW118752   2.899   1.572   9.033 -0.6317  3.0361  0.9977
 2431SOL    HW218753   2.855   1.584   8.886  2.5482  1.8707 -0.5724
 2432SOL     OW18754   1.448   4.712   1.399  0.5054  0.1439 -0.0542
 2432SOL    HW118755   1.392   4.635   1.408  1.6518 -0.4652  1.9771
 2432SOL    HW218756   1.412   0.026   1.320 -1.4098  0.1295  0.8346
 2433SOL     OW18757   4.531   1.707   1.219  0.1565 -0.0291 -0.1431
 2433SOL    HW118758   4.549   1.614   1.211 -1.6358 -0.2114 -2.2179
 2433SOL    HW218759   4.601   1.750   1.169  3.3161 -1.3399  3.2209
 2434SOL     OW18760   1.173   2.312   8.122  0.1485  0.2278  0.3797
 2434SOL    HW118761   1.194   2.390   8.174 -0.1194  0.3113  0.3618
 2434SOL    HW218762   1.204   2.333   8.034  1.1219 -0.0432  0.6480
 2435SOL     OW18763   0.379   3.237   5.107 -0.1760 -0.5838 -0.7878
 2435SOL    HW118764   0.292   3.222   5.071 -0.0867  1.7835 -1.9441
 2435SOL    HW218765   0.391   3.328   5.082 -0.8759 -0.0214  0.9332
 2436SOL     OW18766   1.949   0.004   8.507 -0.5578 -0.9604  0.9852
 2436SOL    HW118767   1.911   0.027   8.422 -0.4385 -0.4011  1.0834
 2436SOL    HW218768   1.903   0.055   8.573 -1.4069 -0.6728  0.1772
 2437SOL     OW18769   1.503   2.028   8.972  0.1432 -0.1365 -0.3030
 2437SOL    HW118770   1.564   1.982   9.030 -1.4546  0.1619  1.6010
 2437SOL    HW218771   1.477   2.098   9.032  2.2123  2.2187 -2.1358
 2438SOL     OW18772   0.835   3.789   3.256 -0.4950 -0.3241  0.1567
 2438SOL    HW118773   0.909   3.849   3.256 -0.4089 -0.4219 -0.4777
 2438SOL    HW218774   0.869   3.706   3.290 -1.4115 -0.6951  0.1496
 2439SOL     OW18775   3.604   3.054   2.952 -0.2206 -0.3555 -0.2560
 2439SOL    HW118776   3.545   3.127   2.935 -1.3893 -1.4037 -0.6855
 2439SOL    HW218777   3.570   2.994   2.886 -1.6110  1.6509 -1.3429
 2440SOL     OW18778   0.892   3.744   2.744  0.3532 -0.8685 -0.4702
 2440SOL    HW118779   0.915   3.699   2.662  0.6903 -1.7372  0.1020
 2440SOL    HW218780   0.859   3.671   2.796  1.7514 -1.0824  0.1117
 2441SOL     OW18781   4.060   3.922  15.504  0.2175 -0.2571  0.4256
 2441SOL    HW118782   4.065   3.866  15.582  1.7750 -1.3202 -0.4152
 2441SOL    HW218783   4.008   3.994  15.537 -1.3486 -0.2421 -2.0906
 2442SOL     OW18784   1.530   0.175   7.186 -0.3760  0.2839  0.2204
 2442SOL    HW118785   1.553   0.119   7.112 -1.7281  0.6752 -0.4909
 2442SOL    HW218786   1.518   0.103   7.248 -0.7854  0.8895  0.8407
 2443SOL     OW18787   3.565   1.403  15.445 -0.2983 -0.5437  0.3088
 2443SOL    HW118788   3.632   1.425  15.381  1.2618 -0.2419  2.0301
 2443SOL    HW218789   3.507   1.476  15.424  0.4402 -0.0686 -0.0898
 2444SOL     OW18790   3.112   0.502   5.152  0.7328 -0.6643  0.1465
 2444SOL    HW118791   3.112   0.495   5.248  0.3719 -1.5544  0.0792
 2444SOL    HW218792   3.130   0.596   5.143 -0.4090 -0.4599  0.0454
 2445SOL     OW18793   1.905   1.201  16.380  0.0631 -0.2293  0.0824
 2445SOL    HW118794   1.914   1.110  16.353 -1.2239  0.6602 -3.3505
 2445SOL    HW218795   1.947   1.198  16.466 -1.9044  0.8785  1.0878
 2446SOL     OW18796   3.836   3.922   7.887 -0.0490 -0.4376  0.3767
 2446SOL    HW118797   3.758   3.942   7.834 -0.1177 -0.2872  0.5340
 2446SOL    HW218798   3.860   3.835   7.857 -0.2067  0.6334 -2.8622
 2447SOL     OW18799   1.074   1.912   4.652  0.0184  0.7350  0.1922
 2447SOL    HW118800   1.040   1.881   4.735  0.1818 -3.4354 -1.3246
 2447SOL    HW218801   1.053   1.837   4.598  0.3867  1.4591 -0.9604
 2448SOL     OW18802   3.210   4.104   7.324  0.2948 -0.4750  0.0723
 2448SOL    HW118803   3.163   4.162   7.384 -1.8110  0.3939 -2.4344
 2448SOL    HW218804   3.284   4.162   7.305 -1.5829  1.4856 -1.2284
 2449SOL     OW18805   0.150   0.658  15.961  0.5480 -0.5300 -0.0645
 2449SOL    HW118806   0.168   0.578  16.010  1.0428  0.7217  1.8067
 2449SOL    HW218807   0.054   0.661  15.960  0.6248  1.3997 -2.8282
 2450SOL     OW18808   1.445   0.703   9.585 -0.0271  0.3077  0.7011
 2450SOL    HW118809   1.451   0.797   9.602  1.1761  0.3619 -0.1050
 2450SOL    HW218810   1.532   0.670   9.608 -0.3647 -0.8658  0.3246
 2451SOL     OW18811   3.159   1.992  12.023 -0.3329  0.5886  0.0058
 2451SOL    HW118812   3.213   1.953  12.092  2.3472  0.1278 -2.3524
 2451SOL    HW218813   3.099   2.041  12.078  0.0836 -0.3053  1.2572
 2452SOL     OW18814   2.661   4.448  17.078 -0.1173  0.2311  0.1516
 2452SOL    HW118815   2.598   4.510  17.113 -1.3900 -1.0290  0.0688
 2452SOL    HW218816   2.644   4.382  17.146 -0.2611 -0.2374 -0.3419
 2453SOL     OW18817   0.384   3.989   5.507  0.5449 -0.0031 -0.0738
 2453SOL    HW118818   0.317   3.969   5.572  0.2721  0.2557 -0.2724
 2453SOL    HW218819   0.454   4.006   5.569 -0.6227 -1.3051  1.6068
 2454SOL     OW18820   3.738   2.788   7.180  0.0485 -0.1432  0.7251
 2454SOL    HW118821   3.738   2.806   7.086  0.3746 -2.5911  0.2493
 2454SOL    HW218822   3.810   2.848   7.201  0.7260  0.0070 -1.9463
 2455SOL     OW18823   2.488   4.280   8.562 -0.0672 -0.2357 -0.5007
 2455SOL    HW118824   2.485   4.302   8.469 -0.4999 -0.9556 -0.6584
 2455SOL    HW218825   2.502   4.369   8.596  0.6841  0.2331 -2.0609
 2456SOL     OW18826   0.701   4.307   5.959 -0.5410  0.0398 -0.1763
 2456SOL    HW118827   0.616   4.304   5.915  0.1702  0.9736 -1.6071
 2456SOL    HW218828   0.680   4.363   6.034 -1.1273 -0.4503  0.0259
 2457SOL     OW18829   0.799   4.426  11.699  0.3355  0.4046 -0.8078
 2457SOL    HW118830   0.796   4.450  11.606 -0.4764  4.3199  0.2314
 2457SOL    HW218831   0.882   4.463  11.728  0.3083 -0.8591  0.8475
 2458SOL     OW18832   0.027   2.263  15.444 -0.2922  0.0944 -0.2900
 2458SOL    HW118833   0.047   2.347  15.487  1.3566 -0.2889 -0.3156
 2458SOL    HW218834   4.712   2.280  15.360  0.0056 -0.0763 -0.4680
 2459SOL     OW18835   1.893   0.804   1.654 -0.1093 -0.4408  0.5092
 2459SOL    HW118836   1.928   0.886   1.688 -0.8246  0.3810 -0.7221
 2459SOL    HW218837   1.969   0.748   1.662  1.5740  1.7522 -0.0910
 2460SOL     OW18838   0.125   1.366   4.852 -0.0537 -1.0362  0.1194
 2460SOL    HW118839   0.083   1.397   4.932 -2.4729 -0.3764 -1.4039
 2460SOL    HW218840   0.087   1.278   4.857  1.0196 -1.5387 -0.6409
 2461SOL     OW18841   2.600   1.195   4.058  0.1393  0.1231 -0.0599
 2461SOL    HW118842   2.683   1.242   4.066  1.1044 -1.2804 -1.9821
 2461SOL    HW218843   2.605   1.176   3.965  1.1201 -0.9207  0.1984
 2462SOL     OW18844   1.508   2.678   7.474  0.1196 -0.4270  1.1505
 2462SOL    HW118845   1.473   2.678   7.385  3.3954  2.8513 -0.1374
 2462SOL    HW218846   1.448   2.744   7.508  1.2500  1.9212 -1.4345
 2463SOL     OW18847   3.643   3.458   4.710  0.5550  0.1939  0.2568
 2463SOL    HW118848   3.691   3.380   4.681 -0.9896 -0.8419  0.4783
 2463SOL    HW218849   3.710   3.525   4.698  0.4536 -0.0324 -1.5535
 2464SOL     OW18850   2.704   4.353   2.216 -0.1277  0.7117 -1.3393
 2464SOL    HW118851   2.728   4.435   2.259 -1.5702 -0.4076  1.6418
 2464SOL    HW218852   2.782   4.346   2.160  2.3189  0.9467  1.9966
 2465SOL     OW18853   2.496   1.125   7.660  0.0431  0.1068  0.0842
 2465SOL    HW118854   2.565   1.100   7.722  0.3035 -0.6943 -0.5315
 2465SOL    HW218855   2.518   1.213   7.628 -0.9303  0.0545 -0.7194
 2466SOL     OW18856   0.251   3.257  17.105  0.0999 -0.0909  0.2432
 2466SOL    HW118857   0.225   3.181  17.156  0.0503 -0.4798 -0.3632
 2466SOL    HW218858   0.345   3.244  17.114  0.3796  1.3519 -0.5058
 2467SOL     OW18859   1.373   2.827   9.800 -0.5871  0.4359 -0.7008
 2467SOL    HW118860   1.339   2.894   9.740  0.5186  0.8884 -0.8122
 2467SOL    HW218861   1.437   2.780   9.746 -1.8613  1.3429 -3.0381
 2468SOL     OW18862   0.116   3.856   4.878 -0.5048  0.3485  0.1325
 2468SOL    HW118863   0.173   3.898   4.814 -0.9940  0.6068 -0.1315
 2468SOL    HW218864   0.087   3.778   4.830  0.5013  0.6149 -0.8875
 2469SOL     OW18865   3.975   3.954   2.658  0.6192 -0.4104  0.4277
 2469SOL    HW118866   4.064   3.960   2.693  0.7416 -2.2229  0.4589
 2469SOL    HW218867   3.971   3.860   2.640  3.1576 -0.9929  2.7564
 2470SOL     OW18868   4.595   3.630  14.440  0.4601 -0.4761 -0.1776
 2470SOL    HW118869   4.690   3.615  14.435  0.9276  1.9460  1.6566
 2470SOL    HW218870   4.560   3.599  14.524 -0.3526 -1.0824 -0.7389
 2471SOL     OW18871   0.118   2.709   5.841 -0.4311  0.2146  0.6399
 2471SOL    HW118872   0.129   2.761   5.761 -1.3556 -1.0028 -0.2777
 2471SOL    HW218873   0.030   2.738   5.864  0.6723  4.2833 -0.3362
 2472SOL     OW18874   1.505   3.301   7.839  0.1767 -0.1947  0.4646
 2472SOL    HW118875   1.450   3.344   7.903  0.9149  0.3576  0.7314
 2472SOL    HW218876   1.444   3.300   7.766 -0.4298 -0.0489  0.9746
 2473SOL     OW18877   1.620   4.351   9.044  0.1568 -0.2639  0.1485
 2473SOL    HW118878   1.537   4.394   9.064  0.9001  0.0909  2.5049
 2473SOL    HW218879   1.641   4.322   9.133  0.3502  0.7054  0.4288
 2474SOL     OW18880   4.451   1.791   2.337 -0.6837 -0.0253 -0.0209
 2474SOL    HW118881   4.355   1.785   2.329 -0.6499 -1.5268  0.7659
 2474SOL    HW218882   4.461   1.885   2.325 -1.4392  0.1070  0.3560
 2475SOL     OW18883   3.974   3.072  11.439  0.2467  0.3051  0.1424
 2475SOL    HW118884   4.000   3.150  11.391  1.2044  1.3483  2.3238
 2475SOL    HW218885   4.057   3.061  11.485 -0.4580  1.5003  1.7068
 2476SOL     OW18886   2.335   2.326   5.729 -0.1133 -0.3198 -0.7048
 2476SOL    HW118887   2.347   2.391   5.660 -2.5359  2.4942  1.5162
 2476SOL    HW218888   2.243   2.340   5.751  0.2150  1.1537 -0.2016
 2477SOL     OW18889   3.104   4.389   0.005 -0.4114 -0.4329  0.2001
 2477SOL    HW118890   3.015   4.363   0.028  0.0656 -1.0589  1.3810
 2477SOL    HW218891   3.161   4.313   0.016 -0.4183 -0.3240  1.0084
 2478SOL     OW18892   2.187   2.478   2.671 -0.5031  0.4313 -0.1259
 2478SOL    HW118893   2.282   2.484   2.667 -0.2457 -2.3796  2.1424
 2478SOL    HW218894   2.166   2.561   2.714 -1.1287  0.3119 -0.2088
 2479SOL     OW18895   4.136   1.717   4.317 -0.7129  0.0890 -0.4092
 2479SOL    HW118896   4.144   1.623   4.337  1.3707  0.5718  1.0511
 2479SOL    HW218897   4.175   1.715   4.229  3.4468 -0.1688  1.4325
 2480SOL     OW18898   0.012   0.405   6.195 -0.0310  0.3830  0.2991
 2480SOL    HW118899   4.709   0.443   6.278 -1.1425  1.9043 -0.7798
 2480SOL    HW218900   4.690   0.449   6.124 -1.8388  0.2996  1.4573
 2481SOL     OW18901   3.341   4.424   3.596  0.1559 -0.2725  0.0443
 2481SOL    HW118902   3.409   4.459   3.653 -0.0642 -1.0864  0.8095
 2481SOL    HW218903   3.289   4.501   3.572  1.5913  1.6526  3.2448
 2482SOL     OW18904   4.176   1.669  10.515  0.2072 -0.2175  0.4990
 2482SOL    HW118905   4.140   1.658  10.427 -0.1251  0.0950  0.5992
 2482SOL    HW218906   4.271   1.665  10.500  0.4182 -1.2295  2.0745
 2483SOL     OW18907   1.277   2.281   8.570 -0.3176 -0.2148  0.0105
 2483SOL    HW118908   1.350   2.266   8.629  0.6176 -0.8221 -1.3092
 2483SOL    HW218909   1.213   2.236   8.626  1.1914 -3.1074 -0.5705
 2484SOL     OW18910   3.900   0.225   4.048  0.0862 -0.2520  0.0311
 2484SOL    HW118911   3.959   0.165   4.094 -0.2837 -0.5583  0.1056
 2484SOL    HW218912   3.859   0.168   3.983  0.5722  0.1250 -0.5977
 2485SOL     OW18913   4.330   2.033   6.180 -0.2308  0.1062  0.0868
 2485SOL    HW118914   4.389   1.966   6.215 -0.3247  0.2581  0.5307
 2485SOL    HW218915   4.385   2.106   6.209 -3.3116  1.0962  3.3599
 2486SOL     OW18916   4.643   2.854   4.362 -0.4947 -0.3549  0.0002
 2486SOL    HW118917   4.643   2.768   4.404  4.8900 -0.3277  0.1427
 2486SOL    HW218918   4.629   2.829   4.271 -0.5036 -1.0604  0.1923
 2487SOL     OW18919   1.329   0.335   1.840  0.2170  0.0906  0.0282
 2487SOL    HW118920   1.354   0.245   1.820  0.8156 -0.3102  2.6557
 2487SOL    HW218921   1.250   0.342   1.786 -0.2858 -1.6827  0.5328
 2488SOL     OW18922   0.516   1.855   3.550  0.2744 -0.5545  0.7128
 2488SOL    HW118923   0.495   1.947   3.536  0.6714 -0.6175 -0.2956
 2488SOL    HW218924   0.599   1.836   3.506  0.0408  3.2493 -1.3028
 2489SOL     OW18925   4.201   2.243  15.652  0.1816  0.5314  0.3236
 2489SOL    HW118926   4.276   2.222  15.597  0.6463 -0.0570  1.1797
 2489SOL    HW218927   4.202   2.336  15.633 -3.0891  0.5723  0.3107
 2490SOL     OW18928   1.502   0.538  11.743  0.9653  0.1576 -0.8653
 2490SOL    HW118929   1.555   0.592  11.685 -1.0779  1.3075 -1.6427
 2490SOL    HW218930   1.426   0.522  11.688  0.1983  0.6893  0.0394
 2491SOL     OW18931   4.508   3.804   1.412  0.4216 -0.5769  0.0356
 2491SOL    HW118932   4.413   3.811   1.408  0.6470  2.2321 -0.0460
 2491SOL    HW218933   4.522   3.717   1.374  1.2810  0.3984 -1.8691
 2492SOL     OW18934   1.929   0.340   9.160  0.0669  0.1921  0.0050
 2492SOL    HW118935   1.876   0.293   9.096  0.3127 -0.7781  0.5063
 2492SOL    HW218936   1.959   0.267   9.214  1.6204  0.3284 -0.6725
 2493SOL     OW18937   4.437   1.858   9.772 -0.5054  0.4920 -0.1616
 2493SOL    HW118938   4.415   1.825   9.685 -0.0136 -1.1955  0.3607
 2493SOL    HW218939   4.533   1.856   9.769 -0.5235 -1.2187  0.3156
 2494SOL     OW18940   3.073   2.785   7.728 -0.2615 -0.3765 -0.2208
 2494SOL    HW118941   3.155   2.828   7.754 -1.5914  0.9303  1.7414
 2494SOL    HW218942   3.102   2.694   7.724  0.9282  0.0249 -0.7827
 2495SOL     OW18943   0.304   3.787   2.908  0.3828  0.2518 -0.1491
 2495SOL    HW118944   0.255   3.842   2.848  1.1214 -1.3835 -2.2428
 2495SOL    HW218945   0.273   3.826   2.990 -0.5943 -0.8966  0.0159
 2496SOL     OW18946   1.615   2.175  15.112 -0.3224  0.6353  0.0695
 2496SOL    HW118947   1.616   2.251  15.170  1.8701  1.2190 -0.7499
 2496SOL    HW218948   1.583   2.106  15.170  1.2384 -0.2060 -0.0807
 2497SOL     OW18949   2.212   2.267   3.988  0.3480 -0.6066 -0.1605
 2497SOL    HW118950   2.154   2.314   3.929  2.5744 -0.1673 -2.0120
 2497SOL    HW218951   2.284   2.331   3.992  0.8331 -1.1709  0.2092
 2498SOL     OW18952   2.233   2.562   4.266  0.4924  0.0301 -1.0164
 2498SOL    HW118953   2.305   2.624   4.259  2.0309 -1.2625  3.0520
 2498SOL    HW218954   2.169   2.590   4.200 -0.8412  1.6510  0.9648
 2499SOL     OW18955   0.145   3.636   6.130  0.9169  0.0432 -0.3118
 2499SOL    HW118956   0.151   3.540   6.131  1.0396  0.0486 -0.4311
 2499SOL    HW218957   0.231   3.659   6.094  2.0029 -0.0516  2.2575
 2500SOL     OW18958   2.816   4.115   0.533  0.1509 -0.6371 -0.6238
 2500SOL    HW118959   2.798   4.104   0.440 -0.2818 -0.3676 -0.5714
 2500SOL    HW218960   2.909   4.133   0.523  0.4628 -2.0775 -0.3451
 2501SOL     OW18961   1.316   2.746   2.178  0.1115 -0.2115  0.3700
 2501SOL    HW118962   1.361   2.806   2.238 -1.6333 -0.1787  1.6344
 2501SOL    HW218963   1.225   2.770   2.196  0.3874 -0.4507  2.1055
 2502SOL     OW18964   4.660   2.838   3.550 -0.3219  0.6722 -0.1564
 2502SOL    HW118965   0.028   2.822   3.543 -0.6613 -1.0597 -0.6664
 2502SOL    HW218966   4.653   2.892   3.629  2.7726 -0.5295  0.9328
 2503SOL     OW18967   4.514   0.396   9.500 -0.4176  0.0179 -0.2485
 2503SOL    HW118968   4.586   0.366   9.443 -1.0469 -1.4173 -0.3003
 2503SOL    HW218969   4.559   0.400   9.584  2.0275  0.1578 -1.5461
 2504SOL     OW18970   3.632   0.618   6.968  0.2332  0.2603  0.2762
 2504SOL    HW118971   3.713   0.635   7.017 -0.1438 -1.4433  1.4654
 2504SOL    HW218972   3.579   0.697   6.975 -0.4187 -0.0272 -1.5122
 2505SOL     OW18973   1.530   3.523   8.182  0.2258  0.5593  0.7873
 2505SOL    HW118974   1.615   3.521   8.139  0.0781 -1.2001  0.5615
 2505SOL    HW218975   1.522   3.613   8.214 -0.4663  1.0174 -0.7094
 2506SOL     OW18976   3.800   1.640  12.739  0.2237 -0.2274 -0.3059
 2506SOL    HW118977   3.735   1.682  12.681  0.1629  1.4976  1.0091
 2506SOL    HW218978   3.733   1.596  12.792 -1.3962  0.6720 -1.5718
 2507SOL     OW18979   2.766   0.119  14.865  0.4599 -0.1836  0.1386
 2507SOL    HW118980   2.762   0.213  14.880 -2.5279 -0.3129  0.1845
 2507SOL    HW218981   2.704   0.115  14.791  0.6227  1.2898 -0.0880
 2508SOL     OW18982   1.429   4.473  10.077  0.3064  0.1923  0.0641
 2508SOL    HW118983   1.393   4.396  10.122  1.2502 -0.7797 -0.8679
 2508SOL    HW218984   1.391   4.462   9.990 -0.5775  0.8953  0.3539
 2509SOL     OW18985   4.539   4.128   7.326  0.7890 -0.0306  0.0142
 2509SOL    HW118986   4.608   4.139   7.262  0.6712  0.7659  0.0347
 2509SOL    HW218987   4.502   4.216   7.329 -1.8207 -1.1680  1.8241
 2510SOL     OW18988   1.903   0.607   2.894 -0.4639  0.3842 -0.4079
 2510SOL    HW118989   1.978   0.609   2.953 -0.5485  0.3001 -0.2957
 2510SOL    HW218990   1.929   0.536   2.835  1.3947  0.1705  0.6484
 2511SOL     OW18991   1.805   4.580   2.848 -0.3157  0.6231 -0.3730
 2511SOL    HW118992   1.728   4.558   2.796  0.6302 -1.0403 -1.0725
 2511SOL    HW218993   1.883   4.552   2.801  0.7054  0.4730  1.3817
 2512SOL     OW18994   1.386   4.162   5.695 -0.2031 -0.5554 -0.0306
 2512SOL    HW118995   1.314   4.198   5.746  1.7816 -1.0509  3.1603
 2512SOL    HW218996   1.426   4.108   5.764  1.4320  0.8400  0.1039
 2513SOL     OW18997   0.219   3.485  13.041 -0.8274 -0.0708  0.2849
 2513SOL    HW118998   0.225   3.566  12.990 -0.0438  1.1875  2.4128
 2513SOL    HW218999   0.155   3.440  12.986 -0.9440 -0.8955  1.1039
 2514SOL     OW19000   0.385   2.385   7.773 -0.1104  0.0138  0.1776
 2514SOL    HW119001   0.364   2.445   7.844  0.2161 -0.6113  0.8030
 2514SOL    HW219002   0.369   2.301   7.816 -0.4096 -0.3492 -0.6355
 2515SOL     OW19003   1.661   1.461   9.207  0.3103  0.1502  0.8784
 2515SOL    HW119004   1.669   1.535   9.147  0.5828 -0.6502 -0.0819
 2515SOL    HW219005   1.683   1.386   9.151 -0.4463  0.3993  0.2508
 2516SOL     OW19006   4.572   1.142   9.645  0.3607 -0.1870 -0.4007
 2516SOL    HW119007   4.478   1.153   9.658 -0.2451 -3.4823 -1.9155
 2516SOL    HW219008   4.598   1.070   9.703 -0.8223 -0.3344 -0.0635
 2517SOL     OW19009   0.859   0.847   8.316 -0.1365  0.0921 -0.5081
 2517SOL    HW119010   0.768   0.861   8.289  0.1019  0.1294 -1.2784
 2517SOL    HW219011   0.882   0.937   8.340 -1.1485 -0.0041  0.8103
 2518SOL     OW19012   0.816   1.865   6.601  0.1872 -0.1787  0.3581
 2518SOL    HW119013   0.873   1.805   6.651  0.5425 -0.1863 -0.0581
 2518SOL    HW219014   0.765   1.797   6.557  0.2335  0.5918 -0.8668
 2519SOL     OW19015   1.649   4.272  12.789  0.0023 -0.0785  0.4043
 2519SOL    HW119016   1.732   4.317  12.806 -0.2943  1.0566 -1.0628
 2519SOL    HW219017   1.594   4.323  12.848  0.3752  0.2697  0.4540
 2520SOL     OW19018   4.352   2.413   0.209  0.3017 -0.5744 -0.3087
 2520SOL    HW119019   4.409   2.336   0.198  0.7340 -0.4282  0.9532
 2520SOL    HW219020   4.396   2.444   0.288 -0.6860 -0.3393  0.1525
 2521SOL     OW19021   0.778   1.629   0.496 -0.4125 -0.1744  0.3897
 2521SOL    HW119022   0.833   1.577   0.438 -1.1230  1.3678 -1.6773
 2521SOL    HW219023   0.801   1.589   0.580  0.1662 -2.4475 -0.8402
 2522SOL     OW19024   3.659   0.637   8.681  0.1230  0.1814  0.0835
 2522SOL    HW119025   3.722   0.681   8.624  0.1615 -0.9228 -0.7383
 2522SOL    HW219026   3.598   0.705   8.710 -0.7218 -0.8803  0.7825
 2523SOL     OW19027   2.562   2.351   4.595 -0.7781 -0.3229  0.2353
 2523SOL    HW119028   2.476   2.337   4.555  0.2402 -0.9700 -1.7156
 2523SOL    HW219029   2.603   2.406   4.528  0.4846 -1.8062 -0.1960
 2524SOL     OW19030   4.175   1.761   5.564  0.6054  0.4610 -0.5457
 2524SOL    HW119031   4.227   1.827   5.518  1.1729 -1.0043 -2.0165
 2524SOL    HW219032   4.098   1.816   5.576  1.0756  1.2021 -0.9101
 2525SOL     OW19033   3.430   3.207  13.691  0.0810 -0.6296  0.3376
 2525SOL    HW119034   3.432   3.208  13.595 -0.8712 -1.4679  0.2953
 2525SOL    HW219035   3.411   3.115  13.710 -1.1661 -0.9294 -2.2738
 2526SOL     OW19036   0.197   1.343   5.862  0.3844 -0.5412 -0.1599
 2526SOL    HW119037   0.229   1.275   5.802  0.4236 -0.0358 -0.7077
 2526SOL    HW219038   0.187   1.420   5.806 -0.7738 -0.8983 -0.4591
 2527SOL     OW19039   3.967   3.339  12.712  0.0913 -0.1426  0.3231
 2527SOL    HW119040   4.011   3.298  12.786  2.8186 -1.0747 -1.7884
 2527SOL    HW219041   4.020   3.416  12.690 -0.4489 -0.3420 -1.7179
 2528SOL     OW19042   3.392   0.723   7.435  0.0958 -0.1835 -0.2554
 2528SOL    HW119043   3.398   0.648   7.494  0.6180  0.2947  0.3105
 2528SOL    HW219044   3.469   0.771   7.465  1.4291 -1.4696 -1.6076
 2529SOL     OW19045   4.466   0.339  12.562  0.1158  0.0399 -0.0160
 2529SOL    HW119046   4.518   0.343  12.642  0.6672 -0.8150 -0.3362
 2529SOL    HW219047   4.391   0.388  12.596  0.7376  1.7110 -1.0339
 2530SOL     OW19048   1.195   4.359   3.311  0.4646 -0.7738 -0.2105
 2530SOL    HW119049   1.173   4.372   3.219 -1.7366  1.2236  0.5963
 2530SOL    HW219050   1.286   4.390   3.315  0.1002  0.5113 -1.7263
 2531SOL     OW19051   0.229   2.692   0.676 -0.2963  0.7126  0.4535
 2531SOL    HW119052   0.136   2.713   0.686 -0.7136  0.1448 -2.0349
 2531SOL    HW219053   0.209   2.634   0.602 -1.3260  2.2498 -0.4766
 2532SOL     OW19054   0.877   3.229  16.561 -0.3550 -0.1501 -0.0600
 2532SOL    HW119055   0.920   3.266  16.638 -1.0655 -1.7667  1.1143
 2532SOL    HW219056   0.870   3.306  16.504 -1.2005 -0.1853 -0.0096
 2533SOL     OW19057   2.027   0.181  10.585  0.6362  0.2308  0.1093
 2533SOL    HW119058   1.939   0.211  10.564 -0.0109 -0.9486  1.1000
 2533SOL    HW219059   2.075   0.256  10.552 -1.5849  2.0809  1.0881
 2534SOL     OW19060   3.096   0.748   3.881  0.0483  0.1960 -0.1380
 2534SOL    HW119061   3.042   0.700   3.819 -0.7612 -0.0077  0.7232
 2534SOL    HW219062   3.088   0.841   3.859 -0.9440  0.0910 -0.1869
 2535SOL     OW19063   1.559   3.079   3.701 -0.2180  0.5815 -0.0060
 2535SOL    HW119064   1.489   3.134   3.665 -2.1309 -1.2520  0.9397
 2535SOL    HW219065   1.625   3.093   3.633 -0.4669 -0.8677 -0.5272
 2536SOL     OW19066   3.320   4.589   0.946  0.1413  0.1859 -0.3824
 2536SOL    HW119067   3.316   4.494   0.937 -0.3861  0.3036 -1.3173
 2536SOL    HW219068   3.242   4.624   0.903  0.6514  0.5302 -1.0187
 2537SOL     OW19069   2.794   3.641   0.126 -0.0998  0.2611  0.1041
 2537SOL    HW119070   2.826   3.677   0.209 -0.9763  1.2300  0.0219
 2537SOL    HW219071   2.848   3.693   0.065 -3.7886  1.7491 -1.8917
 2538SOL     OW19072   1.087   2.562   3.772  0.3060 -0.1651  0.3822
 2538SOL    HW119073   1.014   2.577   3.832  0.5625  0.8761  0.4281
 2538SOL    HW219074   1.046   2.566   3.685  0.9572 -0.8420  0.0506
 2539SOL     OW19075   4.349   2.365   5.104 -0.4756 -0.3400 -0.1346
 2539SOL    HW119076   4.288   2.389   5.035  2.0892  1.1621 -1.9097
 2539SOL    HW219077   4.412   2.305   5.064 -1.0183 -1.5488  0.8001
 2540SOL     OW19078   2.096   3.005   9.191  0.3273  0.4802 -0.3081
 2540SOL    HW119079   2.177   2.969   9.228 -1.7814 -1.2049  2.6865
 2540SOL    HW219080   2.030   2.943   9.222 -0.9606  1.7734 -0.4606
 2541SOL     OW19081   3.831   1.670  14.150 -0.4023 -0.2838 -0.1459
 2541SOL    HW119082   3.857   1.752  14.108  0.8297  0.3631  1.9024
 2541SOL    HW219083   3.842   1.606  14.080  0.5684  0.4687 -0.6794
 2542SOL     OW19084   3.667   3.708   5.992  0.4239  0.6405  0.6813
 2542SOL    HW119085   3.678   3.697   6.086 -0.3403 -0.3657  0.6576
 2542SOL    HW219086   3.616   3.630   5.969  0.0869  1.1851 -0.4498
 2543SOL     OW19087   1.919   3.054   4.202  0.4021  0.2186 -0.4831
 2543SOL    HW119088   1.862   2.989   4.160  0.6504  0.2604 -0.8861
 2543SOL    HW219089   1.859   3.118   4.241  1.4933  0.5032  0.7308
 2544SOL     OW19090   1.780   1.392  16.684 -0.4356  0.1147 -0.1920
 2544SOL    HW119091   1.727   1.312  16.689 -1.6178  0.9730  0.8788
 2544SOL    HW219092   1.837   1.382  16.760 -0.5146  0.6370 -0.0659
 2545SOL     OW19093   1.800   3.544   8.090  0.0114 -0.1440 -0.3141
 2545SOL    HW119094   1.859   3.557   8.165  0.7293 -0.7286 -0.7764
 2545SOL    HW219095   1.788   3.634   8.059  1.9926  0.8740  1.8023
 2546SOL     OW19096   3.081   3.057  13.872 -0.3040 -0.2798  0.0095
 2546SOL    HW119097   3.013   3.031  13.935  1.2345 -2.5895  0.7419
 2546SOL    HW219098   3.134   3.119  13.922  0.9518  0.0071 -1.6628
 2547SOL     OW19099   2.044   3.402   4.721 -0.6136 -0.0863 -0.6947
 2547SOL    HW119100   1.975   3.466   4.704 -1.1684 -0.5747 -0.2806
 2547SOL    HW219101   2.104   3.423   4.649 -0.4998 -0.5143 -0.7225
 2548SOL     OW19102   0.845   3.836  11.685  1.2830 -0.0553 -0.4528
 2548SOL    HW119103   0.930   3.824  11.642  0.9791 -0.3296 -0.9757
 2548SOL    HW219104   0.863   3.779  11.759  0.6633  2.0256  1.2898
 2549SOL     OW19105   2.015   2.789   3.721 -0.8051  0.4328  0.3259
 2549SOL    HW119106   2.066   2.719   3.679  0.2954  0.9140  0.8734
 2549SOL    HW219107   1.957   2.736   3.776  1.6392 -0.9320  1.5882
 2550SOL     OW19108   0.854   1.238   8.369  0.3708  0.1815  0.3351
 2550SOL    HW119109   0.801   1.317   8.360 -1.2714 -0.8906  0.6034
 2550SOL    HW219110   0.848   1.219   8.276 -0.2885  1.9237  0.0369
 2551SOL     OW19111   2.226   1.790   2.798 -0.3402 -0.0067 -0.1240
 2551SOL    HW119112   2.229   1.802   2.703  1.7886 -1.8439 -0.2929
 2551SOL    HW219113   2.161   1.724   2.822 -0.1166 -0.0388  0.3974
 2552SOL     OW19114   1.423   3.814  12.951 -0.4297  0.0886 -0.4581
 2552SOL    HW119115   1.479   3.885  12.917  0.1831  0.0695  0.5233
 2552SOL    HW219116   1.435   3.743  12.888 -1.5196 -0.2256 -0.3037
 2553SOL     OW19117   3.255   0.110   7.242  0.0894 -0.1839 -0.1019
 2553SOL    HW119118   3.266   0.196   7.284  1.3300 -0.6333  0.4994
 2553SOL    HW219119   3.307   0.122   7.163  0.4801  0.6745  0.2854
 2554SOL     OW19120   4.279   4.082   7.383  0.4063 -0.0642 -1.0068
 2554SOL    HW119121   4.253   4.094   7.292  0.9214 -0.5669 -1.2219
 2554SOL    HW219122   4.373   4.098   7.376  0.2618  2.5763  2.7910
 2555SOL     OW19123   2.958   0.905   4.540  0.0390  0.2825  0.3438
 2555SOL    HW119124   2.988   0.987   4.500 -0.5775  0.5582  0.4424
 2555SOL    HW219125   2.876   0.927   4.585 -1.0333 -1.3219 -0.8354
 2556SOL     OW19126   2.485   2.891   3.842 -0.0417 -0.3754  0.3104
 2556SOL    HW119127   2.458   2.955   3.776 -1.1203 -1.8935 -0.6993
 2556SOL    HW219128   2.410   2.888   3.901 -0.8164  1.6081 -0.5473
 2557SOL     OW19129   3.964   2.212  13.403 -0.1937 -0.3710  0.5946
 2557SOL    HW119130   4.021   2.268  13.456  0.7251 -2.0789  1.4129
 2557SOL    HW219131   4.021   2.190  13.329 -0.7833  0.0179  0.0290
 2558SOL     OW19132   4.436   3.969   8.238  0.1553  0.1101  0.0574
 2558SOL    HW119133   4.356   3.968   8.186  1.5088 -0.9552 -2.0265
 2558SOL    HW219134   4.469   3.881   8.220  1.2304  0.9638 -2.1128
 2559SOL     OW19135   1.613   4.682   8.352  0.0123 -0.2040  0.1245
 2559SOL    HW119136   1.535   0.006   8.377  1.2413  1.1738  1.2456
 2559SOL    HW219137   1.623   4.609   8.414 -4.3028 -0.4104  0.5958
 2560SOL     OW19138   2.643   2.513   8.024 -0.3108  0.6987  0.4647
 2560SOL    HW119139   2.568   2.535   7.968 -0.7884 -0.1742  0.7699
 2560SOL    HW219140   2.607   2.513   8.113  0.6582 -0.8066  0.8374
 2561SOL     OW19141   4.074   4.387   5.040  0.4287 -0.3898  0.4516
 2561SOL    HW119142   4.167   4.363   5.040  0.8395  1.2002 -1.3499
 2561SOL    HW219143   4.063   4.431   4.955 -1.9461  3.0714  2.5583
 2562SOL     OW19144   2.722   1.661  16.935  0.0257  0.0063  0.1155
 2562SOL    HW119145   2.740   1.734  16.994  0.7894  1.6202 -2.0876
 2562SOL    HW219146   2.811   1.643  16.904  0.1916 -0.3228  0.7942
 2563SOL     OW19147   2.514   0.950   2.152  0.3799  0.6330 -0.5187
 2563SOL    HW119148   2.485   0.870   2.197  0.6552  0.0894 -1.3026
 2563SOL    HW219149   2.439   1.010   2.150  0.1731  0.4115  0.3923
 2564SOL     OW19150   1.263   2.558   8.198  0.5443  0.3815 -0.5186
 2564SOL    HW119151   1.276   2.587   8.288 -0.7581  1.1368 -0.5796
 2564SOL    HW219152   1.201   2.623   8.165  1.6395  1.0727 -1.1846
 2565SOL     OW19153   3.099   4.622  11.940  0.2465  0.6331 -0.6221
 2565SOL    HW119154   3.115   4.674  11.862  0.5747 -0.4574 -1.2915
 2565SOL    HW219155   3.073   4.541  11.896  0.6721  0.6800 -0.9617
 2566SOL     OW19156   4.502   4.600   4.434 -0.3377  0.1994  0.1030
 2566SOL    HW119157   4.519   4.514   4.472 -0.2605 -0.1928 -0.8177
 2566SOL    HW219158   4.531   4.590   4.343 -0.0101  0.0783  0.2168
 2567SOL     OW19159   3.745   0.065  12.358 -0.2057  0.2287 -0.2294
 2567SOL    HW119160   3.743   0.004  12.432 -1.6805  0.7837  0.1915
 2567SOL    HW219161   3.693   0.011  12.299  0.8581 -1.7399  0.6355
 2568SOL     OW19162   4.457   2.548   1.806 -0.0380  0.6474  0.2095
 2568SOL    HW119163   4.424   2.545   1.716 -0.3337  0.6687  0.3161
 2568SOL    HW219164   4.371   2.554   1.849 -1.6975 -2.4567 -2.6380
 2569SOL     OW19165   1.524   1.727  15.369  0.0919  0.1911 -0.3174
 2569SOL    HW119166   1.524   1.716  15.464 -1.1680 -0.7082 -0.4166
 2569SOL    HW219167   1.520   1.637  15.335 -1.4213 -0.9346  2.8011
 2570SOL     OW19168   2.016   1.397   9.430  0.5296  0.1287 -0.2101
 2570SOL    HW119169   2.062   1.345   9.497 -0.9197  1.0824  1.5260
 2570SOL    HW219170   1.996   1.328   9.367  2.6868  0.5292 -1.3436
 2571SOL     OW19171   3.293   0.850   2.794  0.2586  0.0372 -0.2255
 2571SOL    HW119172   3.230   0.875   2.861  0.1132 -1.0216  0.0330
 2571SOL    HW219173   3.285   0.935   2.750  1.0268  0.0491 -0.3526
 2572SOL     OW19174   4.441   3.593   7.905 -0.4820 -0.6625 -0.1155
 2572SOL    HW119175   4.453   3.533   7.832  2.9534  0.9444 -0.8940
 2572SOL    HW219176   4.348   3.605   7.920 -0.1453 -0.4168  1.8052
 2573SOL     OW19177   3.451   2.492   7.739 -0.0296  0.1659 -0.6166
 2573SOL    HW119178   3.441   2.405   7.699 -1.1171 -0.5886  1.2999
 2573SOL    HW219179   3.393   2.474   7.813  1.8718  0.7976  1.0413
 2574SOL     OW19180   2.255   1.698   8.152  0.3861  0.0502 -0.0615
 2574SOL    HW119181   2.247   1.763   8.222 -0.7132 -0.6982  0.4986
 2574SOL    HW219182   2.229   1.622   8.203  1.2764 -1.0862 -1.3157
 2575SOL     OW19183   0.550   0.798   6.277  0.0874 -0.6275 -0.2471
 2575SOL    HW119184   0.645   0.786   6.271  0.3809  1.2589  0.3615
 2575SOL    HW219185   0.530   0.880   6.232 -0.5094 -0.3005  0.5976
 2576SOL     OW19186   3.034   3.730  17.341 -0.1652 -0.0876  0.1980
 2576SOL    HW119187   3.056   3.762  17.254  0.2918  0.4574  0.5122
 2576SOL    HW219188   3.027   3.635  17.326 -0.6202 -0.2374  1.3471
 2577SOL     OW19189   1.229   2.389  11.002 -0.1196 -0.0107  1.0909
 2577SOL    HW119190   1.207   2.301  10.972  0.0920  0.7579 -1.3294
 2577SOL    HW219191   1.153   2.410  11.057  0.0818  0.1381  1.3113
 2578SOL     OW19192   1.794   0.648   0.000  0.3292  0.3782  0.1943
 2578SOL    HW119193   1.841   0.604   0.071 -0.7852 -1.3967 -0.1485
 2578SOL    HW219194   1.784   0.733   0.043  0.8103 -1.1159  3.2642
 2579SOL     OW19195   4.387   2.848   8.277  0.0625  0.0158 -0.7867
 2579SOL    HW119196   4.357   2.795   8.351 -0.0656  1.2462  0.0500
 2579SOL    HW219197   4.355   2.936   8.297 -2.8788 -1.2380 -0.0264
 2580SOL     OW19198   4.220   3.038   5.994 -0.2992  0.7596 -0.1030
 2580SOL    HW119199   4.139   3.077   5.963 -0.7162 -0.6973 -0.8172
 2580SOL    HW219200   4.225   3.070   6.084 -0.2579  1.8072 -0.4826
 2581SOL     OW19201   2.892   1.464   5.827 -0.4248  0.5008 -0.4947
 2581SOL    HW119202   2.962   1.412   5.787 -0.0922  1.2072 -0.8410
 2581SOL    HW219203   2.885   1.542   5.772  0.4128  0.3904 -0.7524
 2582SOL     OW19204   4.715   2.562  16.026  0.0163  0.1739  0.1305
 2582SOL    HW119205   4.653   2.510  15.975 -1.1597  1.2878  0.4056
 2582SOL    HW219206   0.046   2.597  15.958  0.1943 -0.0030  0.1894
 2583SOL     OW19207   2.762   1.664   5.079 -0.2881 -0.0848  0.2511
 2583SOL    HW119208   2.695   1.610   5.037 -0.9512 -0.5208  1.8915
 2583SOL    HW219209   2.760   1.622   5.165  1.3501  0.0848  0.3723
 2584SOL     OW19210   3.841   1.902   8.726  0.7826 -0.5180  0.7872
 2584SOL    HW119211   3.920   1.859   8.693 -0.1137 -1.2414 -0.4135
 2584SOL    HW219212   3.855   1.995   8.708 -3.3242 -0.4940 -2.2697
 2585SOL     OW19213   0.531   0.618   5.065  0.0043 -0.0405  0.4329
 2585SOL    HW119214   0.551   0.524   5.061  0.3259  0.0676 -0.4309
 2585SOL    HW219215   0.436   0.606   5.066 -0.1166  1.2106  3.3264
 2586SOL     OW19216   0.569   2.009   4.878  0.0131  0.1369 -0.9679
 2586SOL    HW119217   0.631   2.053   4.936  1.5658 -0.6074 -2.0555
 2586SOL    HW219218   0.494   2.068   4.869 -0.2106  0.2495  1.4107
 2587SOL     OW19219   4.166   3.589   8.027  0.7210  0.1142  0.0945
 2587SOL    HW119220   4.084   3.573   8.073  0.7231 -1.3441 -0.4112
 2587SOL    HW219221   4.183   3.503   7.990  0.4935  0.9183 -1.8477
 2588SOL     OW19222   3.378   3.040   7.639  0.0204 -0.5910 -0.7570
 2588SOL    HW119223   3.315   3.028   7.710 -2.8598  0.0872 -3.2314
 2588SOL    HW219224   3.449   2.982   7.668 -0.2827 -1.1085 -1.0372
 2589SOL     OW19225   2.709   0.395   9.448 -0.0329 -0.2466  0.0500
 2589SOL    HW119226   2.651   0.367   9.519 -1.3031 -3.2688 -2.1604
 2589SOL    HW219227   2.777   0.428   9.507  1.7834 -1.4490 -1.3933
 2590SOL     OW19228   1.372   4.040  14.652  0.2468 -0.3913  0.8419
 2590SOL    HW119229   1.293   4.065  14.701 -0.2777 -1.7953  0.7302
 2590SOL    HW219230   1.347   3.948  14.638  1.0199 -0.4630 -0.0318
 2591SOL     OW19231   4.435   2.404  12.343 -0.7176 -0.6669 -0.1791
 2591SOL    HW119232   4.366   2.401  12.277 -1.1084 -1.8688  0.2928
 2591SOL    HW219233   4.513   2.359  12.310 -2.3109 -4.1749  0.8955
 2592SOL     OW19234   2.942   1.418   8.439 -0.7027  0.1197  0.1223
 2592SOL    HW119235   2.949   1.326   8.414 -0.2581  0.4063 -0.8216
 2592SOL    HW219236   2.974   1.454   8.356 -1.0182  0.7581  0.2773
 2593SOL     OW19237   3.705   0.827   7.901  0.4313  0.6824 -0.5491
 2593SOL    HW119238   3.739   0.837   7.812 -2.4973 -1.1875 -1.8912
 2593SOL    HW219239   3.616   0.794   7.889 -0.2913  1.9842  1.3815
 2594SOL     OW19240   3.330   3.489  12.378  0.0825 -0.3925  0.8906
 2594SOL    HW119241   3.421   3.493  12.407  0.0306 -2.8791  1.4117
 2594SOL    HW219242   3.306   3.578  12.402  1.1955  0.3111 -0.6208
 2595SOL     OW19243   0.104   0.966   7.477 -0.6607 -0.3108  0.1457
 2595SOL    HW119244   0.184   0.920   7.504 -0.0206  0.2095 -0.8417
 2595SOL    HW219245   0.124   1.056   7.504 -1.2480 -0.1623  0.0727
 2596SOL     OW19246   3.980   0.221   5.110 -0.0907  0.0296  0.1682
 2596SOL    HW119247   4.016   0.139   5.076 -1.4137  0.4078 -2.1775
 2596SOL    HW219248   4.022   0.225   5.196  0.2850  0.7858 -0.0522
 2597SOL     OW19249   0.733   3.975  17.302  0.4264 -0.8095  0.2495
 2597SOL    HW119250   0.817   3.935  17.324  0.9698  0.7197  0.9849
 2597SOL    HW219251   0.687   3.981  17.386  0.7285  1.5142  0.2361
 2598SOL     OW19252   0.267   4.118   3.958 -0.0626  0.5104 -0.3172
 2598SOL    HW119253   0.265   4.195   4.015  1.5485  0.7938 -0.6327
 2598SOL    HW219254   0.325   4.147   3.888 -0.9258  0.7957 -0.9092
 2599SOL     OW19255   3.501   1.459  11.650  0.0950  0.0752  0.0065
 2599SOL    HW119256   3.541   1.496  11.572  2.2550  0.6250  1.3700
 2599SOL    HW219257   3.445   1.394  11.607  1.7639 -0.6411 -1.0883
 2600SOL     OW19258   3.075   4.341  15.447 -0.4134 -0.0046  0.4284
 2600SOL    HW119259   3.104   4.253  15.424  0.3483  0.1996  0.6295
 2600SOL    HW219260   3.148   4.395  15.416 -0.6829 -0.2000 -0.5494
 2601SOL     OW19261   1.439   1.497   2.355  0.1535  0.5175  0.0172
 2601SOL    HW119262   1.370   1.533   2.411 -0.0190  2.4713 -1.4506
 2601SOL    HW219263   1.508   1.522   2.417  1.1922 -1.7869 -0.2136
 2602SOL     OW19264   3.365   0.334   6.003  0.0851 -0.4331  0.3258
 2602SOL    HW119265   3.358   0.321   6.098  4.5146  1.0498  0.8505
 2602SOL    HW219266   3.337   0.425   5.997 -0.4915 -0.6106  0.3326
 2603SOL     OW19267   4.373   4.212   3.560  1.0250 -0.4342 -0.4994
 2603SOL    HW119268   4.331   4.128   3.541  0.8063  0.6866 -4.9772
 2603SOL    HW219269   4.403   4.232   3.471  3.9098 -0.1906  0.5562
 2604SOL     OW19270   1.586   0.030   0.415  0.0281 -0.1071 -0.0642
 2604SOL    HW119271   1.633   0.111   0.393  0.2262 -0.2719 -0.2436
 2604SOL    HW219272   1.565   0.040   0.508  0.4774 -1.4714  0.1791
 2605SOL     OW19273   0.144   0.673   5.191  0.0753 -0.4534  0.1007
 2605SOL    HW119274   0.182   0.674   5.103  0.0913 -0.0638  0.1142
 2605SOL    HW219275   0.183   0.594   5.230 -1.4280 -0.2041  2.0948
 2606SOL     OW19276   3.593   2.758   3.622  0.0699  0.4776  0.2252
 2606SOL    HW119277   3.636   2.673   3.608 -1.3199  0.0179 -1.3277
 2606SOL    HW219278   3.537   2.761   3.544  0.0637 -1.1042  0.1715
 2607SOL     OW19279   2.152   3.387   1.536 -0.2332  0.0395 -0.1192
 2607SOL    HW119280   2.091   3.345   1.597 -2.2449  0.6655 -1.6930
 2607SOL    HW219281   2.218   3.412   1.600 -2.5298  0.1974  2.2200
 2608SOL     OW19282   2.445   0.812  17.257 -0.2031 -0.7579 -0.3653
 2608SOL    HW119283   2.455   0.825  17.162 -2.0914  2.7277 -0.1023
 2608SOL    HW219284   2.429   0.901  17.290 -1.5451 -1.5856  1.1841
 2609SOL     OW19285   1.844   4.636  12.979  0.1804 -0.0474 -0.2297
 2609SOL    HW119286   1.840   4.570  13.048  1.1357  0.4398  0.3011
 2609SOL    HW219287   1.939   4.646  12.973  0.2751 -1.3576 -1.0884
 2610SOL     OW19288   0.760   3.268   1.271 -0.1970  0.2173 -0.1382
 2610SOL    HW119289   0.679   3.310   1.243 -0.4254  0.6979  1.2457
 2610SOL    HW219290   0.801   3.241   1.189 -1.2472  1.8975 -1.2244
 2611SOL     OW19291   2.589   1.691   7.679 -0.2803  0.1542  0.2171
 2611SOL    HW119292   2.554   1.632   7.746 -1.5658  1.0443  0.3387
 2611SOL    HW219293   2.568   1.774   7.723  1.0413  0.4281  0.3213
 2612SOL     OW19294   4.566   2.535   5.926  0.6089  0.2298 -0.3250
 2612SOL    HW119295   4.653   2.520   5.963  0.6915 -0.6375 -0.8572
 2612SOL    HW219296   4.559   2.629   5.938 -1.6710  0.0587 -0.4415
 2613SOL     OW19297   3.257   2.469   6.042 -0.3564  0.2816  0.5801
 2613SOL    HW119298   3.252   2.387   5.993  2.7949  0.4039  0.0635
 2613SOL    HW219299   3.166   2.497   6.049 -0.3524  0.5345 -0.2634
 2614SOL     OW19300   1.309   0.757   6.810  0.2810  0.2902 -0.0338
 2614SOL    HW119301   1.284   0.680   6.759 -0.0387 -0.0246  0.5938
 2614SOL    HW219302   1.396   0.774   6.774 -0.0746  2.1891  0.0064
 2615SOL     OW19303   2.414   4.367  12.497 -0.4828 -0.3166  0.3579
 2615SOL    HW119304   2.451   4.340  12.413  1.2179  1.7305  0.4506
 2615SOL    HW219305   2.321   4.376  12.478 -0.1817  0.9499 -0.5280
 2616SOL     OW19306   2.968   2.493   0.198  1.0651 -0.4562  0.5883
 2616SOL    HW119307   2.944   2.543   0.275  0.8812  0.6342 -0.1775
 2616SOL    HW219308   2.914   2.414   0.195 -0.6405  0.8343 -2.4033
 2617SOL     OW19309   3.701   1.919   7.296  0.2323  0.5003  0.0632
 2617SOL    HW119310   3.605   1.914   7.297  0.1330  1.8219 -1.4681
 2617SOL    HW219311   3.739   1.832   7.302 -0.6876  0.0068 -1.3765
 2618SOL     OW19312   2.341   3.721   9.225 -0.1929 -0.4684  0.3624
 2618SOL    HW119313   2.276   3.780   9.188  1.8136  1.1127 -0.6604
 2618SOL    HW219314   2.413   3.784   9.234  0.6734 -1.5789  1.2944
 2619SOL     OW19315   1.147   2.059   8.195  0.2527 -0.1124 -0.2978
 2619SOL    HW119316   1.159   2.151   8.170 -0.4628  0.1308  0.2908
 2619SOL    HW219317   1.063   2.042   8.153 -0.6234 -0.6983  1.7073
 2620SOL     OW19318   1.560   3.239  12.675 -0.0308  0.2986 -0.1018
 2620SOL    HW119319   1.505   3.316  12.691 -0.2360  0.3964 -1.2673
 2620SOL    HW219320   1.615   3.239  12.753  0.1265 -1.3540 -0.1980
 2621SOL     OW19321   2.160   3.229   4.431  0.2533 -0.9766  0.5229
 2621SOL    HW119322   2.206   3.148   4.453  1.9754 -1.1402 -3.5909
 2621SOL    HW219323   2.068   3.209   4.412  0.6185 -1.8491 -0.3206
 2622SOL     OW19324   1.939   0.629   0.661 -0.0432  0.2158 -0.1613
 2622SOL    HW119325   1.955   0.676   0.579  0.8115 -0.3471 -0.3207
 2622SOL    HW219326   2.032   0.630   0.684 -0.3684 -2.5445  1.2693
 2623SOL     OW19327   2.403   3.062  14.280 -0.4047 -0.4487 -0.2498
 2623SOL    HW119328   2.423   2.978  14.239  0.7761 -1.6353  2.6977
 2623SOL    HW219329   2.494   3.085  14.298 -1.8547  4.0820  1.1081
 2624SOL     OW19330   0.016   1.902   1.378 -0.4034  0.0801  0.4018
 2624SOL    HW119331   4.676   1.929   1.442  1.1950  2.1300  1.1821
 2624SOL    HW219332   4.701   1.923   1.294 -0.0239 -1.4132 -0.1679
 2625SOL     OW19333   0.044   1.600   3.279 -0.2666 -0.2904  0.1898
 2625SOL    HW119334   4.678   1.612   3.301 -0.5931 -0.4850 -1.0889
 2625SOL    HW219335   0.052   1.504   3.279 -2.4133 -0.4681 -1.0259
 2626SOL     OW19336   4.354   1.608  16.220 -0.0388  0.0591 -0.6577
 2626SOL    HW119337   4.289   1.673  16.244  0.7086  0.0977  1.3016
 2626SOL    HW219338   4.343   1.604  16.125  0.8744  1.5857 -0.8203
 2627SOL     OW19339   2.975   3.834   2.266 -0.1293 -0.1322 -0.2163
 2627SOL    HW119340   2.927   3.902   2.312 -0.8430  0.5361 -1.9574
 2627SOL    HW219341   3.068   3.856   2.270 -0.3275  0.6187  0.1902
 2628SOL     OW19342   1.478   2.987   5.671 -0.0418 -0.2235 -0.0508
 2628SOL    HW119343   1.502   3.080   5.669 -0.7254 -0.0449  0.2014
 2628SOL    HW219344   1.453   2.974   5.579  0.5383  0.7383 -0.3466
 2629SOL     OW19345   3.070   2.276  14.680  0.3310 -0.6865  0.4709
 2629SOL    HW119346   3.076   2.307  14.770  0.6631  1.3525 -0.2716
 2629SOL    HW219347   3.096   2.184  14.680  2.5769 -0.0539 -0.3959
 2630SOL     OW19348   1.799   3.241  12.899  0.4771 -0.0110 -0.2580
 2630SOL    HW119349   1.855   3.290  12.960  1.7103 -0.6058 -0.9101
 2630SOL    HW219350   1.861   3.250  12.827 -0.9439  0.7180 -1.3824
 2631SOL     OW19351   0.035   2.403   0.878  0.4558 -0.2437  0.0149
 2631SOL    HW119352   0.072   2.477   0.927 -0.4745  0.2180  0.0160
 2631SOL    HW219353   4.675   2.386   0.917 -0.7785 -0.8341 -2.9711
 2632SOL     OW19354   3.888   3.862   2.064  0.3741 -0.6200  0.0405
 2632SOL    HW119355   3.840   3.799   2.118  0.5638  0.0032  0.9246
 2632SOL    HW219356   3.860   3.838   1.975  0.6722  1.1083 -0.5189
 2633SOL     OW19357   2.982   3.728   6.096 -0.3625 -0.0604 -0.0873
 2633SOL    HW119358   2.946   3.736   6.007  0.2445 -0.8999 -0.4070
 2633SOL    HW219359   2.997   3.635   6.108 -0.3374  0.0201  0.4939
 2634SOL     OW19360   1.349   1.914   6.430  0.0724 -0.0878  0.7611
 2634SOL    HW119361   1.395   1.838   6.396 -1.1246 -0.9518  1.0768
 2634SOL    HW219362   1.281   1.919   6.363  0.1703 -2.3533  0.4888
 2635SOL     OW19363   1.822   1.745   2.337 -0.2267  0.5376 -0.3338
 2635SOL    HW119364   1.906   1.779   2.307  0.7499 -1.2071  0.4173
 2635SOL    HW219365   1.793   1.699   2.258 -0.3409  1.1243 -0.6369
 2636SOL     OW19366   2.420   4.028   2.868  0.0337  0.7511  0.0688
 2636SOL    HW119367   2.330   4.041   2.837 -0.7768 -2.6260  1.0170
 2636SOL    HW219368   2.412   3.979   2.949  0.0845  0.7988  0.1028
 2637SOL     OW19369   3.283   2.518  16.865 -0.2544  0.0008  0.3292
 2637SOL    HW119370   3.239   2.599  16.841  0.6462  0.2487 -0.4778
 2637SOL    HW219371   3.339   2.545  16.938  0.3069  1.5930 -0.6898
 2638SOL     OW19372   0.160   0.170   0.157  0.3373 -0.5497  0.0379
 2638SOL    HW119373   0.164   0.266   0.154  0.8887 -0.6160 -1.2912
 2638SOL    HW219374   0.191   0.142   0.242  2.1994 -0.2658 -0.5450
 2639SOL     OW19375   2.479   0.565   3.579 -0.0124 -0.3582  0.0180
 2639SOL    HW119376   2.448   0.591   3.666  0.8216  1.5093 -0.2313
 2639SOL    HW219377   2.402   0.576   3.523  0.8933  1.2320 -0.9241
 2640SOL     OW19378   0.714   0.798   3.335 -0.2321 -0.1126  0.1541
 2640SOL    HW119379   0.760   0.845   3.266  1.5817 -1.9691  0.0916
 2640SOL    HW219380   0.698   0.713   3.294  3.0474 -1.5052  1.7611
 2641SOL     OW19381   0.784   4.306   8.023  0.5791 -0.4916  0.0978
 2641SOL    HW119382   0.782   4.211   8.037 -1.2317 -0.5680 -0.5914
 2641SOL    HW219383   0.867   4.330   8.064  0.3028  0.6215  0.0087
 2642SOL     OW19384   3.577   0.989   7.418 -0.2711 -0.1786 -0.3177
 2642SOL    HW119385   3.627   0.969   7.498  2.0659  1.6860 -1.3127
 2642SOL    HW219386   3.609   0.904   7.386 -0.6404 -0.4082 -0.0761
 2643SOL     OW19387   0.037   0.580  13.249 -0.1613  0.0390  0.2352
 2643SOL    HW119388   4.691   0.628  13.291  2.6399  1.4661  3.4021
 2643SOL    HW219389   0.081   0.540  13.324  0.4789  0.7577  0.2400
 2644SOL     OW19390   2.934   3.388  15.384 -0.3133 -0.1989 -0.9035
 2644SOL    HW119391   2.930   3.293  15.374 -0.4018 -0.3591  0.6303
 2644SOL    HW219392   2.847   3.418  15.412 -0.8328  0.3743 -3.1946
 2645SOL     OW19393   2.745   2.359   4.938 -0.5372 -0.3306 -0.4055
 2645SOL    HW119394   2.803   2.354   5.014  1.5600 -1.3695 -2.0598
 2645SOL    HW219395   2.659   2.364   4.978  0.6874  1.0085  2.0810
 2646SOL     OW19396   4.275   0.270  10.799 -0.2760  0.1943 -0.1032
 2646SOL    HW119397   4.366   0.299  10.804 -0.3682  0.7352 -1.7041
 2646SOL    HW219398   4.263   0.255  10.893 -0.0136  1.1696  0.0784
 2647SOL     OW19399   0.505   1.693   3.234 -0.4635 -0.5584  0.4972
 2647SOL    HW119400   0.528   1.647   3.153  2.2041  1.1167  0.3355
 2647SOL    HW219401   0.565   1.767   3.232 -1.1693  0.0046  0.5121
 2648SOL     OW19402   1.412   1.340   2.142  0.0766 -0.2328  0.4670
 2648SOL    HW119403   1.329   1.371   2.106 -0.6851 -1.3533  1.2272
 2648SOL    HW219404   1.413   1.385   2.227 -1.3220  0.7601 -0.0511
 2649SOL     OW19405   0.799   0.698   8.976 -0.3039  0.2067 -0.0652
 2649SOL    HW119406   0.755   0.780   8.953 -0.3003 -0.5829 -2.8716
 2649SOL    HW219407   0.837   0.723   9.060 -1.2675 -1.0643  0.7400
 2650SOL     OW19408   3.113   2.971   9.830 -0.2984  0.3813  0.2870
 2650SOL    HW119409   3.206   2.954   9.848 -0.5984  0.6868  2.1441
 2650SOL    HW219410   3.081   2.885   9.857 -2.8943  0.2629 -3.2370
 2651SOL     OW19411   3.384   4.072   7.938 -0.0634  0.1020  0.0180
 2651SOL    HW119412   3.311   4.068   7.875 -0.2806 -2.4941  0.4350
 2651SOL    HW219413   3.409   3.981   7.953  0.8648  0.5179  0.9917
 2652SOL     OW19414   3.080   3.346   8.103  0.3783 -0.2304 -0.3681
 2652SOL    HW119415   3.134   3.312   8.175 -1.4405 -0.3425  0.9386
 2652SOL    HW219416   3.130   3.330   8.023 -1.3116 -0.1522 -1.4214
 2653SOL     OW19417   2.814   1.183   4.792 -0.3376 -0.1132  0.1888
 2653SOL    HW119418   2.910   1.190   4.795 -0.2353 -0.3086 -3.3274
 2653SOL    HW219419   2.793   1.275   4.777  0.6309  0.3083  1.4275
 2654SOL     OW19420   1.775   0.173  13.134  0.2865  0.2646  0.7077
 2654SOL    HW119421   1.752   0.099  13.078 -1.9369 -0.4358  2.5530
 2654SOL    HW219422   1.861   0.147  13.167  1.3379  1.1309 -1.3460
 2655SOL     OW19423   3.916   0.535   5.720 -0.4188  0.0330  0.2362
 2655SOL    HW119424   3.954   0.552   5.633  0.2900 -0.3213  0.4750
 2655SOL    HW219425   3.936   0.442   5.729 -3.5464 -0.4302  2.1056
 2656SOL     OW19426   1.378   1.093   7.994 -0.1489  0.0327 -0.5043
 2656SOL    HW119427   1.322   1.099   7.917 -0.3298  1.6468 -0.2626
 2656SOL    HW219428   1.461   1.061   7.960  0.7171  1.0941  0.5916
 2657SOL     OW19429   3.893   2.974   3.533 -0.3855 -0.0393  0.4349
 2657SOL    HW119430   3.974   3.002   3.490 -0.1734  0.3526  1.0922
 2657SOL    HW219431   3.885   2.887   3.496 -0.9784  0.4074 -0.4901
 2658SOL     OW19432   0.926   3.324  15.637 -0.1304  0.4450  0.1057
 2658SOL    HW119433   0.960   3.237  15.661 -1.3952 -0.2006 -0.4217
 2658SOL    HW219434   0.965   3.386  15.698 -0.8680 -0.0283  1.0653
 2659SOL     OW19435   2.526   3.571   2.163  0.3467 -0.4358 -0.5389
 2659SOL    HW119436   2.621   3.585   2.169  0.2810 -1.1230  1.7957
 2659SOL    HW219437   2.495   3.594   2.250 -0.9856  0.5319 -1.2553
 2660SOL     OW19438   2.143   2.602  10.298  0.7511 -0.0242 -0.0977
 2660SOL    HW119439   2.135   2.531  10.362 -2.1528 -1.4278 -2.0224
 2660SOL    HW219440   2.154   2.671  10.364  0.6353  1.1506 -1.3192
 2661SOL     OW19441   1.774   3.534   2.648 -0.4989 -0.4329 -0.4124
 2661SOL    HW119442   1.686   3.547   2.613 -0.1593 -1.5137 -1.6754
 2661SOL    HW219443   1.817   3.613   2.616  0.4605 -0.7786  0.0197
 2662SOL     OW19444   4.698   1.291   1.620  0.0373 -0.0871  0.0608
 2662SOL    HW119445   0.001   1.375   1.585  1.3691 -0.9753 -0.9886
 2662SOL    HW219446   4.711   1.236   1.543 -0.7826  0.0102 -0.1449
 2663SOL     OW19447   3.988   3.554  12.043 -0.9031  0.0509 -0.1712
 2663SOL    HW119448   3.938   3.549  12.125  0.5035  0.1116  0.6868
 2663SOL    HW219449   3.962   3.643  12.016  1.0500  0.5063 -0.4913
 2664SOL     OW19450   2.924   3.551  10.724  0.2118  0.1421  0.0028
 2664SOL    HW119451   2.844   3.535  10.774  0.1967  1.5895  0.4636
 2664SOL    HW219452   2.911   3.639  10.689 -1.6291  0.2493  0.9139
 2665SOL     OW19453   0.962   2.584   8.152 -0.2905  0.0834 -0.1503
 2665SOL    HW119454   0.945   2.515   8.216  1.7625  1.0387  1.4163
 2665SOL    HW219455   0.953   2.541   8.066 -0.2228  3.5544 -1.8846
 2666SOL     OW19456   2.395   1.136   5.284  0.7321 -0.1614  0.1209
 2666SOL    HW119457   2.362   1.117   5.372 -0.5587  1.2655 -0.0549
 2666SOL    HW219458   2.470   1.077   5.291  0.4615 -0.4200  0.9481
 2667SOL     OW19459   3.756   3.862   3.181 -0.2242 -0.6488 -0.5379
 2667SOL    HW119460   3.790   3.863   3.271 -0.4286  2.1592 -0.4751
 2667SOL    HW219461   3.667   3.830   3.197 -0.7037  0.4090 -1.0645
 2668SOL     OW19462   0.273   2.678   6.591  0.3067 -0.2126  0.5031
 2668SOL    HW119463   0.330   2.747   6.625 -2.9626  3.1573 -0.8374
 2668SOL    HW219464   0.210   2.653   6.658  0.5357 -1.1255  0.3748
 2669SOL     OW19465   2.628   3.456   1.204  0.1002  0.1083 -0.0548
 2669SOL    HW119466   2.626   3.361   1.210  0.4605  0.2145  1.6558
 2669SOL    HW219467   2.637   3.468   1.109  0.9883 -0.2653 -0.0139
 2670SOL     OW19468   3.709   0.396  14.322 -0.0388 -0.3975 -0.5513
 2670SOL    HW119469   3.675   0.368  14.407 -0.5791 -0.5689 -0.8250
 2670SOL    HW219470   3.786   0.447  14.347  0.1322 -1.5198  1.2645
 2671SOL     OW19471   1.581   2.082  15.993 -0.3726  0.0568 -0.0482
 2671SOL    HW119472   1.671   2.081  16.026 -0.6708  1.7852  0.8182
 2671SOL    HW219473   1.536   2.122  16.068 -1.0918 -4.1752  1.7538
 2672SOL     OW19474   1.191   3.902  16.335 -0.6540 -0.3786  0.4738
 2672SOL    HW119475   1.131   3.891  16.409 -1.3222 -0.3938 -0.0647
 2672SOL    HW219476   1.277   3.877  16.367 -0.5604 -0.4182  0.1913
 2673SOL     OW19477   3.691   2.723   4.417 -0.2034  0.1536 -0.2604
 2673SOL    HW119478   3.681   2.681   4.331 -0.1934  0.2209 -0.2946
 2673SOL    HW219479   3.601   2.741   4.445  0.7644 -0.7624  3.3966
 2674SOL     OW19480   2.960   0.326   4.758  0.0716 -0.3580  0.1957
 2674SOL    HW119481   2.916   0.363   4.681  1.4155  0.3235 -0.2601
 2674SOL    HW219482   2.964   0.242   4.713  2.0444 -0.8965  1.4127
 2675SOL     OW19483   3.457   2.653   8.332 -0.3101  0.1610 -0.7267
 2675SOL    HW119484   3.536   2.655   8.386 -0.0006  0.8462 -1.2086
 2675SOL    HW219485   3.395   2.614   8.394 -1.0949 -1.4939 -2.5236
 2676SOL     OW19486   0.247   0.247   2.659  0.0750  0.2946  0.6811
 2676SOL    HW119487   0.245   0.328   2.710 -0.4583 -0.1271  1.3481
 2676SOL    HW219488   0.305   0.186   2.705 -0.3820 -0.4546  0.2716
 2677SOL     OW19489   1.648   1.439   8.728  0.0866 -0.7019  0.5138
 2677SOL    HW119490   1.602   1.523   8.725 -0.0040 -0.7985 -0.4863
 2677SOL    HW219491   1.575   1.377   8.725  1.5366 -2.3144 -0.9842
 2678SOL     OW19492   4.269   4.532  16.989  0.2593 -0.1003  0.7292
 2678SOL    HW119493   4.249   4.443  17.021  0.1620 -0.0103  0.9197
 2678SOL    HW219494   4.357   4.537  17.029  0.9097 -0.0087 -0.7343
 2679SOL     OW19495   2.892   0.207   5.266 -0.7011 -0.7848 -0.3641
 2679SOL    HW119496   2.902   0.252   5.182  0.5508 -3.1094 -1.4558
 2679SOL    HW219497   2.846   0.128   5.239  1.2098 -1.6357 -1.0567
 2680SOL     OW19498   1.710   4.455   8.804 -0.2742 -0.1272  0.8965
 2680SOL    HW119499   1.770   4.529   8.810  0.4020 -0.7581  1.9989
 2680SOL    HW219500   1.699   4.430   8.895 -1.6317 -1.2559  0.4104
 2681SOL     OW19501   2.507   4.715   6.182 -0.2968 -0.3641 -0.8918
 2681SOL    HW119502   2.489   0.057   6.117 -0.9403  0.4404  0.1233
 2681SOL    HW219503   2.587   4.684   6.138  0.1002 -0.0725 -0.3757
 2682SOL     OW19504   3.953   4.671   5.302  1.2679 -1.1266 -0.8885
 2682SOL    HW119505   3.967   4.688   5.209  1.4258  1.3332 -0.4224
 2682SOL    HW219506   3.985   4.581   5.307  2.0726 -0.7358  1.0985
 2683SOL     OW19507   0.706   3.985  15.461 -0.2128  0.6561  0.1563
 2683SOL    HW119508   0.776   3.939  15.416 -1.3269 -0.1511 -0.7466
 2683SOL    HW219509   0.659   3.916  15.509  0.2255 -0.5607 -1.1646
 2684SOL     OW19510   1.954   1.719   6.278 -0.0558 -0.3921 -0.1154
 2684SOL    HW119511   1.911   1.730   6.194 -0.1852 -0.8266 -0.1085
 2684SOL    HW219512   1.999   1.634   6.275 -0.9228 -0.8863  0.9453
 2685SOL     OW19513   1.599   3.996  11.515 -0.1620  0.0686 -0.3405
 2685SOL    HW119514   1.663   4.042  11.460  1.5318 -0.0163  1.5587
 2685SOL    HW219515   1.651   3.992  11.595 -3.3923 -1.7278  1.6489
 2686SOL     OW19516   4.012   3.258  10.024 -0.5414  0.5082  0.5932
 2686SOL    HW119517   4.036   3.173  10.059 -0.3424 -0.1179 -1.0330
 2686SOL    HW219518   3.927   3.272  10.065 -0.6111  0.9128  0.3200
 2687SOL     OW19519   1.486   1.046   4.999 -0.1548 -0.4392 -0.1837
 2687SOL    HW119520   1.401   1.034   4.957 -0.0858  1.4153 -0.8698
 2687SOL    HW219521   1.527   1.017   4.918 -2.7251  1.1622 -2.0502
 2688SOL     OW19522   0.735   0.169  16.710  0.6644 -0.3954  0.1333
 2688SOL    HW119523   0.784   0.249  16.693  0.1712 -0.0246  0.4343
 2688SOL    HW219524   0.808   0.111  16.732  0.7420  0.2964  1.6771
 2689SOL     OW19525   4.688   1.741   2.873  0.2311  0.4379  0.3224
 2689SOL    HW119526   0.041   1.688   2.864  1.2164  1.8116  0.8833
 2689SOL    HW219527   4.690   1.774   2.783 -0.6116  0.2270  0.2241
 2690SOL     OW19528   0.733   4.054   3.154 -0.5672  0.4238  0.0218
 2690SOL    HW119529   0.708   4.020   3.068  2.2498 -0.5481 -0.4223
 2690SOL    HW219530   0.829   4.046   3.148 -0.7544 -1.2462 -0.9443
 2691SOL     OW19531   4.074   3.577   2.360  0.3676 -0.1744 -0.3731
 2691SOL    HW119532   4.138   3.506   2.365 -0.7667 -1.2301 -0.5229
 2691SOL    HW219533   4.029   3.543   2.282  0.5137  0.5581 -0.7697
 2692SOL     OW19534   0.790   2.146   6.113  0.2154  0.1793 -0.2388
 2692SOL    HW119535   0.715   2.181   6.066 -1.4438 -0.7387  1.7100
 2692SOL    HW219536   0.749   2.062   6.135  2.1194  0.1876  3.3088
 2693SOL     OW19537   1.632   4.620   3.834  0.4130  0.5815 -0.1250
 2693SOL    HW119538   1.714   4.648   3.875  0.1111 -0.4890  1.2217
 2693SOL    HW219539   1.676   4.558   3.774  0.8593 -0.2543  1.0631
 2694SOL     OW19540   4.028   2.275   4.154 -0.7968  0.1651 -0.3791
 2694SOL    HW119541   4.054   2.325   4.231 -1.1441 -1.0061  0.5004
 2694SOL    HW219542   4.023   2.342   4.087  1.3010 -0.7694 -1.4675
 2695SOL     OW19543   1.145   4.197   7.796 -0.8269  0.1979 -0.2067
 2695SOL    HW119544   1.146   4.285   7.759 -2.7186 -0.1127 -1.0288
 2695SOL    HW219545   1.168   4.213   7.887  0.6936  2.7459 -1.0421
 2696SOL     OW19546   1.827   0.120   4.141  0.7227  0.2087  0.0486
 2696SOL    HW119547   1.791   0.194   4.093  2.2479 -1.1622 -3.2317
 2696SOL    HW219548   1.867   0.069   4.070 -4.6603 -1.9060 -1.4806
 2697SOL     OW19549   2.136   4.125  15.533 -0.1459 -0.4261 -0.0340
 2697SOL    HW119550   2.145   4.207  15.485 -4.4544 -0.3974 -0.7689
 2697SOL    HW219551   2.117   4.079  15.451  0.3206 -0.6298 -0.0333
 2698SOL     OW19552   0.439   2.313   2.841  0.6376  0.4084  0.4362
 2698SOL    HW119553   0.390   2.373   2.785 -0.2673 -0.3568  0.4001
 2698SOL    HW219554   0.393   2.233   2.814 -1.5971  1.5910  0.6997
 2699SOL     OW19555   4.380   1.549  15.957 -0.2475  0.3553  0.3859
 2699SOL    HW119556   4.439   1.611  15.915  1.8069 -2.9733 -1.6317
 2699SOL    HW219557   4.305   1.555  15.899  0.1425 -0.0612 -0.1638
 2700SOL     OW19558   2.565   3.374  14.164 -0.1588  0.2125 -0.2772
 2700SOL    HW119559   2.590   3.460  14.199  2.1215 -0.6483  0.1989
 2700SOL    HW219560   2.602   3.380  14.076 -1.2537  0.8801 -0.6825
 2701SOL     OW19561   2.780   4.608  14.058 -0.3317 -0.4720  0.1729
 2701SOL    HW119562   2.740   4.589  13.973  0.0695 -1.2579  0.1540
 2701SOL    HW219563   2.872   4.605  14.030 -1.1622 -4.2868 -2.2038
 2702SOL     OW19564   3.424   2.253  12.715  0.2376 -0.3063 -0.3205
 2702SOL    HW119565   3.500   2.311  12.718  0.8460 -1.2207  1.3559
 2702SOL    HW219566   3.359   2.324  12.719  0.0330 -0.3839 -2.3223
 2703SOL     OW19567   3.265   2.534  11.170 -0.4042  0.5989 -0.0673
 2703SOL    HW119568   3.346   2.517  11.121 -0.7235  1.8485 -1.0009
 2703SOL    HW219569   3.193   2.495  11.122 -0.6382  0.7915  0.1286
 2704SOL     OW19570   0.669   1.194   2.445 -0.6876  0.4601  0.3898
 2704SOL    HW119571   0.575   1.213   2.442 -0.7212 -0.0243 -1.5602
 2704SOL    HW219572   0.695   1.285   2.463 -0.6427  0.9978 -2.3217
 2705SOL     OW19573   0.099   3.127   5.819  0.0922 -0.1757 -0.4112
 2705SOL    HW119574   0.124   3.200   5.763  0.0094  0.6475  0.6424
 2705SOL    HW219575   0.132   3.049   5.773 -0.1165 -0.5706  0.1092
 2706SOL     OW19576   3.403   1.200  14.939 -0.2673 -0.2681 -0.0878
 2706SOL    HW119577   3.325   1.253  14.923  0.5663  0.7477 -0.7597
 2706SOL    HW219578   3.434   1.224  15.027 -0.4556 -1.6114  0.3432
 2707SOL     OW19579   0.840   4.097   8.684  0.6032 -0.2086  0.2350
 2707SOL    HW119580   0.935   4.106   8.695  0.3622 -0.1225  2.3955
 2707SOL    HW219581   0.819   4.069   8.774 -0.0332  0.0503  0.1640
 2708SOL     OW19582   4.595   2.003   5.600  0.0789 -0.5514  0.0690
 2708SOL    HW119583   4.504   2.024   5.620 -0.1701 -0.1525 -1.5482
 2708SOL    HW219584   4.643   2.082   5.625 -1.1279  0.1916  0.0329
 2709SOL     OW19585   3.990   0.110   7.913 -0.2260 -0.3695  0.0851
 2709SOL    HW119586   4.030   0.039   7.863  2.1406  0.8995  0.1806
 2709SOL    HW219587   3.934   0.061   7.973 -0.8764  0.0931 -0.1496
 2710SOL     OW19588   0.553   3.690   2.855 -0.4908 -0.1087 -0.2785
 2710SOL    HW119589   0.465   3.726   2.843 -1.4380 -2.3995 -0.2809
 2710SOL    HW219590   0.542   3.597   2.876  2.4928 -0.4641 -0.3217
 2711SOL     OW19591   1.115   2.217   3.013 -0.3172 -0.9111 -0.1077
 2711SOL    HW119592   1.049   2.263   2.961  0.4260 -0.7684 -0.9194
 2711SOL    HW219593   1.094   2.242   3.103 -0.2541  0.0185 -0.3516
 2712SOL     OW19594   4.497   3.398   2.971 -0.2372 -0.1023 -0.5745
 2712SOL    HW119595   4.421   3.439   3.011  0.7984  0.3293  0.9781
 2712SOL    HW219596   4.458   3.324   2.924  0.9622 -0.5847 -0.8104
 2713SOL     OW19597   4.272   2.510  14.556 -0.3095 -0.0579 -0.2494
 2713SOL    HW119598   4.348   2.550  14.598 -0.2315 -0.5217  0.0421
 2713SOL    HW219599   4.213   2.585  14.553 -0.1868  0.0194 -0.7223
 2714SOL     OW19600   2.353   2.620   3.748  0.5360 -0.0854  0.5474
 2714SOL    HW119601   2.334   2.635   3.655  1.8827  0.2874  0.3419
 2714SOL    HW219602   2.392   2.702   3.778 -0.6912  0.0262  1.8478
 2715SOL     OW19603   0.626   0.419   3.824 -0.6081 -0.2593  0.0909
 2715SOL    HW119604   0.688   0.364   3.775 -2.0843 -2.3786  0.6264
 2715SOL    HW219605   0.674   0.483   3.876 -0.4497  0.4829 -0.9713
 2716SOL     OW19606   1.033   1.229   5.126 -0.0327  0.6352  0.5560
 2716SOL    HW119607   0.985   1.242   5.044  0.4513  0.5033  0.2511
 2716SOL    HW219608   1.017   1.137   5.144  0.5635  0.2366 -0.9230
 2717SOL     OW19609   2.711   2.402   3.924 -0.2635 -0.3632  0.0786
 2717SOL    HW119610   2.776   2.356   3.978  0.3267  0.4529  0.0755
 2717SOL    HW219611   2.760   2.450   3.857  1.2494 -1.9565  0.0509
 2718SOL     OW19612   2.346   2.815   8.352 -0.2917  0.3700 -0.0794
 2718SOL    HW119613   2.434   2.796   8.383 -0.4096 -0.6859 -0.3946
 2718SOL    HW219614   2.342   2.809   8.257 -1.5815 -0.7550  0.0423
 2719SOL     OW19615   1.261   0.272   7.169  0.6425 -0.0920 -0.0956
 2719SOL    HW119616   1.353   0.253   7.188  0.7110 -0.7659 -1.0650
 2719SOL    HW219617   1.230   0.186   7.196 -1.9724  0.8298 -0.1601
 2720SOL     OW19618   0.162   4.572   8.859  0.6628 -0.2004 -0.4456
 2720SOL    HW119619   0.099   4.542   8.925  0.8460 -0.4456 -0.3813
 2720SOL    HW219620   0.099   4.589   8.788  3.1806  0.3558 -2.5528
 2721SOL     OW19621   1.115   0.343  17.676 -0.0848  0.3467 -0.2905
 2721SOL    HW119622   1.196   0.379   0.009  0.0877 -1.1151  0.7633
 2721SOL    HW219623   1.110   0.256   0.011 -2.0702  0.1900 -0.9102
 2722SOL     OW19624   2.281   2.452  17.051  0.2427 -0.1873 -0.0295
 2722SOL    HW119625   2.359   2.403  17.023  1.6705  2.5178 -0.7888
 2722SOL    HW219626   2.270   2.506  16.972  0.0667 -1.5329 -0.9326
 2723SOL     OW19627   4.668   0.631   8.761 -0.1998 -0.9323 -1.0707
 2723SOL    HW119628   4.601   0.694   8.788  0.3169 -1.8640  2.2959
 2723SOL    HW219629   4.611   0.556   8.745  1.3888 -2.2758 -0.3189
 2724SOL     OW19630   2.780   1.837   6.508  0.2260 -0.5177 -0.4633
 2724SOL    HW119631   2.778   1.928   6.536 -1.2296 -1.5233  2.7117
 2724SOL    HW219632   2.697   1.807   6.547  1.0220  0.2832  1.8283
 2725SOL     OW19633   0.185   2.423   5.073  0.7665 -0.0132 -0.6935
 2725SOL    HW119634   0.233   2.441   4.992 -0.8599 -0.9355 -1.8564
 2725SOL    HW219635   0.240   2.358   5.116 -1.7814  0.8468  3.8437
 2726SOL     OW19636   1.048   1.265   3.367 -0.4066 -0.3145 -0.0406
 2726SOL    HW119637   1.114   1.330   3.341 -0.5369 -1.0682 -2.2945
 2726SOL    HW219638   0.967   1.308   3.338 -0.4665 -0.0866  0.4760
 2727SOL     OW19639   1.191   2.470  17.192 -0.3019  0.0199  0.2933
 2727SOL    HW119640   1.102   2.453  17.160  0.5857 -0.3133 -1.9570
 2727SOL    HW219641   1.177   2.480  17.287  0.7735  0.1888  0.4257
 2728SOL     OW19642   2.844   1.699   6.111  0.0023  0.0490 -0.2102
 2728SOL    HW119643   2.811   1.747   6.035  0.2943 -0.7046 -0.8121
 2728SOL    HW219644   2.921   1.663   6.068 -0.2400  0.2197 -0.7925
 2729SOL     OW19645   3.318   3.250   7.178 -0.0100  0.1962 -0.1082
 2729SOL    HW119646   3.363   3.203   7.248 -0.1672  0.0024 -0.1382
 2729SOL    HW219647   3.382   3.319   7.160 -1.3637  1.4887 -0.0203
 2730SOL     OW19648   0.262   0.267   2.358 -0.1986  0.0302 -0.6356
 2730SOL    HW119649   0.199   0.194   2.361  2.8031 -2.5996 -1.7276
 2730SOL    HW219650   0.346   0.228   2.381  0.4329  1.7958 -0.0143
 2731SOL     OW19651   4.303   2.661   5.735  0.2231  0.3744  0.5240
 2731SOL    HW119652   4.272   2.708   5.812 -1.1231  0.2327  0.0591
 2731SOL    HW219653   4.288   2.707   5.652  1.6369  0.9735  0.5982
 2732SOL     OW19654   2.763   0.947   8.555 -0.0381  0.0285  0.0301
 2732SOL    HW119655   2.840   1.004   8.554  0.3984 -0.5592  0.1304
 2732SOL    HW219656   2.687   1.005   8.558 -0.3857 -0.5797  3.3918
 2733SOL     OW19657   0.736   2.953   4.710 -0.4681 -0.6348  0.6293
 2733SOL    HW119658   0.724   2.992   4.624 -2.3169  0.0482  1.1841
 2733SOL    HW219659   0.683   3.014   4.761  0.0430 -0.2856  0.7454
 2734SOL     OW19660   3.757   2.770   1.157  0.0589  0.2596 -0.1728
 2734SOL    HW119661   3.809   2.849   1.171  3.5309 -1.8181 -1.2543
 2734SOL    HW219662   3.674   2.800   1.193  0.9714  4.2646 -1.3973
 2735SOL     OW19663   2.451   3.861   8.391  0.3165 -0.0996  0.0207
 2735SOL    HW119664   2.399   3.922   8.443 -0.7990 -0.3253 -0.8272
 2735SOL    HW219665   2.420   3.785   8.441  0.9601 -1.7630 -2.1475
 2736SOL     OW19666   2.457   1.267  16.920 -0.1012  0.3774  0.1244
 2736SOL    HW119667   2.469   1.296  16.829  3.6848 -1.0051  0.2147
 2736SOL    HW219668   2.364   1.245  16.920  0.2089 -0.9210 -0.6622
 2737SOL     OW19669   2.024   3.171  17.072  0.2806 -0.2057 -0.0177
 2737SOL    HW119670   2.005   3.235  17.004  1.7404  0.4639  0.2150
 2737SOL    HW219671   2.038   3.231  17.145  1.5361  1.6116 -1.7835
 2738SOL     OW19672   2.918   3.488  14.438  0.1482  0.5346 -0.3145
 2738SOL    HW119673   2.946   3.537  14.361 -1.2059  1.2276 -0.3666
 2738SOL    HW219674   2.823   3.490  14.425 -0.0113 -0.2040  0.7474
 2739SOL     OW19675   1.212   4.265   5.855 -0.2151 -0.7960 -0.1097
 2739SOL    HW119676   1.209   4.335   5.920 -1.7319 -0.5395 -0.4583
 2739SOL    HW219677   1.124   4.271   5.818 -0.1859 -0.8059 -0.1794
 2740SOL     OW19678   2.158   4.214   2.777 -0.2080  0.5953 -0.3048
 2740SOL    HW119679   2.168   4.275   2.704 -0.5345  0.7287 -0.2371
 2740SOL    HW219680   2.245   4.230   2.814  1.2569 -1.8021 -2.6777
 2741SOL     OW19681   1.064   1.727   3.050  1.0734 -0.5501 -0.3053
 2741SOL    HW119682   1.142   1.717   2.996  0.0916  1.1316 -2.0778
 2741SOL    HW219683   1.078   1.804   3.105  0.1760 -1.1020  0.7023
 2742SOL     OW19684   3.542   2.373   8.260 -0.0973  0.1016  0.1527
 2742SOL    HW119685   3.576   2.431   8.327 -1.2241  0.3616  0.4910
 2742SOL    HW219686   3.449   2.395   8.262 -0.2908 -0.7784  0.8006
 2743SOL     OW19687   3.227   3.372  15.445 -0.6517 -0.1329 -0.0236
 2743SOL    HW119688   3.197   3.392  15.357  0.4780 -2.3062 -0.8976
 2743SOL    HW219689   3.258   3.282  15.434  0.2590  0.0220  1.1629
 2744SOL     OW19690   4.642   2.746   8.702 -0.1454 -0.0099 -0.2527
 2744SOL    HW119691   4.718   2.804   8.703 -0.0059 -0.1890 -1.3592
 2744SOL    HW219692   4.586   2.795   8.763  0.8034 -0.2747  0.8460
 2745SOL     OW19693   3.310   1.160   5.541  0.1899 -0.1099 -0.3449
 2745SOL    HW119694   3.362   1.155   5.621  1.2757 -0.3188 -1.0710
 2745SOL    HW219695   3.333   1.243   5.498  0.2408  0.0290 -0.0502
 2746SOL     OW19696   0.479   3.322   3.978 -0.2413  0.1978  0.0480
 2746SOL    HW119697   0.544   3.361   4.036 -0.3434 -0.4297  0.5784
 2746SOL    HW219698   0.515   3.363   3.899  3.9127 -2.1492  0.7353
 2747SOL     OW19699   2.947   1.866  15.940 -0.4360 -0.6404  0.5066
 2747SOL    HW119700   2.978   1.897  16.026 -0.1438 -1.1990  0.6064
 2747SOL    HW219701   2.859   1.841  15.966  0.2650 -0.3061  3.2448
 2748SOL     OW19702   3.078   2.568   8.183  0.0759 -0.1725 -0.2711
 2748SOL    HW119703   3.009   2.626   8.216  3.1683  1.7207  2.8951
 2748SOL    HW219704   3.029   2.507   8.129 -1.1188  1.5899 -1.1976
 2749SOL     OW19705   1.712   0.748   6.487  0.2548  0.2679  0.1447
 2749SOL    HW119706   1.782   0.687   6.510 -0.8033 -0.9644  0.1342
 2749SOL    HW219707   1.752   0.835   6.488  0.8866  0.0039 -3.5326
 2750SOL     OW19708   0.578   0.153   8.003  0.1772  0.2810  0.3063
 2750SOL    HW119709   0.605   0.196   7.921  0.9742  0.3554  0.6102
 2750SOL    HW219710   0.633   0.075   8.011 -0.6218 -0.5388 -2.2356
 2751SOL     OW19711   3.870   3.564   5.164  0.1125  0.4226 -0.3878
 2751SOL    HW119712   3.942   3.622   5.139  0.4372  0.1433 -0.1054
 2751SOL    HW219713   3.798   3.623   5.186 -2.6550 -2.6450 -1.3564
 2752SOL     OW19714   1.656   2.690   6.800  0.5490 -0.0189 -0.5759
 2752SOL    HW119715   1.702   2.639   6.734  2.6673 -0.6783  1.4105
 2752SOL    HW219716   1.711   2.768   6.801 -1.8190  1.6767 -0.8964
 2753SOL     OW19717   4.391   2.892  10.614 -0.1053  0.0883 -0.7891
 2753SOL    HW119718   4.479   2.902  10.651 -1.2885 -0.5463  2.1974
 2753SOL    HW219719   4.397   2.797  10.606  0.5987 -0.0861  1.6421
 2754SOL     OW19720   4.305   3.699   3.174 -0.6979 -0.2339  0.2955
 2754SOL    HW119721   4.286   3.696   3.268  0.6748 -1.4756  0.5317
 2754SOL    HW219722   4.249   3.633   3.134 -2.3904  2.9124 -2.5497
 2755SOL     OW19723   2.835   1.830   1.893 -0.6676 -0.3740  0.7613
 2755SOL    HW119724   2.799   1.868   1.972 -2.3102  0.3214 -0.3170
 2755SOL    HW219725   2.917   1.799   1.930 -0.2282  0.9700  0.8933
 2756SOL     OW19726   1.574   4.475   0.483  0.1079 -0.2928  0.2335
 2756SOL    HW119727   1.554   4.568   0.487 -3.2964 -0.8682 -2.4436
 2756SOL    HW219728   1.640   4.475   0.413 -2.3006 -1.2064 -2.0749
 2757SOL     OW19729   3.083   1.876   4.015 -0.0605  0.2127  0.0948
 2757SOL    HW119730   3.165   1.881   4.064 -0.3268 -0.2953  0.6079
 2757SOL    HW219731   3.036   1.949   4.056  0.2378  0.4931 -0.0633
 2758SOL     OW19732   2.771   3.022   8.603  0.1199 -0.1828  0.1625
 2758SOL    HW119733   2.678   2.999   8.598  0.3285 -0.5659 -1.9833
 2758SOL    HW219734   2.773   3.064   8.689 -1.0036  0.6840 -0.2374
 2759SOL     OW19735   0.319   3.847  16.505  0.1215  0.4537 -0.1410
 2759SOL    HW119736   0.270   3.918  16.464 -0.5385  0.0340 -0.0872
 2759SOL    HW219737   0.327   3.797  16.424 -1.2655 -2.4279  1.4923
 2760SOL     OW19738   0.176   1.607   5.732 -0.1428 -0.1347  0.0812
 2760SOL    HW119739   0.081   1.600   5.727 -0.0100  0.5411 -2.8892
 2760SOL    HW219740   0.191   1.652   5.650 -0.3652  1.3636  0.8706
 2761SOL     OW19741   3.334   3.559   4.279  0.1842  0.3249  0.2522
 2761SOL    HW119742   3.344   3.645   4.320 -1.0194 -0.0428  1.3434
 2761SOL    HW219743   3.287   3.514   4.349 -3.1389 -0.7501 -2.6443
 2762SOL     OW19744   4.529   2.510  15.794  0.0992  0.6202  0.5550
 2762SOL    HW119745   4.521   2.499  15.699  0.5377 -1.9986  0.8190
 2762SOL    HW219746   4.519   2.605  15.799 -1.3682  0.4818  0.3361
 2763SOL     OW19747   2.955   1.731  12.081  0.2248 -0.2469  0.1052
 2763SOL    HW119748   2.954   1.703  11.990 -0.4270  1.4819 -0.4028
 2763SOL    HW219749   2.964   1.826  12.077  0.0501 -0.2385 -0.0629
 2764SOL     OW19750   4.695   4.668   3.107  0.0325 -0.2235 -0.1858
 2764SOL    HW119751   4.682   4.617   3.028  0.4983 -0.4830 -0.0940
 2764SOL    HW219752   0.003   0.027   3.078 -1.3738  1.9930  4.4844
 2765SOL     OW19753   4.193   3.169   9.744  0.0728 -0.2102 -0.5496
 2765SOL    HW119754   4.172   3.134   9.658  0.5590 -0.9965 -0.3491
 2765SOL    HW219755   4.227   3.087   9.782  1.1818 -0.3811 -1.9015
 2766SOL     OW19756   0.809   0.370   3.570  0.3043 -0.7446 -0.2156
 2766SOL    HW119757   0.798   0.463   3.550  1.3174 -0.6516 -0.3426
 2766SOL    HW219758   0.892   0.343   3.529  0.1604 -0.7300 -0.5199
 2767SOL     OW19759   1.413   4.473   5.862  0.2109  0.0599 -0.8445
 2767SOL    HW119760   1.495   4.458   5.908  0.2324  2.0417 -0.2273
 2767SOL    HW219761   1.397   4.393   5.813  2.6404  0.1557 -1.7844
 2768SOL     OW19762   1.229   1.560   4.976 -0.0222  0.1514  0.6314
 2768SOL    HW119763   1.154   1.608   5.010 -0.1850  1.6964 -1.8982
 2768SOL    HW219764   1.195   1.530   4.892 -0.1855 -2.0567  1.5020
 2769SOL     OW19765   2.093   2.920   0.065  0.6403  0.5381  0.0632
 2769SOL    HW119766   2.079   2.892  17.679 -0.3169  0.3441  0.2744
 2769SOL    HW219767   2.143   2.845   0.097 -0.1104  0.4474  0.9924
 2770SOL     OW19768   3.486   0.874   2.459 -0.1976  0.2134  0.0025
 2770SOL    HW119769   3.470   0.816   2.533  1.0999  0.6082  0.5916
 2770SOL    HW219770   3.495   0.959   2.502 -0.8472  0.8967 -1.1872
 2771SOL     OW19771   0.586   0.936  17.094 -0.0554  0.4430 -0.3049
 2771SOL    HW119772   0.512   0.959  17.038  0.6180  2.2259 -0.4698
 2771SOL    HW219773   0.553   0.864  17.148  1.2684  0.1196  0.0897
 2772SOL     OW19774   4.590   3.112  13.504 -0.1805 -0.0345 -0.3026
 2772SOL    HW119775   4.677   3.089  13.536 -0.6701 -1.4443  0.0275
 2772SOL    HW219776   4.545   3.138  13.584 -0.4115  1.5697 -0.9677
 2773SOL     OW19777   1.802   1.289   8.004  0.8109 -0.1754 -0.0502
 2773SOL    HW119778   1.737   1.220   7.990  1.5509 -1.2153  1.6685
 2773SOL    HW219779   1.748   1.362   8.036  1.2248  0.3273 -0.4826
 2774SOL     OW19780   4.357   1.049   8.894 -0.8892 -0.3878  0.0938
 2774SOL    HW119781   4.317   1.057   8.808 -0.0016 -0.2684 -0.3066
 2774SOL    HW219782   4.317   1.126   8.934 -0.1524 -0.3343  0.7519
 2775SOL     OW19783   1.841   0.182   1.115 -0.0793 -0.3055 -0.1181
 2775SOL    HW119784   1.921   0.148   1.076  1.9933 -0.3134  4.0985
 2775SOL    HW219785   1.808   0.110   1.169  1.6523 -0.6141  0.5261
 2776SOL     OW19786   2.347   1.612   1.764 -0.8564  0.0779  0.0756
 2776SOL    HW119787   2.420   1.558   1.795 -1.1931 -0.5482 -0.1993
 2776SOL    HW219788   2.357   1.591   1.671 -0.8088  1.0024 -0.1209
 2777SOL     OW19789   2.628   3.720   1.763 -0.2896  0.5281 -0.1377
 2777SOL    HW119790   2.539   3.694   1.737  0.2582 -1.4480  0.0041
 2777SOL    HW219791   2.642   3.784   1.693  1.0829 -0.0270 -0.3672
 2778SOL     OW19792   3.264   0.643  17.586 -0.2407 -0.0965  0.0851
 2778SOL    HW119793   3.310   0.683  17.512  0.5612 -0.1337  0.5644
 2778SOL    HW219794   3.199   0.584  17.548 -0.9616 -0.4563  1.8829
 2779SOL     OW19795   3.171   0.320   3.343  0.2157 -0.6527  0.3820
 2779SOL    HW119796   3.253   0.273   3.354  1.2245  1.1632  0.6516
 2779SOL    HW219797   3.141   0.264   3.271 -0.2688  0.8055 -0.5706
 2780SOL     OW19798   1.833   2.536   1.909 -0.1604  0.1578  0.0625
 2780SOL    HW119799   1.877   2.495   1.983 -0.4447 -1.2976 -0.5792
 2780SOL    HW219800   1.822   2.460   1.852 -1.5752  0.8425 -0.5669
 2781SOL     OW19801   1.041   1.862   2.381 -0.5496  0.2429  0.1659
 2781SOL    HW119802   1.041   1.794   2.314  2.5882 -1.5823  1.9645
 2781SOL    HW219803   0.951   1.894   2.376  0.6894  3.7510  0.3595
 2782SOL     OW19804   3.070   3.002   8.109 -0.2032  0.2756 -0.3834
 2782SOL    HW119805   3.160   3.008   8.140 -0.6333 -1.0822  1.1003
 2782SOL    HW219806   3.024   3.012   8.193 -0.9943  2.4079 -1.0733
 2783SOL     OW19807   3.314   3.704  17.620  0.3114 -0.0527  0.1434
 2783SOL    HW119808   3.269   3.774  17.574  0.7433  0.0884 -0.0604
 2783SOL    HW219809   3.255   3.629  17.609  0.0956  0.2459 -0.7514
 2784SOL     OW19810   3.807   0.763   8.490 -0.2074  0.3435 -0.5489
 2784SOL    HW119811   3.846   0.830   8.433  1.6309 -1.0427 -0.9236
 2784SOL    HW219812   3.867   0.690   8.477 -2.4895 -1.0320 -3.2608
 2785SOL     OW19813   4.119   1.949   4.439  0.3749  0.1157 -0.2120
 2785SOL    HW119814   4.107   1.901   4.521 -2.7571 -1.9162 -1.8246
 2785SOL    HW219815   4.134   1.881   4.373 -0.3408  1.0350 -1.3234
 2786SOL     OW19816   0.303   2.821   8.204 -0.6256 -0.4068 -0.1714
 2786SOL    HW119817   0.370   2.860   8.148 -3.1307  1.3986 -1.9251
 2786SOL    HW219818   0.354   2.777   8.272  1.6275  2.2578 -0.1162
 2787SOL     OW19819   4.521   0.508   3.986 -0.1852 -0.0983  0.2415
 2787SOL    HW119820   4.489   0.488   4.074 -1.9542 -1.3485 -0.6834
 2787SOL    HW219821   4.473   0.451   3.926  2.3105 -1.7652 -0.1756
 2788SOL     OW19822   4.694   2.234   2.836  0.2706 -0.6388  0.4466
 2788SOL    HW119823   4.604   2.202   2.834 -0.6887  2.0925 -1.4434
 2788SOL    HW219824   4.711   2.259   2.745  0.8024  0.6582  0.9037
 2789SOL     OW19825   3.023   1.445  13.241 -0.2176 -0.0051  0.0845
 2789SOL    HW119826   3.024   1.445  13.145 -0.2318  0.1036  0.0839
 2789SOL    HW219827   3.113   1.477  13.250 -0.0018 -0.6186  0.0662
 2790SOL     OW19828   2.874   1.513  14.970 -0.3246 -0.1389 -0.0240
 2790SOL    HW119829   2.921   1.476  15.044 -0.7512  2.4359  1.5501
 2790SOL    HW219830   2.914   1.466  14.896 -0.5646 -0.0964 -0.1828
 2791SOL     OW19831   3.331   2.966  13.717  0.0513 -0.0060 -0.2150
 2791SOL    HW119832   3.270   2.945  13.788 -1.3405 -1.7774 -1.9261
 2791SOL    HW219833   3.281   2.940  13.640  0.0889 -0.8908  0.0612
 2792SOL     OW19834   3.820   2.988  12.976 -0.4058  0.1829 -0.4769
 2792SOL    HW119835   3.783   2.910  12.935 -0.9237  0.3666 -0.3582
 2792SOL    HW219836   3.828   2.956  13.065  0.2022  2.7844  0.4030
 2793SOL     OW19837   1.474   4.285   7.908 -0.6674  0.0542 -0.0753
 2793SOL    HW119838   1.536   4.303   7.979 -0.7932 -1.9980  0.5523
 2793SOL    HW219839   1.417   4.231   7.963 -1.5011 -0.3941 -1.3781
 2794SOL     OW19840   0.078   2.655   2.661 -0.1014 -0.1140  0.4222
 2794SOL    HW119841   0.058   2.644   2.753  0.1393 -0.4979  0.4294
 2794SOL    HW219842   0.058   2.748   2.650  0.7628 -0.2055 -1.9778
 2795SOL     OW19843   2.483   1.300  15.623 -0.4800  0.1378 -0.0792
 2795SOL    HW119844   2.525   1.384  15.605  1.0568 -0.4366  0.8280
 2795SOL    HW219845   2.560   1.245  15.636 -0.4810  0.2551  0.4395
 2796SOL     OW19846   1.794   2.301   1.787 -0.1198 -0.1673 -0.1888
 2796SOL    HW119847   1.710   2.255   1.781 -0.4418  0.7544 -2.6834
 2796SOL    HW219848   1.830   2.286   1.699  1.7642 -1.0780  0.7465
 2797SOL     OW19849   3.668   1.440   5.440  0.0033 -0.1016 -0.0533
 2797SOL    HW119850   3.588   1.402   5.477 -0.1136  1.2089  1.0352
 2797SOL    HW219851   3.683   1.516   5.496  1.3705 -1.0269  0.8372
 2798SOL     OW19852   4.521   2.327  14.066  0.1341 -0.1508 -0.2484
 2798SOL    HW119853   4.495   2.348  14.156  0.0313 -0.6601 -0.1625
 2798SOL    HW219854   4.607   2.369  14.056  0.0246 -0.1698 -1.2278
 2799SOL     OW19855   1.702   0.783   3.817 -0.1015  0.3997 -0.2278
 2799SOL    HW119856   1.767   0.727   3.774  0.4440  1.5439 -0.8870
 2799SOL    HW219857   1.699   0.857   3.756  2.2489  0.6184 -0.0485
 2800SOL     OW19858   3.714   1.977  10.984  0.2764  0.2835  0.5093
 2800SOL    HW119859   3.751   1.909  10.927  2.1866  1.7041  0.0817
 2800SOL    HW219860   3.627   1.982  10.943 -1.2424  1.1975  3.8356
 2801SOL     OW19861   4.446   1.870  15.399  0.2566 -0.1355 -0.0362
 2801SOL    HW119862   4.490   1.937  15.347  0.4689  0.2436  0.6191
 2801SOL    HW219863   4.502   1.799  15.368  0.1484 -0.6267  0.8978
 2802SOL     OW19864   0.017   4.639   5.464  0.0976  0.8915  0.6609
 2802SOL    HW119865   0.016   0.009   5.464  0.1118  0.8944 -0.0279
 2802SOL    HW219866   4.719   4.610   5.552 -1.1848  1.5871  0.5432
 2803SOL     OW19867   2.700   2.633   2.073  0.6486 -0.5289 -0.0000
 2803SOL    HW119868   2.714   2.540   2.054  0.4815 -0.4665 -0.4342
 2803SOL    HW219869   2.774   2.678   2.033 -1.0712  1.6846 -0.6575
 2804SOL     OW19870   0.799   1.186  11.991 -0.3243  0.0965  0.4225
 2804SOL    HW119871   0.831   1.274  11.973 -0.7914  0.7037  2.6135
 2804SOL    HW219872   0.750   1.199  12.072  0.8437 -1.1871  1.3375
 2805SOL     OW19873   2.754   3.428   4.526  0.6543  0.0603 -0.3929
 2805SOL    HW119874   2.663   3.397   4.515  0.6663  0.4550 -1.6708
 2805SOL    HW219875   2.736   3.481   4.603  1.4692  0.2656 -0.3477
 2806SOL     OW19876   3.698   4.161   4.003 -0.2137  0.0678  0.0786
 2806SOL    HW119877   3.637   4.161   4.077  0.2504  0.6239  0.4580
 2806SOL    HW219878   3.690   4.072   3.969 -0.4091  1.3673 -3.2111
 2807SOL     OW19879   3.841   1.405   0.806 -0.5540  0.1565  0.3829
 2807SOL    HW119880   3.840   1.326   0.860  2.3559 -0.5741 -0.6505
 2807SOL    HW219881   3.917   1.460   0.828 -0.4113 -0.0531  0.4090
 2808SOL     OW19882   2.340   0.614   5.300  0.1924  0.0158 -0.0352
 2808SOL    HW119883   2.360   0.676   5.230 -1.8120 -2.4048 -2.7506
 2808SOL    HW219884   2.256   0.578   5.271  0.5286  0.5942 -1.7258
 2809SOL     OW19885   1.656   3.543   2.252 -0.3177  0.0061  0.8094
 2809SOL    HW119886   1.749   3.566   2.249 -0.2266 -0.5458 -0.5099
 2809SOL    HW219887   1.675   3.459   2.294  1.5029  0.4835  0.9272
 2810SOL     OW19888   0.421   3.786   8.285  0.2689 -0.5141  0.2847
 2810SOL    HW119889   0.512   3.809   8.308  0.1700 -2.0794  2.2369
 2810SOL    HW219890   0.421   3.778   8.190 -0.8533 -0.1823  0.2590
 2811SOL     OW19891   1.201   0.632   9.671  0.0085 -0.7447  0.4435
 2811SOL    HW119892   1.286   0.662   9.639 -0.0833  0.3175  1.1602
 2811SOL    HW219893   1.137   0.629   9.600 -1.9402  0.8604  2.1200
 2812SOL     OW19894   0.633   2.620   9.188  0.2880 -0.0678 -0.0685
 2812SOL    HW119895   0.574   2.696   9.189 -1.4890 -1.4277 -1.5318
 2812SOL    HW219896   0.693   2.653   9.121  0.9103 -0.3904  0.3308
 2813SOL     OW19897   3.215   4.138  12.161  0.0732  0.2497 -0.5668
 2813SOL    HW119898   3.218   4.211  12.223  1.7712  1.0046 -1.5241
 2813SOL    HW219899   3.176   4.181  12.084 -2.8266 -0.5471  0.4581
 2814SOL     OW19900   4.712   4.674  12.561 -0.9186 -0.0293  0.1538
 2814SOL    HW119901   0.052   4.649  12.497 -2.2597 -1.4130 -0.6787
 2814SOL    HW219902   4.636   4.632  12.520  0.8046 -1.4021 -1.6487
 2815SOL     OW19903   1.971   4.658   5.661  0.2084 -0.1527  0.3685
 2815SOL    HW119904   1.923   4.719   5.604 -0.1981 -0.1804  0.6831
 2815SOL    HW219905   1.899   4.612   5.704 -1.6894  0.7570 -1.8384
 2816SOL     OW19906   4.680   4.304   3.085 -0.5245 -0.3942 -0.5252
 2816SOL    HW119907   0.031   4.361   3.082  0.1828 -1.2212  1.7407
 2816SOL    HW219908   4.711   4.235   3.144  0.5655 -0.9823 -1.7926
 2817SOL     OW19909   2.901   2.482   3.711 -0.3116  0.1195  0.1762
 2817SOL    HW119910   2.983   2.472   3.758 -0.7107 -0.8885  0.6467
 2817SOL    HW219911   2.900   2.572   3.679 -1.4522 -0.6038 -1.8394
 2818SOL     OW19912   0.298   1.580  14.769  0.3252  0.0984 -0.5169
 2818SOL    HW119913   0.207   1.565  14.792  0.5550 -0.7105 -0.1525
 2818SOL    HW219914   0.342   1.520  14.829 -0.0886 -0.8479 -1.1646
 2819SOL     OW19915   3.518   0.529   6.208  0.2137  0.4168  0.3625
 2819SOL    HW119916   3.483   0.616   6.228  0.4057 -0.1233  3.0708
 2819SOL    HW219917   3.517   0.537   6.113  0.4546  1.1670  0.4234
 2820SOL     OW19918   4.226   3.078   8.438 -0.6327  0.7695  0.4895
 2820SOL    HW119919   4.281   3.153   8.459 -0.1583  0.1553  1.4528
 2820SOL    HW219920   4.242   3.026   8.517 -3.1659 -0.5705  0.1015
 2821SOL     OW19921   0.832   1.450   3.248 -0.3382 -0.0561  0.2472
 2821SOL    HW119922   0.775   1.460   3.171 -2.2846 -0.8404  1.5620
 2821SOL    HW219923   0.767   1.428   3.315 -1.1631  0.4330 -0.3894
 2822SOL     OW19924   4.233   3.282   1.010 -0.4915 -0.6812  0.4981
 2822SOL    HW119925   4.202   3.201   0.969 -2.7254 -0.7561  2.3950
 2822SOL    HW219926   4.237   3.337   0.931 -0.8873 -1.1961  0.1185
 2823SOL     OW19927   3.814   3.862   3.458  0.2778  0.2082  0.4615
 2823SOL    HW119928   3.830   3.769   3.474  2.3160  0.5876  0.6343
 2823SOL    HW219929   3.894   3.895   3.498  1.0181 -0.3578 -0.5699
 2824SOL     OW19930   3.993   2.216  12.775  0.2300  0.7506 -0.6472
 2824SOL    HW119931   3.999   2.289  12.714  1.8592  0.8455 -0.3913
 2824SOL    HW219932   4.022   2.256  12.857  1.1621 -1.6349  0.2057
 2825SOL     OW19933   0.678   0.723  14.364  0.5069 -0.1492  0.6023
 2825SOL    HW119934   0.690   0.778  14.441 -0.1544 -0.0532  0.6394
 2825SOL    HW219935   0.692   0.638  14.406 -2.0690 -2.7930 -3.8369
 2826SOL     OW19936   3.914   3.475  11.020 -0.1568  0.1795 -0.0242
 2826SOL    HW119937   3.939   3.490  10.929 -0.8030  0.3027 -0.1822
 2826SOL    HW219938   3.914   3.379  11.021  2.7032  0.1757  0.9026
 2827SOL     OW19939   1.043   2.915   2.800 -0.4008 -0.5780 -0.3881
 2827SOL    HW119940   1.032   2.856   2.875  0.0312  0.8544  0.8034
 2827SOL    HW219941   0.954   2.910   2.765 -0.7107 -0.0639  0.3318
 2828SOL     OW19942   4.281   1.321  12.647  0.7874 -0.1724 -0.1162
 2828SOL    HW119943   4.249   1.367  12.725  1.2283  0.0130 -0.0475
 2828SOL    HW219944   4.286   1.393  12.584 -3.0715 -0.1502 -0.3966
 2829SOL     OW19945   2.020   1.051   7.411 -0.3926  0.3812 -0.2762
 2829SOL    HW119946   1.993   1.058   7.503  1.2546 -0.3429  0.2577
 2829SOL    HW219947   2.090   0.987   7.425  0.9926  1.2702 -3.1733
 2830SOL     OW19948   3.118   1.314  14.126  0.1756 -0.2235  0.1278
 2830SOL    HW119949   3.046   1.252  14.142  1.2230 -1.5757 -0.3724
 2830SOL    HW219950   3.179   1.307  14.199  1.5139  4.2511 -0.5738
 2831SOL     OW19951   2.955   2.584   1.366 -0.2215 -0.1306  0.4562
 2831SOL    HW119952   3.030   2.637   1.339 -1.5952  0.9002 -1.3432
 2831SOL    HW219953   2.978   2.504   1.320 -1.0518  0.3671 -0.8288
 2832SOL     OW19954   4.010   2.168  12.438 -0.2420 -0.1000  0.1619
 2832SOL    HW119955   3.954   2.137  12.509 -0.6388  1.3807  0.4979
 2832SOL    HW219956   4.092   2.196  12.477 -0.4271 -0.4216  0.7871
 2833SOL     OW19957   4.074   1.585  16.111 -0.4412 -0.1981 -0.2761
 2833SOL    HW119958   4.078   1.514  16.176  0.3957  2.7254  2.8800
 2833SOL    HW219959   4.104   1.659  16.164  0.9506 -1.1682  0.2906
 2834SOL     OW19960   1.486   2.255   0.721  0.5012 -0.1521  0.2804
 2834SOL    HW119961   1.543   2.194   0.674 -1.0832 -1.0533 -0.4947
 2834SOL    HW219962   1.484   2.201   0.800  0.4688 -0.8182 -0.1672
 2835SOL     OW19963   1.669   3.257  16.262 -0.0519  0.4413 -0.4856
 2835SOL    HW119964   1.614   3.180  16.274 -0.3979  0.5652 -1.2583
 2835SOL    HW219965   1.751   3.229  16.304 -1.1137 -2.3267 -0.2311
 2836SOL     OW19966   2.166   1.323   3.945  0.0625  0.2321  0.1950
 2836SOL    HW119967   2.090   1.315   4.003  2.9961 -2.1321  3.6821
 2836SOL    HW219968   2.157   1.243   3.893  1.1969 -1.6672  2.8732
 2837SOL     OW19969   0.616   2.086  14.035 -0.5102 -0.6261 -0.0471
 2837SOL    HW119970   0.647   2.039  14.112  0.1015 -1.1130 -0.5924
 2837SOL    HW219971   0.658   2.171  14.043 -2.2333  0.1989  0.1918
 2838SOL     OW19972   3.541   2.602   6.897  0.0478 -0.1076  0.0193
 2838SOL    HW119973   3.452   2.587   6.864  1.2609 -3.6773 -1.6787
 2838SOL    HW219974   3.577   2.515   6.879 -1.3704  0.1594 -4.0737
 2839SOL     OW19975   2.760   1.497   4.239 -0.1497 -0.0859  0.2387
 2839SOL    HW119976   2.768   1.590   4.261  1.3457 -0.0675 -0.4078
 2839SOL    HW219977   2.684   1.475   4.293 -0.1119  0.0309  0.3393
 2840SOL     OW19978   4.301   3.673   5.720 -0.3560 -0.3503  0.6512
 2840SOL    HW119979   4.349   3.630   5.649  1.0976  1.0163  0.8041
 2840SOL    HW219980   4.285   3.589   5.764  0.0668 -0.6553  0.2353
 2841SOL     OW19981   2.859   4.320   0.200  0.5474  0.3904 -0.2208
 2841SOL    HW119982   2.928   4.269   0.244  1.4852  1.6179 -0.2541
 2841SOL    HW219983   2.901   4.407   0.199  1.5676 -0.1102 -0.7915
 2842SOL     OW19984   2.892   3.095  11.218  0.1366  0.6763  0.1267
 2842SOL    HW119985   2.816   3.042  11.194 -0.9477  2.2596  0.0851
 2842SOL    HW219986   2.848   3.128  11.297 -0.6456  0.4936 -0.2332
 2843SOL     OW19987   0.384   3.777   1.556 -0.0225 -0.0172 -0.5001
 2843SOL    HW119988   0.428   3.739   1.480 -1.4672 -0.3066 -1.1848
 2843SOL    HW219989   0.338   3.699   1.586 -1.0534  0.4748 -0.8276
 2844SOL     OW19990   1.772   1.362   8.970 -0.0905 -0.1895 -0.2142
 2844SOL    HW119991   1.736   1.386   8.885  0.2436 -0.6390 -0.4776
 2844SOL    HW219992   1.866   1.344   8.964 -0.3190 -1.7606  0.8711
 2845SOL     OW19993   1.314   1.184   4.215  0.4876  0.0385  0.3500
 2845SOL    HW119994   1.351   1.159   4.300 -2.1220 -1.8620  0.9056
 2845SOL    HW219995   1.351   1.271   4.200  0.0637  0.0280 -0.7650
 2846SOL     OW19996   1.667   4.523  14.303 -0.0387  0.4264  0.2518
 2846SOL    HW119997   1.731   4.586  14.270  0.7733 -0.1622  0.7073
 2846SOL    HW219998   1.679   4.517  14.398 -2.2234 -1.9226  0.3855
 2847SOL     OW19999   1.374   1.018  11.783  0.1130 -0.1433 -0.1002
 2847SOL    HW120000   1.458   0.991  11.746 -0.0111  1.9262 -1.8848
 2847SOL    HW220001   1.364   1.112  11.769 -2.0072 -0.6948 -2.4870
 2848SOL     OW20002   1.533   0.180   9.076  0.0603 -0.0357  0.3079
 2848SOL    HW120003   1.467   0.175   9.145  0.6172 -0.4189  0.8186
 2848SOL    HW220004   1.585   0.259   9.092  2.0377 -0.8456 -2.0019
 2849SOL     OW20005   1.587   4.034  12.897  0.0762 -0.1832 -0.4147
 2849SOL    HW120006   1.591   4.122  12.858 -0.7476 -0.8898 -2.1118
 2849SOL    HW220007   1.672   4.047  12.939  0.4785 -0.1967 -1.2221
 2850SOL     OW20008   3.695   3.191  14.264 -0.0704  0.0140  0.8126
 2850SOL    HW120009   3.718   3.113  14.314 -0.3186  0.3156  1.4013
 2850SOL    HW220010   3.706   3.160  14.174  1.4123 -2.9040  1.9967
 2851SOL     OW20011   3.524   4.297  13.587  0.1852 -0.0956  0.5395
 2851SOL    HW120012   3.461   4.240  13.542  1.9854 -2.6515  1.2280
 2851SOL    HW220013   3.507   4.370  13.527  3.7535  2.1603  2.3035
 2852SOL     OW20014   1.883   2.934   5.193  0.1645 -0.3622 -0.4984
 2852SOL    HW120015   1.902   3.012   5.246  0.4759 -0.4933 -0.4179
 2852SOL    HW220016   1.964   2.883   5.190 -0.4064 -1.2941 -0.2553
 2853SOL     OW20017   4.540   2.872  16.321 -0.3212  0.4702 -0.4273
 2853SOL    HW120018   4.514   2.793  16.274 -0.1619 -1.2628  2.3648
 2853SOL    HW220019   4.455   2.914  16.334  0.8103  2.3604  0.9418
 2854SOL     OW20020   4.255   4.496   8.413 -0.0136 -0.9771 -0.8011
 2854SOL    HW120021   4.205   4.577   8.419  0.1160 -0.8956 -0.8046
 2854SOL    HW220022   4.244   4.482   8.319 -0.6751 -0.9597 -0.7241
 2855SOL     OW20023   1.331   2.769  10.582  0.5867  0.8316 -0.6483
 2855SOL    HW120024   1.293   2.841  10.531  2.1853  0.4547 -2.3690
 2855SOL    HW220025   1.358   2.822  10.656  0.9068  1.1345 -0.9824
 2856SOL     OW20026   3.120   2.090   2.843  0.0240  0.1024 -0.7574
 2856SOL    HW120027   3.060   2.091   2.917  2.8340  2.7352  1.4868
 2856SOL    HW220028   3.125   2.181   2.812  0.2096  0.5196  0.4927
 2857SOL     OW20029   0.203   1.808   3.303  0.2475  0.3282  0.2521
 2857SOL    HW120030   0.129   1.747   3.315  1.2932 -1.2172 -1.2739
 2857SOL    HW220031   0.263   1.772   3.368  0.2306 -0.7816 -0.3384
 2858SOL     OW20032   2.558   1.007  12.178  0.4306  0.2123 -0.0903
 2858SOL    HW120033   2.653   1.013  12.168  0.3190  0.0824 -1.2593
 2858SOL    HW220034   2.534   1.037  12.090 -0.3233  0.4978  0.2163
 2859SOL     OW20035   2.798   0.136   7.630  0.1414  0.5106 -0.1841
 2859SOL    HW120036   2.795   0.230   7.612 -1.0438  0.9955  2.4983
 2859SOL    HW220037   2.818   0.098   7.545 -1.3447  2.3825 -1.3492
 2860SOL     OW20038   3.690   1.297   5.990 -0.0484  0.3166 -0.2633
 2860SOL    HW120039   3.748   1.245   6.046 -0.5132 -0.4030 -0.4524
 2860SOL    HW220040   3.627   1.328   6.055  0.4038 -0.6043  0.6114
 2861SOL     OW20041   3.982   2.069   3.556  0.4700 -0.0895  0.2336
 2861SOL    HW120042   4.046   2.068   3.485  1.1147  0.4242  0.8131
 2861SOL    HW220043   3.894   2.060   3.520  0.1595  0.9594  0.7455
 2862SOL     OW20044   3.049   1.130   3.730  0.5779  0.3407 -0.1538
 2862SOL    HW120045   3.057   1.204   3.670  1.8533 -1.3762 -2.0940
 2862SOL    HW220046   3.141   1.104   3.734  0.7856  0.8197 -1.8701
 2863SOL     OW20047   1.446   0.112   4.088  0.1539  0.3063 -0.3767
 2863SOL    HW120048   1.373   0.160   4.051 -0.7464 -0.9910 -0.2836
 2863SOL    HW220049   1.511   0.175   4.120  0.5245  0.1195 -0.7678
 2864SOL     OW20050   2.821   1.638  13.283 -0.8130  0.2179 -0.1760
 2864SOL    HW120051   2.898   1.584  13.266 -0.7784  0.3951 -0.5834
 2864SOL    HW220052   2.860   1.713  13.330  3.8569 -1.6632 -1.0996
 2865SOL     OW20053   1.172   0.019   7.209  0.1333 -0.2243 -0.1405
 2865SOL    HW120054   1.146   0.010   7.301 -1.6724  0.2619 -0.6146
 2865SOL    HW220055   1.224   4.667   7.188 -1.3659 -0.5489 -2.6145
 2866SOL     OW20056   3.364   1.625   9.912 -0.1458  0.8841  0.4263
 2866SOL    HW120057   3.281   1.594   9.875  0.4312 -0.7873  0.5162
 2866SOL    HW220058   3.346   1.610  10.005 -1.6401 -1.7473 -0.2883
 2867SOL     OW20059   4.119   3.809   4.257 -0.1574 -0.1451  0.3245
 2867SOL    HW120060   4.066   3.757   4.196 -2.8825  1.7037  1.0842
 2867SOL    HW220061   4.067   3.802   4.337 -0.7073  0.6507  0.0419
 2868SOL     OW20062   4.198   3.416   3.513 -0.1971  0.1717  0.1026
 2868SOL    HW120063   4.291   3.400   3.530 -0.6677 -1.8514  0.7412
 2868SOL    HW220064   4.173   3.349   3.577 -2.3173  0.0125 -0.9086
 2869SOL     OW20065   3.627   0.227   6.025  0.0611  0.3679 -0.3271
 2869SOL    HW120066   3.651   0.314   6.058  1.9307 -0.5145  0.6109
 2869SOL    HW220067   3.551   0.254   5.973  0.7132  0.0187 -1.4424
 2870SOL     OW20068   3.241   1.087   2.936 -0.1444 -0.0237  0.5879
 2870SOL    HW120069   3.202   1.147   3.000  1.7133  0.3302  1.3918
 2870SOL    HW220070   3.327   1.073   2.976  0.8481 -0.1147 -1.5676
 2871SOL     OW20071   2.294   1.190   6.553  0.0875 -0.1480 -0.3493
 2871SOL    HW120072   2.336   1.111   6.519  0.6289  0.2152 -0.5198
 2871SOL    HW220073   2.318   1.186   6.646 -1.6645  1.0441  0.1713
 2872SOL     OW20074   2.651   1.462   8.444 -0.4147  0.7334 -0.1877
 2872SOL    HW120075   2.742   1.446   8.471 -0.8154  0.0021  0.7062
 2872SOL    HW220076   2.610   1.379   8.419 -1.3825  1.6220 -1.5983
 2873SOL     OW20077   0.185   2.812  11.168 -0.0242 -0.3860 -0.5361
 2873SOL    HW120078   0.251   2.773  11.112 -2.1469 -1.8553 -2.0196
 2873SOL    HW220079   0.218   2.901  11.177 -1.4053 -0.0503  1.3679
 2874SOL     OW20080   1.040   3.346  16.104 -0.3601 -0.1665 -0.1622
 2874SOL    HW120081   1.117   3.372  16.054  0.2585 -1.8735 -0.1095
 2874SOL    HW220082   1.080   3.275  16.153  0.6652  0.9479  0.6058
 2875SOL     OW20083   0.304   1.559   6.818  0.0226  0.0266 -0.3957
 2875SOL    HW120084   0.338   1.504   6.748  0.8167  1.4720 -1.1267
 2875SOL    HW220085   0.293   1.489   6.882 -3.9299  1.1451  0.1882
 2876SOL     OW20086   3.344   0.094   2.208  0.0162  0.2977 -0.6312
 2876SOL    HW120087   3.300   0.019   2.250  1.9750 -1.7234 -2.1962
 2876SOL    HW220088   3.304   0.079   2.122  0.3993  1.0008 -0.9261
 2877SOL     OW20089   2.013   2.232   0.643  0.1018 -0.5426 -0.2631
 2877SOL    HW120090   1.953   2.176   0.691  1.4617 -1.1444  0.7457
 2877SOL    HW220091   2.012   2.305   0.706  0.3809  0.0111 -0.8939
 2878SOL     OW20092   2.158   2.397  11.349  0.4586 -0.3040  0.2204
 2878SOL    HW120093   2.206   2.429  11.425 -0.0421  1.3368 -0.1496
 2878SOL    HW220094   2.141   2.306  11.372 -0.1762 -0.3223 -0.3227
 2879SOL     OW20095   0.623   0.846   7.921  0.3072  0.2594 -0.2348
 2879SOL    HW120096   0.617   0.834   7.826  0.7731 -0.0507 -0.2252
 2879SOL    HW220097   0.716   0.833   7.936  0.4239  0.8186 -0.4708
 2880SOL     OW20098   3.803   1.769   3.381  0.4791 -0.1204 -0.0084
 2880SOL    HW120099   3.848   1.685   3.391 -0.0630 -0.5153 -0.8434
 2880SOL    HW220100   3.795   1.804   3.470 -0.6069 -0.2170 -0.0731
 2881SOL     OW20101   3.709   3.831  12.359 -0.0955  0.2130  0.5442
 2881SOL    HW120102   3.735   3.876  12.278 -1.6341  0.5114  0.2242
 2881SOL    HW220103   3.780   3.767  12.367 -2.1490 -2.0167  1.0912
 2882SOL     OW20104   2.153   4.144   9.281  0.3773 -0.1976 -0.8110
 2882SOL    HW120105   2.187   4.075   9.225  0.6844 -0.2244 -0.5939
 2882SOL    HW220106   2.059   4.139   9.263 -0.0312  0.5967  1.0508
 2883SOL     OW20107   3.544   1.141  16.570  0.3917 -0.1048  0.4804
 2883SOL    HW120108   3.608   1.071  16.568  1.5495  1.0282 -2.0568
 2883SOL    HW220109   3.523   1.147  16.663  0.7303  2.7932  0.3954
 2884SOL     OW20110   2.117   1.063   8.559  0.5035  0.3792 -0.8745
 2884SOL    HW120111   2.130   0.973   8.588 -1.7848 -0.0244 -1.1247
 2884SOL    HW220112   2.023   1.053   8.542  0.1805  0.8750  0.6284
 2885SOL     OW20113   3.842   3.221   5.631  0.6305  0.2868 -0.4475
 2885SOL    HW120114   3.909   3.158   5.657  0.5329 -0.4854 -2.0820
 2885SOL    HW220115   3.895   3.283   5.580  0.2056  1.7729  0.8897
 2886SOL     OW20116   4.678   3.607  15.252  0.0612 -0.1807  0.1770
 2886SOL    HW120117   4.612   3.584  15.187 -1.7301  0.9533  1.6021
 2886SOL    HW220118   4.628   3.607  15.333  0.0821  0.6571  0.1952
 2887SOL     OW20119   4.308   2.093   6.837  0.2074 -0.2388  0.0161
 2887SOL    HW120120   4.256   2.026   6.882 -0.2984  0.9347  1.1901
 2887SOL    HW220121   4.264   2.178   6.844  0.5630  0.2590 -3.7245
 2888SOL     OW20122   3.213   0.783  10.907 -0.8173 -0.6144  0.1492
 2888SOL    HW120123   3.143   0.830  10.951 -1.5087 -0.0164 -1.5819
 2888SOL    HW220124   3.224   0.839  10.830  2.7792 -0.2803  0.8908
 2889SOL     OW20125   2.579   4.497  15.716  0.6753 -0.6339 -0.6794
 2889SOL    HW120126   2.625   4.413  15.721 -1.5313 -1.6212  2.4631
 2889SOL    HW220127   2.640   4.541  15.656  2.4258 -0.3890  1.2770
 2890SOL     OW20128   1.453   3.639   3.845 -0.1196  0.6624 -0.3082
 2890SOL    HW120129   1.523   3.693   3.808  1.2031  0.5295  2.0525
 2890SOL    HW220130   1.457   3.666   3.937  0.0487  1.1003 -0.4399
 2891SOL     OW20131   2.619   0.343  14.452  0.0284 -0.3835 -0.3305
 2891SOL    HW120132   2.634   0.279  14.383  0.4787 -0.7354  0.0952
 2891SOL    HW220133   2.527   0.356  14.430 -0.2942 -0.6081  0.8891
 2892SOL     OW20134   4.594   3.915   3.550 -0.6454  0.8187  0.1768
 2892SOL    HW120135   4.606   3.995   3.601 -0.1171 -0.5329  2.1462
 2892SOL    HW220136   4.662   3.860   3.589 -1.0280  0.0832 -0.1809
 2893SOL     OW20137   3.487   1.091  15.422 -0.4279 -0.4433 -0.2225
 2893SOL    HW120138   3.524   1.154  15.485 -1.3755 -0.8515  0.7468
 2893SOL    HW220139   3.507   1.004  15.458 -1.5511 -0.1036  1.2647
 2894SOL     OW20140   0.906   4.139  10.840 -0.3769  0.3932 -0.3249
 2894SOL    HW120141   0.883   4.185  10.920  0.9718  1.3490 -0.4910
 2894SOL    HW220142   0.863   4.054  10.844  0.4384 -0.0946 -1.8529
 2895SOL     OW20143   4.465   1.769  15.045  0.5968  0.2060  0.4403
 2895SOL    HW120144   4.474   1.848  15.099 -0.9867  0.7857 -0.1369
 2895SOL    HW220145   4.404   1.797  14.978  1.2990 -0.5119 -0.4910
 2896SOL     OW20146   2.049   0.250   7.615  0.0036 -0.1712 -0.1933
 2896SOL    HW120147   2.056   0.319   7.549  0.6479  0.4710  0.5397
 2896SOL    HW220148   1.973   0.285   7.661 -0.5089 -0.3551 -0.9042
 2897SOL     OW20149   0.574   1.825   5.099 -0.3505 -0.1922  0.1445
 2897SOL    HW120150   0.573   1.885   5.025 -0.1247  0.1166  0.3986
 2897SOL    HW220151   0.572   1.744   5.046  0.4823 -0.5922  0.7219
 2898SOL     OW20152   1.056   2.282   6.762 -0.3371 -0.6673  0.3375
 2898SOL    HW120153   0.965   2.304   6.744  0.0527  0.9456  0.4152
 2898SOL    HW220154   1.095   2.323   6.685  1.0929 -2.5661  0.0441
 2899SOL     OW20155   0.459   3.164  10.749 -0.7116 -0.6972 -0.2797
 2899SOL    HW120156   0.553   3.174  10.735 -0.3738  0.5493  2.9435
 2899SOL    HW220157   0.443   3.139  10.658  0.0511 -2.3808  0.0496
 2900SOL     OW20158   1.214   2.402  12.263 -0.3488 -0.1251  0.5898
 2900SOL    HW120159   1.248   2.312  12.265 -0.3542 -0.1340  0.3055
 2900SOL    HW220160   1.268   2.438  12.193 -1.1203 -0.1766 -0.0333
 2901SOL     OW20161   3.760   3.240   8.139  0.0828  0.0937  0.0868
 2901SOL    HW120162   3.671   3.252   8.170 -0.6263 -0.3515 -1.7834
 2901SOL    HW220163   3.749   3.186   8.060  1.1193  0.6095 -0.4071
 2902SOL     OW20164   0.981   0.834   4.637 -0.5920  0.1300 -0.0677
 2902SOL    HW120165   0.956   0.926   4.632 -1.9747 -0.2152  0.3173
 2902SOL    HW220166   0.897   0.796   4.610 -0.0127 -0.6266 -0.7920
 2903SOL     OW20167   3.355   4.670   2.588 -0.3769 -0.2937  0.0443
 2903SOL    HW120168   3.417   0.011   2.616 -0.6449  0.1443 -0.3985
 2903SOL    HW220169   3.402   4.587   2.585  0.4567  0.2505 -1.6375
 2904SOL     OW20170   2.643   0.531   2.674  0.2462  0.0768  0.0110
 2904SOL    HW120171   2.656   0.604   2.614  1.3391 -0.3283 -0.2410
 2904SOL    HW220172   2.568   0.490   2.632  1.9080 -2.8771 -0.0625
 2905SOL     OW20173   0.636   2.654   5.823  0.4222  0.8851  0.0944
 2905SOL    HW120174   0.662   2.734   5.779 -0.2016  0.4264 -1.1139
 2905SOL    HW220175   0.670   2.587   5.764  2.0779  2.0913 -0.3273
 2906SOL     OW20176   4.390   2.763   2.422 -0.2951  0.5262  0.1445
 2906SOL    HW120177   4.402   2.709   2.500 -0.2001  0.0640 -0.1924
 2906SOL    HW220178   4.423   2.846   2.458  0.5016 -0.4847  1.7815
 2907SOL     OW20179   3.595   4.466   0.498  0.4483  0.9494  0.1129
 2907SOL    HW120180   3.605   4.496   0.588 -1.1200  0.7392  0.3642
 2907SOL    HW220181   3.689   4.460   0.483  0.4009 -1.2805  0.6388
 2908SOL     OW20182   3.733   2.357  13.344  0.1452  0.4266  0.1625
 2908SOL    HW120183   3.818   2.320  13.370 -0.4588  1.1342  3.1850
 2908SOL    HW220184   3.746   2.441  13.387  1.5270 -0.1174  0.8392
 2909SOL     OW20185   2.781   1.629   5.388 -0.3140  0.3776 -0.2302
 2909SOL    HW120186   2.763   1.540   5.356  1.2730 -0.0865  0.1525
 2909SOL    HW220187   2.771   1.623   5.483 -4.2410  1.4061 -0.5901
 2910SOL     OW20188   3.944   4.446   4.097  0.3337  0.0358  0.6281
 2910SOL    HW120189   3.892   4.418   4.172 -0.6988  0.4935  0.0933
 2910SOL    HW220190   3.995   4.368   4.078 -0.9155 -0.4184 -0.8441
 2911SOL     OW20191   1.087   2.300   7.040 -0.2411 -0.1680 -0.4850
 2911SOL    HW120192   1.082   2.292   6.945 -1.5351  2.7373 -0.6488
 2911SOL    HW220193   1.000   2.334   7.062 -0.2873 -1.4934  1.3840
 2912SOL     OW20194   2.708   0.737   4.815 -0.0594  0.2286 -0.2999
 2912SOL    HW120195   2.669   0.744   4.728 -0.8550  0.1398  0.0540
 2912SOL    HW220196   2.799   0.764   4.799 -0.4904  1.4572 -0.6786
 2913SOL     OW20197   2.561   1.591  13.733 -0.0433 -0.0208  0.2282
 2913SOL    HW120198   2.651   1.561  13.746 -0.1733 -1.2072 -1.4741
 2913SOL    HW220199   2.528   1.580  13.822 -0.8339  2.6772  0.2578
 2914SOL     OW20200   0.374   0.640  14.381 -0.3769 -0.2353 -0.1018
 2914SOL    HW120201   0.469   0.632  14.372 -0.1374  1.8289  0.5167
 2914SOL    HW220202   0.359   0.707  14.314 -0.8243 -0.4471 -0.2161
 2915SOL     OW20203   4.067   2.571  10.869  0.0136 -0.3875  0.0943
 2915SOL    HW120204   4.013   2.641  10.906 -1.7423  0.1832 -3.5706
 2915SOL    HW220205   4.148   2.618  10.884  0.5528 -1.4758  0.5767
 2916SOL     OW20206   1.146   1.057   7.786  0.2938 -0.3192  0.2094
 2916SOL    HW120207   1.159   1.148   7.813  1.2371 -0.7348  1.1489
 2916SOL    HW220208   1.154   1.056   7.691 -1.4057  2.3917  0.0486
 2917SOL     OW20209   3.664   3.287   3.307 -0.3698 -0.1292 -0.4878
 2917SOL    HW120210   3.602   3.231   3.354  1.3243 -1.3469  0.3214
 2917SOL    HW220211   3.600   3.323   3.246  0.8712  2.0450 -0.4808
 2918SOL     OW20212   1.989   1.466   7.414 -0.4159 -0.3399 -0.5217
 2918SOL    HW120213   2.068   1.416   7.431  0.4592  0.9627 -0.7502
 2918SOL    HW220214   1.932   1.441   7.486 -0.2444 -2.5278 -1.1548
 2919SOL     OW20215   4.230   1.744  11.144 -0.2060  0.6374 -0.3136
 2919SOL    HW120216   4.262   1.795  11.070  1.4638 -2.1105 -1.4891
 2919SOL    HW220217   4.273   1.660  11.131 -0.1222  1.0583 -2.6756
 2920SOL     OW20218   3.219   3.301   7.875 -0.1900  0.2825 -0.5716
 2920SOL    HW120219   3.219   3.379   7.819  0.3102 -1.1877 -2.6277
 2920SOL    HW220220   3.313   3.291   7.887 -0.3163  0.7560  0.8120
 2921SOL     OW20221   1.086   2.992  11.061 -0.0884 -0.3946 -0.1325
 2921SOL    HW120222   1.159   2.931  11.075  0.4613  0.7033  1.7186
 2921SOL    HW220223   1.078   3.026  11.150 -0.0816 -0.0974 -0.2443
 2922SOL     OW20224   3.777   1.721   1.758 -0.4329 -0.4576 -0.0337
 2922SOL    HW120225   3.778   1.718   1.854 -2.9159 -2.5313 -0.0726
 2922SOL    HW220226   3.871   1.714   1.742 -0.1414  1.6254  0.7070
 2923SOL     OW20227   4.131   2.630   3.723 -0.4607  0.1224 -0.3217
 2923SOL    HW120228   4.191   2.556   3.726 -1.0028 -0.2656  1.1858
 2923SOL    HW220229   4.105   2.635   3.631 -0.3217 -0.3487 -0.3871
 2924SOL     OW20230   2.110   4.389   7.320  0.0215 -0.0744  0.3261
 2924SOL    HW120231   2.168   4.315   7.337 -1.3789 -0.7404  2.2352
 2924SOL    HW220232   2.064   4.406   7.402 -0.3751  0.5913 -0.0349
 2925SOL     OW20233   0.437   2.821   6.741 -0.9723  0.2642 -0.0381
 2925SOL    HW120234   0.494   2.862   6.677 -1.4581  2.4094  0.9108
 2925SOL    HW220235   0.449   2.875   6.819  0.8459  1.6407 -1.2862
 2926SOL     OW20236   2.002   1.027   1.773  0.0462  0.2228  0.0754
 2926SOL    HW120237   1.956   1.084   1.835 -0.8200  1.6614 -1.9088
 2926SOL    HW220238   2.058   1.085   1.721  0.0048 -1.0300 -1.3636
 2927SOL     OW20239   0.270   3.564  12.570  0.3584 -0.1521  0.2060
 2927SOL    HW120240   0.208   3.511  12.620  0.4534  1.2784  1.8592
 2927SOL    HW220241   0.322   3.497  12.527 -1.9900 -2.2897  0.6427
 2928SOL     OW20242   1.644   2.854   5.317  0.2177  0.0912  0.0543
 2928SOL    HW120243   1.602   2.931   5.279  1.9827  1.6001  1.2233
 2928SOL    HW220244   1.729   2.847   5.273  0.1536 -0.4839  0.0160
 2929SOL     OW20245   2.997   4.448   8.046  0.1311 -0.1155 -0.1541
 2929SOL    HW120246   2.911   4.488   8.047 -1.1148 -2.8122  1.2806
 2929SOL    HW220247   2.990   4.403   8.130  1.0781 -0.6368 -0.3465
 2930SOL     OW20248   1.342   0.362   3.460  0.3153 -0.0215 -0.0975
 2930SOL    HW120249   1.358   0.314   3.541  1.0483 -1.1800 -0.9269
 2930SOL    HW220250   1.395   0.437   3.487 -0.7152  0.2231  1.1900
 2931SOL     OW20251   3.177   2.564   6.872 -0.1327  0.5426 -0.4092
 2931SOL    HW120252   3.114   2.492   6.866  0.7110 -0.2719  0.5300
 2931SOL    HW220253   3.190   2.580   6.778  0.6381  1.8529 -0.0812
 2932SOL     OW20254   1.361   0.076   1.935  0.2525 -0.2152 -0.0967
 2932SOL    HW120255   1.304   0.028   1.874 -0.8933  0.1456  0.6797
 2932SOL    HW220256   1.334   0.040   2.020 -0.2707  0.5552  0.0684
 2933SOL     OW20257   0.139   0.228   4.994 -0.3171 -0.3887  0.1343
 2933SOL    HW120258   0.166   0.160   5.056 -0.0847  1.2540  1.8353
 2933SOL    HW220259   0.197   0.224   4.918  0.0795 -0.4061  0.4412
 2934SOL     OW20260   3.747   2.396   4.909  0.1518  0.4374 -0.5918
 2934SOL    HW120261   3.680   2.368   4.972  0.1462 -1.3608 -1.4082
 2934SOL    HW220262   3.695   2.403   4.829 -0.0255  1.9543 -0.3521
 2935SOL     OW20263   3.287   2.875   4.806 -0.3685 -0.1755  0.1497
 2935SOL    HW120264   3.292   2.856   4.899 -0.6085  0.6260  0.3231
 2935SOL    HW220265   3.308   2.968   4.801  0.4271 -0.3399  0.6168
 2936SOL     OW20266   4.117   2.625   2.425  0.2633 -0.7138  0.0990
 2936SOL    HW120267   4.099   2.536   2.392 -0.5011 -0.0861 -1.2242
 2936SOL    HW220268   4.194   2.619   2.480 -1.3182 -0.3118  2.3621
 2937SOL     OW20269   4.538   2.318   7.794  0.0306  0.1408 -0.3111
 2937SOL    HW120270   4.634   2.314   7.791 -0.0092  0.8277 -2.5813
 2937SOL    HW220271   4.531   2.368   7.876 -1.1344 -0.9188  0.2317
 2938SOL     OW20272   2.048   0.982   4.732 -0.5402  0.0196  0.0925
 2938SOL    HW120273   2.058   0.899   4.685 -1.0444  0.1470 -0.2438
 2938SOL    HW220274   2.137   1.015   4.743  0.4137 -1.8607 -2.0754
 2939SOL     OW20275   0.632   4.077   6.365 -0.2786 -0.1533 -0.1727
 2939SOL    HW120276   0.645   4.171   6.378  1.0239 -0.4684  0.7158
 2939SOL    HW220277   0.721   4.048   6.346 -0.4443 -1.1101  0.5424
 2940SOL     OW20278   2.005   1.438   6.268 -0.2325 -0.3818  0.1697
 2940SOL    HW120279   1.926   1.385   6.265 -0.3206 -0.2040 -0.6324
 2940SOL    HW220280   2.069   1.390   6.216  1.1374  3.0885 -1.3780
 2941SOL     OW20281   2.273   1.483   5.365  0.2337 -0.0364 -0.0185
 2941SOL    HW120282   2.269   1.523   5.453 -0.9890 -0.1540 -0.0147
 2941SOL    HW220283   2.203   1.417   5.367 -0.6153  0.8893  1.8883
 2942SOL     OW20284   0.905   1.380   7.493 -0.0230 -0.3053  0.4786
 2942SOL    HW120285   0.975   1.352   7.435  0.3614 -0.1355  0.8569
 2942SOL    HW220286   0.950   1.397   7.576  1.6571  0.2960 -0.5564
 2943SOL     OW20287   3.247   3.150   9.242  0.0689 -0.3228 -0.3643
 2943SOL    HW120288   3.302   3.159   9.320  2.7474  0.7422 -2.3576
 2943SOL    HW220289   3.316   3.183   9.185  0.8518 -0.7599  0.3307
 2944SOL     OW20290   0.913   0.037   2.057 -0.2718 -0.1534 -0.5410
 2944SOL    HW120291   0.974   0.093   2.009 -1.5899  0.2984 -1.6821
 2944SOL    HW220292   0.926   4.681   2.010 -1.1787 -1.2873  1.1722
 2945SOL     OW20293   0.623   2.638   8.677  0.4720  0.2334 -0.0758
 2945SOL    HW120294   0.611   2.587   8.597 -2.4619  1.1619 -0.2126
 2945SOL    HW220295   0.633   2.571   8.745  0.2642 -2.2859 -2.5275
 2946SOL     OW20296   4.219   1.614  13.441  0.9053 -0.0070  0.4573
 2946SOL    HW120297   4.182   1.700  13.423  0.0738 -0.5437 -0.4550
 2946SOL    HW220298   4.157   1.569  13.499 -0.4794  0.9798 -0.2414
 2947SOL     OW20299   2.004   4.439   4.715 -0.7733  0.3662 -0.3885
 2947SOL    HW120300   2.051   4.380   4.655  0.6639  1.3719 -0.2358
 2947SOL    HW220301   1.957   4.371   4.764  1.5496 -0.6242  0.4586
 2948SOL     OW20302   3.917   1.373   8.412 -0.3513 -0.2467  0.1736
 2948SOL    HW120303   3.963   1.457   8.426 -1.2318  0.5262 -1.5341
 2948SOL    HW220304   3.828   1.394   8.439 -0.4119 -1.5695  0.9767
 2949SOL     OW20305   4.466   0.512  15.690  0.6789 -0.0583  0.3221
 2949SOL    HW120306   4.428   0.447  15.631 -0.4695 -0.8972  1.9731
 2949SOL    HW220307   4.392   0.569  15.669  2.0378  1.3943 -0.5287
 2950SOL     OW20308   2.002   2.993  15.933  0.3114  0.0985 -0.0677
 2950SOL    HW120309   1.914   3.033  15.932  1.4073  2.4682 -1.6854
 2950SOL    HW220310   2.014   2.967  16.024  1.0671 -2.2390 -0.8604
 2951SOL     OW20311   1.251   1.259   5.461  0.1298 -0.1189  0.1295
 2951SOL    HW120312   1.259   1.324   5.391 -0.3694 -1.3856 -1.1198
 2951SOL    HW220313   1.238   1.180   5.407 -0.3256 -0.0229  0.1013
 2952SOL     OW20314   1.477   0.300   6.788  0.4819  0.1488  0.0846
 2952SOL    HW120315   1.441   0.211   6.783 -0.0322  0.3401  0.3364
 2952SOL    HW220316   1.546   0.280   6.852 -0.2587  2.2498  1.5366
 2953SOL     OW20317   2.434   0.453   8.169 -0.0982  0.5024  0.5775
 2953SOL    HW120318   2.353   0.467   8.118  0.0398  0.0804  0.2420
 2953SOL    HW220319   2.440   0.358   8.164 -1.5471  0.4968 -1.4152
 2954SOL     OW20320   4.568   2.747   7.762 -0.3301  0.2689  0.0108
 2954SOL    HW120321   4.633   2.685   7.795  2.8052  2.6668 -1.6959
 2954SOL    HW220322   4.507   2.695   7.709 -0.1614 -0.3022  0.3850
 2955SOL     OW20323   0.283   4.549  12.204  0.1717  0.1204 -0.2655
 2955SOL    HW120324   0.346   4.497  12.253 -1.1567  0.0641  1.3701
 2955SOL    HW220325   0.208   4.529  12.260  0.4530  0.4847  0.2431
 2956SOL     OW20326   0.675   0.941   9.099 -0.6618 -0.1779 -0.1499
 2956SOL    HW120327   0.729   1.008   9.057 -0.2149 -1.1320 -1.1220
 2956SOL    HW220328   0.732   0.927   9.174 -1.3874 -1.8248  0.0909
 2957SOL     OW20329   0.806   4.469   5.518  0.1223  0.0844 -0.2651
 2957SOL    HW120330   0.735   4.478   5.581  0.3948  1.5150 -0.1703
 2957SOL    HW220331   0.831   4.376   5.526 -1.3799 -0.2464  0.4984
 2958SOL     OW20332   1.406   0.868   5.428 -0.6556  0.2070  0.4072
 2958SOL    HW120333   1.429   0.918   5.507 -1.3089  1.5923 -0.2788
 2958SOL    HW220334   1.486   0.880   5.378 -0.1642  0.5812  1.2873
 2959SOL     OW20335   4.277   3.972   6.662 -0.1022 -0.1038  0.4794
 2959SOL    HW120336   4.246   3.948   6.575 -1.4230 -0.3228  1.0189
 2959SOL    HW220337   4.283   3.892   6.714 -1.7988  1.0366  2.4494
 2960SOL     OW20338   2.984   0.066   4.680 -0.1893 -0.1613  0.4091
 2960SOL    HW120339   2.954   0.007   4.611 -0.2801 -0.5786  0.8133
 2960SOL    HW220340   3.076   0.043   4.692 -0.2786 -0.2352  0.9182
 2961SOL     OW20341   3.196   1.281   0.308 -0.2472  0.1734  0.2123
 2961SOL    HW120342   3.141   1.280   0.386  0.1153  0.1323  0.4717
 2961SOL    HW220343   3.285   1.295   0.342 -0.3623 -2.5613  1.6875
 2962SOL     OW20344   1.626   1.420   5.601 -0.1351  0.3786 -0.3228
 2962SOL    HW120345   1.630   1.351   5.668  2.1559  1.6237  0.8000
 2962SOL    HW220346   1.613   1.369   5.521  0.6678 -0.3979  0.0325
 2963SOL     OW20347   1.138   0.888   6.085 -0.3198  0.1495  0.3887
 2963SOL    HW120348   1.139   0.971   6.038  0.2048 -1.3377 -2.2302
 2963SOL    HW220349   1.227   0.860   6.064  0.8650  2.2804  2.5492
 2964SOL     OW20350   4.475   3.408  15.850  0.2019  0.1347 -0.7116
 2964SOL    HW120351   4.514   3.390  15.765 -0.7254  0.9978 -1.3157
 2964SOL    HW220352   4.409   3.339  15.853  0.4566 -0.0720  0.2983
 2965SOL     OW20353   3.419   2.001   3.142  0.4170 -0.0620  0.6091
 2965SOL    HW120354   3.460   1.930   3.190  1.5074  0.8454  1.0036
 2965SOL    HW220355   3.456   1.981   3.056 -1.0500  1.0251 -0.2852
 2966SOL     OW20356   2.761   1.708   8.358 -0.2043 -0.2606  0.0129
 2966SOL    HW120357   2.672   1.709   8.394  0.5644 -0.0099  1.8931
 2966SOL    HW220358   2.762   1.616   8.332 -2.3100 -0.0696 -0.7415
 2967SOL     OW20359   3.637   1.981   1.762 -0.0579 -0.2863  0.2777
 2967SOL    HW120360   3.676   1.893   1.768  2.0542  0.5485 -1.1913
 2967SOL    HW220361   3.587   1.970   1.681  0.3571  2.1335 -0.2884
 2968SOL     OW20362   2.920   4.053   3.935  0.7690  0.2392 -0.5188
 2968SOL    HW120363   2.907   4.117   4.005 -0.3370 -0.2301 -0.2879
 2968SOL    HW220364   2.894   3.968   3.969  1.8255 -0.5144 -1.5974
 2969SOL     OW20365   1.505   1.722   5.994  0.4798 -0.2804  0.2560
 2969SOL    HW120366   1.491   1.722   6.088 -1.2824  2.9748 -0.0080
 2969SOL    HW220367   1.446   1.792   5.969  1.7125  0.9295  0.7564
 2970SOL     OW20368   0.302   2.773   4.194  0.1847 -0.1160 -0.9793
 2970SOL    HW120369   0.214   2.789   4.159 -0.7747 -0.0879  1.4391
 2970SOL    HW220370   0.276   2.714   4.265 -1.6467 -0.7830 -2.2166
 2971SOL     OW20371   1.690   0.709  17.281 -0.4010 -0.0617  0.3534
 2971SOL    HW120372   1.752   0.722  17.353 -3.9747  1.0995  3.2106
 2971SOL    HW220373   1.740   0.716  17.200 -0.9052 -0.6337 -0.0091
 2972SOL     OW20374   3.452   4.605   6.993 -0.1095  0.1474  0.0059
 2972SOL    HW120375   3.510   4.592   6.918  0.0095  0.6483  0.0159
 2972SOL    HW220376   3.519   4.623   7.058  0.6902  0.7835 -1.0007
 2973SOL     OW20377   0.086   2.028   0.716 -0.1483 -0.1863  0.2311
 2973SOL    HW120378   0.119   2.072   0.637  1.7569 -0.4856  0.8652
 2973SOL    HW220379   0.143   1.952   0.723  0.4386  0.1784 -0.5956
 2974SOL     OW20380   2.803   0.121   9.815  0.0425 -0.4026 -0.2919
 2974SOL    HW120381   2.890   0.143   9.782  0.8386 -4.0095 -0.6074
 2974SOL    HW220382   2.751   0.197   9.787  0.5128 -0.3038 -0.8802
 2975SOL     OW20383   2.336   3.382   8.926 -0.0261  0.0964  0.3718
 2975SOL    HW120384   2.293   3.317   8.871 -0.1202 -1.0235  1.7614
 2975SOL    HW220385   2.332   3.329   9.006  1.6019  0.1018  0.4666
 2976SOL     OW20386   4.170   0.321   5.334  0.2380  0.2527  0.1667
 2976SOL    HW120387   4.223   0.354   5.261 -2.3520 -1.0385 -2.2913
 2976SOL    HW220388   4.199   0.231   5.344 -1.1724  0.2363  3.9315
 2977SOL     OW20389   3.919   1.031   3.913 -0.3778  0.3275 -0.5702
 2977SOL    HW120390   3.984   1.097   3.937  0.5908  0.0901 -2.5632
 2977SOL    HW220391   3.853   1.048   3.980 -2.0081  1.7795 -2.5751
 2978SOL     OW20392   4.228   0.804   8.596 -0.7009  0.1654  0.2165
 2978SOL    HW120393   4.192   0.875   8.649  0.1468 -0.8866  2.2075
 2978SOL    HW220394   4.236   0.740   8.667 -0.4023 -0.4540 -0.3736
 2979SOL     OW20395   3.207   2.163   6.829 -0.4264 -0.1762 -0.3613
 2979SOL    HW120396   3.245   2.126   6.908 -2.7802  0.8477  1.2469
 2979SOL    HW220397   3.151   2.092   6.798 -1.2860  0.3925 -0.1046
 2980SOL     OW20398   3.775   3.805   4.087 -0.6256 -0.5565 -0.3404
 2980SOL    HW120399   3.797   3.859   4.164 -1.3861 -0.3173 -0.2919
 2980SOL    HW220400   3.826   3.848   4.018 -1.1883  0.3678 -0.1894
 2981SOL     OW20401   1.673   2.806   5.738  0.0849 -0.2454 -0.2641
 2981SOL    HW120402   1.645   2.756   5.814 -1.2464 -0.2224 -0.7348
 2981SOL    HW220403   1.600   2.867   5.729  1.0510  0.9023 -0.3871
 2982SOL     OW20404   0.552   1.242   5.840 -0.5407 -0.1977  0.0359
 2982SOL    HW120405   0.521   1.308   5.778 -0.1080 -1.0898 -1.1445
 2982SOL    HW220406   0.611   1.278   5.906  0.8757 -1.1633 -0.6761
 2983SOL     OW20407   4.565   2.327   2.483 -0.1480  0.3150  0.1552
 2983SOL    HW120408   4.515   2.328   2.565  0.8449 -0.4705  0.7683
 2983SOL    HW220409   4.568   2.421   2.466 -0.2310  0.7072  2.2759
 2984SOL     OW20410   4.432   4.169   0.031 -0.0226  0.1713 -0.1571
 2984SOL    HW120411   4.418   4.152  17.642  0.7795 -0.2535 -0.1970
 2984SOL    HW220412   4.492   4.101   0.063 -0.2067  0.9846  1.9176
 2985SOL     OW20413   2.007   2.990   8.721 -0.2338  0.4886  0.1313
 2985SOL    HW120414   2.074   2.936   8.680 -2.1299 -0.5933 -1.6010
 2985SOL    HW220415   1.927   2.942   8.696 -1.0425  2.1590 -0.5527
 2986SOL     OW20416   0.497   4.460  10.475  0.6210  0.4261  1.0662
 2986SOL    HW120417   0.563   4.529  10.475  1.2457 -0.1635  1.9501
 2986SOL    HW220418   0.529   4.411  10.551 -1.5016 -0.9480  1.0637
 2987SOL     OW20419   0.807   4.620   6.840  0.4447 -0.1573  0.0412
 2987SOL    HW120420   0.865   4.670   6.782  0.1755  0.0953 -0.0052
 2987SOL    HW220421   0.800   4.531   6.803  1.8933 -0.2231 -0.0744
 2988SOL     OW20422   4.388   4.509  11.885 -0.0907  0.0563  0.1927
 2988SOL    HW120423   4.352   4.513  11.797  2.0538  1.9977 -0.5812
 2988SOL    HW220424   4.391   4.600  11.912  0.0968 -0.3777  1.6344
 2989SOL     OW20425   0.717   3.902  14.541  0.3903 -0.3166 -0.1345
 2989SOL    HW120426   0.656   3.847  14.492 -0.6398  0.6078  0.0998
 2989SOL    HW220427   0.664   3.908  14.621 -1.2021  0.0155 -1.2099
 2990SOL     OW20428   2.033   0.813   6.758  0.0145  0.0962  0.1090
 2990SOL    HW120429   2.065   0.732   6.799  1.1172  2.0322  3.0679
 2990SOL    HW220430   2.082   0.886   6.796  0.1246  0.7534 -1.3206
 2991SOL     OW20431   0.266   3.909   3.163 -0.2273  0.1491 -0.0177
 2991SOL    HW120432   0.193   3.855   3.194  0.5856  0.7085  2.8247
 2991SOL    HW220433   0.336   3.887   3.224  0.0769 -1.4368 -0.9211
 2992SOL     OW20434   3.414   4.111   2.624 -0.0028 -0.1318 -0.3785
 2992SOL    HW120435   3.446   4.194   2.588  0.1424  0.5379  1.2823
 2992SOL    HW220436   3.419   4.051   2.550  0.9406  1.3543 -1.5176
 2993SOL     OW20437   2.102   0.129   1.033 -0.2190  0.0634 -0.0100
 2993SOL    HW120438   2.142   0.211   1.058 -1.3104  0.0673  1.7067
 2993SOL    HW220439   2.128   0.140   0.941  1.3183 -0.3398  0.3914
 2994SOL     OW20440   0.189   1.282   8.467 -0.0648 -0.3191 -0.4544
 2994SOL    HW120441   0.185   1.375   8.446  1.0487 -0.1829 -0.0514
 2994SOL    HW220442   0.190   1.288   8.562 -3.9306 -1.2292 -0.3565
 2995SOL     OW20443   3.830   0.007   0.041 -0.5828  0.0730 -0.0684
 2995SOL    HW120444   3.789   4.670   0.101 -1.6887 -0.5005 -1.4110
 2995SOL    HW220445   3.783   0.086   0.070 -0.4056  0.1806 -0.0777
 2996SOL     OW20446   1.060   3.290   7.282 -0.8202 -0.0737  0.0893
 2996SOL    HW120447   1.002   3.313   7.355 -0.6350 -1.1069  0.5703
 2996SOL    HW220448   1.079   3.381   7.258 -0.3684  0.2460  1.6052
 2997SOL     OW20449   4.288   3.345  17.310 -0.3372 -0.1702 -0.1973
 2997SOL    HW120450   4.331   3.277  17.258  0.0498 -0.9628  1.1718
 2997SOL    HW220451   4.228   3.288  17.358  2.1084  1.0384  4.2596
 2998SOL     OW20452   1.863   0.967   7.835 -0.5399  0.2702 -0.0495
 2998SOL    HW120453   1.781   0.985   7.788 -0.6300  1.0400  0.3990
 2998SOL    HW220454   1.926   1.018   7.785 -1.4828  0.5365 -0.9736
 2999SOL     OW20455   2.824   3.450   5.846 -0.1809  0.6903 -0.8848
 2999SOL    HW120456   2.838   3.524   5.788 -1.4238  2.3067  0.8938
 2999SOL    HW220457   2.750   3.476   5.901 -0.4817 -1.3232 -0.3362
 3000SOL     OW20458   4.322   1.688   5.837  0.4559  0.0436  0.6210
 3000SOL    HW120459   4.269   1.763   5.810  1.2156 -0.8117 -3.2680
 3000SOL    HW220460   4.371   1.721   5.912 -0.2744 -1.4610  1.7720
 3001SOL     OW20461   2.962   1.428   1.241 -0.1496  0.3911 -0.3576
 3001SOL    HW120462   3.041   1.475   1.265  0.7832 -0.3661 -1.9431
 3001SOL    HW220463   2.980   1.418   1.147 -2.5279  1.8273 -0.9776
 3002SOL     OW20464   3.240   3.802   6.662 -0.6989 -0.2733  0.3036
 3002SOL    HW120465   3.277   3.747   6.593 -0.5536  0.3230 -0.1030
 3002SOL    HW220466   3.149   3.794   6.634 -0.2955 -1.1811 -0.7465
 3003SOL     OW20467   3.037   0.220   4.034 -0.3762  0.4078 -0.1191
 3003SOL    HW120468   3.031   0.306   4.075  3.0955  0.2683  0.6714
 3003SOL    HW220469   3.098   0.237   3.963 -1.4436 -0.2225 -1.1850
 3004SOL     OW20470   2.498   1.535   4.959 -0.0495 -0.0945 -0.0221
 3004SOL    HW120471   2.480   1.477   5.033  1.4685 -0.6455 -0.0854
 3004SOL    HW220472   2.413   1.576   4.942 -0.5270 -0.7038  0.9624
 3005SOL     OW20473   0.672   4.270   0.485 -0.2636  0.0807 -0.5105
 3005SOL    HW120474   0.711   4.356   0.496  1.1324 -0.7219  0.8038
 3005SOL    HW220475   0.648   4.253   0.577 -0.1668  1.2350 -0.2640
 3006SOL     OW20476   1.467   0.217   5.861  0.5504 -0.3689 -0.0022
 3006SOL    HW120477   1.398   0.226   5.927 -0.2132 -1.5355 -0.6480
 3006SOL    HW220478   1.423   0.260   5.788  1.7350  0.9742  0.0748
 3007SOL     OW20479   4.373   0.715   2.102  0.3406  0.6779 -0.8796
 3007SOL    HW120480   4.381   0.676   2.190  1.4849 -0.7129 -1.5995
 3007SOL    HW220481   4.454   0.765   2.091 -1.0879  2.8299 -1.7207
 3008SOL     OW20482   2.017   3.204   1.681  0.2868  0.1940 -0.3417
 3008SOL    HW120483   1.946   3.141   1.694  0.1407  0.5573  0.5956
 3008SOL    HW220484   2.083   3.153   1.729  0.3448  1.8936  1.3624
 3009SOL     OW20485   2.348   0.598   8.424  0.2007  0.6473 -0.3050
 3009SOL    HW120486   2.372   0.525   8.366 -3.2064 -0.8349  0.1771
 3009SOL    HW220487   2.426   0.619   8.477 -0.6931  2.0116  0.4659
 3010SOL     OW20488   1.174   3.280   6.898  0.1382 -0.6303  0.5640
 3010SOL    HW120489   1.223   3.198   6.898  0.2698 -0.5553 -0.2603
 3010SOL    HW220490   1.112   3.261   6.968 -0.8313  0.7729  0.0915
 3011SOL     OW20491   2.983   0.099  15.842  0.5271 -0.8670 -0.7254
 3011SOL    HW120492   2.981   0.065  15.932 -0.1804  1.4785  0.1549
 3011SOL    HW220493   3.046   0.040  15.802 -1.4420 -2.1257 -1.9365
 3012SOL     OW20494   3.332   4.417  11.714  0.0978 -0.3809 -0.0407
 3012SOL    HW120495   3.257   4.411  11.654 -0.1876 -2.4401  0.5229
 3012SOL    HW220496   3.338   4.510  11.736 -1.0156 -0.4826  0.6896
 3013SOL     OW20497   0.853   2.459   8.387  0.2500  0.0911  0.3416
 3013SOL    HW120498   0.769   2.454   8.432  0.9014 -0.8723  1.4557
 3013SOL    HW220499   0.844   2.392   8.319  1.4686  0.8133 -0.5361
 3014SOL     OW20500   1.739   2.940  15.246  0.3237 -0.0706 -0.0237
 3014SOL    HW120501   1.678   2.874  15.212 -0.5395  0.6631  0.0941
 3014SOL    HW220502   1.730   3.011  15.183 -1.5271 -0.9354 -0.7333
 3015SOL     OW20503   2.600   2.679   5.173 -0.1721 -0.1388 -0.2670
 3015SOL    HW120504   2.659   2.615   5.135 -0.7031  0.3037 -1.8385
 3015SOL    HW220505   2.663   2.736   5.217 -0.2245  0.7604 -1.3538
 3016SOL     OW20506   1.789   2.296   2.747 -0.3860 -0.3214 -0.0028
 3016SOL    HW120507   1.823   2.207   2.762  0.2922 -0.3190 -1.5347
 3016SOL    HW220508   1.842   2.317   2.670 -0.9398 -0.2068 -0.3456
 3017SOL     OW20509   1.764   1.755   7.635  0.0043 -0.7632 -0.0654
 3017SOL    HW120510   1.706   1.681   7.618  0.2986 -0.7323 -1.1770
 3017SOL    HW220511   1.744   1.815   7.563  2.3008  1.4594  1.1757
 3018SOL     OW20512   0.052   0.048   3.430  0.4804 -0.3541  0.0398
 3018SOL    HW120513   4.695   0.016   3.395  0.6636  0.0026 -0.7082
 3018SOL    HW220514   0.029   0.063   3.522  1.9094 -0.3560  0.4036
 3019SOL     OW20515   2.196   1.657   9.159 -0.5222  0.4376  0.3055
 3019SOL    HW120516   2.141   1.588   9.120 -0.1915  0.5794 -0.4075
 3019SOL    HW220517   2.249   1.681   9.083  2.2328 -0.5936  1.9479
 3020SOL     OW20518   2.299   4.478   5.963 -0.4585  0.2411 -0.2412
 3020SOL    HW120519   2.357   4.511   5.895 -2.4604  0.8546 -1.6323
 3020SOL    HW220520   2.213   4.485   5.923 -0.5955 -0.8331 -0.1256
 3021SOL     OW20521   3.863   3.193   2.797 -0.2413 -0.2530 -0.3378
 3021SOL    HW120522   3.778   3.232   2.819 -1.2218 -1.4203 -2.0499
 3021SOL    HW220523   3.873   3.210   2.704  1.9186  1.5851  0.2362
 3022SOL     OW20524   4.638   2.531   7.405 -0.4430  0.0682 -0.0239
 3022SOL    HW120525   4.552   2.525   7.364 -0.9764  0.5378  1.0450
 3022SOL    HW220526   4.680   2.601   7.354 -0.9021  0.5483  0.2648
 3023SOL     OW20527   1.219   3.042   3.076 -0.1044  0.0657  0.3601
 3023SOL    HW120528   1.293   3.014   3.130  0.9397  1.0356 -0.5727
 3023SOL    HW220529   1.148   2.979   3.086  1.5764 -1.9566 -0.3523
 3024SOL     OW20530   3.654   1.642   7.790  0.1346  0.3796 -0.8752
 3024SOL    HW120531   3.623   1.632   7.880  0.0472  1.5262 -0.7766
 3024SOL    HW220532   3.588   1.589   7.746 -0.0371 -0.2450  0.1222
 3025SOL     OW20533   4.118   3.369   7.437  0.0486 -0.8309 -0.0081
 3025SOL    HW120534   4.159   3.328   7.513 -0.3908  0.6988  1.0588
 3025SOL    HW220535   4.122   3.290   7.384  0.1084 -1.0027  0.2559
 3026SOL     OW20536   1.399   0.038   6.484 -0.6289  0.7146  0.2359
 3026SOL    HW120537   1.366   0.127   6.494 -1.4447  0.2228  1.8666
 3026SOL    HW220538   1.417   0.044   6.390  0.2320 -1.4068  0.2591
 3027SOL     OW20539   0.617   2.348  11.409  0.6221 -0.2701  0.2361
 3027SOL    HW120540   0.578   2.392  11.485 -2.5204 -1.6828 -0.5605
 3027SOL    HW220541   0.557   2.383  11.343 -0.4138 -1.9459  0.2780
 3028SOL     OW20542   2.049   2.853  15.564  0.2478 -0.3507  0.4674
 3028SOL    HW120543   2.092   2.882  15.483 -0.7445 -0.0629  0.0515
 3028SOL    HW220544   1.977   2.916  15.563  1.3776  0.9439 -0.2160
 3029SOL     OW20545   4.016   1.099   2.186  0.7287 -0.6038 -0.5729
 3029SOL    HW120546   3.980   1.119   2.272  0.6653  1.9767 -1.1746
 3029SOL    HW220547   3.948   1.125   2.123  2.7765  0.7686 -2.2520
 3030SOL     OW20548   0.733   3.359   7.914 -0.2815  0.3964 -0.1858
 3030SOL    HW120549   0.803   3.372   7.978 -0.0646 -0.4565 -0.2526
 3030SOL    HW220550   0.780   3.382   7.835 -0.8658 -1.2772 -1.0353
 3031SOL     OW20551   0.365   4.380   2.858  0.5473  0.2397  0.0287
 3031SOL    HW120552   0.418   4.445   2.811  1.5243 -0.9897 -0.5768
 3031SOL    HW220553   0.405   4.375   2.944  2.3241  0.5185 -0.7760
 3032SOL     OW20554   2.397   1.895   1.889  0.1534 -0.0549 -0.2698
 3032SOL    HW120555   2.356   1.809   1.878 -1.1273  0.5698 -0.3674
 3032SOL    HW220556   2.329   1.950   1.850  1.3732 -0.1057 -2.4560
 3033SOL     OW20557   1.537   4.719   3.104 -0.3391 -0.2204  0.2796
 3033SOL    HW120558   1.491   0.039   3.174 -0.6719 -1.7556  1.0403
 3033SOL    HW220559   1.476   4.648   3.085 -1.5667  0.6539  0.9634
 3034SOL     OW20560   2.054   2.609   8.301 -0.0989  0.3643 -0.2583
 3034SOL    HW120561   2.080   2.532   8.351  1.8435 -0.3109 -2.3146
 3034SOL    HW220562   2.137   2.655   8.314  1.6043 -2.6174 -0.4758
 3035SOL     OW20563   3.216   0.828   6.762  0.1976  0.8491 -0.0981
 3035SOL    HW120564   3.307   0.813   6.738 -1.1320 -0.5423 -4.3682
 3035SOL    HW220565   3.223   0.862   6.851 -0.6108 -2.2074  1.1401
 3036SOL     OW20566   0.343   2.368  14.401 -0.0306  0.1946 -0.1457
 3036SOL    HW120567   0.292   2.343  14.478  1.6992 -1.2301  0.5293
 3036SOL    HW220568   0.334   2.463  14.411 -0.8015  0.3085 -1.9982
 3037SOL     OW20569   0.762   1.551   5.841  0.2048  0.2517 -0.0743
 3037SOL    HW120570   0.747   1.546   5.935  2.4274  0.7314  0.2992
 3037SOL    HW220571   0.689   1.605   5.809 -0.2957  0.1995  0.9880
 3038SOL     OW20572   4.551   1.716  15.834  0.2910 -0.2601 -0.1453
 3038SOL    HW120573   4.550   1.788  15.772  0.7494  0.6048  0.8501
 3038SOL    HW220574   4.642   1.709  15.863  0.2210  0.9033  0.3461
 3039SOL     OW20575   0.422   1.239   0.144  0.1411 -0.0884  0.0919
 3039SOL    HW120576   0.419   1.144   0.131  1.8490  0.2425 -2.7575
 3039SOL    HW220577   0.475   1.267   0.069 -0.3624 -0.6571 -0.4766
 3040SOL     OW20578   3.447   1.291   4.205  0.3045  0.4474 -0.5159
 3040SOL    HW120579   3.387   1.362   4.229  0.0715  0.4991 -1.2655
 3040SOL    HW220580   3.394   1.245   4.139  0.3398  0.0023 -0.2346
 3041SOL     OW20581   2.194   0.512   8.066 -0.6595 -0.2679  0.0027
 3041SOL    HW120582   2.129   0.581   8.082  1.5572  1.9813 -0.6363
 3041SOL    HW220583   2.251   0.563   8.008 -2.0476  0.9562 -0.2936
 3042SOL     OW20584   3.193   1.877  16.344 -0.4558 -0.0079  0.4349
 3042SOL    HW120585   3.284   1.890  16.372 -0.7743 -1.5246  2.2655
 3042SOL    HW220586   3.186   1.786  16.315  0.9796  0.0130  0.0116
 3043SOL     OW20587   2.252   2.842   1.336  0.1833  0.4260  0.1423
 3043SOL    HW120588   2.321   2.785   1.302  1.0658  0.7654  1.3947
 3043SOL    HW220589   2.311   2.914   1.355  0.1236  0.5687 -0.2050
 3044SOL     OW20590   1.555   2.837  16.471  0.1844 -0.3507  0.2457
 3044SOL    HW120591   1.500   2.765  16.439 -0.3385  0.4924 -0.7394
 3044SOL    HW220592   1.496   2.899  16.514  0.1518  1.4904 -2.4896
 3045SOL     OW20593   1.516   2.354  14.419  0.2686  0.4893 -0.1773
 3045SOL    HW120594   1.524   2.264  14.386  0.3100  1.9507 -4.0612
 3045SOL    HW220595   1.604   2.382  14.395  0.5271 -0.2186 -0.0514
 3046SOL     OW20596   1.748   4.489   7.481 -0.1691 -0.0634 -0.1732
 3046SOL    HW120597   1.706   4.434   7.415 -1.3031  0.0395  0.4600
 3046SOL    HW220598   1.800   4.425   7.530  2.7466  1.3652 -1.4124
 3047SOL     OW20599   3.041   1.314   0.973 -0.5414  0.3344 -0.2932
 3047SOL    HW120600   3.010   1.250   0.909 -1.6345 -1.6618  2.2622
 3047SOL    HW220601   3.101   1.378   0.934 -0.6491  0.6840  0.1153
 3048SOL     OW20602   4.232   3.968  16.585 -0.0951 -0.7001 -0.2001
 3048SOL    HW120603   4.322   3.938  16.571  0.4594  1.1434 -0.5129
 3048SOL    HW220604   4.230   4.056  16.549  0.5464 -0.4302  0.4404
 3049SOL     OW20605   2.231   1.246  16.418 -0.4000 -0.1802  0.6765
 3049SOL    HW120606   2.233   1.250  16.513  1.0055 -0.6426  0.6709
 3049SOL    HW220607   2.321   1.239  16.386 -0.3362  2.5970  0.2281
 3050SOL     OW20608   2.150   0.189   4.735  0.2825  0.0325 -0.4733
 3050SOL    HW120609   2.245   0.185   4.749  0.0759 -1.5075  0.6014
 3050SOL    HW220610   2.126   0.101   4.764  2.0443 -0.6336 -0.9903
 3051SOL     OW20611   2.135   4.180   4.023  0.1780 -1.0742  0.0141
 3051SOL    HW120612   2.051   4.148   4.055  0.5393 -2.1907 -0.1717
 3051SOL    HW220613   2.186   4.172   4.103  1.0501 -1.4188 -0.5810
 3052SOL     OW20614   2.559   2.487   9.548 -0.9592 -0.1892  0.0983
 3052SOL    HW120615   2.564   2.489   9.452 -0.3272  0.4193  0.1441
 3052SOL    HW220616   2.470   2.454   9.563  0.0341 -2.5913  0.5942
 3053SOL     OW20617   3.954   3.163   6.704 -0.6730  0.6044 -0.3468
 3053SOL    HW120618   4.000   3.086   6.673 -0.0496  0.7898  0.1128
 3053SOL    HW220619   4.008   3.182   6.781 -1.8638  0.5014  0.5173
 3054SOL     OW20620   4.444   4.689   3.759 -0.3198  0.0862  0.0191
 3054SOL    HW120621   4.463   4.615   3.702  1.0280 -0.3519  1.0373
 3054SOL    HW220622   4.355   4.715   3.734 -0.4779 -0.1332  0.3648
 3055SOL     OW20623   0.620   0.189   4.570  0.1309 -0.3434  0.3361
 3055SOL    HW120624   0.596   0.265   4.622 -0.7538  0.2357 -0.9045
 3055SOL    HW220625   0.536   0.175   4.527  1.3327  0.1066 -2.1645
 3056SOL     OW20626   2.840   1.266   9.070 -0.6030 -0.0949 -0.5120
 3056SOL    HW120627   2.795   1.255   9.153  2.6018  0.2044  1.2400
 3056SOL    HW220628   2.923   1.308   9.094 -1.3581  0.4288  1.1276
 3057SOL     OW20629   3.275   0.600  12.774  0.1183 -0.2487 -0.0428
 3057SOL    HW120630   3.327   0.623  12.851 -2.1293 -0.8407  1.6674
 3057SOL    HW220631   3.246   0.686  12.744 -0.0399 -0.8846 -1.7013
 3058SOL     OW20632   2.310   0.173   3.951  0.0569 -0.4821  0.6111
 3058SOL    HW120633   2.299   0.159   3.857 -2.8368 -1.8224  1.1387
 3058SOL    HW220634   2.372   0.245   3.942 -2.0024  1.0565 -1.4502
 3059SOL     OW20635   4.291   2.539   1.428  0.0777 -0.4748  0.1106
 3059SOL    HW120636   4.286   2.630   1.458  1.3225 -0.5695  0.6028
 3059SOL    HW220637   4.281   2.505   1.517 -3.7258  1.3636  0.3903
 3060SOL     OW20638   2.867   0.692  12.136  0.8759 -0.4200  0.6005
 3060SOL    HW120639   2.846   0.701  12.229  0.4003 -0.8102  0.5291
 3060SOL    HW220640   2.861   0.784  12.110  0.1196 -1.1420 -1.7712
 3061SOL     OW20641   1.645   1.843  17.179  0.3096 -0.0251 -0.2731
 3061SOL    HW120642   1.555   1.865  17.156  0.7160 -1.3354 -3.1327
 3061SOL    HW220643   1.668   1.919  17.233  0.6060  0.6122 -1.2949
 3062SOL     OW20644   0.022   1.788  17.679  0.1606  0.6370  0.1789
 3062SOL    HW120645   0.028   1.829  17.592 -3.6194 -1.2068 -0.9179
 3062SOL    HW220646   0.100   1.733  17.673 -0.3626  0.0950 -1.5455
 3063SOL     OW20647   0.133   4.009  16.415 -0.3384 -0.1694  0.1175
 3063SOL    HW120648   0.086   4.084  16.451 -0.1150  0.0328 -0.0111
 3063SOL    HW220649   0.056   3.960  16.385  0.8747 -0.5075 -2.4539
 3064SOL     OW20650   4.078   1.365   6.273 -0.0225 -0.0845 -0.0759
 3064SOL    HW120651   3.985   1.344   6.278 -0.3054  1.2406  0.2735
 3064SOL    HW220652   4.104   1.331   6.359 -1.1276 -0.9114 -0.0709
 3065SOL     OW20653   4.366   2.430   3.256 -0.2134  0.6992  0.7520
 3065SOL    HW120654   4.332   2.518   3.241  2.5048  1.5398 -0.4709
 3065SOL    HW220655   4.396   2.435   3.347  2.0157  0.5352  0.0332
 3066SOL     OW20656   3.403   2.160  10.368 -0.2996 -0.5413 -0.0046
 3066SOL    HW120657   3.428   2.101  10.297  0.3602  1.2464 -1.2562
 3066SOL    HW220658   3.309   2.147  10.378 -0.2094 -0.7024  0.6261
 3067SOL     OW20659   4.573   3.349   4.384 -0.2979  0.1840  0.9799
 3067SOL    HW120660   4.520   3.308   4.315  0.7775 -0.9768  0.8566
 3067SOL    HW220661   4.625   3.418   4.343  0.1718 -0.9644 -0.3660
 3068SOL     OW20662   2.343   1.610  16.216  0.3305  0.3865 -1.1441
 3068SOL    HW120663   2.278   1.576  16.154  0.7187  0.5382 -1.6426
 3068SOL    HW220664   2.286   1.673  16.261 -0.5222 -0.0284 -1.6432
 3069SOL     OW20665   4.501   3.888   5.118 -0.3905 -0.3025 -0.4723
 3069SOL    HW120666   4.514   3.856   5.029  2.2146 -1.6692  0.4074
 3069SOL    HW220667   4.478   3.979   5.100 -2.0332 -1.0687 -2.2434
 3070SOL     OW20668   1.256   1.675  11.515  0.1288 -0.4300  0.1826
 3070SOL    HW120669   1.194   1.682  11.443 -0.2485  2.8757  0.8458
 3070SOL    HW220670   1.337   1.683  11.464  0.0220 -1.1768 -0.1158
 3071SOL     OW20671   4.108   3.977  15.248  0.4969 -0.0115  0.3610
 3071SOL    HW120672   4.179   4.042  15.247  0.9306 -0.4827  0.1277
 3071SOL    HW220673   4.083   3.957  15.338  1.2562 -0.9733  0.3591
 3072SOL     OW20674   0.393   3.735   6.049  0.0396 -0.0521 -0.2838
 3072SOL    HW120675   0.404   3.787   6.129 -0.9674  1.3906 -1.0928
 3072SOL    HW220676   0.484   3.708   6.034 -0.3012 -0.6424 -1.2149
 3073SOL     OW20677   0.215   3.039   6.314 -0.2518  0.1903  0.0726
 3073SOL    HW120678   0.212   3.047   6.218  1.1709  0.6934  0.0668
 3073SOL    HW220679   0.271   3.114   6.333  0.2776 -0.4401  0.9749
 3074SOL     OW20680   1.162   0.429   5.148  0.3925 -0.0695 -0.4598
 3074SOL    HW120681   1.101   0.472   5.208 -1.5667 -0.5691 -2.0933
 3074SOL    HW220682   1.224   0.391   5.210  0.1513  0.1483 -0.0842
 3075SOL     OW20683   4.714   1.501   4.418 -0.3786 -0.2801  0.2338
 3075SOL    HW120684   4.628   1.527   4.453  0.5948 -0.0330  2.4882
 3075SOL    HW220685   0.037   1.499   4.500  0.3073 -2.4176 -0.2293
 3076SOL     OW20686   1.181   0.636   9.035 -0.0077  0.0148  0.0240
 3076SOL    HW120687   1.133   0.555   9.053 -1.3446  0.3596 -1.9780
 3076SOL    HW220688   1.211   0.617   8.947 -2.5052 -0.3343 -0.7616
 3077SOL     OW20689   4.189   0.742   6.194 -0.0974 -0.2110 -0.3260
 3077SOL    HW120690   4.165   0.685   6.267  0.3248  2.0708  1.5895
 3077SOL    HW220691   4.118   0.805   6.182  0.9356  0.7561 -1.4663
 3078SOL     OW20692   1.366   0.199   0.277  0.2715  0.0820  0.1385
 3078SOL    HW120693   1.335   0.280   0.316  1.1455  0.6223 -0.2865
 3078SOL    HW220694   1.440   0.224   0.221  0.2234  1.6664  0.7877
 3079SOL     OW20695   1.562   4.019   3.647  0.2890 -0.7368  0.1260
 3079SOL    HW120696   1.528   4.060   3.726 -1.5648  2.7629 -2.4863
 3079SOL    HW220697   1.587   4.095   3.595  0.0784  0.2178  1.4395
 3080SOL     OW20698   4.552   0.763  12.215 -0.2123 -0.5985 -0.0574
 3080SOL    HW120699   4.553   0.703  12.141  0.3435 -0.4899 -0.1389
 3080SOL    HW220700   4.627   0.733  12.267  1.1277  0.8795 -1.1430
 3081SOL     OW20701   3.661   1.168   2.570  0.0955 -0.1356 -0.0501
 3081SOL    HW120702   3.592   1.220   2.529  0.0172 -0.1406  0.0736
 3081SOL    HW220703   3.735   1.177   2.510  0.8725  2.0182  1.2202
 3082SOL     OW20704   0.309   1.883   3.022  0.0983 -0.1991  0.2646
 3082SOL    HW120705   0.272   1.797   3.005  1.7195 -0.7773 -0.3041
 3082SOL    HW220706   0.267   1.910   3.104 -2.2012  1.5193 -1.4774
 3083SOL     OW20707   2.975   0.611   9.941 -0.0533  0.2087  0.2755
 3083SOL    HW120708   2.895   0.614   9.889  1.2503 -2.2614 -1.9182
 3083SOL    HW220709   3.017   0.533   9.904  1.0090  0.3310  1.2177
 3084SOL     OW20710   4.009   2.426   1.919  0.3948 -0.3822 -0.1366
 3084SOL    HW120711   4.053   2.342   1.905  0.8685  0.0686 -1.3350
 3084SOL    HW220712   3.959   2.407   1.999  0.5670 -0.1510  0.0261
 3085SOL     OW20713   3.386   4.624  14.823 -0.4205 -0.0960 -0.4665
 3085SOL    HW120714   3.383   4.540  14.777  0.2090  0.3733 -1.3477
 3085SOL    HW220715   3.294   4.643  14.838 -0.7329 -1.4875 -0.5836
 3086SOL     OW20716   2.445   3.108   8.097 -0.5623 -0.5231  0.4207
 3086SOL    HW120717   2.382   3.169   8.136 -0.1163 -0.1677  0.5818
 3086SOL    HW220718   2.404   3.086   8.013 -0.9446 -0.4219  0.5798
 3087SOL     OW20719   0.102   3.092   1.126  0.1996  0.1377 -0.0945
 3087SOL    HW120720   0.068   3.038   1.056  2.7373 -1.6348  0.0289
 3087SOL    HW220721   0.134   3.033   1.195 -0.9630  1.9757  2.0436
 3088SOL     OW20722   1.821   2.803   4.077  0.0587 -0.0600  0.5857
 3088SOL    HW120723   1.780   2.847   4.003  0.6877  0.5495  0.6052
 3088SOL    HW220724   1.740   2.791   4.128 -0.0258  1.5406  0.8190
 3089SOL     OW20725   3.583   3.960  15.354 -0.0093  0.5270 -0.9518
 3089SOL    HW120726   3.517   3.891  15.367  1.6221 -0.9380 -0.4023
 3089SOL    HW220727   3.586   3.973  15.259 -0.1757  1.9041 -0.7659
 3090SOL     OW20728   3.797   0.057   3.887 -0.4514  0.0739  0.5544
 3090SOL    HW120729   3.731   4.714   3.899  2.3662 -2.8513 -0.6550
 3090SOL    HW220730   3.871   4.725   3.869 -0.7117  0.7982 -2.7410
 3091SOL     OW20731   1.707   0.939   3.486  0.2532  0.0439 -0.0195
 3091SOL    HW120732   1.714   0.969   3.396  0.0433  1.3747  0.4022
 3091SOL    HW220733   1.612   0.932   3.499  0.2437 -0.6760 -0.5002
 3092SOL     OW20734   1.384   2.149   8.318  0.3309 -0.2217  0.5249
 3092SOL    HW120735   1.317   2.112   8.260  0.7049 -0.3632  0.1827
 3092SOL    HW220736   1.335   2.201   8.381  0.9364  0.6699  0.2558
 3093SOL     OW20737   3.550   0.741   5.258  0.1313 -0.4002 -0.3003
 3093SOL    HW120738   3.469   0.787   5.237  0.7854  0.2862 -1.3747
 3093SOL    HW220739   3.571   0.689   5.180  0.5904  0.0670 -0.4937
 3094SOL     OW20740   2.440   3.164  14.002 -0.3472 -0.7539 -0.4716
 3094SOL    HW120741   2.450   3.237  14.063 -0.4906 -0.0723 -1.2531
 3094SOL    HW220742   2.421   3.097  14.067 -1.2094 -0.5067 -0.4706
 3095SOL     OW20743   3.517   3.055   8.114 -0.5859 -0.5603  0.2665
 3095SOL    HW120744   3.447   3.032   8.175 -0.5355  0.6517  0.7865
 3095SOL    HW220745   3.586   3.032   8.177  1.0098 -0.8839 -1.6175
 3096SOL     OW20746   1.611   1.502  11.444 -0.2597  0.3933 -0.3825
 3096SOL    HW120747   1.526   1.514  11.401 -0.6340 -1.6809 -0.2303
 3096SOL    HW220748   1.666   1.555  11.388 -1.0176  0.4758 -1.0516
 3097SOL     OW20749   3.638   2.007   2.108 -0.4651 -0.0317 -0.2212
 3097SOL    HW120750   3.570   2.031   2.046 -1.8181  0.6255  1.5231
 3097SOL    HW220751   3.589   1.977   2.184  0.6935 -1.9526 -0.2168
 3098SOL     OW20752   1.958   0.507   7.539  0.2293 -0.1990 -0.3436
 3098SOL    HW120753   1.886   0.451   7.511  0.6540 -1.0411  0.2637
 3098SOL    HW220754   1.934   0.523   7.631 -2.8785 -0.5471 -1.0961
 3099SOL     OW20755   2.965   1.651   6.476  0.3385  0.4193 -0.2799
 3099SOL    HW120756   2.901   1.720   6.493  2.1175  1.4595  2.1853
 3099SOL    HW220757   2.923   1.608   6.401  1.4567 -0.1162 -0.5962
 3100SOL     OW20758   0.222   0.767  17.015 -0.8629  0.6235  0.2520
 3100SOL    HW120759   0.246   0.683  17.055  0.5640  0.1522 -1.5776
 3100SOL    HW220760   0.189   0.736  16.931  1.4142 -0.1662 -0.3635
 3101SOL     OW20761   3.829   4.305   5.808  0.3311  0.4893 -0.2341
 3101SOL    HW120762   3.772   4.346   5.874  0.3182  0.9106 -0.5073
 3101SOL    HW220763   3.796   4.335   5.723 -0.8291  0.3725  0.1747
 3102SOL     OW20764   1.460   4.447   8.260  0.4110 -0.1399 -0.3037
 3102SOL    HW120765   1.410   4.499   8.197 -3.2230 -0.8363  2.0210
 3102SOL    HW220766   1.479   4.513   8.327 -0.8603  1.3723 -1.4300
 3103SOL     OW20767   2.884   1.924   7.333 -0.4769  0.2165  0.3955
 3103SOL    HW120768   2.841   1.965   7.258 -0.6124  0.7690  0.7690
 3103SOL    HW220769   2.938   1.857   7.292 -1.0012 -0.3867  0.6782
 3104SOL     OW20770   2.699   0.223   1.395  1.0827 -0.2372 -0.3187
 3104SOL    HW120771   2.792   0.245   1.391  1.6235 -2.3861  0.6591
 3104SOL    HW220772   2.688   0.186   1.307 -0.8993  0.4234 -0.3455
 3105SOL     OW20773   0.297   0.231  12.672 -0.3189 -0.0485 -0.1841
 3105SOL    HW120774   0.262   0.174  12.603 -0.3492  0.7974 -0.8704
 3105SOL    HW220775   0.385   0.195  12.686 -0.6082 -1.1465 -1.1919
 3106SOL     OW20776   2.689   4.608   2.323  0.3588  0.0268  0.3536
 3106SOL    HW120777   2.596   4.593   2.308  0.4374 -0.3364  0.2125
 3106SOL    HW220778   2.687   4.699   2.350 -2.3657 -0.9290  3.4956
 3107SOL     OW20779   1.261   1.754  17.531  0.0350  0.2048  0.1875
 3107SOL    HW120780   1.177   1.781  17.568  1.3353  2.2563  1.6192
 3107SOL    HW220781   1.231   1.712  17.450  1.1264 -1.0390  0.4394
 3108SOL     OW20782   2.479   0.899  17.547  0.0764 -0.2336  0.2936
 3108SOL    HW120783   2.547   0.874  17.485 -0.9506 -4.1118  0.7400
 3108SOL    HW220784   2.476   0.994  17.538  0.1056 -0.2811 -0.1945
 3109SOL     OW20785   2.368   0.280  17.324 -0.2996 -0.1132 -0.2997
 3109SOL    HW120786   2.308   0.264  17.251 -1.9604 -0.7319  1.2025
 3109SOL    HW220787   2.433   0.343  17.293  1.1816 -0.4244  2.1728
 3110SOL     OW20788   1.253   1.373   5.198 -0.0488  0.7554  0.8574
 3110SOL    HW120789   1.181   1.320   5.164  0.2468  0.2276  1.0542
 3110SOL    HW220790   1.260   1.422   5.116 -1.6562 -0.8631 -0.2578
 3111SOL     OW20791   4.227   3.505   5.195 -0.4089  0.2359  0.2427
 3111SOL    HW120792   4.248   3.412   5.180  0.5901  0.2343  1.6124
 3111SOL    HW220793   4.224   3.545   5.108  2.7701  0.4637  0.2310
 3112SOL     OW20794   1.755   0.859   9.898  0.4516 -0.6234  0.1170
 3112SOL    HW120795   1.706   0.941   9.901  1.0344 -0.2594 -0.2316
 3112SOL    HW220796   1.843   0.892   9.879 -0.3441  1.3790 -0.1153
 3113SOL     OW20797   1.982   1.257  14.886 -0.4886  0.1883  0.1934
 3113SOL    HW120798   1.949   1.174  14.922 -2.4076 -0.4392 -2.9778
 3113SOL    HW220799   1.957   1.319  14.954  2.3055  0.9061  0.5452
 3114SOL     OW20800   3.869   2.363   5.351  0.6851  0.1448  0.1225
 3114SOL    HW120801   3.873   2.458   5.362 -2.0309  0.1592  0.9636
 3114SOL    HW220802   3.902   2.333   5.436 -0.4708 -0.8684  0.2219
 3115SOL     OW20803   3.281   3.257   4.293 -0.0378  0.2056 -0.4134
 3115SOL    HW120804   3.293   3.284   4.384  0.9258 -0.0643 -0.4612
 3115SOL    HW220805   3.193   3.285   4.269 -0.1375  1.7580  1.7362
 3116SOL     OW20806   3.199   2.916  13.460  0.1640  0.1641  0.0454
 3116SOL    HW120807   3.165   2.868  13.385  0.1317 -1.1512  0.8971
 3116SOL    HW220808   3.158   2.861  13.527  2.7814 -0.7159  0.9344
 3117SOL     OW20809   1.966   3.219  12.686 -0.0268 -0.0509 -0.1585
 3117SOL    HW120810   2.057   3.220  12.717  0.2403  0.6552 -0.9735
 3117SOL    HW220811   1.960   3.130  12.651  1.2424  0.0555 -0.6616
 3118SOL     OW20812   4.270   1.057   1.998 -0.3764 -0.2203 -0.2701
 3118SOL    HW120813   4.356   1.022   1.974 -0.3113  0.4260 -1.0060
 3118SOL    HW220814   4.281   1.071   2.092  2.8044 -0.9074 -0.5155
 3119SOL     OW20815   0.948   4.256   7.304  0.2988 -0.3432  0.1133
 3119SOL    HW120816   0.966   4.347   7.326  0.1310  0.4127 -2.8498
 3119SOL    HW220817   1.013   4.237   7.236  2.2503 -2.4090  2.5348
 3120SOL     OW20818   3.032   0.539  12.881 -0.4098 -0.1250  0.6208
 3120SOL    HW120819   2.969   0.543  12.809 -0.6254  0.9305  0.8787
 3120SOL    HW220820   3.115   0.546  12.832 -0.4094 -0.9051  0.4972
 3121SOL     OW20821   1.372   1.534   7.879 -0.2794  0.8320  0.3633
 3121SOL    HW120822   1.401   1.618   7.915 -0.2445  0.6882  0.6686
 3121SOL    HW220823   1.293   1.560   7.831 -0.1159  0.9185  0.1445
 3122SOL     OW20824   1.705   0.254   2.324 -0.6009 -0.0554 -0.0571
 3122SOL    HW120825   1.638   0.186   2.322  1.5108 -2.1439  0.3416
 3122SOL    HW220826   1.729   0.257   2.231 -0.6893 -0.5637 -0.0972
 3123SOL     OW20827   3.617   1.512   0.693 -0.3381  0.0740  0.0202
 3123SOL    HW120828   3.689   1.453   0.717 -0.7270 -1.1572 -1.8302
 3123SOL    HW220829   3.650   1.597   0.723 -1.1390  0.3243  0.1708
 3124SOL     OW20830   3.409   3.819   6.057  0.2662 -0.3743 -0.6229
 3124SOL    HW120831   3.378   3.732   6.084 -0.6170 -0.2155 -1.1443
 3124SOL    HW220832   3.479   3.793   5.996  1.4104 -1.6873  1.2346
 3125SOL     OW20833   0.731   3.661   1.544  0.2451 -0.3619 -0.0215
 3125SOL    HW120834   0.741   3.566   1.542  1.3893 -0.2503  0.5910
 3125SOL    HW220835   0.674   3.667   1.621 -0.5745 -0.7117 -0.5977
 3126SOL     OW20836   0.296   3.430   4.308  0.0542  0.1714  0.4010
 3126SOL    HW120837   0.368   3.454   4.367  0.8048  1.4360 -1.0136
 3126SOL    HW220838   0.291   3.335   4.305 -0.7947  0.2209  0.4420
 3127SOL     OW20839   0.931   0.356  15.191 -0.0044 -0.1699  0.1403
 3127SOL    HW120840   0.939   0.432  15.248 -1.0818 -0.1369  0.2365
 3127SOL    HW220841   0.928   0.397  15.105 -1.8007 -0.9810 -0.1815
 3128SOL     OW20842   4.097   1.497   6.034  0.1194 -0.0151  0.0613
 3128SOL    HW120843   4.044   1.429   5.990 -0.5741 -0.5006  1.6595
 3128SOL    HW220844   4.095   1.465   6.124  1.3587 -0.6223 -0.1309
 3129SOL     OW20845   1.772   0.239  10.551 -0.7466  0.1734 -0.1043
 3129SOL    HW120846   1.700   0.221  10.491 -0.7531  0.6956 -0.2497
 3129SOL    HW220847   1.799   0.327  10.525 -2.9668 -0.1077 -3.3170
 3130SOL     OW20848   1.746   0.187   3.099 -0.2857  0.1464 -0.9537
 3130SOL    HW120849   1.835   0.154   3.098 -0.2420  0.2568 -0.6135
 3130SOL    HW220850   1.695   0.114   3.065  0.0271 -0.1856 -0.7075
 3131SOL     OW20851   2.288   3.431   5.087  0.3365  0.2114  0.1157
 3131SOL    HW120852   2.263   3.368   5.019 -1.2001  0.6144  0.3205
 3131SOL    HW220853   2.290   3.511   5.035 -0.5869 -0.2486 -0.6178
 3132SOL     OW20854   3.139   3.701   3.103 -0.2076 -0.4960 -0.3560
 3132SOL    HW120855   3.156   3.638   3.173 -0.7995 -0.5058 -0.2246
 3132SOL    HW220856   3.047   3.721   3.117 -0.1982 -0.1548 -0.7641
 3133SOL     OW20857   0.350   1.315   5.139  0.2034  0.1860  0.2155
 3133SOL    HW120858   0.263   1.341   5.169  0.9889 -1.6314  3.9953
 3133SOL    HW220859   0.362   1.236   5.192 -1.3773 -0.0806  0.1726
 3134SOL     OW20860   1.866   1.207   1.070 -0.5332  0.5529 -0.3236
 3134SOL    HW120861   1.872   1.125   1.119 -1.1895  0.4834 -0.3622
 3134SOL    HW220862   1.836   1.165   0.989  2.7865 -1.8834 -0.3021
 3135SOL     OW20863   2.174   0.244   1.813 -0.3371 -0.3015 -0.2420
 3135SOL    HW120864   2.137   0.183   1.749 -2.1043  0.8131 -0.2717
 3135SOL    HW220865   2.210   0.316   1.762 -1.1689  1.1920  1.2916
 3136SOL     OW20866   4.574   2.049  15.229 -0.7457 -0.1516 -0.5127
 3136SOL    HW120867   4.565   2.142  15.251 -1.7202 -0.2564 -0.4944
 3136SOL    HW220868   4.607   2.042  15.140  0.7929 -2.6840  0.2605
 3137SOL     OW20869   2.572   1.737   4.544  0.2790  0.1464 -0.3164
 3137SOL    HW120870   2.488   1.782   4.534 -0.8520 -1.5905  1.5052
 3137SOL    HW220871   2.596   1.762   4.633  0.5906  0.4377 -0.4817
 3138SOL     OW20872   4.520   4.720   7.085 -0.2256  0.3145 -0.6694
 3138SOL    HW120873   4.600   4.721   7.138 -1.2775 -2.2346  0.9373
 3138SOL    HW220874   4.473   0.069   7.121  0.2813 -0.4594  1.5883
 3139SOL     OW20875   3.627   1.825   7.613 -0.3556  0.1598 -0.5434
 3139SOL    HW120876   3.606   1.774   7.534  1.3940 -2.1173  0.4584
 3139SOL    HW220877   3.635   1.754   7.677 -0.3695 -0.0675 -0.7942
 3140SOL     OW20878   1.348   4.317   2.380  0.5369  0.1447 -0.5669
 3140SOL    HW120879   1.354   4.331   2.474  3.1775 -0.2601 -0.6730
 3140SOL    HW220880   1.366   4.224   2.368 -1.4609 -0.6537  2.6536
 3141SOL     OW20881   1.564   3.681   4.496  0.2637  0.0153 -0.6286
 3141SOL    HW120882   1.586   3.588   4.498  2.3010  0.4892 -0.8206
 3141SOL    HW220883   1.492   3.679   4.558  0.3744 -0.2616 -0.5062
 3142SOL     OW20884   1.584   0.577   4.188  0.2440  0.0450  0.6521
 3142SOL    HW120885   1.634   0.588   4.107 -0.9482 -0.7700 -0.1829
 3142SOL    HW220886   1.542   0.661   4.208  1.7150  0.3689  2.4778
 3143SOL     OW20887   1.195   1.115   1.995  0.6491  0.2204  0.3248
 3143SOL    HW120888   1.149   1.037   2.026  1.1834 -0.1931  0.0807
 3143SOL    HW220889   1.263   1.068   1.947 -0.1685 -1.2819  0.6334
 3144SOL     OW20890   2.299   4.442   2.287 -0.0825  0.3359  0.0368
 3144SOL    HW120891   2.216   4.456   2.242 -0.0742 -0.3289 -0.1901
 3144SOL    HW220892   2.360   4.478   2.223 -0.5228  1.0699  0.0370
 3145SOL     OW20893   2.044   4.448   4.005  0.0319 -0.2992 -0.4800
 3145SOL    HW120894   2.130   4.408   4.019  0.1871  0.4979  0.8128
 3145SOL    HW220895   2.046   4.500   4.085 -1.6021 -0.2345 -0.4905
 3146SOL     OW20896   2.990   0.313   7.330  0.3550 -0.0100 -0.2113
 3146SOL    HW120897   2.903   0.296   7.367 -0.4983 -0.4600 -2.4138
 3146SOL    HW220898   3.023   0.381   7.389 -1.8971  0.8827  0.0277
 3147SOL     OW20899   2.197   2.977   4.121 -0.3422 -0.0112 -0.0742
 3147SOL    HW120900   2.189   3.024   4.038 -1.3364 -1.2882 -0.7027
 3147SOL    HW220901   2.104   2.984   4.147 -0.4448 -0.1224 -0.4144
 3148SOL     OW20902   4.159   2.006  12.651 -0.0243  0.3905 -0.1391
 3148SOL    HW120903   4.074   2.040  12.681  0.6317  1.4938  0.4670
 3148SOL    HW220904   4.220   2.073  12.682 -0.3785  0.9294 -0.6076
 3149SOL     OW20905   0.637   0.449   8.530  0.4551 -0.4549  0.1473
 3149SOL    HW120906   0.553   0.494   8.534  0.6728 -0.0302 -0.0129
 3149SOL    HW220907   0.654   0.413   8.617  2.3361 -1.9294 -0.8444
 3150SOL     OW20908   3.399   1.155   0.560  0.4441 -0.0493  0.2279
 3150SOL    HW120909   3.395   1.060   0.550  1.3815  0.2071 -2.4900
 3150SOL    HW220910   3.382   1.178   0.652 -1.1002  2.1975 -0.6294
 3151SOL     OW20911   1.668   4.421   5.995  0.7736  0.2881 -0.1111
 3151SOL    HW120912   1.696   4.416   5.904  0.6996  1.9456 -0.2282
 3151SOL    HW220913   1.753   4.411   6.037  0.9310  0.8056 -0.3061
 3152SOL     OW20914   1.152   4.193  16.510 -0.2005  0.3592  0.1022
 3152SOL    HW120915   1.190   4.217  16.426  1.0263 -2.7397 -0.2404
 3152SOL    HW220916   1.119   4.105  16.490 -1.8044  1.5187 -2.2925
 3153SOL     OW20917   0.277   1.787  17.064  0.2048 -0.0572 -0.0878
 3153SOL    HW120918   0.311   1.803  17.152 -1.0187 -0.1588  0.3965
 3153SOL    HW220919   0.280   1.692  17.069 -0.6652 -0.0601  0.4036
 3154SOL     OW20920   0.652   2.872   0.724  0.6143 -0.5744 -0.9021
 3154SOL    HW120921   0.634   2.945   0.665  2.6022  1.0467  0.4979
 3154SOL    HW220922   0.642   2.807   0.654 -1.9591  0.5637 -1.5741
 3155SOL     OW20923   4.587   4.421   6.640  0.0651 -0.6690 -0.2841
 3155SOL    HW120924   4.583   4.451   6.549 -0.9561 -1.8497 -0.6343
 3155SOL    HW220925   4.517   4.358   6.622  0.3056 -1.3479  1.1806
 3156SOL     OW20926   0.749   3.623   8.334 -0.7956 -0.4385 -0.2923
 3156SOL    HW120927   0.711   3.577   8.258 -1.3450 -0.7238  0.1543
 3156SOL    HW220928   0.727   3.712   8.309 -0.5852  0.5657  3.1890
 3157SOL     OW20929   2.733   1.969   0.846 -0.4141  0.0143 -0.2232
 3157SOL    HW120930   2.676   2.017   0.786 -0.6182  2.6527  2.0943
 3157SOL    HW220931   2.797   1.937   0.783  0.1992 -0.5711  0.6899
 3158SOL     OW20932   1.660   0.399   2.588  0.2462  0.8696 -0.3476
 3158SOL    HW120933   1.636   0.375   2.499  1.1419  0.0925 -0.3774
 3158SOL    HW220934   1.715   0.326   2.615  0.2080  0.9430 -0.0692
 3159SOL     OW20935   2.213   3.488   3.078 -0.4274 -0.1146 -0.2019
 3159SOL    HW120936   2.283   3.464   3.017  0.9867  1.6832  0.7206
 3159SOL    HW220937   2.183   3.555   3.017 -1.0559 -1.2740 -1.1844
 3160SOL     OW20938   1.381   0.764   8.280 -0.6796 -0.1290  0.0687
 3160SOL    HW120939   1.411   0.691   8.335 -0.8220 -2.2542 -2.6653
 3160SOL    HW220940   1.350   0.719   8.201  0.5052 -0.6923 -0.0816
 3161SOL     OW20941   1.225   2.899  15.403  0.0285  0.3003  0.0815
 3161SOL    HW120942   1.263   2.824  15.450  0.5385  0.6080  0.1593
 3161SOL    HW220943   1.304   2.952  15.396 -1.7211  2.3431 -4.1884
 3162SOL     OW20944   0.016   2.306  13.047  0.4308  0.0590  0.3467
 3162SOL    HW120945   0.069   2.371  13.095  0.3333 -1.0306  1.9486
 3162SOL    HW220946   0.073   2.246  13.000  1.3872 -1.8981  3.9624
 3163SOL     OW20947   1.250   3.101   7.263 -0.1625 -0.0245  0.5525
 3163SOL    HW120948   1.252   3.131   7.172  0.0894  1.4296  1.0344
 3163SOL    HW220949   1.207   3.180   7.295 -0.1010 -0.4068  1.5702
 3164SOL     OW20950   2.854   2.023   3.931  0.4826 -0.8694  0.1914
 3164SOL    HW120951   2.915   1.952   3.909 -0.3193 -1.2883 -0.6765
 3164SOL    HW220952   2.770   1.982   3.910 -0.2004 -0.2749  1.7979
 3165SOL     OW20953   2.722   3.396   7.305  0.2489  0.3700 -0.4872
 3165SOL    HW120954   2.768   3.340   7.367  2.8394  0.3835 -2.3505
 3165SOL    HW220955   2.761   3.372   7.220  0.5757  0.3532 -0.3330
 3166SOL     OW20956   4.614   4.158   4.126 -0.0564  0.1603  0.2050
 3166SOL    HW120957   4.529   4.114   4.132  0.1962 -0.3172  0.2852
 3166SOL    HW220958   4.661   4.135   4.207 -0.5983  1.0228  0.7545
 3167SOL     OW20959   1.668   3.804   6.218 -0.2029  0.1169 -0.3682
 3167SOL    HW120960   1.742   3.809   6.157  0.0196  1.5804  0.0161
 3167SOL    HW220961   1.621   3.887   6.206  0.3836  0.7996  1.9347
 3168SOL     OW20962   3.238   1.046   8.795  0.0934  0.1622 -0.5501
 3168SOL    HW120963   3.225   1.138   8.816 -1.1420 -0.0798 -0.2470
 3168SOL    HW220964   3.146   1.021   8.800 -0.2679  1.7061  0.6412
 3169SOL     OW20965   2.774   1.773   8.650 -0.5266 -0.3023  0.3107
 3169SOL    HW120966   2.794   1.697   8.596 -0.8613 -0.2194  0.0661
 3169SOL    HW220967   2.851   1.779   8.706  0.6076 -0.8878 -1.1878
 3170SOL     OW20968   4.509   3.830   2.510  0.8552  0.4392  0.0484
 3170SOL    HW120969   4.460   3.753   2.480 -0.1796  0.3935  1.8509
 3170SOL    HW220970   4.536   3.794   2.594  0.4148  1.5947  0.6753
 3171SOL     OW20971   1.644   1.074   6.952 -0.3629 -0.0545  0.0791
 3171SOL    HW120972   1.682   1.019   6.883  2.1845  2.8844 -0.8504
 3171SOL    HW220973   1.576   1.014   6.985  0.7615 -1.1949  0.3420
 3172SOL     OW20974   3.893   2.670   7.444 -0.3018 -0.1630  0.0480
 3172SOL    HW120975   3.821   2.608   7.455  1.5276 -2.6497 -2.0196
 3172SOL    HW220976   3.842   2.750   7.456 -2.5542 -1.5023 -0.5173
 3173SOL     OW20977   1.740   1.575  11.668  0.0899 -0.2492  0.1544
 3173SOL    HW120978   1.691   1.541  11.593 -1.8577  0.7226  0.9880
 3173SOL    HW220979   1.771   1.658  11.631 -0.2984  0.1100  0.6290
 3174SOL     OW20980   2.557   3.722  17.674  0.0038 -0.8511 -0.1829
 3174SOL    HW120981   2.484   3.728   0.030  0.4806  1.5492  0.1499
 3174SOL    HW220982   2.633   3.711   0.027 -0.4273 -2.8912 -0.0115
 3175SOL     OW20983   1.795   2.413  10.340  0.3715  0.1136 -0.2487
 3175SOL    HW120984   1.739   2.468  10.286  0.5403  0.5745  0.0420
 3175SOL    HW220985   1.846   2.488  10.371  1.0553 -1.5866  2.7508
 3176SOL     OW20986   0.500   4.427   3.104  0.2218  0.3574  0.3077
 3176SOL    HW120987   0.586   4.395   3.078  0.0084  0.4525 -0.5190
 3176SOL    HW220988   0.499   4.380   3.187  0.6051 -0.1422  0.0332
 3177SOL     OW20989   0.109   4.379   7.883  0.0095 -0.2894  0.0501
 3177SOL    HW120990   0.145   4.432   7.812 -3.6163  1.1480 -0.7309
 3177SOL    HW220991   0.179   4.324   7.919 -0.0446 -0.6426 -0.3842
 3178SOL     OW20992   0.662   3.195  12.936  0.0511  0.0734  0.3725
 3178SOL    HW120993   0.605   3.173  12.863  2.3757  0.7633 -1.6609
 3178SOL    HW220994   0.689   3.283  12.910 -3.7775  1.2562  0.3735
 3179SOL     OW20995   4.202   1.068   8.664 -0.4145  0.1501  0.0795
 3179SOL    HW120996   4.264   1.117   8.610  0.1659  0.4540  1.0279
 3179SOL    HW220997   4.122   1.073   8.611 -1.2727  1.0110  1.4703
 3180SOL     OW20998   1.867   1.248   1.945  0.4198  0.4194  0.0743
 3180SOL    HW120999   1.772   1.261   1.940  0.0153 -2.3651  0.5782
 3180SOL    HW221000   1.887   1.336   1.914  1.6431 -0.1093 -0.6366
 3181SOL     OW21001   3.706   3.315   2.337  0.5679  0.6944 -0.4236
 3181SOL    HW121002   3.735   3.395   2.382 -0.5189 -0.2737  2.0144
 3181SOL    HW221003   3.699   3.355   2.251 -1.2911  1.5790  0.1178
 3182SOL     OW21004   2.983   0.987   2.242  0.5367  0.3841  0.5593
 3182SOL    HW121005   3.002   0.968   2.150  1.8921 -1.2515  1.1771
 3182SOL    HW221006   3.035   0.932   2.301  0.3724 -0.2010  0.1639
 3183SOL     OW21007   1.457   2.568   9.106 -0.6468  0.4432  0.6876
 3183SOL    HW121008   1.435   2.626   9.032 -0.0351  1.0564  0.9801
 3183SOL    HW221009   1.518   2.634   9.140  0.8756  0.1766 -1.5269
 3184SOL     OW21010   2.821   3.781   2.753  0.1395 -0.5617  0.2711
 3184SOL    HW121011   2.831   3.695   2.794  0.9513 -0.7981 -0.4156
 3184SOL    HW221012   2.914   3.797   2.738 -0.0394  0.7297  0.5536
 3185SOL     OW21013   0.074   4.167   6.685 -0.5244  0.7372  0.3150
 3185SOL    HW121014   0.036   4.173   6.773 -1.6273  0.7753 -0.1621
 3185SOL    HW221015   0.104   4.254   6.659 -0.3200  0.3475 -0.7447
 3186SOL     OW21016   1.871   3.019   3.169 -0.4515 -0.1050 -0.0730
 3186SOL    HW121017   1.917   3.025   3.252 -0.3552  2.2040 -0.2803
 3186SOL    HW221018   1.864   3.110   3.139 -0.6608 -0.4824 -1.1654
 3187SOL     OW21019   2.121   0.128   0.750 -0.6678  0.6018 -0.3005
 3187SOL    HW121020   2.028   0.131   0.726 -0.9735 -0.5699  0.7659
 3187SOL    HW221021   2.146   0.037   0.735  1.0788  1.0605 -0.1867
 3188SOL     OW21022   3.025   3.653  15.518 -0.2927 -0.1402 -0.4302
 3188SOL    HW121023   3.046   3.570  15.475 -0.8760 -0.0574 -0.8641
 3188SOL    HW221024   2.976   3.620  15.594 -0.2517 -0.6151 -0.6144
 3189SOL     OW21025   3.491   1.659   8.040 -0.3892 -0.2033  0.6794
 3189SOL    HW121026   3.433   1.721   8.085 -1.1130 -0.4210  0.0564
 3189SOL    HW221027   3.545   1.639   8.116  1.1680 -0.2645 -0.4355
 3190SOL     OW21028   1.010   0.688  14.936 -0.3028 -0.3261 -0.6270
 3190SOL    HW121029   1.059   0.723  15.011 -3.2736  2.6077 -0.0789
 3190SOL    HW221030   0.936   0.747  14.921  0.8256  0.5787 -2.5069
 3191SOL     OW21031   0.950   3.438   8.111  0.5003  0.2396 -0.2266
 3191SOL    HW121032   1.037   3.477   8.104  1.4935 -1.8296  0.8756
 3191SOL    HW221033   0.941   3.399   8.198 -0.8905  1.6163  0.2592
 3192SOL     OW21034   0.377   1.963   4.364  0.0380  0.5312  0.3441
 3192SOL    HW121035   0.406   2.045   4.403  1.6974  0.7058 -1.2505
 3192SOL    HW221036   0.452   1.905   4.381  0.4098  0.7081 -0.7067
 3193SOL     OW21037   0.724   2.991   5.077  0.3262  0.3771 -0.3048
 3193SOL    HW121038   0.701   3.071   5.124 -1.8823 -0.5933  0.2462
 3193SOL    HW221039   0.636   2.962   5.051  0.3182  0.4350 -0.3416
 3194SOL     OW21040   2.757   1.714   7.468 -0.1482 -0.1321  0.3367
 3194SOL    HW121041   2.795   1.802   7.472 -1.7111  0.6382 -1.8319
 3194SOL    HW221042   2.726   1.700   7.557 -0.6364 -0.8621  0.0416
 3195SOL     OW21043   3.256   3.785   5.717  0.6861 -0.0558  0.0129
 3195SOL    HW121044   3.270   3.876   5.740  0.0591  0.2781 -0.8949
 3195SOL    HW221045   3.340   3.758   5.679  1.2186  0.0887  1.0937
 3196SOL     OW21046   0.743   2.884   3.060 -0.3670 -0.2229  0.6328
 3196SOL    HW121047   0.796   2.810   3.031  2.9863  2.1436  0.7147
 3196SOL    HW221048   0.710   2.916   2.976  1.8178 -0.1500 -0.1894
 3197SOL     OW21049   0.594   3.276   4.606  0.1010  0.0373  0.5769
 3197SOL    HW121050   0.571   3.266   4.698  0.2491 -0.2308  0.5853
 3197SOL    HW221051   0.555   3.195   4.572 -0.9026  0.7555  0.0325
 3198SOL     OW21052   1.111   3.463   5.153 -0.2310 -0.0891  0.7076
 3198SOL    HW121053   1.122   3.419   5.068  3.1469 -0.5741  1.4127
 3198SOL    HW221054   1.020   3.435   5.167 -1.0758  1.9718 -0.6181
 3199SOL     OW21055   1.466   0.092  13.124 -0.4046  0.1407 -0.3504
 3199SOL    HW121056   1.420   0.147  13.187 -1.0319 -1.2145  0.3900
 3199SOL    HW221057   1.436   0.133  13.043  0.0864  0.7928 -0.1999
 3200SOL     OW21058   2.335   0.177   2.426 -0.1231  0.0014  0.3373
 3200SOL    HW121059   2.311   0.177   2.333 -1.7836  0.2432  0.7569
 3200SOL    HW221060   2.372   0.090   2.440  3.1243  1.9136  3.6381
 3201SOL     OW21061   2.381   0.448   4.734  0.2927  0.6850  0.2726
 3201SOL    HW121062   2.401   0.354   4.727 -1.2405  0.4246 -0.6407
 3201SOL    HW221063   2.459   0.490   4.769  1.2105 -0.9065  0.1302
 3202SOL     OW21064   4.062   0.400  14.797  0.3525 -0.6035  0.0594
 3202SOL    HW121065   4.001   0.361  14.734 -1.1905 -1.2031  1.9228
 3202SOL    HW221066   4.144   0.409  14.748  0.8078 -0.3809  0.8594
 3203SOL     OW21067   0.215   0.842   8.302  0.0024  0.0674  0.0585
 3203SOL    HW121068   0.203   0.932   8.272  0.2648  0.3075  0.6670
 3203SOL    HW221069   0.185   0.844   8.393  0.2090 -0.6548  0.1435
 3204SOL     OW21070   4.088   0.920   3.014  0.3790 -0.7488 -0.4323
 3204SOL    HW121071   4.104   0.894   3.105 -1.8776 -0.5419  0.0055
 3204SOL    HW221072   4.132   1.005   3.012 -1.4448  0.1469 -1.7843
 3205SOL     OW21073   1.550   0.492   2.808 -0.4314  0.4454  0.0639
 3205SOL    HW121074   1.621   0.514   2.869  0.0049  0.1020 -0.3173
 3205SOL    HW221075   1.599   0.446   2.740  2.1059  1.8054  0.9371
 3206SOL     OW21076   0.758   1.863   6.955  0.3666 -0.3982  0.0638
 3206SOL    HW121077   0.758   1.937   7.016  0.8626  1.0400 -1.6821
 3206SOL    HW221078   0.795   1.912   6.882  1.4045 -2.3128 -0.6882
 3207SOL     OW21079   2.175   3.326   5.437 -0.0454 -0.0462  0.4580
 3207SOL    HW121080   2.130   3.353   5.357 -0.0149  0.3998  0.5916
 3207SOL    HW221081   2.144   3.240   5.464  1.3101 -0.4421  0.7412
 3208SOL     OW21082   3.784   2.037   3.085  0.0462 -0.3047  0.1183
 3208SOL    HW121083   3.854   1.976   3.109 -0.4263 -0.9076 -0.0684
 3208SOL    HW221084   3.787   2.089   3.165  1.5707  0.2136 -0.2658
 3209SOL     OW21085   0.314   3.639   5.800 -0.2169 -0.4161 -0.7601
 3209SOL    HW121086   0.302   3.553   5.840 -1.8024  0.5567  0.8332
 3209SOL    HW221087   0.320   3.693   5.879 -0.2871 -0.9113 -0.4135
 3210SOL     OW21088   3.332   2.870   5.074 -0.1403  0.6924 -0.1657
 3210SOL    HW121089   3.299   2.814   5.144  1.0197 -0.2960 -0.4170
 3210SOL    HW221090   3.426   2.862   5.087 -0.0515 -0.4351 -1.4705
 3211SOL     OW21091   1.989   4.290   7.106  0.2576 -0.0313 -0.1667
 3211SOL    HW121092   1.946   4.372   7.084  0.7968 -0.4632 -2.8680
 3211SOL    HW221093   2.038   4.320   7.182 -0.5591  3.2428 -0.9525
 3212SOL     OW21094   0.587   3.653  14.466  0.4517 -0.4817 -0.0914
 3212SOL    HW121095   0.603   3.623  14.377 -0.1603  1.5668 -0.8990
 3212SOL    HW221096   0.665   3.608  14.501 -0.1699 -0.1236  1.7786
 3213SOL     OW21097   3.741   0.161   7.127 -0.1875  0.1731 -0.2226
 3213SOL    HW121098   3.796   0.223   7.175 -0.1857  0.9595 -1.2220
 3213SOL    HW221099   3.801   0.087   7.121 -2.6005 -1.8528  0.5216
 3214SOL     OW21100   0.925   1.519   5.513  0.2953 -0.5523 -0.4832
 3214SOL    HW121101   0.996   1.581   5.526 -0.7572  0.5302  0.0905
 3214SOL    HW221102   0.925   1.517   5.417  0.1772  0.2693 -0.4943
 3215SOL     OW21103   3.989   0.678   4.945 -0.7975 -0.3840 -0.2390
 3215SOL    HW121104   4.001   0.637   4.860 -2.7743  0.6197 -0.9801
 3215SOL    HW221105   4.078   0.704   4.969 -2.3901  2.2794  2.7772
 3216SOL     OW21106   4.281   4.144   2.902 -0.1283  0.3724  0.1171
 3216SOL    HW121107   4.261   4.124   2.993 -0.1853  1.6389  0.3811
 3216SOL    HW221108   4.225   4.222   2.897  0.6917  0.9591  0.1066
 3217SOL     OW21109   2.991   1.378   7.125 -0.0329  0.2597  0.1714
 3217SOL    HW121110   2.923   1.357   7.061 -0.1931 -0.1693  0.4830
 3217SOL    HW221111   2.942   1.417   7.198 -3.1630 -1.7253 -0.8887
 3218SOL     OW21112   3.679   2.970   2.518 -0.1331 -0.3839 -0.0301
 3218SOL    HW121113   3.650   2.921   2.440 -1.0909 -1.0664  0.7515
 3218SOL    HW221114   3.757   2.927   2.552  0.3188 -1.4571 -2.4360
 3219SOL     OW21115   1.475   4.670   7.021 -0.0197  0.3169 -0.3057
 3219SOL    HW121116   1.423   4.591   7.036 -0.5506  0.7299  0.0353
 3219SOL    HW221117   1.481   4.680   6.926  1.7334 -1.0077 -0.3232
 3220SOL     OW21118   0.304   0.120   5.945 -0.1421  0.1695  0.0129
 3220SOL    HW121119   0.219   0.138   5.986 -1.7943 -1.4202 -2.7351
 3220SOL    HW221120   0.277   0.050   5.885 -2.7256  0.8549  0.3478
 3221SOL     OW21121   1.568   4.324   2.220 -0.1694  0.2169  0.3121
 3221SOL    HW121122   1.549   4.252   2.160  0.1662  1.1767 -0.9389
 3221SOL    HW221123   1.484   4.335   2.265 -1.2890  0.3257 -1.7611
 3222SOL     OW21124   3.472   1.243   8.650 -0.0753 -0.0543 -0.2030
 3222SOL    HW121125   3.414   1.256   8.725 -0.1437 -0.2327 -0.2236
 3222SOL    HW221126   3.531   1.194   8.708  1.5764  1.2637 -0.7757
 3223SOL     OW21127   2.221   3.411   2.409 -0.1132 -0.1345 -0.1077
 3223SOL    HW121128   2.171   3.449   2.482  1.9616  1.2778  0.5722
 3223SOL    HW221129   2.273   3.486   2.379 -0.1958 -0.0274  0.0124
 3224SOL     OW21130   3.405   3.125  15.383 -0.4049  0.4978  0.1160
 3224SOL    HW121131   3.478   3.122  15.445 -0.3044 -0.1209 -0.0368
 3224SOL    HW221132   3.451   3.179  15.319  1.7104 -0.5925  0.7007
 3225SOL     OW21133   3.577   0.536   1.760  0.6367  0.2239 -0.1734
 3225SOL    HW121134   3.539   0.474   1.823 -0.4399  1.1830  0.1295
 3225SOL    HW221135   3.668   0.506   1.756  0.1930 -0.7061 -2.8895
 3226SOL     OW21136   1.088   3.215  17.136  0.0316  0.2601  1.2402
 3226SOL    HW121137   1.153   3.151  17.163  2.0542  1.6732 -0.3083
 3226SOL    HW221138   1.010   3.162  17.121  0.7507 -0.6328  0.6984
 3227SOL     OW21139   4.441   0.016  11.419  0.7465  0.5079 -0.2140
 3227SOL    HW121140   4.495   4.664  11.428 -1.6408 -1.0457  0.4593
 3227SOL    HW221141   4.453   0.045  11.510  2.0961  2.0730 -0.8743
 3228SOL     OW21142   4.389   0.773  11.109 -0.0879  0.2525 -0.0751
 3228SOL    HW121143   4.332   0.839  11.147 -0.5281  1.8539 -3.4741
 3228SOL    HW221144   4.347   0.746  11.027  0.6239  1.0200 -0.6923
 3229SOL     OW21145   4.247   3.726   8.741  0.2853  0.4959  0.2280
 3229SOL    HW121146   4.299   3.678   8.676  2.3661  0.9120  1.5887
 3229SOL    HW221147   4.310   3.741   8.812 -0.3826  2.3053  0.4204
 3230SOL     OW21148   0.670   2.702   7.027 -0.3247  0.6689  0.0622
 3230SOL    HW121149   0.602   2.764   7.053 -0.9394  1.2746 -2.9547
 3230SOL    HW221150   0.675   2.729   6.935  1.6597  0.3332  0.0546
 3231SOL     OW21151   3.533   2.601   7.201 -0.7391  0.1504  0.5265
 3231SOL    HW121152   3.538   2.643   7.115 -1.6415 -2.4314 -0.7739
 3231SOL    HW221153   3.600   2.652   7.247 -2.8582  1.5526  2.0526
 3232SOL     OW21154   1.589   0.966   9.627 -0.0385 -0.7992 -0.0899
 3232SOL    HW121155   1.650   1.018   9.575 -1.5198  0.7279 -0.3173
 3232SOL    HW221156   1.601   1.009   9.712  0.1376 -0.7441 -0.1440
 3233SOL     OW21157   2.854   0.488   4.200  0.2330 -0.0381  0.0645
 3233SOL    HW121158   2.902   0.494   4.117 -1.6063 -0.7486 -1.0543
 3233SOL    HW221159   2.816   0.576   4.210 -0.2805 -0.1143 -1.2384
 3234SOL     OW21160   2.332   1.083   9.068  0.0212 -0.4248 -0.6345
 3234SOL    HW121161   2.374   1.002   9.099  1.1078  1.0718  1.8250
 3234SOL    HW221162   2.318   1.060   8.977 -2.2589  1.2501 -0.6878
 3235SOL     OW21163   0.873   3.387   0.899  0.2376  0.1022 -0.1489
 3235SOL    HW121164   0.946   3.391   0.838  0.1205  1.5332 -0.1768
 3235SOL    HW221165   0.860   3.293   0.915  0.3967 -0.2056 -1.8689
 3236SOL     OW21166   3.225   4.078   7.039  0.1222  0.0214  0.4275
 3236SOL    HW121167   3.184   3.998   7.007  1.6552 -1.0469  1.1233
 3236SOL    HW221168   3.217   4.075   7.134  0.2386 -1.6779  0.3902
 3237SOL     OW21169   1.179   0.402   4.325 -0.0156  0.2210 -0.3367
 3237SOL    HW121170   1.199   0.384   4.233  1.3074 -1.4829  0.2976
 3237SOL    HW221171   1.105   0.343   4.341 -0.7520  0.5811 -2.3201
 3238SOL     OW21172   2.952   2.966   6.070  0.0638 -0.2471  0.0530
 3238SOL    HW121173   2.907   3.042   6.034 -1.2974 -1.4698 -0.8389
 3238SOL    HW221174   2.952   2.912   5.991 -0.8579 -0.9542  0.5392
 3239SOL     OW21175   0.982   1.632   8.172 -0.3634 -0.4565  0.5401
 3239SOL    HW121176   0.945   1.602   8.088  1.0161 -1.3415  0.2458
 3239SOL    HW221177   1.063   1.667   8.135 -0.9527 -0.5896 -0.8739
 3240SOL     OW21178   1.588   3.870  14.587 -0.2743 -0.2825  0.2869
 3240SOL    HW121179   1.537   3.802  14.631 -2.6672  2.7097  2.1411
 3240SOL    HW221180   1.611   3.915  14.668 -0.0479 -0.6661  0.4353
 3241SOL     OW21181   0.987   4.686   4.897  0.1632 -0.1109  0.7089
 3241SOL    HW121182   1.041   4.687   4.818 -0.0200 -0.1386  0.5831
 3241SOL    HW221183   1.014   0.040   4.942 -0.1602 -0.4418  1.4949
 3242SOL     OW21184   4.103   3.768   0.344  0.1769  0.9229  0.6329
 3242SOL    HW121185   4.155   3.817   0.280  0.1278 -0.9207 -0.8011
 3242SOL    HW221186   4.148   3.804   0.420  1.8754  0.5855 -0.2163
 3243SOL     OW21187   2.627   1.105   3.060 -0.5467 -0.1237 -0.5581
 3243SOL    HW121188   2.686   1.167   3.104  0.5250 -0.8550 -0.9891
 3243SOL    HW221189   2.684   1.029   3.057 -1.8281 -1.1391  0.4695
 3244SOL     OW21190   3.073   4.183   3.758  0.7612  0.3243 -0.1374
 3244SOL    HW121191   3.017   4.120   3.803  1.5433 -0.3337 -0.0977
 3244SOL    HW221192   3.051   4.260   3.812  2.5141  1.7391 -1.4151
 3245SOL     OW21193   3.346   2.080  13.097 -0.5239  0.3796 -0.2456
 3245SOL    HW121194   3.431   2.050  13.128 -1.0113 -1.0557 -0.3333
 3245SOL    HW221195   3.348   2.082  13.001  0.8988  3.9930 -0.1425
 3246SOL     OW21196   1.063   3.207   6.040 -0.1197  0.1029  0.0999
 3246SOL    HW121197   0.974   3.235   6.019 -1.0841 -2.2657  1.0323
 3246SOL    HW221198   1.061   3.212   6.135  2.5864 -0.9032  0.2140
 3247SOL     OW21199   1.967   2.935   2.117  0.8760 -0.3648 -0.2227
 3247SOL    HW121200   1.944   2.888   2.037 -0.1109 -1.1482  0.5087
 3247SOL    HW221201   2.057   2.966   2.114  0.1800  1.5535 -0.9570
 3248SOL     OW21202   1.212   4.204  13.436 -0.5630  0.1898 -0.7238
 3248SOL    HW121203   1.141   4.199  13.372 -1.3951 -1.1470  0.3088
 3248SOL    HW221204   1.202   4.283  13.490 -0.1100 -0.5097  0.3853
 3249SOL     OW21205   1.843   0.487  10.497  1.1314  0.1176 -0.1538
 3249SOL    HW121206   1.902   0.562  10.490 -0.1228  1.0650 -0.6113
 3249SOL    HW221207   1.753   0.519  10.503  1.3953  1.0502 -1.0931
 3250SOL     OW21208   2.585   4.252   6.976  0.0007 -0.0419  0.8103
 3250SOL    HW121209   2.638   4.240   6.898 -0.2849  0.5452  0.5273
 3250SOL    HW221210   2.618   4.338   7.003 -0.2751  0.0871  0.7359
 3251SOL     OW21211   3.209   0.944   4.771 -0.4058  0.0929  0.0773
 3251SOL    HW121212   3.276   0.879   4.753 -2.5345 -1.7411 -1.1084
 3251SOL    HW221213   3.218   1.006   4.698 -1.5830 -0.5778 -0.6237
 3252SOL     OW21214   1.503   1.587   4.764 -0.0519  0.0430  0.2040
 3252SOL    HW121215   1.567   1.629   4.822  0.0598 -0.3518  0.3706
 3252SOL    HW221216   1.494   1.504   4.811 -0.2787  0.4361  0.8567
 3253SOL     OW21217   1.719   4.439   1.317 -0.0900  0.0684  0.1059
 3253SOL    HW121218   1.649   4.454   1.253  0.5348 -0.3924 -0.6928
 3253SOL    HW221219   1.759   4.358   1.286  1.0847  0.0969  1.5931
 3254SOL     OW21220   4.591   3.584   6.921  1.1423  0.2147 -0.3029
 3254SOL    HW121221   4.628   3.535   6.847 -0.8235 -2.3743  0.4202
 3254SOL    HW221222   4.576   3.661   6.867  0.8482 -0.3839 -1.0883
 3255SOL     OW21223   3.358   1.354   8.090 -0.0875 -0.0232  0.5615
 3255SOL    HW121224   3.450   1.362   8.067  0.3289  2.1888  2.9236
 3255SOL    HW221225   3.345   1.260   8.082 -1.4261  0.2130 -0.1395
 3256SOL     OW21226   2.744   4.568   3.670  0.2270 -0.4114  0.4312
 3256SOL    HW121227   2.748   4.518   3.589  0.4491 -3.0946  2.1148
 3256SOL    HW221228   2.812   4.636   3.661 -0.9590  0.4580 -1.8169
 3257SOL     OW21229   1.900   1.594   2.591 -0.3056  0.2255 -0.0141
 3257SOL    HW121230   1.893   1.643   2.509  0.6350 -0.5152 -0.5371
 3257SOL    HW221231   1.909   1.668   2.652  1.3824 -0.2098  0.2726
 3258SOL     OW21232   3.857   2.785   3.336 -0.6041 -0.4435  0.0021
 3258SOL    HW121233   3.798   2.829   3.275 -0.4356 -0.9370 -0.5230
 3258SOL    HW221234   3.794   2.717   3.361 -0.7539 -0.9339 -1.7313
 3259SOL     OW21235   2.649   4.644   6.544 -0.5112 -0.0583 -0.4239
 3259SOL    HW121236   2.613   4.557   6.560  2.3632 -1.2887 -0.8639
 3259SOL    HW221237   2.706   4.638   6.468  0.0333  0.3089 -0.0460
 3260SOL     OW21238   1.179   0.310   8.682  0.0775 -0.3070  0.2548
 3260SOL    HW121239   1.121   0.366   8.630 -1.6553 -1.3586  1.0233
 3260SOL    HW221240   1.121   0.235   8.697  1.2918 -1.4785 -0.9637
 3261SOL     OW21241   3.505   2.540   2.723 -0.3733  0.0057  0.1785
 3261SOL    HW121242   3.586   2.525   2.676  0.4774  2.5968  0.8516
 3261SOL    HW221243   3.469   2.611   2.670  0.0488  0.5736  0.6533
 3262SOL     OW21244   1.766   1.680   8.581 -0.0255 -0.4845  0.4761
 3262SOL    HW121245   1.779   1.637   8.497  0.2647  2.2903 -0.8741
 3262SOL    HW221246   1.791   1.767   8.551  1.1867 -0.2324  2.2350
 3263SOL     OW21247   2.597   4.099   8.748  0.7101 -0.4765  0.3624
 3263SOL    HW121248   2.638   4.119   8.833 -0.7960 -1.4342  1.3151
 3263SOL    HW221249   2.580   4.185   8.709 -3.2823 -0.8727  1.2770
 3264SOL     OW21250   2.899   0.749   8.394 -0.4608  0.4764  0.1989
 3264SOL    HW121251   2.847   0.806   8.451 -0.5617  2.3784 -1.7921
 3264SOL    HW221252   2.820   0.717   8.350  1.1221 -0.8372 -1.7001
 3265SOL     OW21253   3.713   0.136  13.930  0.8889  0.1278  0.2537
 3265SOL    HW121254   3.642   0.078  13.905  1.6733  0.5542 -2.9414
 3265SOL    HW221255   3.786   0.105  13.876  1.0888  0.2690  0.4408
 3266SOL     OW21256   1.053   3.606  11.254  0.4516 -0.4828 -0.3853
 3266SOL    HW121257   1.147   3.624  11.255  0.3525 -0.1161  1.7579
 3266SOL    HW221258   1.029   3.664  11.182  2.8659  0.7526 -0.2048
 3267SOL     OW21259   2.249   1.427  10.139  0.0807 -0.3499 -0.3254
 3267SOL    HW121260   2.185   1.456  10.074 -0.9223 -1.0757  0.3282
 3267SOL    HW221261   2.328   1.429  10.085  0.5816 -2.6916  0.3392
 3268SOL     OW21262   0.399   2.519   1.546 -0.3412 -0.7167 -0.1940
 3268SOL    HW121263   0.466   2.527   1.614 -0.4559  1.5453 -0.3338
 3268SOL    HW221264   0.320   2.522   1.600  0.4902  0.2627  0.9473
 3269SOL     OW21265   4.228   1.340   0.591  0.4532  0.2197  0.1660
 3269SOL    HW121266   4.215   1.434   0.600 -2.5533  0.1355 -3.0956
 3269SOL    HW221267   4.280   1.338   0.510  1.4254  0.9334  0.7846
 3270SOL     OW21268   1.586   0.755   6.757 -0.5052  0.7971  0.2498
 3270SOL    HW121269   1.654   0.819   6.739  0.4419  0.0386  1.1319
 3270SOL    HW221270   1.586   0.727   6.665 -0.1219 -0.1085  0.5278
 3271SOL     OW21271   0.564   0.736   1.109 -0.4401 -0.8076 -0.3999
 3271SOL    HW121272   0.651   0.776   1.097 -0.1754 -1.7251 -1.6205
 3271SOL    HW221273   0.580   0.643   1.091  0.1917 -1.3293  2.9007
 3272SOL     OW21274   0.672   4.049   4.151 -0.2788 -0.1146  0.4773
 3272SOL    HW121275   0.745   4.011   4.102  1.4150  2.9402  0.6095
 3272SOL    HW221276   0.601   4.028   4.091 -2.2073  0.2222  2.6603
 3273SOL     OW21277   2.298   2.166  11.686 -0.2549 -0.2676 -0.1289
 3273SOL    HW121278   2.318   2.187  11.777  0.0942 -0.0114 -0.2667
 3273SOL    HW221279   2.266   2.246  11.646 -0.4614 -0.3017 -0.0331
 3274SOL     OW21280   0.253   2.596   6.033  0.3374  0.1018 -0.0239
 3274SOL    HW121281   0.191   2.638   5.974 -1.7701 -0.8466  1.5384
 3274SOL    HW221282   0.198   2.523   6.061 -0.1243  0.0186 -1.1599
 3275SOL     OW21283   4.276   3.840   5.315 -0.4178  0.0021  0.3696
 3275SOL    HW121284   4.305   3.798   5.396 -3.0665 -1.1476  0.7237
 3275SOL    HW221285   4.354   3.846   5.260 -1.1631 -0.0698 -0.6827
 3276SOL     OW21286   1.080   3.028   3.828  0.3899  0.2229  0.3441
 3276SOL    HW121287   1.143   3.089   3.790  1.4955 -1.5831 -0.6862
 3276SOL    HW221288   1.129   2.949   3.851 -0.9465 -1.2039 -1.6790
 3277SOL     OW21289   2.161   3.354  17.218  0.0765 -0.2256  0.0626
 3277SOL    HW121290   2.243   3.316  17.248  0.0792 -0.6041 -0.4273
 3277SOL    HW221291   2.191   3.445  17.210 -1.1895  0.2278  0.4681
 3278SOL     OW21292   2.718   2.926   2.468 -0.4650 -0.8125  0.1311
 3278SOL    HW121293   2.674   2.889   2.392  0.1699 -0.9889 -0.1504
 3278SOL    HW221294   2.775   2.996   2.438 -1.7343  0.1894  0.0527
 3279SOL     OW21295   1.533   0.550   9.353  0.0512 -0.3473  0.4143
 3279SOL    HW121296   1.452   0.568   9.400  0.0334 -1.2830  0.7404
 3279SOL    HW221297   1.543   0.465   9.397  1.7922  1.4260  3.4179
 3280SOL     OW21298   3.762   2.454  12.967  0.0484  0.3440 -0.3958
 3280SOL    HW121299   3.825   2.521  12.995 -0.3133  0.6197 -0.2444
 3280SOL    HW221300   3.806   2.370  12.978  0.3130  0.5136 -0.1479
 3281SOL     OW21301   4.522   0.740   3.843  0.6337  0.0654 -0.6818
 3281SOL    HW121302   4.540   0.670   3.906  1.3260  1.1054  0.2803
 3281SOL    HW221303   4.472   0.689   3.779 -0.8762  2.1347 -1.1146
 3282SOL     OW21304   4.285   1.101   9.624 -0.2381 -0.2147  0.1574
 3282SOL    HW121305   4.198   1.138   9.609 -0.4161 -0.6224  0.1894
 3282SOL    HW221306   4.270   1.023   9.572 -0.5484  0.9612 -1.5276
 3283SOL     OW21307   2.770   1.934  16.303  0.0140  0.5098 -0.5742
 3283SOL    HW121308   2.854   1.899  16.273 -0.3493  0.8958 -2.0187
 3283SOL    HW221309   2.776   2.025  16.275  0.2698  0.7564  0.2730
 3284SOL     OW21310   0.431   0.040   3.524  0.0700  0.1784  0.1120
 3284SOL    HW121311   0.401   0.031   3.614 -0.8182  0.2065 -0.1764
 3284SOL    HW221312   0.399   4.684   3.486 -0.9860  0.4598  0.3902
 3285SOL     OW21313   2.497   4.662   3.232  0.4656 -0.2469 -0.9677
 3285SOL    HW121314   2.539   4.673   3.146  0.4607  0.9786 -0.8097
 3285SOL    HW221315   2.442   4.588   3.208 -0.1429 -0.0879 -0.0564
 3286SOL     OW21316   1.997   2.174   7.092  0.0577  0.6166  0.1476
 3286SOL    HW121317   1.999   2.090   7.047  1.8055  0.7021  0.0869
 3286SOL    HW221318   2.075   2.216   7.055 -1.0592  1.9172 -0.7408
 3287SOL     OW21319   2.587   3.635   3.660  0.0651 -0.2032 -0.1347
 3287SOL    HW121320   2.557   3.714   3.615  0.5543  0.2628  0.3561
 3287SOL    HW221321   2.514   3.579   3.633 -0.0114  0.0152 -0.3806
 3288SOL     OW21322   1.227   3.921   5.686 -0.3076 -0.4702 -0.3908
 3288SOL    HW121323   1.271   4.004   5.708  0.4349 -1.3220  1.3093
 3288SOL    HW221324   1.280   3.890   5.613  1.0928  0.6492  0.1228
 3289SOL     OW21325   1.580   3.453   4.264  0.3977  0.4871  0.0785
 3289SOL    HW121326   1.650   3.398   4.299  2.2284  3.0204  0.4347
 3289SOL    HW221327   1.626   3.535   4.245 -0.3041  0.7007 -0.7160
 3290SOL     OW21328   0.440   3.210   3.666  0.2987  0.0804  0.0483
 3290SOL    HW121329   0.515   3.158   3.695  0.5196  0.1930 -0.3190
 3290SOL    HW221330   0.443   3.167   3.580  0.9602  0.1528  0.0407
 3291SOL     OW21331   0.645   2.532   4.210  0.0642 -0.6107  0.1903
 3291SOL    HW121332   0.609   2.544   4.299  0.7723  1.1367  0.2459
 3291SOL    HW221333   0.716   2.469   4.216  0.1639 -0.5525 -0.4457
 3292SOL     OW21334   1.959   2.933   8.355  0.3073  0.0402  0.1623
 3292SOL    HW121335   1.888   2.869   8.356 -0.7721  1.2491  0.5279
 3292SOL    HW221336   1.925   3.000   8.416 -1.2346  0.1530 -0.8203
 3293SOL     OW21337   0.296   1.060   8.923 -0.4260 -0.1372 -0.0233
 3293SOL    HW121338   0.306   1.007   8.844 -0.3918 -1.8168  1.1197
 3293SOL    HW221339   0.390   1.073   8.936  0.1338 -1.5145 -2.8047
 3294SOL     OW21340   2.645   3.051  11.103 -0.1358  0.0705  0.3448
 3294SOL    HW121341   2.552   3.055  11.079 -0.5257 -0.9867  1.6681
 3294SOL    HW221342   2.683   3.131  11.066  0.9199 -0.3383  0.5559
 3295SOL     OW21343   0.251   4.304  17.141  0.2890  0.5382  0.4368
 3295SOL    HW121344   0.295   4.234  17.189  2.1782  1.1355 -0.4372
 3295SOL    HW221345   0.319   4.371  17.148  0.5337  0.3537 -0.2145
 3296SOL     OW21346   4.164   0.102  15.406  0.3853  0.0349 -0.3457
 3296SOL    HW121347   4.182   0.141  15.320  1.9380  1.6002  0.6826
 3296SOL    HW221348   4.232   0.035  15.408 -0.2394 -0.5471  0.8970
 3297SOL     OW21349   1.734   2.090   1.097  0.1261 -0.2518 -0.2887
 3297SOL    HW121350   1.759   2.006   1.136  0.2148  0.1120  0.4411
 3297SOL    HW221351   1.806   2.101   1.036  1.5605 -0.7376  1.3249
 3298SOL     OW21352   4.712   0.206   4.206 -0.0779 -0.7630  0.1376
 3298SOL    HW121353   0.041   0.231   4.131  1.5034  2.3840  2.3363
 3298SOL    HW221354   0.042   0.151   4.262 -0.8009  0.1426  1.7440
 3299SOL     OW21355   0.614   1.103   7.796  0.2036 -0.3117  0.0009
 3299SOL    HW121356   0.710   1.110   7.790  0.2367  1.7462  2.7907
 3299SOL    HW221357   0.606   1.066   7.884  0.1187 -1.2176 -0.3972
 3300SOL     OW21358   0.106   3.548  11.658 -0.5442 -0.1634 -0.2937
 3300SOL    HW121359   0.126   3.463  11.620 -0.9494 -0.3454 -0.0906
 3300SOL    HW221360   0.186   3.545  11.711  0.9071 -1.2751 -2.5290
 3301SOL     OW21361   0.490   2.913   6.276  0.1393 -0.3374 -0.6314
 3301SOL    HW121362   0.571   2.942   6.235  0.0596  0.0720 -0.5060
 3301SOL    HW221363   0.430   2.945   6.209 -0.6231 -0.6511 -0.1074
 3302SOL     OW21364   4.357   1.596  17.205 -0.7106  0.3906 -0.7101
 3302SOL    HW121365   4.369   1.680  17.249  1.8702  0.4623 -1.5176
 3302SOL    HW221366   4.336   1.543  17.282  0.3990  0.7962 -0.1291
 3303SOL     OW21367   0.578   3.516   8.102  0.1704  0.2171  0.3517
 3303SOL    HW121368   0.615   3.430   8.085 -0.6234 -0.1564  0.5513
 3303SOL    HW221369   0.504   3.499   8.160 -1.2671  1.2403 -1.1907
 3304SOL     OW21370   2.009   0.601   8.687  0.6849 -0.3202  0.3345
 3304SOL    HW121371   1.966   0.539   8.628 -1.9344  1.4463  0.3360
 3304SOL    HW221372   1.969   0.583   8.772  0.5803  1.7158  0.7254
 3305SOL     OW21373   3.246   3.720  14.726  0.1030  0.4694 -0.1145
 3305SOL    HW121374   3.239   3.665  14.648 -2.7748  0.3233  0.2357
 3305SOL    HW221375   3.185   3.668  14.779 -0.3235  0.6570 -0.4233
 3306SOL     OW21376   2.485   0.750   5.111 -0.4843  0.4948 -0.1269
 3306SOL    HW121377   2.427   0.771   5.039 -0.2435 -0.9331 -0.7328
 3306SOL    HW221378   2.572   0.786   5.093 -0.8187  0.9056 -0.8783
 3307SOL     OW21379   0.781   3.097   7.992  0.2837 -0.2338 -0.4959
 3307SOL    HW121380   0.788   3.046   7.911  1.5822  0.1909 -0.6534
 3307SOL    HW221381   0.781   3.185   7.954 -2.4059  0.6820  1.5999
 3308SOL     OW21382   0.314   2.941   2.154 -0.6167 -0.1564  0.3819
 3308SOL    HW121383   0.337   3.003   2.085  1.1187  1.1863  2.1623
 3308SOL    HW221384   0.226   2.918   2.124 -0.7391  0.4719  0.2650
 3309SOL     OW21385   1.476   0.953  15.052  0.3422 -0.3102  0.4086
 3309SOL    HW121386   1.498   0.860  15.049 -1.6586 -0.7131 -1.5787
 3309SOL    HW221387   1.560   0.982  15.088  0.7508  0.8952 -1.5318
 3310SOL     OW21388   4.511   2.500   8.015  0.1042  0.1983 -0.3455
 3310SOL    HW121389   4.564   2.524   8.090  1.1154 -0.4160 -0.8623
 3310SOL    HW221390   4.432   2.547   8.042  0.5797 -0.0508  1.4556
 3311SOL     OW21391   1.293   4.705   8.418  0.7462  0.0739 -0.8077
 3311SOL    HW121392   1.269   4.680   8.329 -0.5817  1.3969 -0.8408
 3311SOL    HW221393   1.334   0.065   8.406  1.0039 -0.0307 -0.6550
 3312SOL     OW21394   4.369   2.703  15.129  0.1698  0.1370  0.4851
 3312SOL    HW121395   4.297   2.736  15.075  1.1620  0.5020 -0.6173
 3312SOL    HW221396   4.437   2.767  15.107 -1.4322  2.5330  2.4999
 3313SOL     OW21397   3.559   2.751   6.550  0.0349  0.0376  0.3377
 3313SOL    HW121398   3.579   2.676   6.494 -2.0075  0.3244 -0.7656
 3313SOL    HW221399   3.464   2.744   6.541  0.1176 -0.3456 -0.1803
 3314SOL     OW21400   1.053   3.579   6.408 -0.1742  0.5990 -0.1599
 3314SOL    HW121401   0.963   3.567   6.437 -0.5861 -1.1270 -2.2034
 3314SOL    HW221402   1.045   3.585   6.313 -0.5159 -1.0364 -0.2332
 3315SOL     OW21403   2.564   2.316  12.265  0.4028 -0.2411  0.2687
 3315SOL    HW121404   2.556   2.329  12.170  1.0329  2.7044  0.6056
 3315SOL    HW221405   2.652   2.353  12.278  1.8445 -3.4421 -0.4102
 3316SOL     OW21406   4.407   1.897   5.136 -0.3038 -0.0371 -0.3717
 3316SOL    HW121407   4.372   1.812   5.165 -2.7455  0.5546 -1.5722
 3316SOL    HW221408   4.488   1.888   5.187  0.4715  2.5472 -1.1625
 3317SOL     OW21409   0.943   2.032   7.077  0.0829 -0.2908 -0.8023
 3317SOL    HW121410   0.998   1.995   7.007  0.5217 -0.5348 -0.3312
 3317SOL    HW221411   0.926   2.118   7.040 -0.8883  0.3097  1.0399
 3318SOL     OW21412   3.579   3.240   6.715 -0.4274 -0.5055 -0.0169
 3318SOL    HW121413   3.499   3.251   6.663 -1.0369 -0.2609  0.9877
 3318SOL    HW221414   3.599   3.148   6.703  1.5482  0.0548 -1.0740
 3319SOL     OW21415   3.744   0.982   3.093 -0.0761 -0.3893 -0.1265
 3319SOL    HW121416   3.752   0.888   3.112 -0.8022 -1.0869 -3.2902
 3319SOL    HW221417   3.796   0.986   3.013  1.4280  1.5381  0.9409
 3320SOL     OW21418   4.641   0.586   4.782 -0.8047  0.5369  0.2644
 3320SOL    HW121419   4.623   0.666   4.733  1.7595  0.8754 -0.1288
 3320SOL    HW221420   4.618   0.607   4.873 -2.2687  1.3148 -0.2895
 3321SOL     OW21421   0.545   4.536  16.901  0.2724  0.2054  0.2394
 3321SOL    HW121422   0.527   4.443  16.911 -2.0816  0.4820 -1.7310
 3321SOL    HW221423   0.485   4.557  16.830  0.0434  0.6229  0.5559
 3322SOL     OW21424   1.206   3.666  16.146 -0.1413  0.2767  0.1818
 3322SOL    HW121425   1.195   3.581  16.105  2.2653 -0.3325  0.8217
 3322SOL    HW221426   1.256   3.652  16.227 -2.1561  0.9282  1.5232
 3323SOL     OW21427   1.550   3.827   9.715  0.0261  0.8713 -0.1022
 3323SOL    HW121428   1.486   3.775   9.763  1.9297  0.1057  1.5939
 3323SOL    HW221429   1.610   3.833   9.789  0.8861  0.9649 -0.8114
 3324SOL     OW21430   1.096   2.593   7.224  0.6358  0.4287 -0.2769
 3324SOL    HW121431   1.189   2.585   7.204  0.9636 -0.0780  1.4905
 3324SOL    HW221432   1.093   2.585   7.319  3.1061 -2.2951 -0.4191
 3325SOL     OW21433   1.321   3.887   4.694 -0.1247  0.4481  0.3065
 3325SOL    HW121434   1.331   3.823   4.765 -0.9299  0.4005  0.3835
 3325SOL    HW221435   1.255   3.847   4.636  2.0305 -0.5584 -1.4341
 3326SOL     OW21436   3.605   4.688   2.902  0.2239  0.6918  0.6264
 3326SOL    HW121437   3.524   4.636   2.893  0.5791  0.5607 -1.7920
 3326SOL    HW221438   3.653   4.649   2.975  0.6989 -2.4505 -1.3604
 3327SOL     OW21439   4.555   0.356   0.671 -0.8659 -0.3895 -0.1835
 3327SOL    HW121440   4.580   0.417   0.601  3.1109  1.3434  2.7293
 3327SOL    HW221441   4.464   0.382   0.686 -0.4764 -0.7862  2.8211
 3328SOL     OW21442   3.820   0.401   2.111 -0.4372  0.5740  0.4324
 3328SOL    HW121443   3.737   0.355   2.120 -0.6489  0.8300 -0.2212
 3328SOL    HW221444   3.797   0.478   2.163 -0.8762 -0.6018  1.9683
 3329SOL     OW21445   1.880   0.823  15.563  0.6363  0.5444  0.3889
 3329SOL    HW121446   1.902   0.730  15.560  2.3336  0.9020  1.4172
 3329SOL    HW221447   1.927   0.857  15.487  1.0569  0.1094  0.4524
 3330SOL     OW21448   1.099   3.274  12.181 -0.1684  0.3936  0.2847
 3330SOL    HW121449   1.106   3.269  12.276  0.8655  0.8586  0.2369
 3330SOL    HW221450   1.190   3.260  12.155  0.1494  0.7313  1.2190
 3331SOL     OW21451   1.225   0.051   0.692 -0.5169  0.1301 -0.2143
 3331SOL    HW121452   1.145   0.038   0.744 -1.8603 -0.3987 -2.3865
 3331SOL    HW221453   1.200   4.726   0.615 -0.0373  0.1217 -0.3616
 3332SOL     OW21454   0.202   2.523   2.307  0.0344 -0.0942  0.1933
 3332SOL    HW121455   0.268   2.590   2.288 -0.9564  1.2793  1.5841
 3332SOL    HW221456   0.244   2.446   2.270 -0.6635  0.7513 -2.3049
 3333SOL     OW21457   4.144   0.961  16.253 -0.2213 -0.6870 -0.1949
 3333SOL    HW121458   4.109   0.983  16.339 -0.7942  0.9009 -0.8518
 3333SOL    HW221459   4.199   1.036  16.233  0.6882 -1.2858  0.0327
 3334SOL     OW21460   1.479   4.072   2.967  0.0644 -0.1062 -0.0499
 3334SOL    HW121461   1.498   4.115   3.050  0.4284  1.6146 -1.0285
 3334SOL    HW221462   1.536   3.995   2.971  1.0967  0.7342  1.8013
 3335SOL     OW21463   4.264   2.396   0.925  0.2651  0.3897 -0.2445
 3335SOL    HW121464   4.357   2.376   0.928  0.6345  2.3883  1.6287
 3335SOL    HW221465   4.222   2.329   0.978 -1.2685 -0.7389 -2.8682
 3336SOL     OW21466   4.649   4.010   1.303  0.0989  0.2059  0.3115
 3336SOL    HW121467   0.011   3.983   1.329 -0.6226 -1.3494  1.1104
 3336SOL    HW221468   4.595   3.942   1.343 -1.6683 -0.8020 -3.7902
 3337SOL     OW21469   0.657   0.810   3.776  0.4191  0.1900 -0.0333
 3337SOL    HW121470   0.571   0.826   3.813  1.8138  1.5824  2.6308
 3337SOL    HW221471   0.682   0.736   3.831 -0.2133  0.3002  0.4000
 3338SOL     OW21472   3.615   1.139  15.169 -0.2390  0.0159  0.0064
 3338SOL    HW121473   3.681   1.205  15.149  0.2353 -0.7949 -1.0845
 3338SOL    HW221474   3.608   1.123  15.263  1.1584 -0.6211  0.0021
 3339SOL     OW21475   0.053   4.086   4.987 -0.0720 -0.1388 -0.4103
 3339SOL    HW121476   0.146   4.107   4.979 -0.7384  2.9119 -0.0419
 3339SOL    HW221477   0.058   3.993   4.965  0.0802 -0.1851 -0.1779
 3340SOL     OW21478   2.227   0.553   6.444 -0.3087  0.2025 -0.5123
 3340SOL    HW121479   2.204   0.461   6.428 -1.9762  0.8349 -1.8033
 3340SOL    HW221480   2.257   0.574   6.356 -0.9502 -0.8353 -0.9797
 3341SOL     OW21481   2.965   0.863   4.853 -0.5377  0.0468  0.1681
 3341SOL    HW121482   2.966   0.933   4.918 -2.4736  1.0252 -0.8599
 3341SOL    HW221483   3.038   0.893   4.800  0.8744 -1.4086  1.2611
 3342SOL     OW21484   1.171   3.276   2.932  0.2762  0.0011 -0.7264
 3342SOL    HW121485   1.182   3.188   2.966 -1.1749 -0.1405 -0.5968
 3342SOL    HW221486   1.241   3.334   2.962 -1.1405  1.1247  0.3804
 3343SOL     OW21487   3.083   1.276   4.808  0.2109 -0.1421  0.0726
 3343SOL    HW121488   3.110   1.356   4.763 -0.9203  0.1573 -0.0885
 3343SOL    HW221489   3.163   1.254   4.855  0.4275  1.1882  0.3318
 3344SOL     OW21490   4.192   1.829  16.218 -0.1684  0.0203  0.0815
 3344SOL    HW121491   4.142   1.875  16.151  1.4598  0.8107 -0.6080
 3344SOL    HW221492   4.273   1.881  16.221  0.0271 -0.2693 -0.1796
 3345SOL     OW21493   0.187   0.866   6.052 -0.0868  0.3590 -0.2946
 3345SOL    HW121494   0.106   0.898   6.013 -0.8357  1.5401  2.2661
 3345SOL    HW221495   0.260   0.896   5.997 -1.2501 -1.1162 -2.6629
 3346SOL     OW21496   4.676   1.221   6.993  0.1058  0.1053 -0.1096
 3346SOL    HW121497   4.591   1.243   7.030  0.5420  1.1206  0.2850
 3346SOL    HW221498   4.715   1.159   7.054 -0.1068 -1.0732 -1.1680
 3347SOL     OW21499   0.160   2.562   1.067 -0.2923  0.2950  0.0111
 3347SOL    HW121500   0.245   2.531   1.100 -0.8373 -0.9235  0.2451
 3347SOL    HW221501   0.173   2.657   1.074  0.2494  0.1697  0.7077
 3348SOL     OW21502   4.081   3.738  14.893  0.6242  0.1050 -0.3509
 3348SOL    HW121503   4.026   3.665  14.862 -0.0123  0.6301 -0.4404
 3348SOL    HW221504   4.130   3.692  14.961  2.7225  1.4964 -0.9264
 3349SOL     OW21505   2.505   3.600  17.416  0.5307  0.7016  0.5404
 3349SOL    HW121506   2.591   3.559  17.419 -0.1090 -0.8113 -2.9226
 3349SOL    HW221507   2.515   3.652  17.497  2.2404  1.1618  0.0253
 3350SOL     OW21508   3.576   4.040  12.552 -0.9835  0.0903 -0.0605
 3350SOL    HW121509   3.627   3.995  12.485 -0.5794 -0.2177  0.4566
 3350SOL    HW221510   3.501   3.981  12.560 -1.2705  0.3618 -0.7231
 3351SOL     OW21511   0.025   3.237   8.356 -0.4405 -0.5017  0.0289
 3351SOL    HW121512   4.669   3.216   8.311 -1.6976 -0.9061  2.5071
 3351SOL    HW221513   0.091   3.174   8.328 -0.9453 -2.1039  2.4567
 3352SOL     OW21514   4.391   0.968   3.845  0.3521 -0.0012  0.2776
 3352SOL    HW121515   4.306   0.936   3.876 -0.9198  1.2058 -1.9835
 3352SOL    HW221516   4.431   0.885   3.821  2.9627  1.6824 -1.2133
 3353SOL     OW21517   4.507   1.692   3.293  0.2182 -0.5919  0.6658
 3353SOL    HW121518   4.535   1.736   3.373  0.4684  0.4836 -0.0215
 3353SOL    HW221519   4.436   1.638   3.327 -0.7279 -0.3181 -0.8866
 3354SOL     OW21520   3.341   1.041   6.400 -1.3242  0.5485 -0.0783
 3354SOL    HW121521   3.286   1.015   6.326  0.7512 -3.2082 -0.2870
 3354SOL    HW221522   3.344   1.136   6.383 -1.8396  0.4404 -0.7920
 3355SOL     OW21523   0.436   0.803   9.376  0.0035 -0.0789  0.2815
 3355SOL    HW121524   0.372   0.866   9.411  0.8624  0.1150  1.4931
 3355SOL    HW221525   0.391   0.783   9.294 -0.3346 -3.9796  1.4065
 3356SOL     OW21526   2.208   0.642  15.218 -0.6046  0.2513 -0.3523
 3356SOL    HW121527   2.132   0.609  15.268 -0.4445 -1.2611 -1.0933
 3356SOL    HW221528   2.170   0.689  15.144 -1.6011 -1.7818 -1.1583
 3357SOL     OW21529   1.859   0.672   7.290 -0.2494  0.6169  0.5802
 3357SOL    HW121530   1.917   0.654   7.365 -0.4873  3.5210  1.4625
 3357SOL    HW221531   1.868   0.585   7.251  0.4526  1.8301 -1.9205
 3358SOL     OW21532   0.900   0.775   9.213 -0.2095 -0.2240  0.2505
 3358SOL    HW121533   0.846   0.719   9.268 -0.2086 -0.3265  0.1486
 3358SOL    HW221534   0.967   0.800   9.276  2.7532 -2.6149 -1.9314
 3359SOL     OW21535   1.399   3.795   5.512  0.0116  0.0402 -0.8699
 3359SOL    HW121536   1.433   3.850   5.442  1.9216 -2.5379 -1.9354
 3359SOL    HW221537   1.478   3.761   5.554  0.2774 -0.2599 -1.6297
 3360SOL     OW21538   3.889   2.082   6.660  0.4414  0.6621  0.1668
 3360SOL    HW121539   3.832   2.126   6.597 -0.2094 -2.3522 -1.3538
 3360SOL    HW221540   3.975   2.125   6.658  1.5120 -1.7221 -3.6127
 3361SOL     OW21541   4.490   0.129   4.082 -0.4497  0.4472  1.0361
 3361SOL    HW121542   4.505   0.036   4.098  0.2722  0.2710 -0.6503
 3361SOL    HW221543   4.561   0.166   4.133 -0.9869  1.3562  1.1190
 3362SOL     OW21544   4.525   1.233   3.794  0.0673 -0.2528 -0.2008
 3362SOL    HW121545   4.464   1.249   3.721  1.0977 -1.3324 -1.3004
 3362SOL    HW221546   4.517   1.138   3.797  2.1566 -0.4330 -0.3901
 3363SOL     OW21547   4.502   0.897  11.408 -0.4108  0.5101  0.0846
 3363SOL    HW121548   4.421   0.853  11.382 -0.5818  0.5687  0.5155
 3363SOL    HW221549   4.501   0.982  11.365 -2.5207 -0.1797 -1.2129
 3364SOL     OW21550   2.756   0.756   8.779  0.2143 -0.0786  0.5185
 3364SOL    HW121551   2.767   0.770   8.873  1.5457 -0.6701  0.4426
 3364SOL    HW221552   2.775   0.842   8.742 -2.1629  0.3692  0.3155
 3365SOL     OW21553   3.111   2.566  13.069 -0.3980 -0.1874  0.3400
 3365SOL    HW121554   3.057   2.579  13.147 -1.2211  0.1878 -0.3013
 3365SOL    HW221555   3.088   2.474  13.057  1.2721 -0.4710 -0.6653
 3366SOL     OW21556   2.238   4.058   3.668 -0.3295 -0.3822  0.2119
 3366SOL    HW121557   2.191   3.980   3.697 -1.0017 -0.0511  0.0102
 3366SOL    HW221558   2.325   4.020   3.658 -0.1584  0.8871 -3.1854
 3367SOL     OW21559   1.291   2.401   7.900  0.7379 -0.2232 -0.4671
 3367SOL    HW121560   1.297   2.493   7.874 -2.0629  0.2399  0.5056
 3367SOL    HW221561   1.294   2.363   7.813 -1.6458  0.1296 -0.7111
 3368SOL     OW21562   4.127   1.991   4.751  0.4313  0.3020 -0.2616
 3368SOL    HW121563   4.148   2.061   4.689 -3.6953  1.3774 -0.4158
 3368SOL    HW221564   4.154   2.036   4.831 -0.1448  0.2934 -0.0671
 3369SOL     OW21565   3.798   1.871   3.737 -0.3240 -0.0031 -0.3098
 3369SOL    HW121566   3.762   1.948   3.692  0.2773  0.7785  0.5414
 3369SOL    HW221567   3.834   1.911   3.816 -1.7993 -1.5947  1.1686
 3370SOL     OW21568   2.418   4.250   0.970 -0.0174 -0.2941 -0.2553
 3370SOL    HW121569   2.413   4.346   0.967  1.8569 -0.1259  1.8652
 3370SOL    HW221570   2.341   4.229   1.023 -0.7152  1.1534 -0.6887
 3371SOL     OW21571   0.909   3.954   4.610 -0.6085 -0.4484 -0.5430
 3371SOL    HW121572   0.916   4.040   4.652  0.3014  0.6743 -2.9769
 3371SOL    HW221573   0.832   3.965   4.554  0.9739  1.4354 -2.3166
 3372SOL     OW21574   2.992   0.412   8.523 -0.2345 -0.0468  0.3093
 3372SOL    HW121575   2.927   0.456   8.577 -0.8135  0.4130 -0.7576
 3372SOL    HW221576   3.077   0.437   8.558  0.2640 -0.9787 -0.2186
 3373SOL     OW21577   0.615   0.878  11.245  0.2484  0.4253 -0.1078
 3373SOL    HW121578   0.665   0.890  11.164 -0.4651 -0.7450 -0.7108
 3373SOL    HW221579   0.603   0.967  11.280  1.7988  1.0614 -1.1859
 3374SOL     OW21580   0.638   1.413   4.715  0.2902 -0.9546  0.4406
 3374SOL    HW121581   0.629   1.359   4.637  0.1172  2.1195 -1.6606
 3374SOL    HW221582   0.607   1.351   4.781 -0.6849  2.9984  3.6804
 3375SOL     OW21583   0.783   2.857  14.258 -0.3570 -0.2670 -0.4387
 3375SOL    HW121584   0.689   2.862  14.239 -0.4933 -0.1351  0.2839
 3375SOL    HW221585   0.808   2.779  14.208 -0.5371 -1.2231  0.9744
 3376SOL     OW21586   1.042   2.943   5.282 -0.9437  0.7483 -0.1736
 3376SOL    HW121587   1.017   3.007   5.348  2.5797  1.7577  0.1372
 3376SOL    HW221588   1.090   2.994   5.216  0.0744  0.2523  0.1868
 3377SOL     OW21589   1.639   2.874   3.881 -0.0518  0.1808 -0.2060
 3377SOL    HW121590   1.665   2.957   3.840  0.2981  1.0427  1.7339
 3377SOL    HW221591   1.559   2.864   3.829  0.0611  0.1234 -0.3688
 3378SOL     OW21592   1.009   3.615   6.136 -0.2367 -0.2183  0.8621
 3378SOL    HW121593   1.024   3.702   6.099 -0.9323 -1.5770 -2.6370
 3378SOL    HW221594   0.959   3.567   6.069  2.8507 -3.6165  1.0230
 3379SOL     OW21595   4.248   3.692  17.444 -0.0580  0.2793 -0.5089
 3379SOL    HW121596   4.196   3.772  17.452 -0.1781  0.1165  0.3838
 3379SOL    HW221597   4.326   3.719  17.394 -0.2502  3.2713  0.7763
 3380SOL     OW21598   3.143   2.766   3.267  0.8017 -0.0685  0.0596
 3380SOL    HW121599   3.094   2.688   3.294 -0.1148 -0.1671 -1.8843
 3380SOL    HW221600   3.215   2.737   3.211  0.7348  1.6156 -0.9183
 3381SOL     OW21601   2.642   3.293  14.592 -0.0639 -0.2014 -0.7576
 3381SOL    HW121602   2.644   3.235  14.516  0.8522 -0.3595 -0.6113
 3381SOL    HW221603   2.599   3.371  14.556  0.5736  0.4889 -0.0120
 3382SOL     OW21604   1.793   0.629   9.425 -0.7746  0.5693  0.4119
 3382SOL    HW121605   1.784   0.720   9.454 -0.4641  1.6158 -2.7634
 3382SOL    HW221606   1.701   0.609   9.405 -0.2423 -0.1343 -1.3584
 3383SOL     OW21607   4.634   4.204  10.728 -0.4911 -0.4510  0.4127
 3383SOL    HW121608   4.666   4.281  10.682 -0.6538 -1.4548 -1.3611
 3383SOL    HW221609   4.612   4.157  10.648 -1.6930  0.2751  0.3105
 3384SOL     OW21610   0.813   4.254   6.436  0.3293 -0.2487 -0.3062
 3384SOL    HW121611   0.856   4.331   6.398  0.5647  0.5469  1.5912
 3384SOL    HW221612   0.819   4.267   6.531  1.5649  0.0607 -0.4330
 3385SOL     OW21613   2.244   1.890  11.238  0.1707 -0.2819  0.4219
 3385SOL    HW121614   2.288   1.806  11.221  1.9121  0.0873  3.1030
 3385SOL    HW221615   2.323   1.943  11.226 -1.1173  0.8582 -3.0441
 3386SOL     OW21616   1.501   3.958   0.759  0.1278 -0.0625  0.0206
 3386SOL    HW121617   1.421   3.981   0.713 -0.0942 -0.5178  0.1830
 3386SOL    HW221618   1.508   4.040   0.809  1.2429 -0.9232  1.2815
 3387SOL     OW21619   1.044   0.801   8.872  0.4861 -0.8337 -0.3734
 3387SOL    HW121620   0.984   0.727   8.867  0.5658 -0.8497 -1.1030
 3387SOL    HW221621   1.082   0.782   8.958  0.6999  0.4460 -0.1850
 3388SOL     OW21622   1.966   1.132  16.937 -0.0202  0.1946 -0.0041
 3388SOL    HW121623   1.920   1.089  16.865 -2.8988  1.9373  0.8056
 3388SOL    HW221624   2.051   1.161  16.906  0.5825  0.1067  1.5232
 3389SOL     OW21625   4.716   3.735   5.249 -1.3155  0.7793 -0.4084
 3389SOL    HW121626   0.030   3.766   5.167 -1.3285  0.5365 -0.5065
 3389SOL    HW221627   4.633   3.783   5.245 -1.6548  0.1885 -0.4260
 3390SOL     OW21628   4.504   4.688   2.382 -0.2334 -0.1861  0.2425
 3390SOL    HW121629   4.556   4.721   2.309 -1.3042  1.9367  0.4493
 3390SOL    HW221630   4.578   4.684   2.442 -0.6050  1.7828  0.8294
 3391SOL     OW21631   3.447   3.481   0.445 -0.2693 -0.2873  0.3882
 3391SOL    HW121632   3.392   3.415   0.487 -0.2062 -1.1973 -0.9307
 3391SOL    HW221633   3.393   3.524   0.379  0.6947  1.8159  0.9706
 3392SOL     OW21634   3.162   2.337   7.549  0.1478 -0.5209  0.3708
 3392SOL    HW121635   3.133   2.246   7.547 -1.6919  0.0346  2.2767
 3392SOL    HW221636   3.249   2.328   7.509 -0.0674  1.5379 -0.6067
 3393SOL     OW21637   1.646   0.833   4.078 -0.0362  0.4481 -0.0882
 3393SOL    HW121638   1.655   0.811   3.985  0.0546  0.2323 -0.0287
 3393SOL    HW221639   1.633   0.927   4.068 -1.3536  0.1831 -0.8995
 3394SOL     OW21640   1.986   1.124   6.664  0.0589 -0.9949  0.0169
 3394SOL    HW121641   1.931   1.107   6.588 -0.7229 -0.4487  0.4583
 3394SOL    HW221642   2.071   1.093   6.632  0.7791 -1.5567  2.5028
 3395SOL     OW21643   1.376   2.135  13.691  0.0560  0.7287 -0.9936
 3395SOL    HW121644   1.395   2.223  13.658  0.9895  0.2003 -1.8760
 3395SOL    HW221645   1.287   2.143  13.723  0.4678  0.4725  0.2368
 3396SOL     OW21646   1.089   1.690   7.296 -0.2709 -0.6251  0.0393
 3396SOL    HW121647   1.000   1.660   7.278 -0.9926  0.5620  1.6267
 3396SOL    HW221648   1.085   1.786   7.297 -1.7525 -0.7045  1.6240
 3397SOL     OW21649   1.745   1.469   9.462  0.1006  0.4643  0.2317
 3397SOL    HW121650   1.840   1.474   9.451  0.5200 -3.3030  2.1184
 3397SOL    HW221651   1.709   1.484   9.374  0.1919 -0.3961  0.0382
 3398SOL     OW21652   2.717   3.729   7.698 -0.0721 -0.4599 -0.3829
 3398SOL    HW121653   2.711   3.717   7.603  1.7564  0.5109 -0.6286
 3398SOL    HW221654   2.807   3.701   7.714 -0.0677  1.3176  2.7499
 3399SOL     OW21655   1.671   4.710   8.081 -0.6604  0.2234  0.3698
 3399SOL    HW121656   1.721   0.057   8.118 -0.4660  0.4216 -0.2816
 3399SOL    HW221657   1.636   4.689   8.167  1.8885 -0.9472  1.1255
 3400SOL     OW21658   0.243   2.371   0.720 -0.2324 -0.1449 -0.1101
 3400SOL    HW121659   0.156   2.380   0.760  0.2688 -1.6186  1.3450
 3400SOL    HW221660   0.247   2.443   0.657 -2.1252  0.3010  0.2564
 3401SOL     OW21661   0.109   1.059   4.043  0.2283 -0.1227  0.3047
 3401SOL    HW121662   0.124   0.965   4.054  0.7808 -0.2225 -1.3027
 3401SOL    HW221663   0.170   1.087   3.975 -0.2743 -1.1734 -0.5839
 3402SOL     OW21664   1.677   3.304   2.363  0.9001 -0.2914 -0.7874
 3402SOL    HW121665   1.741   3.233   2.357  1.4922  0.3750 -2.1946
 3402SOL    HW221666   1.604   3.254   2.326 -0.0880  0.1643  0.5293
 3403SOL     OW21667   2.426   3.035   0.123 -0.2058  0.0346  0.6502
 3403SOL    HW121668   2.362   3.045   0.193 -1.2859  2.6529 -0.7316
 3403SOL    HW221669   2.496   3.094   0.154  1.3306 -1.5586  0.2145
 3404SOL     OW21670   3.421   3.020  17.079 -0.2623 -0.3323  0.0731
 3404SOL    HW121671   3.430   3.114  17.097 -0.0362 -0.2825 -0.2812
 3404SOL    HW221672   3.403   3.017  16.985 -2.0679 -0.4562  0.4298
 3405SOL     OW21673   3.850   1.015   7.150 -0.0220 -0.7689  0.2177
 3405SOL    HW121674   3.846   1.104   7.183 -0.0497  0.1009 -2.0875
 3405SOL    HW221675   3.898   0.967   7.216  0.1881 -0.5554  0.2185
 3406SOL     OW21676   1.516   4.179   3.218 -0.1386  0.8785 -0.2748
 3406SOL    HW121677   1.521   4.268   3.254  0.1117  1.0727 -0.7780
 3406SOL    HW221678   1.445   4.144   3.271  2.9704 -2.3062  1.7961
 3407SOL     OW21679   3.574   4.585   5.516  0.4339  0.4862 -0.7815
 3407SOL    HW121680   3.656   4.635   5.510 -0.3190  1.8136 -0.1184
 3407SOL    HW221681   3.528   4.627   5.444  0.3221 -1.8929 -2.0722
 3408SOL     OW21682   2.852   1.899   5.391  0.8640  0.4381  0.5639
 3408SOL    HW121683   2.861   1.804   5.378  0.0549  0.3586  0.6021
 3408SOL    HW221684   2.794   1.888   5.467 -0.5979 -1.4288 -0.8337
 3409SOL     OW21685   4.412   1.969   7.557 -0.0068 -0.1624  0.5492
 3409SOL    HW121686   4.356   2.034   7.599 -0.4838  0.7524 -1.5186
 3409SOL    HW221687   4.475   2.026   7.513 -0.5245 -0.0842 -0.0759
 3410SOL     OW21688   4.303   4.211  11.805 -0.1737 -0.0494  0.2936
 3410SOL    HW121689   4.345   4.264  11.737 -1.2469  0.7926  0.3049
 3410SOL    HW221690   4.371   4.199  11.871  0.9358  2.1940 -0.4485
 3411SOL     OW21691   3.437   1.685   2.438 -0.4352 -0.7143 -0.2495
 3411SOL    HW121692   3.360   1.635   2.407  0.1990 -2.8581  1.6401
 3411SOL    HW221693   3.441   1.665   2.531  2.1884 -0.0115 -0.2156
 3412SOL     OW21694   4.665   0.393  16.174  0.5043  0.2829 -0.3215
 3412SOL    HW121695   4.675   0.299  16.158  0.8769  0.7369 -2.6998
 3412SOL    HW221696   4.665   0.382  16.270 -1.9236 -1.9733 -0.5814
 3413SOL     OW21697   1.980   0.929   2.700 -0.5889  0.1621  0.1919
 3413SOL    HW121698   1.919   0.860   2.673  0.3580 -0.2042 -1.0027
 3413SOL    HW221699   1.922   0.994   2.739  0.6253  0.6687  1.1470
 3414SOL     OW21700   2.432   1.849   2.936  0.1290 -0.0790  0.3848
 3414SOL    HW121701   2.412   1.940   2.956  1.7848  0.7923 -2.0276
 3414SOL    HW221702   2.351   1.825   2.890 -0.1605  0.0521  0.8203
 3415SOL     OW21703   0.889   2.153   5.781 -0.1934  0.2095 -0.5375
 3415SOL    HW121704   0.973   2.154   5.735 -0.9899 -0.8441 -2.0046
 3415SOL    HW221705   0.841   2.088   5.729  0.8809 -0.3558 -0.8162
 3416SOL     OW21706   0.805   0.855   6.825  0.2941 -0.2362  0.1939
 3416SOL    HW121707   0.717   0.888   6.845  0.2187  1.2802 -2.5821
 3416SOL    HW221708   0.861   0.918   6.870  1.4110  0.1230 -1.6916
 3417SOL     OW21709   1.569   3.131  11.885 -0.5395  0.1907 -0.3585
 3417SOL    HW121710   1.574   3.217  11.844 -1.1524 -0.1989 -1.2544
 3417SOL    HW221711   1.527   3.072  11.822  1.8109 -0.8027 -0.9845
 3418SOL     OW21712   2.608   0.974   5.301 -0.0120  0.1384  0.0243
 3418SOL    HW121713   2.636   0.931   5.221  1.3843  0.7533  0.1717
 3418SOL    HW221714   2.690   1.004   5.339 -1.2538 -0.0855  2.8889
 3419SOL     OW21715   0.528   2.838   8.863 -0.3092 -0.6082  0.2346
 3419SOL    HW121716   0.610   2.790   8.873 -1.3008 -1.9793  1.7868
 3419SOL    HW221717   0.467   2.779   8.818 -1.8282 -0.5846  2.2980
 3420SOL     OW21718   2.198   2.696   6.160 -0.4016 -0.3548 -0.6591
 3420SOL    HW121719   2.207   2.683   6.254  0.0537 -1.3066 -0.8297
 3420SOL    HW221720   2.162   2.784   6.167 -2.2131 -1.2469  1.3637
 3421SOL     OW21721   1.660   2.482  13.969 -0.0730 -0.0542  0.4126
 3421SOL    HW121722   1.594   2.530  14.019  1.6518  1.5499  1.1255
 3421SOL    HW221723   1.632   2.390  13.971  0.9582 -0.3465  1.3608
 3422SOL     OW21724   1.662   4.496   5.434 -0.8415  0.5667 -0.5740
 3422SOL    HW121725   1.635   4.552   5.506 -0.2782  0.6967 -0.4693
 3422SOL    HW221726   1.644   4.557   5.362  0.2526  1.4960 -0.0469
 3423SOL     OW21727   1.067   1.137   4.433 -0.6179 -0.1518  0.6358
 3423SOL    HW121728   1.093   1.204   4.370 -0.3715 -0.9045 -0.0648
 3423SOL    HW221729   1.151   1.100   4.462  0.5855  2.0191 -0.0669
 3424SOL     OW21730   2.928   2.008  12.220  0.2259  0.1537 -0.3265
 3424SOL    HW121731   2.837   1.998  12.248  0.6669 -0.6874  0.8180
 3424SOL    HW221732   2.978   1.936  12.258 -1.0166 -0.7630 -0.4153
 3425SOL     OW21733   3.693   3.213   5.843  0.0014  0.1832 -0.0465
 3425SOL    HW121734   3.729   3.221   5.754  1.4035 -1.5232  0.3778
 3425SOL    HW221735   3.603   3.188   5.821 -0.0568 -0.5102  0.9988
 3426SOL     OW21736   3.523   0.263   2.988  0.2352  0.0219  0.0938
 3426SOL    HW121737   3.438   0.227   3.015 -0.7034  1.6368 -0.7174
 3426SOL    HW221738   3.506   0.333   2.926  0.0816 -2.6348 -2.8498
 3427SOL     OW21739   2.661   1.593  16.328  0.0890  0.0920  0.5288
 3427SOL    HW121740   2.717   1.521  16.355  1.8276  1.4010  0.3964
 3427SOL    HW221741   2.672   1.578  16.234 -0.6117  1.4183  0.2275
 3428SOL     OW21742   2.350   0.673   7.909  0.3811  0.3403 -0.0542
 3428SOL    HW121743   2.321   0.741   7.848 -1.9874 -0.9189 -0.3371
 3428SOL    HW221744   2.439   0.702   7.924  0.7664  0.6346 -2.7795
 3429SOL     OW21745   2.985   0.306   5.029  0.0962 -0.0982  0.1898
 3429SOL    HW121746   2.984   0.333   4.937 -0.3616 -0.3998  0.1021
 3429SOL    HW221747   3.025   0.381   5.073  0.9543  0.4184 -1.4537
 3430SOL     OW21748   0.154   0.137   7.596  0.1320  0.8016  0.0573
 3430SOL    HW121749   0.187   0.226   7.596 -0.8349  1.1566 -0.7371
 3430SOL    HW221750   0.131   0.121   7.688 -0.3536 -0.3093 -0.2553
 3431SOL     OW21751   1.444   2.204   7.758 -0.1017 -0.0814 -0.0958
 3431SOL    HW121752   1.504   2.276   7.737  0.2918 -0.8263 -1.5115
 3431SOL    HW221753   1.506   2.139   7.725 -1.1829 -1.0265 -0.2472
 3432SOL     OW21754   4.200   1.429   3.779  0.2871 -0.0935 -0.1439
 3432SOL    HW121755   4.268   1.409   3.714 -0.2354 -2.1480 -0.0497
 3432SOL    HW221756   4.158   1.507   3.744  1.0558 -0.0133 -0.8977
 3433SOL     OW21757   0.054   4.508   3.700 -0.2544 -0.0955  0.4275
 3433SOL    HW121758   0.112   4.463   3.640 -0.5295  0.8453 -0.5372
 3433SOL    HW221759   4.702   4.522   3.646  1.2133  0.6163 -1.4976
 3434SOL     OW21760   0.889   3.997   5.577  0.5739 -0.3523  0.3453
 3434SOL    HW121761   0.841   3.914   5.579 -1.7855  0.9796 -0.2929
 3434SOL    HW221762   0.977   3.973   5.605  0.8308 -0.2582 -0.3782
 3435SOL     OW21763   4.579   0.412   3.302 -0.5261 -0.9673  0.2933
 3435SOL    HW121764   4.550   0.321   3.310 -3.0919 -0.2179 -0.4931
 3435SOL    HW221765   4.502   0.454   3.340  1.9475  1.0573  2.9753
 3436SOL     OW21766   3.997   3.311   0.222 -0.6139  0.2334 -0.1067
 3436SOL    HW121767   4.036   3.352   0.299 -4.2150  0.9046  1.3342
 3436SOL    HW221768   3.997   3.382   0.159 -1.0033 -0.7695 -1.2413
 3437SOL     OW21769   1.600   2.239  10.412  0.1273  0.2471  0.0837
 3437SOL    HW121770   1.679   2.294  10.407 -1.2013  2.0344 -1.0040
 3437SOL    HW221771   1.526   2.297  10.397  1.7404  2.1171 -0.6609
 3438SOL     OW21772   3.361   1.268   4.888 -0.0694 -0.1832 -0.0099
 3438SOL    HW121773   3.362   1.348   4.836 -1.3994 -1.0512 -1.3928
 3438SOL    HW221774   3.444   1.227   4.864  1.0262 -0.6322  4.6350
 3439SOL     OW21775   0.751   1.716   2.519 -0.1553  0.0996  0.1136
 3439SOL    HW121776   0.736   1.800   2.474 -1.6860 -0.0586  0.3224
 3439SOL    HW221777   0.683   1.737   2.584  2.0301  1.0294  2.0853
 3440SOL     OW21778   1.356   0.708   7.529 -0.0636 -0.1534 -0.3191
 3440SOL    HW121779   1.357   0.766   7.605 -2.5500 -1.5367  0.7759
 3440SOL    HW221780   1.287   0.747   7.475  0.4600  1.4265  0.1695
 3441SOL     OW21781   3.312   4.715   8.337 -0.5999  0.4400  0.6270
 3441SOL    HW121782   3.277   4.633   8.303  0.7609 -1.0007  2.7331
 3441SOL    HW221783   3.238   0.050   8.328  0.1518  1.3320  0.4591
 3442SOL     OW21784   2.270   3.475  16.829 -0.0867 -0.0710  0.3000
 3442SOL    HW121785   2.334   3.441  16.766 -0.2524  0.4541 -0.1515
 3442SOL    HW221786   2.320   3.548  16.864 -2.1786  1.9520 -0.9921
 3443SOL     OW21787   1.606   2.272   2.436  0.0486  0.2397  0.0286
 3443SOL    HW121788   1.632   2.210   2.369 -2.2293  0.2115 -0.8206
 3443SOL    HW221789   1.683   2.329   2.430  1.0372 -1.2609 -1.3205
 3444SOL     OW21790   0.244   3.413   2.781 -0.5326  0.2058  0.1873
 3444SOL    HW121791   0.338   3.430   2.790 -0.6598 -0.5020  2.8233
 3444SOL    HW221792   0.253   3.364   2.699  0.7662 -0.0285  0.4608
 3445SOL     OW21793   2.169   4.375  14.614  0.2924  0.2320 -0.8960
 3445SOL    HW121794   2.205   4.457  14.582  1.5522 -0.0594 -0.2097
 3445SOL    HW221795   2.104   4.352  14.547  0.7416 -1.4473 -0.7547
 3446SOL     OW21796   0.675   3.759   3.980 -0.2524  0.2416 -0.0697
 3446SOL    HW121797   0.620   3.684   4.002 -1.8823  1.1297 -1.1079
 3446SOL    HW221798   0.755   3.725   3.940  0.2547  0.0756  1.0813
 3447SOL     OW21799   1.301   0.634  13.706  0.0950  0.5116  0.3540
 3447SOL    HW121800   1.319   0.649  13.799 -1.3295 -0.4861  0.7825
 3447SOL    HW221801   1.323   0.541  13.700 -1.9323  0.1131 -0.7056
 3448SOL     OW21802   0.448   0.561   4.031 -0.4331  0.5286  0.3136
 3448SOL    HW121803   0.510   0.548   3.959  0.7312 -0.4866  1.4876
 3448SOL    HW221804   0.364   0.573   3.987 -0.8932 -0.8648  0.7966
 3449SOL     OW21805   2.185   0.237   5.296 -0.4068  0.0486 -0.1182
 3449SOL    HW121806   2.095   0.219   5.322  0.1837 -1.5438  0.8478
 3449SOL    HW221807   2.175   0.322   5.254  0.2979  2.0088  3.7280
 3450SOL     OW21808   3.540   4.283  12.229  0.6059 -0.2592 -0.0166
 3450SOL    HW121809   3.616   4.330  12.194 -0.0224  0.0692 -0.9349
 3450SOL    HW221810   3.474   4.296  12.160 -0.1377 -0.7821  0.6019
 3451SOL     OW21811   2.502   1.466  11.568  0.1515  0.1139  0.1023
 3451SOL    HW121812   2.492   1.562  11.567 -1.2277 -0.0206 -0.4007
 3451SOL    HW221813   2.476   1.444  11.478 -1.3389  0.1707  0.5135
 3452SOL     OW21814   3.546   1.687  10.901  0.6877  0.1685 -0.2662
 3452SOL    HW121815   3.553   1.757  10.836 -1.6618 -0.2272 -0.9120
 3452SOL    HW221816   3.515   1.609  10.855  0.4328 -0.7528  1.4633
 3453SOL     OW21817   4.224   2.604   1.918 -0.0610  0.2036 -0.4623
 3453SOL    HW121818   4.147   2.551   1.898 -0.7528  2.0643 -2.7275
 3453SOL    HW221819   4.198   2.628   2.006 -0.8665 -1.0758 -0.3547
 3454SOL     OW21820   3.852   3.243   7.254  0.3877 -0.2330  0.4361
 3454SOL    HW121821   3.909   3.291   7.194 -1.3100  1.0733 -0.1516
 3454SOL    HW221822   3.880   3.152   7.257  0.6216 -0.1584  0.5572
 3455SOL     OW21823   1.794   3.153   2.085 -0.1208  0.3609  0.3466
 3455SOL    HW121824   1.726   3.102   2.042  0.1248  0.9306 -0.7427
 3455SOL    HW221825   1.847   3.080   2.118  2.1265  0.6793 -2.4811
 3456SOL     OW21826   1.641   2.237   8.368 -0.2961  0.8944 -0.2914
 3456SOL    HW121827   1.571   2.176   8.347  1.0916 -0.5290 -0.7501
 3456SOL    HW221828   1.629   2.232   8.463 -0.1521 -1.0058 -0.3842
 3457SOL     OW21829   0.659   1.193   6.140  0.8150 -0.1568  0.2121
 3457SOL    HW121830   0.682   1.170   6.230  1.6241 -1.9253 -0.4460
 3457SOL    HW221831   0.578   1.144   6.132 -0.1715  1.2501  1.7031
 3458SOL     OW21832   2.217   0.323   3.051 -0.4012 -0.2601  0.5676
 3458SOL    HW121833   2.219   0.407   3.098  0.9615 -0.2894  0.5586
 3458SOL    HW221834   2.295   0.328   2.996 -0.3444  0.5347  0.7127
 3459SOL     OW21835   1.347   2.442   6.800  0.5765 -0.5006  0.3111
 3459SOL    HW121836   1.330   2.471   6.710  4.6519  0.6383 -0.1124
 3459SOL    HW221837   1.301   2.359   6.806 -1.4978  0.5748 -0.7621
 3460SOL     OW21838   2.402   3.003   6.251 -0.0989  0.4394  0.6456
 3460SOL    HW121839   2.377   3.085   6.292  1.6064 -0.2774  3.1882
 3460SOL    HW221840   2.314   2.982   6.222  0.6907 -0.3516 -1.1855
 3461SOL     OW21841   2.407   0.116   6.754 -0.1481  0.1298 -0.2314
 3461SOL    HW121842   2.409   0.082   6.843 -0.6404 -0.8646 -0.5961
 3461SOL    HW221843   2.465   0.191   6.764 -0.2258  0.3123 -1.1363
 3462SOL     OW21844   3.845   1.553   3.940 -0.2156  0.3634  0.2392
 3462SOL    HW121845   3.772   1.498   3.969  1.4120 -1.9800 -0.1349
 3462SOL    HW221846   3.828   1.637   3.982  0.3013  1.1391 -1.0857
 3463SOL     OW21847   0.103   2.206   9.593 -0.4120  0.0850 -0.0452
 3463SOL    HW121848   0.181   2.170   9.636  0.0351  1.2028  0.0745
 3463SOL    HW221849   0.074   2.132   9.539 -0.8041  0.5694 -0.4981
 3464SOL     OW21850   3.005   0.114   4.295 -0.0723 -0.3695  0.8097
 3464SOL    HW121851   3.014   0.136   4.202  1.1553 -3.4719  0.1657
 3464SOL    HW221852   2.914   0.135   4.312 -1.0192 -0.8638 -3.5381
 3465SOL     OW21853   2.772   1.661   4.007 -0.2091 -0.2186 -0.0473
 3465SOL    HW121854   2.855   1.628   3.972  1.1055  1.2001  1.7425
 3465SOL    HW221855   2.773   1.640   4.100  3.0968  1.6215  0.3146
 3466SOL     OW21856   1.540   3.673  10.122  0.2220  0.2625  0.0096
 3466SOL    HW121857   1.503   3.600  10.172 -0.6345 -0.0772 -1.1512
 3466SOL    HW221858   1.489   3.681  10.042 -1.5996  1.0593  1.2539
 3467SOL     OW21859   3.483   3.426   5.152 -0.7960 -0.1020  0.1432
 3467SOL    HW121860   3.516   3.355   5.096  1.1526  0.6230  0.3674
 3467SOL    HW221861   3.391   3.401   5.147 -0.0979 -2.6074 -0.3125
 3468SOL     OW21862   2.937   2.597   2.899 -0.2220  0.0396  0.0948
 3468SOL    HW121863   2.842   2.589   2.905 -0.2575 -0.3225 -0.8659
 3468SOL    HW221864   2.963   2.517   2.943 -1.1654 -1.0377 -1.3001
 3469SOL     OW21865   4.292   1.900  15.952  0.2255  0.0257  0.2171
 3469SOL    HW121866   4.361   1.865  16.008  2.2415  0.7360 -1.8736
 3469SOL    HW221867   4.341   1.901  15.870 -0.9534  0.3773 -0.4869
 3470SOL     OW21868   2.955   0.246   3.162  0.4728  0.1733 -0.4806
 3470SOL    HW121869   2.909   0.204   3.089 -3.2191  2.9044  0.2727
 3470SOL    HW221870   2.897   0.320   3.178 -0.0534  0.2684 -2.8191
 3471SOL     OW21871   1.748   2.446   9.315 -1.0295 -0.0575 -0.0016
 3471SOL    HW121872   1.773   2.437   9.407  2.5479  2.9915 -0.6870
 3471SOL    HW221873   1.720   2.537   9.319  2.5204  1.1354 -1.9564
 3472SOL     OW21874   1.608   0.546   4.555 -0.1813 -0.2425  0.1681
 3472SOL    HW121875   1.545   0.475   4.545  3.0444 -2.5631 -3.6833
 3472SOL    HW221876   1.555   0.623   4.534 -0.7032 -1.0204 -1.3409
 3473SOL     OW21877   2.215   0.388  14.932  0.0616 -0.1251 -0.1252
 3473SOL    HW121878   2.161   0.320  14.972 -2.3251  0.6322 -2.0649
 3473SOL    HW221879   2.205   0.365  14.840 -1.0532  0.4632 -0.1438
 3474SOL     OW21880   2.498   4.717  10.854  0.2360  0.2307 -0.0162
 3474SOL    HW121881   2.458   4.663  10.787  0.9651  0.6078 -0.7628
 3474SOL    HW221882   2.515   0.071  10.803 -0.7981  0.6705  0.3340
 3475SOL     OW21883   2.747   3.559  12.541  0.1051  0.3711  0.1004
 3475SOL    HW121884   2.813   3.545  12.610  0.9352  1.5194 -0.4733
 3475SOL    HW221885   2.800   3.588  12.467  1.6489  0.6714  1.3176
 3476SOL     OW21886   1.457   0.609   8.526 -0.3638 -0.1124 -0.4983
 3476SOL    HW121887   1.405   0.680   8.564 -1.1206 -0.6629 -0.5299
 3476SOL    HW221888   1.450   0.546   8.597  2.2506  0.6521  0.4420
 3477SOL     OW21889   1.089   0.494   0.866  0.3903  0.7430 -0.1823
 3477SOL    HW121890   1.100   0.588   0.881 -2.5309  1.0913 -0.2069
 3477SOL    HW221891   0.994   0.489   0.854  0.4616 -1.4468  0.2898
 3478SOL     OW21892   2.950   2.113   6.954 -0.0138 -0.0373  0.8109
 3478SOL    HW121893   2.879   2.065   6.996  0.3247 -2.0208 -0.8771
 3478SOL    HW221894   3.018   2.047   6.940  0.7907  1.0581 -0.3936
 3479SOL     OW21895   0.077   4.497  12.394  0.3424 -0.0407 -0.7699
 3479SOL    HW121896   0.071   4.472  12.486 -0.3727 -2.0530 -1.3607
 3479SOL    HW221897   0.012   4.437  12.356 -1.1593  0.6022  0.7921
 3480SOL     OW21898   0.435   1.436   7.620  0.0771  0.1289  0.6942
 3480SOL    HW121899   0.458   1.447   7.713  1.1792  1.4390  0.2705
 3480SOL    HW221900   0.518   1.471   7.586 -0.8314  0.8649 -0.7378
 3481SOL     OW21901   3.370   2.323   2.155 -0.0558  0.0003 -0.1221
 3481SOL    HW121902   3.411   2.335   2.241 -0.6516  1.0717  0.0107
 3481SOL    HW221903   3.396   2.240   2.117  2.1353 -0.0974  1.5850
 3482SOL     OW21904   3.934   0.675   0.988  0.0434 -0.4548 -0.1383
 3482SOL    HW121905   3.852   0.721   1.009 -0.5779 -1.1134 -1.1040
 3482SOL    HW221906   3.984   0.710   1.061 -0.0790  0.6491 -0.5834
 3483SOL     OW21907   2.555   1.413   7.194 -0.0286  0.3372 -0.2942
 3483SOL    HW121908   2.533   1.485   7.253  1.4299  0.5104  0.0570
 3483SOL    HW221909   2.474   1.399   7.145 -0.9177  1.0162  0.9742
 3484SOL     OW21910   3.541   1.758  10.385  0.5006 -0.1308  0.1863
 3484SOL    HW121911   3.462   1.805  10.410  0.8310  1.4755 -1.7804
 3484SOL    HW221912   3.544   1.699  10.460  0.1780 -2.2556 -1.4649
 3485SOL     OW21913   2.246   1.326   6.253  0.1933  0.0058 -0.1757
 3485SOL    HW121914   2.339   1.303   6.254 -0.0367 -0.8680  1.2586
 3485SOL    HW221915   2.204   1.243   6.275 -0.8105  0.3048 -0.9712
 3486SOL     OW21916   2.759   1.986   8.475  0.4187  0.4546 -0.4104
 3486SOL    HW121917   2.758   1.891   8.481 -1.1564  0.5758  1.1013
 3486SOL    HW221918   2.675   2.003   8.432 -0.6855  0.9650  1.9607
 3487SOL     OW21919   1.604   0.718  15.096  0.0782 -0.4210  0.3685
 3487SOL    HW121920   1.556   0.640  15.124 -0.9593 -0.4628 -1.5808
 3487SOL    HW221921   1.671   0.681  15.039  0.0507  1.9960 -1.2344
 3488SOL     OW21922   3.707   2.858  17.009 -0.3306 -0.1215 -0.1765
 3488SOL    HW121923   3.710   2.953  16.998 -1.9289 -0.0297  0.1943
 3488SOL    HW221924   3.789   2.821  16.976  0.9902  2.2253  0.4748
 3489SOL     OW21925   0.029   3.821   7.191  0.1099  0.0593  0.1951
 3489SOL    HW121926   4.668   3.832   7.152  1.6998 -0.6154 -3.5049
 3489SOL    HW221927   4.725   3.794   7.278  0.8802 -2.7109 -0.4073
 3490SOL     OW21928   0.019   0.948   5.631 -0.3009 -0.0436  0.7373
 3490SOL    HW121929   0.111   0.968   5.617 -0.6356 -1.2793 -3.2250
 3490SOL    HW221930   0.002   0.949   5.725 -1.1038  0.9299  0.5863
 3491SOL     OW21931   4.572   1.840   7.779 -0.1646 -0.1346  0.2585
 3491SOL    HW121932   4.505   1.844   7.711 -1.9796  0.3093  2.0832
 3491SOL    HW221933   4.628   1.915   7.758 -0.9169 -0.1833 -1.9113
 3492SOL     OW21934   2.699   2.858   5.575  0.3674 -0.2050 -0.6700
 3492SOL    HW121935   2.706   2.887   5.484 -0.9112 -0.9669 -1.0132
 3492SOL    HW221936   2.633   2.788   5.572 -0.1923  0.2282  1.1175
 3493SOL     OW21937   1.556   4.069   2.113  0.5094 -0.0092 -1.0877
 3493SOL    HW121938   1.475   4.020   2.128 -0.3263  1.4038 -0.9381
 3493SOL    HW221939   1.614   3.994   2.120  2.7671  1.6544 -1.9875
 3494SOL     OW21940   3.960   0.111   5.635  0.0044 -0.8228  0.4021
 3494SOL    HW121941   3.933   0.033   5.684  1.7391 -1.3781  0.4586
 3494SOL    HW221942   3.908   0.106   5.555  1.2710 -0.9153 -0.4155
 3495SOL     OW21943   0.746   2.763   7.974  0.3309 -0.4723 -0.1355
 3495SOL    HW121944   0.722   2.784   8.065  1.4970 -3.8937  0.9794
 3495SOL    HW221945   0.747   2.667   7.975 -3.5480 -0.5020 -0.6152
 3496SOL     OW21946   3.716   2.908   5.440 -0.0361 -0.2916 -0.2410
 3496SOL    HW121947   3.800   2.908   5.395 -1.0917  0.0963 -2.1889
 3496SOL    HW221948   3.687   2.998   5.426  1.7455  0.3584  0.3011
 3497SOL     OW21949   1.792   0.141   0.821 -0.4767 -0.1582 -0.0443
 3497SOL    HW121950   1.720   0.199   0.844 -1.0707 -1.4292  1.2629
 3497SOL    HW221951   1.754   0.060   0.855 -1.1739  0.4655  0.6280
 3498SOL     OW21952   2.925   0.992   5.123  0.1664  0.1039  0.3917
 3498SOL    HW121953   2.904   0.995   5.216 -1.5498 -1.4470  0.0490
 3498SOL    HW221954   2.999   1.052   5.127 -0.1711  0.4490  1.4092
 3499SOL     OW21955   3.886   2.171   9.040 -0.2530 -0.2278  0.1801
 3499SOL    HW121956   3.796   2.197   9.060 -0.6951 -2.4979  1.1242
 3499SOL    HW221957   3.885   2.076   9.050  3.1172 -0.6828 -3.5240
 3500SOL     OW21958   3.305   2.410   3.251  0.5746  0.1021 -0.6796
 3500SOL    HW121959   3.289   2.436   3.342 -2.6876  1.8971 -1.7559
 3500SOL    HW221960   3.232   2.351   3.231  0.1169  0.6081 -0.5160
 3501SOL     OW21961   3.755   4.172   7.970 -0.2208  1.7447 -0.2548
 3501SOL    HW121962   3.771   4.079   7.983 -0.3087  1.6474 -0.8030
 3501SOL    HW221963   3.714   4.192   8.054  1.5991 -2.0568  1.5047
 3502SOL     OW21964   3.214   0.970  11.775  0.0996 -0.0457  0.0708
 3502SOL    HW121965   3.138   0.929  11.817  0.4213 -1.4945 -0.7297
 3502SOL    HW221966   3.281   0.906  11.798 -0.8270 -1.3574 -0.8549
 3503SOL     OW21967   0.259   4.627   7.473  0.0857  0.1562  0.6332
 3503SOL    HW121968   0.311   4.667   7.403 -0.5704 -2.3961 -1.3469
 3503SOL    HW221969   0.247   4.699   7.535 -2.5741 -0.2288  0.5817
 3504SOL     OW21970   2.922   1.146   0.780  0.1982 -0.0751  0.5333
 3504SOL    HW121971   2.840   1.127   0.826 -0.4129  0.8223 -0.1792
 3504SOL    HW221972   2.915   1.079   0.713  0.9226  0.7389 -0.3511
 3505SOL     OW21973   1.893   2.249   4.282  0.8366  1.0216 -0.7459
 3505SOL    HW121974   1.958   2.249   4.353 -0.0580  0.6410  0.0807
 3505SOL    HW221975   1.841   2.328   4.294 -1.3979 -0.7186  1.1758
 3506SOL     OW21976   3.711   1.437  13.813 -0.2407  0.1148  0.2486
 3506SOL    HW121977   3.713   1.453  13.718 -0.6047 -0.0821  0.2093
 3506SOL    HW221978   3.660   1.356  13.819  2.1089 -1.3410  0.7409
 3507SOL     OW21979   0.880   0.534   4.768 -0.2496  0.0168 -0.1532
 3507SOL    HW121980   0.818   0.607   4.768  0.3622  0.5532 -0.9425
 3507SOL    HW221981   0.822   0.468   4.804  1.5311 -1.4289  0.0563
 3508SOL     OW21982   0.706   1.502   4.061 -0.0649  0.1284  0.0023
 3508SOL    HW121983   0.746   1.485   3.976 -1.2487  0.8736 -0.7049
 3508SOL    HW221984   0.775   1.543   4.113 -1.3161  0.1283  1.6999
 3509SOL     OW21985   4.069   2.779   9.897 -0.4382 -0.2718 -0.4542
 3509SOL    HW121986   4.079   2.736   9.982 -0.2705  0.7800  0.0622
 3509SOL    HW221987   3.985   2.819   9.916  0.2597  0.6517  0.6895
 3510SOL     OW21988   3.756   2.745   6.802  0.0542 -0.0910 -0.6332
 3510SOL    HW121989   3.676   2.692   6.808  0.8441 -1.1877  0.2220
 3510SOL    HW221990   3.817   2.677   6.774  0.8135  0.0216  0.7204
 3511SOL     OW21991   3.046   3.092   9.568 -0.2992 -0.4178 -0.2607
 3511SOL    HW121992   3.098   3.067   9.644  0.8166 -3.1494 -1.9258
 3511SOL    HW221993   2.956   3.084   9.600 -0.7416  1.0929 -1.1192
 3512SOL     OW21994   0.954   0.543   4.470  0.3211 -0.0437 -0.0685
 3512SOL    HW121995   1.044   0.524   4.446  0.2899 -0.6369  0.2949
 3512SOL    HW221996   0.951   0.533   4.565 -0.1413 -0.1516 -0.0929
 3513SOL     OW21997   0.045   1.542   1.548 -0.5190 -0.2073 -0.1733
 3513SOL    HW121998   0.130   1.551   1.504  0.3946  0.3192  1.6964
 3513SOL    HW221999   0.001   1.613   1.501  4.0030  1.8752 -1.2223
 3514SOL     OW22000   4.549   0.339  10.827 -0.6029  0.2101  0.1742
 3514SOL    HW122001   4.587   0.422  10.857  1.9954 -1.1330  0.6559
 3514SOL    HW222002   4.624   0.288  10.859  1.9717  2.6857 -1.9628
 3515SOL     OW22003   3.598   4.100   7.395 -0.4972 -0.2359 -0.1346
 3515SOL    HW122004   3.630   4.011   7.379  0.4351  0.0096  0.3536
 3515SOL    HW222005   3.675   4.149   7.423 -0.8719  0.9205 -1.1101
 3516SOL     OW22006   4.500   1.494  13.963  0.4681 -0.4732  0.2297
 3516SOL    HW122007   4.466   1.539  13.886  0.8605 -1.7877 -0.7166
 3516SOL    HW222008   4.442   1.522  14.034  1.8010  1.6101  0.5187
 3517SOL     OW22009   0.066   0.183   6.059  0.3110  0.3091  0.5115
 3517SOL    HW122010   0.039   0.249   6.123  0.1954  0.4279  0.3400
 3517SOL    HW222011   0.019   0.220   5.984 -0.0617 -1.5460 -0.1866
 3518SOL     OW22012   2.435   3.764   7.693 -0.0598  0.0418  0.0956
 3518SOL    HW122013   2.526   3.739   7.709 -0.2075 -0.7768 -0.3523
 3518SOL    HW222014   2.463   3.844   7.648 -1.4081  0.8069  0.6057
 3519SOL     OW22015   3.318   1.314   8.869 -0.0431  0.2506  0.1403
 3519SOL    HW122016   3.369   1.339   8.946  0.5923 -2.4282  0.5741
 3519SOL    HW222017   3.293   1.400   8.837  0.6047 -0.6617 -2.7690
 3520SOL     OW22018   4.072   3.729   6.752 -0.7228  1.2452  0.6374
 3520SOL    HW122019   3.986   3.737   6.711  0.0929 -2.6389 -1.8058
 3520SOL    HW222020   4.056   3.653   6.808  0.2993  1.2549  0.9473
 3521SOL     OW22021   1.284   2.597   2.408 -0.2230 -0.0295 -0.3059
 3521SOL    HW122022   1.303   2.626   2.319  0.1594  0.7519  0.0289
 3521SOL    HW222023   1.191   2.578   2.415 -0.8614  2.9463 -0.6209
 3522SOL     OW22024   3.651   1.081   6.515  0.3084  0.0274 -0.6337
 3522SOL    HW122025   3.559   1.078   6.490  1.8577 -2.4424 -5.9650
 3522SOL    HW222026   3.656   1.161   6.568 -1.3322 -0.6109  0.4820
 3523SOL     OW22027   2.204   1.367   2.573 -0.5041  0.1255  0.1737
 3523SOL    HW122028   2.175   1.309   2.503 -1.5095 -0.4664  1.0760
 3523SOL    HW222029   2.135   1.355   2.638 -0.8661  1.1137 -0.0232
 3524SOL     OW22030   0.160   3.206  16.440  0.2521  0.4254 -0.4062
 3524SOL    HW122031   0.134   3.229  16.351  0.4103  0.6596 -0.3913
 3524SOL    HW222032   0.139   3.113  16.439  0.2642  0.4130  1.9224
 3525SOL     OW22033   2.065   0.579   8.358  0.1818  0.0841  0.2474
 3525SOL    HW122034   2.037   0.490   8.375 -1.9141  0.7379  0.2142
 3525SOL    HW222035   2.159   0.567   8.368 -0.2220 -2.8253  0.4029
 3526SOL     OW22036   2.543   3.781  13.591 -0.4302  0.3108  0.3616
 3526SOL    HW122037   2.594   3.700  13.597  0.1354  0.9598  4.0959
 3526SOL    HW222038   2.483   3.771  13.666 -0.9949 -0.3887 -0.1862
 3527SOL     OW22039   0.523   2.541   6.126 -0.0812 -0.1201 -0.4713
 3527SOL    HW122040   0.515   2.536   6.221 -4.5858  0.8859 -0.8166
 3527SOL    HW222041   0.439   2.563   6.087 -0.9297 -0.1061  1.3756
 3528SOL     OW22042   0.482   1.962   1.601  0.1919 -0.1694  0.3950
 3528SOL    HW122043   0.457   1.977   1.692  1.0165 -3.8832  1.2617
 3528SOL    HW222044   0.397   1.930   1.570  1.4982 -1.4694 -1.8799
 3529SOL     OW22045   3.186   1.955   0.788  0.1811 -0.0937 -0.4333
 3529SOL    HW122046   3.117   1.923   0.730 -2.4851  4.1059  0.3873
 3529SOL    HW222047   3.253   1.991   0.729  0.8186  0.6431  0.7419
 3530SOL     OW22048   1.917   4.455   6.095  0.7112 -0.4873  0.5642
 3530SOL    HW122049   1.994   4.398   6.101 -0.2186 -1.7858 -0.0057
 3530SOL    HW222050   1.937   4.490   6.182 -1.6533  0.2366  0.8251
 3531SOL     OW22051   1.929   2.198  15.090 -0.0158  0.0939  0.5191
 3531SOL    HW122052   1.915   2.222  15.182  1.4353 -2.5143  1.4288
 3531SOL    HW222053   1.837   2.176  15.076  0.1053  0.1148 -0.2794
 3532SOL     OW22054   1.098   3.500   2.736 -0.4602 -0.2652  0.2789
 3532SOL    HW122055   1.079   3.544   2.653  4.1021 -0.3579 -0.8313
 3532SOL    HW222056   1.182   3.460   2.711 -1.4957 -1.4687 -1.2554
 3533SOL     OW22057   1.122   0.925   6.704 -0.8503  0.0673  0.7496
 3533SOL    HW122058   1.064   0.855   6.674  2.1906 -1.5722 -1.4489
 3533SOL    HW222059   1.177   0.876   6.766 -1.9471 -0.8059  1.0345
 3534SOL     OW22060   0.265   1.788  17.362 -0.0889 -0.7621 -0.3674
 3534SOL    HW122061   0.301   1.846  17.430 -0.3411  1.6455 -2.2609
 3534SOL    HW222062   0.174   1.815  17.379  0.0170 -0.8547  0.3198
 3535SOL     OW22063   0.485   3.496   3.648  0.5915 -0.1251 -0.0996
 3535SOL    HW122064   0.436   3.517   3.568  1.3003 -3.6397 -1.4530
 3535SOL    HW222065   0.488   3.400   3.646 -2.1627 -0.2316  1.6198
 3536SOL     OW22066   0.775   2.050   4.445  0.0670  0.1828 -0.6614
 3536SOL    HW122067   0.759   2.052   4.351 -1.4438  0.3696 -0.4057
 3536SOL    HW222068   0.825   1.970   4.458  0.3471  0.3509 -0.7128
 3537SOL     OW22069   3.019   0.948   9.205  0.0383 -0.2526 -0.1566
 3537SOL    HW122070   3.103   0.992   9.190  0.5082 -1.3777 -0.7981
 3537SOL    HW222071   3.026   0.943   9.301  0.0119  0.5209 -0.1130
 3538SOL     OW22072   1.879   3.316   8.295 -0.4941  0.1302  0.5527
 3538SOL    HW122073   1.901   3.398   8.339 -1.6379  1.4873 -1.3726
 3538SOL    HW222074   1.882   3.259   8.371  1.6345 -0.2393  0.1906
 3539SOL     OW22075   1.938   0.166   7.878  0.0964  0.5307 -0.5244
 3539SOL    HW122076   1.972   0.136   7.794  0.3366 -1.1698  0.1787
 3539SOL    HW222077   1.942   0.083   7.926 -0.0112  0.3116 -0.9029
 3540SOL     OW22078   2.420   1.174   9.339  0.1331  0.5971  0.2929
 3540SOL    HW122079   2.380   1.117   9.404  0.2005  0.7062  0.4307
 3540SOL    HW222080   2.388   1.131   9.260 -1.8895  0.3510  1.2609
 3541SOL     OW22081   3.105   0.439   2.233 -0.0311 -0.5630  0.0502
 3541SOL    HW122082   3.180   0.497   2.242 -1.7682  1.7624 -0.5326
 3541SOL    HW222083   3.110   0.417   2.139 -0.2827  2.9075 -0.7722
 3542SOL     OW22084   0.052   4.050  12.342 -0.1554  0.1553 -0.2947
 3542SOL    HW122085   0.017   4.106  12.273 -0.1058 -0.9921 -1.2423
 3542SOL    HW222086   0.046   3.965  12.298  3.5284  0.9163 -2.2777
 3543SOL     OW22087   3.487   0.276   7.891 -0.4246  0.5076  0.2994
 3543SOL    HW122088   3.412   0.228   7.857  0.2134 -1.3712  1.5222
 3543SOL    HW222089   3.490   0.243   7.981 -0.1348 -1.7010 -0.5189
 3544SOL     OW22090   1.018   0.853   2.847  0.3030  0.2640  0.1783
 3544SOL    HW122091   0.943   0.912   2.860 -0.3541 -0.4359 -0.3912
 3544SOL    HW222092   1.082   0.918   2.821  0.4819  0.2085  0.4813
 3545SOL     OW22093   0.506   3.946   4.697  0.1552  0.3266  0.6398
 3545SOL    HW122094   0.560   4.025   4.696 -0.1086  0.5065  0.5168
 3545SOL    HW222095   0.568   3.879   4.725 -1.1413 -1.9465 -1.9906
 3546SOL     OW22096   0.787   4.621   8.275 -0.0693  0.0565  0.1863
 3546SOL    HW122097   0.704   4.664   8.296 -0.1229  0.1061 -0.1332
 3546SOL    HW222098   0.818   4.590   8.360 -0.5865 -0.6075  0.1374
 3547SOL     OW22099   1.023   2.963   6.370 -0.6236  0.2946 -0.1097
 3547SOL    HW122100   1.095   3.026   6.373 -0.4884  0.2072 -1.5673
 3547SOL    HW222101   1.055   2.884   6.414 -3.4052 -1.8322 -1.9732
 3548SOL     OW22102   0.334   1.239   3.348 -0.3594 -0.5727  0.7647
 3548SOL    HW122103   0.364   1.328   3.363 -1.2740  0.0570 -1.0831
 3548SOL    HW222104   0.328   1.218   3.441 -2.4566  3.2374  1.4889
 3549SOL     OW22105   2.939   3.036   8.348 -0.5070  0.2872  0.1528
 3549SOL    HW122106   2.956   3.128   8.368  1.2115  0.0712 -0.3312
 3549SOL    HW222107   2.853   3.031   8.390  0.0917  1.0625  1.4638
 3550SOL     OW22108   3.644   1.488  13.090  0.5271 -0.1177 -0.0946
 3550SOL    HW122109   3.621   1.500  12.998 -2.6711 -0.5502  0.6504
 3550SOL    HW222110   3.576   1.434  13.131 -0.6216  1.5161  0.1684
 3551SOL     OW22111   2.720   2.834   9.778 -0.5832  0.8508  0.0485
 3551SOL    HW122112   2.752   2.849   9.689  0.4747  1.6567  0.5694
 3551SOL    HW222113   2.659   2.907   9.781  0.2494  1.4440  2.0741
 3552SOL     OW22114   2.337   3.802   4.949  0.4210  0.6564  0.4553
 3552SOL    HW122115   2.427   3.779   4.924  0.3748 -0.0998  0.9676
 3552SOL    HW222116   2.361   3.852   5.027  0.0402  2.3896 -0.5550
 3553SOL     OW22117   1.073   4.184   6.599  0.0372  0.0622  0.1074
 3553SOL    HW122118   1.146   4.191   6.538 -1.2537  1.3603 -1.2885
 3553SOL    HW222119   1.033   4.271   6.607  2.2117  1.0117  0.6066
 3554SOL     OW22120   0.993   0.538   9.501  0.2259 -0.0897 -0.0178
 3554SOL    HW122121   1.016   0.614   9.447  2.9500 -0.6400  0.3778
 3554SOL    HW222122   1.059   0.474   9.475  0.7647  0.0691  0.9512
 3555SOL     OW22123   2.616   0.501   1.276 -0.0119 -0.2508 -0.5269
 3555SOL    HW122124   2.601   0.418   1.320  0.6111 -0.7906 -1.3272
 3555SOL    HW222125   2.529   0.536   1.298 -0.0854 -0.7726 -0.0026
 3556SOL     OW22126   3.781   0.618   7.649  0.1740  0.3838  0.4661
 3556SOL    HW122127   3.849   0.577   7.597 -0.7408  1.3605 -1.4982
 3556SOL    HW222128   3.713   0.550   7.649  0.0746  0.4910 -1.1174
 3557SOL     OW22129   2.383   0.416   7.800  0.4731 -0.1073  0.1203
 3557SOL    HW122130   2.475   0.435   7.785 -0.3656  2.6131 -1.6990
 3557SOL    HW222131   2.353   0.507   7.809  2.2585  0.4726  0.1165
 3558SOL     OW22132   3.934   2.175   5.921  0.0527 -0.2305  0.0768
 3558SOL    HW122133   3.915   2.178   5.827 -0.9490  1.8832  0.3511
 3558SOL    HW222134   4.027   2.153   5.928  0.0634  0.6338  2.6788
 3559SOL     OW22135   3.329   3.109   6.192  0.1154  0.0451 -0.2719
 3559SOL    HW122136   3.403   3.164   6.219  1.4145 -0.8495 -1.9302
 3559SOL    HW222137   3.376   3.041   6.143  0.7394 -0.6247  1.2555
 3560SOL     OW22138   2.394   2.056   3.239 -0.0532  0.3148 -0.0618
 3560SOL    HW122139   2.489   2.056   3.226 -0.0963 -2.5274 -0.3470
 3560SOL    HW222140   2.383   2.115   3.314 -2.6499 -0.3840  0.0888
 3561SOL     OW22141   1.804   3.316   0.271  0.1692  0.2146  0.2376
 3561SOL    HW122142   1.855   3.263   0.210  0.7844  0.5072  0.4875
 3561SOL    HW222143   1.786   3.395   0.220 -0.9075 -0.2398 -0.0632
 3562SOL     OW22144   0.020   1.562   5.326 -0.1970 -0.2594  0.0270
 3562SOL    HW122145   0.036   1.475   5.362 -0.1998  0.3469  1.5097
 3562SOL    HW222146   4.724   1.543   5.235  0.1124 -3.9641  0.7277
 3563SOL     OW22147   2.826   3.241  10.703 -0.4100 -0.0087  0.0788
 3563SOL    HW122148   2.885   3.211  10.773 -2.4194 -1.7991  1.0105
 3563SOL    HW222149   2.881   3.300  10.652 -0.1498  2.1129  2.8523
 3564SOL     OW22150   2.801   3.959   6.483 -0.2317 -0.2134  0.1847
 3564SOL    HW122151   2.889   3.983   6.510 -0.1560 -1.3224  0.9629
 3564SOL    HW222152   2.814   3.959   6.389  3.4414 -0.6075  0.6833
 3565SOL     OW22153   2.637   0.485   7.782 -0.6112  0.2188  0.1000
 3565SOL    HW122154   2.724   0.482   7.742 -0.3353 -0.1344  0.7164
 3565SOL    HW222155   2.639   0.577   7.808 -1.7193  0.6007 -1.1768
 3566SOL     OW22156   4.008   0.633   7.855  0.0632  0.1345 -0.0254
 3566SOL    HW122157   3.929   0.629   7.801  2.0915  0.8312 -2.9922
 3566SOL    HW222158   3.999   0.557   7.914 -2.1478 -0.8895 -1.6808
 3567SOL     OW22159   4.024   4.095   5.694  0.2140  0.5055 -0.1021
 3567SOL    HW122160   4.068   4.011   5.678 -0.1879  0.5173 -1.3352
 3567SOL    HW222161   4.066   4.166   5.646 -0.6822  0.8929 -0.3237
 3568SOL     OW22162   0.480   3.039   7.348  0.0024  0.7518  0.8858
 3568SOL    HW122163   0.500   3.039   7.442  0.4356  0.5306  0.7941
 3568SOL    HW222164   0.440   2.954   7.329 -1.3905  1.8420 -1.0622
 3569SOL     OW22165   4.160   3.786  14.568 -0.5847 -0.6004  1.0003
 3569SOL    HW122166   4.193   3.815  14.483  0.1832  0.1870  1.5757
 3569SOL    HW222167   4.238   3.784  14.623 -0.4296  0.4488  0.8093
 3570SOL     OW22168   1.574   2.016   3.907  0.3651 -0.2619 -0.4046
 3570SOL    HW122169   1.604   1.925   3.910 -0.9669 -0.7210 -1.2816
 3570SOL    HW222170   1.630   2.056   3.841  1.1604  0.0237  0.4326
 3571SOL     OW22171   3.545   1.365   7.738 -0.6087 -0.1699  0.1985
 3571SOL    HW122172   3.576   1.286   7.694 -0.0234 -0.7514  1.6336
 3571SOL    HW222173   3.562   1.344   7.830  2.6783 -1.3132 -0.6646
 3572SOL     OW22174   1.114   4.431   1.678 -0.1013  0.1792  0.4713
 3572SOL    HW122175   1.086   4.346   1.711 -2.6730  0.5313 -0.7765
 3572SOL    HW222176   1.029   4.455   1.640 -1.2082 -0.9783  2.2358
 3573SOL     OW22177   4.420   0.563   8.121  0.7958  0.3046 -0.3234
 3573SOL    HW122178   4.353   0.494   8.115  1.1679 -0.2477  1.6833
 3573SOL    HW222179   4.487   0.519   8.173  0.7837  2.0830  1.2003
 3574SOL     OW22180   0.356   3.699   5.248 -0.1362 -0.4949 -0.0817
 3574SOL    HW122181   0.312   3.666   5.170  0.9384  0.7780 -1.2054
 3574SOL    HW222182   0.294   3.687   5.320 -0.0016 -1.1568 -0.0749
 3575SOL     OW22183   3.931   2.119  11.041  0.5502  0.1622  0.6040
 3575SOL    HW122184   3.877   2.190  11.076  0.2483 -0.8366  2.1571
 3575SOL    HW222185   3.858   2.068  11.005  1.0727 -0.6772  0.7198
 3576SOL     OW22186   1.779   0.803   1.403 -0.0953 -0.0724 -0.2094
 3576SOL    HW122187   1.731   0.720   1.401  1.8980 -1.2243 -0.9089
 3576SOL    HW222188   1.812   0.799   1.493 -3.3013 -0.3554  0.9340
 3577SOL     OW22189   2.095   2.874   2.680  0.0470  0.0792 -0.6778
 3577SOL    HW122190   2.077   2.856   2.588 -2.6585  1.5407 -0.4369
 3577SOL    HW222191   2.040   2.953   2.685  0.3373  0.1073  2.1455
 3578SOL     OW22192   0.729   4.364  12.078  0.0163  0.9139  0.7224
 3578SOL    HW122193   0.736   4.455  12.047 -4.4318  0.7851 -0.6125
 3578SOL    HW222194   0.808   4.369  12.131 -1.4271  2.0778  2.7196
 3579SOL     OW22195   3.308   4.563   3.936  0.1388  0.2341  0.1638
 3579SOL    HW122196   3.402   4.582   3.943  0.6540 -1.8736 -0.8993
 3579SOL    HW222197   3.274   4.636   3.884  0.6086  1.7622  1.9795
 3580SOL     OW22198   2.279   2.108   0.670  0.3235 -0.0211  0.4442
 3580SOL    HW122199   2.280   2.072   0.759 -1.0147  0.7434  0.7745
 3580SOL    HW222200   2.185   2.125   0.663 -0.0512 -1.0957  2.6241
 3581SOL     OW22201   2.947   3.595   7.755  0.6334 -0.3480 -0.4319
 3581SOL    HW122202   2.955   3.566   7.846 -0.6528 -0.2937 -0.3032
 3581SOL    HW222203   3.034   3.578   7.719  0.2944 -1.2745 -0.8035
 3582SOL     OW22204   0.939   4.518   1.903  0.0210 -0.1250  0.1850
 3582SOL    HW122205   0.896   4.490   1.984 -0.9816 -2.4932 -1.1920
 3582SOL    HW222206   1.024   4.475   1.901  0.9478  1.6969  0.1401
 3583SOL     OW22207   0.904   3.694   3.851 -0.0649 -0.1464 -0.4793
 3583SOL    HW122208   0.835   3.712   3.786 -0.2782 -0.7905 -0.4393
 3583SOL    HW222209   0.977   3.691   3.789 -0.3506  0.2933 -0.8320
 3584SOL     OW22210   1.973   2.442   2.146  0.5952  0.4441 -0.4635
 3584SOL    HW122211   1.923   2.366   2.176 -2.5052  2.2727 -0.9316
 3584SOL    HW222212   2.026   2.458   2.224 -0.5086 -1.4648  0.6702
 3585SOL     OW22213   3.333   4.268  16.895 -0.1037 -0.0283  0.3206
 3585SOL    HW122214   3.322   4.308  16.809 -1.2587 -1.4610 -0.2089
 3585SOL    HW222215   3.424   4.239  16.887 -0.2783 -0.7681  1.0206
 3586SOL     OW22216   2.981   4.698   3.951 -0.4821  0.2955  0.3991
 3586SOL    HW122217   3.065   4.717   3.910 -0.9637  2.0915  0.2249
 3586SOL    HW222218   2.961   0.063   3.976  2.7293  1.3381 -0.8766
 3587SOL     OW22219   4.019   2.560  10.617 -0.2122  0.3944  0.2071
 3587SOL    HW122220   3.935   2.606  10.614 -1.6067 -2.1546  0.5448
 3587SOL    HW222221   4.030   2.558  10.712 -1.4129  1.5198  0.3659
 3588SOL     OW22222   1.272   2.795  11.561  0.0216  0.3105 -0.1298
 3588SOL    HW122223   1.232   2.881  11.546 -1.4648 -0.5421 -1.0724
 3588SOL    HW222224   1.358   2.806  11.519  0.7439 -0.8459  1.0563
 3589SOL     OW22225   2.290   3.468   9.313 -0.6119 -0.0583  0.4448
 3589SOL    HW122226   2.245   3.478   9.397  3.5146 -0.6861  2.7720
 3589SOL    HW222227   2.313   3.560   9.300 -0.9567 -0.1880 -1.1026
 3590SOL     OW22228   1.236   4.078   6.776  0.4571 -0.3763  0.2732
 3590SOL    HW122229   1.268   4.161   6.811  0.3911 -0.1999 -0.0913
 3590SOL    HW222230   1.170   4.105   6.712  0.2512  1.3916  1.2196
 3591SOL     OW22231   4.453   4.069   5.492  0.3734 -0.1409 -0.0038
 3591SOL    HW122232   4.367   4.074   5.451 -1.0948  0.2395  3.0872
 3591SOL    HW222233   4.504   4.079   5.412  1.6209 -2.2052  0.5338
 3592SOL     OW22234   3.938   2.857   4.537  0.6018 -0.2817  0.1537
 3592SOL    HW122235   3.966   2.949   4.529 -1.6221  0.1778 -1.9338
 3592SOL    HW222236   3.858   2.851   4.486 -0.1238 -0.6205  1.3345
 3593SOL     OW22237   4.603   1.972   3.351 -0.1385  0.5424 -0.2524
 3593SOL    HW122238   4.587   1.938   3.262 -2.6370 -0.2263  0.5010
 3593SOL    HW222239   4.644   2.055   3.327  0.5288  0.3977  0.3839
 3594SOL     OW22240   4.175   0.746  11.907 -0.1297 -0.8668  0.2737
 3594SOL    HW122241   4.251   0.733  11.850  0.7094  0.1012  1.1649
 3594SOL    HW222242   4.148   0.829  11.868  1.0498 -1.6630 -2.2557
 3595SOL     OW22243   3.229   3.259   8.923 -0.9285  0.0550 -0.5843
 3595SOL    HW122244   3.315   3.296   8.946 -1.5908  1.9238 -1.0848
 3595SOL    HW222245   3.260   3.205   8.850 -0.4182 -0.4226 -0.0088
 3596SOL     OW22246   2.988   3.561   7.160 -0.3646  0.2486  0.2996
 3596SOL    HW122247   2.915   3.503   7.138 -0.3981  0.7285 -0.8799
 3596SOL    HW222248   3.003   3.521   7.246 -2.9568  2.2163  1.6602
 3597SOL     OW22249   4.642   0.724  17.566 -0.0047  0.2348  0.7034
 3597SOL    HW122250   4.597   0.676  17.635 -0.5765 -0.0362  0.1409
 3597SOL    HW222251   4.613   0.815  17.571  0.7043  0.4621  0.6668
 3598SOL     OW22252   4.268   1.990   6.561 -0.1447  0.2704  0.7965
 3598SOL    HW122253   4.258   2.017   6.652  0.9944  0.1955  0.9395
 3598SOL    HW222254   4.362   1.989   6.545 -0.4026  0.8372 -0.7935
 3599SOL     OW22255   3.429   4.493   2.851 -1.1665 -0.3973  0.3880
 3599SOL    HW122256   3.504   4.453   2.807 -2.7049 -4.7789  1.7231
 3599SOL    HW222257   3.362   4.431   2.823  0.7884 -1.2926 -2.2581
 3600SOL     OW22258   4.189   3.279   4.203 -0.1919  0.5787 -0.0537
 3600SOL    HW122259   4.138   3.287   4.123  1.1489 -0.0305 -0.9650
 3600SOL    HW222260   4.217   3.370   4.211 -1.2950  0.9653 -0.5017
 3601SOL     OW22261   0.930   0.015  13.749  0.0601  0.3217  0.7353
 3601SOL    HW122262   0.888   4.692  13.678  0.5062  1.7581 -0.5154
 3601SOL    HW222263   1.023   4.716  13.746 -0.1448 -0.5495  1.5095
 3602SOL     OW22264   0.871   0.410   9.739 -0.3020  0.1526  0.4906
 3602SOL    HW122265   0.916   0.456   9.668 -1.1560  0.1228 -0.0610
 3602SOL    HW222266   0.885   0.316   9.726 -0.8934  0.1983 -0.4945
 3603SOL     OW22267   3.529   2.579  13.102  0.2663 -0.0294  0.6556
 3603SOL    HW122268   3.463   2.623  13.047  1.5566  0.6012 -0.3962
 3603SOL    HW222269   3.602   2.590  13.041  1.7300 -0.2353  2.3891
 3604SOL     OW22270   1.345   2.134   5.545  0.1022  0.4337 -0.6406
 3604SOL    HW122271   1.265   2.164   5.589 -0.5623 -0.5856 -1.1705
 3604SOL    HW222272   1.308   2.065   5.490  2.5663 -0.5768 -0.9973
 3605SOL     OW22273   2.542   2.160  17.603  0.0943  0.1497  0.0650
 3605SOL    HW122274   2.573   2.250  17.606 -3.3332  1.4187 -3.5193
 3605SOL    HW222275   2.604   2.115  17.661  0.9662  3.3134  1.5642
 3606SOL     OW22276   0.097   2.822  13.026 -0.0917  0.1193  0.1578
 3606SOL    HW122277   0.082   2.857  13.114  1.8827 -1.1932  1.0002
 3606SOL    HW222278   0.014   2.786  12.993  0.5369 -2.2329  1.1938
 3607SOL     OW22279   0.634   2.123   9.177 -0.0763 -0.2344  0.4954
 3607SOL    HW122280   0.659   2.158   9.262 -0.1319  0.7232  0.1182
 3607SOL    HW222281   0.538   2.128   9.177 -0.0906 -0.3552 -2.7631
 3608SOL     OW22282   2.813   4.224  10.922 -0.4509  0.0583  0.4363
 3608SOL    HW122283   2.815   4.280  10.999 -0.3868 -3.8491  3.3239
 3608SOL    HW222284   2.802   4.285  10.849  1.0092  2.3306  2.1313
 3609SOL     OW22285   3.592   2.689   2.932  0.3370  0.1654 -0.0338
 3609SOL    HW122286   3.637   2.610   2.962 -1.0510 -0.5997  0.0412
 3609SOL    HW222287   3.541   2.653   2.859  1.0084  0.1349 -0.4907
 3610SOL     OW22288   3.595   4.117  14.007 -0.2494  0.0680 -0.7519
 3610SOL    HW122289   3.529   4.186  14.004 -0.6546 -0.2927 -0.0146
 3610SOL    HW222290   3.571   4.061  14.080  0.6860  0.8899  0.1914
 3611SOL     OW22291   0.284   1.063   5.627  0.2466 -0.1943  0.4801
 3611SOL    HW122292   0.236   1.142   5.602 -0.7249 -0.8295  0.3510
 3611SOL    HW222293   0.340   1.050   5.550 -1.8079 -3.1238 -0.5271
 3612SOL     OW22294   0.222   2.313   3.513 -0.4517  0.7247  0.2236
 3612SOL    HW122295   0.155   2.255   3.550  0.7021 -0.1741  0.8961
 3612SOL    HW222296   0.210   2.384   3.575  1.2465  1.2258 -0.0138
 3613SOL     OW22297   1.073   2.980   2.487  0.6250  0.2204 -0.2460
 3613SOL    HW122298   1.162   2.951   2.507  0.2973  0.2811  1.2579
 3613SOL    HW222299   1.027   2.968   2.570 -0.5449  1.1036 -0.7697
 3614SOL     OW22300   2.826   0.979   6.198  0.4319 -0.0080  0.8618
 3614SOL    HW122301   2.852   1.063   6.159  0.7986 -0.9608 -0.9522
 3614SOL    HW222302   2.735   0.992   6.224 -0.8854 -2.3401 -2.6104
 3615SOL     OW22303   2.111   3.019   3.836 -0.0772  0.3844 -0.1007
 3615SOL    HW122304   2.079   2.935   3.804 -0.7069 -0.0281  1.6172
 3615SOL    HW222305   2.164   3.050   3.762 -1.1891 -1.6784 -1.7554
 3616SOL     OW22306   1.819   1.325   3.507  0.4583  0.2196 -0.5262
 3616SOL    HW122307   1.899   1.378   3.507  0.1946  0.6249 -0.0153
 3616SOL    HW222308   1.829   1.271   3.429  1.5355 -0.2183 -0.0787
 3617SOL     OW22309   2.148   3.365   3.580  0.4114  0.5022 -0.3884
 3617SOL    HW122310   2.108   3.367   3.493  0.5337 -2.7706 -0.5032
 3617SOL    HW222311   2.077   3.343   3.641  1.1930 -3.1556 -0.8153
 3618SOL     OW22312   0.638   4.527   5.732  0.2695  0.2705  0.4840
 3618SOL    HW122313   0.724   4.535   5.774  0.1598  0.0921  0.7453
 3618SOL    HW222314   0.593   4.596   5.781 -0.6358  0.9955 -1.3847
 3619SOL     OW22315   2.758   2.383  13.812 -0.2954 -0.5346  0.1676
 3619SOL    HW122316   2.672   2.341  13.814 -0.0740 -1.2063 -3.7117
 3619SOL    HW222317   2.811   2.305  13.793  2.2836  1.1495  0.4819
 3620SOL     OW22318   0.793   4.641   7.121 -0.3118  0.5657  0.0174
 3620SOL    HW122319   0.812   0.008   7.138 -0.4883  0.6481 -0.2484
 3620SOL    HW222320   0.800   4.635   7.026 -2.7175 -0.5456 -0.1079
 3621SOL     OW22321   2.151   0.581   6.831  0.4923  0.3600 -0.0365
 3621SOL    HW122322   2.245   0.571   6.841  0.7453  1.6905 -1.0277
 3621SOL    HW222323   2.133   0.505   6.775 -0.0225  0.4819 -0.0363
 3622SOL     OW22324   4.038   2.673   6.497 -0.4102  0.0687 -0.0020
 3622SOL    HW122325   3.957   2.633   6.467 -1.0232  1.0613  0.3413
 3622SOL    HW222326   4.098   2.598   6.494 -0.2331  0.1625  0.9033
 3623SOL     OW22327   3.528   2.578  13.675 -0.4305  1.0032 -0.6652
 3623SOL    HW122328   3.452   2.578  13.733  0.2719 -0.9818  0.2364
 3623SOL    HW222329   3.596   2.611  13.734  1.1007 -1.8738 -0.8358
 3624SOL     OW22330   0.447   4.520   8.178 -0.0929 -0.4285  0.0713
 3624SOL    HW122331   0.485   4.587   8.236 -0.0938 -0.7859  0.4836
 3624SOL    HW222332   0.420   4.456   8.243  1.2970 -1.0652  0.0335
 3625SOL     OW22333   4.295   3.392   2.364 -0.0072 -0.6475  0.3939
 3625SOL    HW122334   4.340   3.402   2.280 -1.7445  0.7391 -0.3726
 3625SOL    HW222335   4.256   3.305   2.352 -1.5766  0.0199  0.6227
 3626SOL     OW22336   3.329   2.894   2.831 -0.5483 -0.0188  0.1730
 3626SOL    HW122337   3.245   2.862   2.799 -0.7065  0.6680 -0.1208
 3626SOL    HW222338   3.363   2.914   2.744  1.6084  0.9949  1.2536
 3627SOL     OW22339   0.141   0.058  13.500 -0.1771  0.4245  0.1481
 3627SOL    HW122340   0.217   0.071  13.557  0.7741 -0.7299 -0.8604
 3627SOL    HW222341   0.086   0.130  13.531 -0.0251  1.1179 -1.2173
 3628SOL     OW22342   0.339   0.187   0.430  0.1689  0.6428  0.4806
 3628SOL    HW122343   0.384   0.270   0.446  1.4311  0.1165 -0.3572
 3628SOL    HW222344   0.294   0.192   0.515 -0.4550 -1.7374  0.2885
 3629SOL     OW22345   2.573   1.922   1.098  0.2175  0.0420  0.1296
 3629SOL    HW122346   2.506   1.984   1.126  1.5264  0.7242  1.7832
 3629SOL    HW222347   2.581   1.943   1.005  2.0975  2.7834  0.9283
 3630SOL     OW22348   2.800   1.336   7.324  0.2059 -0.1687 -0.3133
 3630SOL    HW122349   2.793   1.241   7.316  0.3357 -0.2106  0.0984
 3630SOL    HW222350   2.727   1.349   7.263 -2.5124 -1.7580  2.5840
 3631SOL     OW22351   3.151   0.125   6.017 -0.2364 -0.1162 -0.3388
 3631SOL    HW122352   3.128   0.185   5.946  0.1043 -0.1132 -0.4449
 3631SOL    HW222353   3.189   0.177   6.089  0.8703 -1.1272 -0.1861
 3632SOL     OW22354   1.362   1.372   0.940 -0.2823 -0.7508  0.4569
 3632SOL    HW122355   1.371   1.363   1.035  1.6272 -3.1541  0.0402
 3632SOL    HW222356   1.386   1.282   0.917  1.2260 -0.7879  2.1493
 3633SOL     OW22357   0.797   3.221   0.169  0.0413  0.3386 -0.0499
 3633SOL    HW122358   0.837   3.307   0.177  1.0446 -0.1930  0.6477
 3633SOL    HW222359   0.785   3.200   0.262 -0.4629 -1.7745 -0.5788
 3634SOL     OW22360   3.690   2.005   5.661 -0.0931  0.6129  0.3537
 3634SOL    HW122361   3.619   1.976   5.718  0.6873  1.6497  1.8329
 3634SOL    HW222362   3.685   2.099   5.676 -0.0025  0.7160 -0.2559
 3635SOL     OW22363   4.427   0.942   3.429 -0.0928 -0.1094 -0.3612
 3635SOL    HW122364   4.520   0.964   3.433  0.1285 -0.9997 -0.5056
 3635SOL    HW222365   4.426   0.912   3.338 -0.0594 -2.0143  0.2690
 3636SOL     OW22366   3.577   3.229  17.665  0.1074 -0.1336  0.3811
 3636SOL    HW122367   3.604   3.218   0.052  1.1289  1.0518  0.2305
 3636SOL    HW222368   3.542   3.147  17.631 -0.6229  0.8475 -1.2576
 3637SOL     OW22369   1.068   2.889   4.177 -0.0256 -0.1214 -0.0831
 3637SOL    HW122370   1.155   2.875   4.212 -0.8190 -1.5701  1.3089
 3637SOL    HW222371   1.004   2.851   4.237  1.8836 -0.8555  1.4822
 3638SOL     OW22372   4.542   1.360  13.560  0.0801  0.2437 -0.1944
 3638SOL    HW122373   4.545   1.456  13.565  0.5380  0.2388 -0.4438
 3638SOL    HW222374   4.475   1.351  13.492 -1.3115  1.2414  1.0419
 3639SOL     OW22375   2.292   3.344  15.273  0.4989  0.2228 -0.3897
 3639SOL    HW122376   2.370   3.313  15.227  0.6355 -0.9914  0.6538
 3639SOL    HW222377   2.233   3.268  15.277  0.6447  0.0293 -2.2163
 3640SOL     OW22378   1.859   1.386   1.273  0.6970 -1.1311 -0.4938
 3640SOL    HW122379   1.772   1.355   1.298  1.8823 -3.7342  0.4846
 3640SOL    HW222380   1.875   1.328   1.199 -1.5073 -0.8514 -1.1705
 3641SOL     OW22381   1.618   2.925   3.043 -0.1814  0.1809 -0.1441
 3641SOL    HW122382   1.702   2.948   3.082  1.8448 -2.3651 -3.0427
 3641SOL    HW222383   1.613   2.832   3.022 -1.8785  0.2228  0.0647
 3642SOL     OW22384   3.950   0.630  12.018 -0.0477  0.0821 -0.0432
 3642SOL    HW122385   3.948   0.679  12.100  0.0681 -0.9141  0.5456
 3642SOL    HW222386   4.034   0.663  11.986  1.0385 -0.6289  2.1520
 3643SOL     OW22387   2.047   3.976   7.968  0.3354  0.4196 -0.3183
 3643SOL    HW122388   2.072   3.919   8.041  1.6292  0.7585 -0.5035
 3643SOL    HW222389   2.102   3.954   7.893 -0.3748 -0.3392 -0.6242
 3644SOL     OW22390   1.802   1.533   5.240  0.3460  0.1918  0.0746
 3644SOL    HW122391   1.748   1.497   5.171  1.3799 -1.2054  0.0040
 3644SOL    HW222392   1.863   1.580   5.183 -1.1568  0.6964 -1.1116
 3645SOL     OW22393   1.122   3.816   2.345  0.8734  0.1400 -0.0592
 3645SOL    HW122394   1.138   3.893   2.399 -1.5829  0.3679  0.3416
 3645SOL    HW222395   1.095   3.853   2.261  0.1775 -0.1372  0.0490
 3646SOL     OW22396   0.422   0.491   7.904  0.1498 -0.8439  0.5191
 3646SOL    HW122397   0.506   0.522   7.869 -0.7404  0.6395 -0.3247
 3646SOL    HW222398   0.405   0.561   7.967 -2.6114 -0.2201 -0.9457
 3647SOL     OW22399   3.535   2.307   2.841 -0.0504 -0.3502 -0.1805
 3647SOL    HW122400   3.457   2.257   2.814  0.3197 -1.1064  0.1381
 3647SOL    HW222401   3.507   2.387   2.798 -0.4694 -0.2538  0.2713
 3648SOL     OW22402   2.949   4.400  11.800  0.5121 -0.1120  0.3258
 3648SOL    HW122403   2.856   4.407  11.822  0.4175 -0.1184 -0.0693
 3648SOL    HW222404   2.968   4.414  11.707 -0.2213 -0.5167  0.1144
 3649SOL     OW22405   0.511   2.448   9.646  0.5647 -0.2991  0.1961
 3649SOL    HW122406   0.422   2.470   9.616  0.8942 -1.2660 -1.4759
 3649SOL    HW222407   0.566   2.457   9.568  1.3860 -0.4759  0.7603
 3650SOL     OW22408   3.826   1.451   7.048 -0.0472 -0.8665  0.4262
 3650SOL    HW122409   3.842   1.373   6.996 -0.0648 -0.4167 -0.2590
 3650SOL    HW222410   3.826   1.429   7.141  0.6192 -1.7460  0.2165
 3651SOL     OW22411   4.228   1.552   1.276 -0.1306 -0.6245  0.3812
 3651SOL    HW122412   4.224   1.641   1.311 -0.9267 -1.3867  2.2353
 3651SOL    HW222413   4.196   1.555   1.186  0.3831  0.8072  0.2497
 3652SOL     OW22414   1.062   1.501   9.397  0.0841 -0.1058  0.1902
 3652SOL    HW122415   1.077   1.596   9.400 -2.1017  0.2407 -0.4768
 3652SOL    HW222416   1.150   1.469   9.418 -0.0042 -0.9300 -0.6964
 3653SOL     OW22417   0.618   2.846  15.148 -0.3593 -0.4130  0.4481
 3653SOL    HW122418   0.696   2.879  15.102  1.2133 -1.0994  2.5975
 3653SOL    HW222419   0.603   2.758  15.115 -0.3474 -0.8929  1.7092
 3654SOL     OW22420   0.413   2.757   5.862 -0.0290 -0.1466  0.2820
 3654SOL    HW122421   0.488   2.698   5.861 -1.0382 -1.4663  1.7981
 3654SOL    HW222422   0.357   2.685   5.890  0.9688 -0.7731  0.6527
 3655SOL     OW22423   1.201   1.303   7.902  0.1750  0.1383  0.2274
 3655SOL    HW122424   1.275   1.363   7.910 -0.7407  1.2893 -0.0054
 3655SOL    HW222425   1.138   1.356   7.854 -0.4913 -2.0317 -1.2965
 3656SOL     OW22426   2.410   1.778   9.654 -0.5398 -0.9701 -0.1202
 3656SOL    HW122427   2.465   1.700   9.658  3.3367  1.7541 -0.7896
 3656SOL    HW222428   2.443   1.817   9.573  1.2480 -2.2992 -0.0185
 3657SOL     OW22429   0.556   1.140   8.845 -0.6167 -0.5533  0.4486
 3657SOL    HW122430   0.556   1.197   8.768  1.6922  1.2130  1.7745
 3657SOL    HW222431   0.618   1.072   8.820 -0.4047 -0.6527  1.2711
 3658SOL     OW22432   3.977   0.499   9.971 -0.0285  0.4959  0.1023
 3658SOL    HW122433   3.950   0.474  10.059  0.4544 -0.3024  0.0208
 3658SOL    HW222434   3.967   0.592   9.989  0.3010  0.5055  0.2343
 3659SOL     OW22435   4.518   3.526   4.737  0.1255  0.4381 -0.1977
 3659SOL    HW122436   4.449   3.523   4.671 -0.1526 -0.3525  0.1388
 3659SOL    HW222437   4.561   3.599   4.693 -1.7756  1.7878  0.1815
 3660SOL     OW22438   1.191   2.324   5.156  0.4139 -0.3858  0.4419
 3660SOL    HW122439   1.194   2.320   5.060 -0.7018  0.0986  0.3837
 3660SOL    HW222440   1.282   2.310   5.181  1.5030  2.5074 -1.9413
 3661SOL     OW22441   4.022   4.408   3.244  0.2076  0.0259 -0.9276
 3661SOL    HW122442   3.943   4.372   3.286 -0.5565  3.1101  0.3212
 3661SOL    HW222443   4.034   4.343   3.176 -2.4150 -1.0699 -0.3684
 3662SOL     OW22444   3.539   0.904   8.289  0.3409 -0.1226  0.3861
 3662SOL    HW122445   3.597   0.829   8.277 -1.2704 -1.6250  1.9423
 3662SOL    HW222446   3.604   0.974   8.288 -2.6546  2.6215  1.3683
 3663SOL     OW22447   2.497   1.973   6.117  0.1537  0.5235 -0.0862
 3663SOL    HW122448   2.482   1.942   6.206 -1.2099 -2.4258 -1.3385
 3663SOL    HW222449   2.528   2.060   6.141  0.0359  0.0858  1.6465
 3664SOL     OW22450   2.568   0.331  11.614 -0.1774  0.4829 -0.4854
 3664SOL    HW122451   2.519   0.379  11.547 -0.5826  1.2882  0.3911
 3664SOL    HW222452   2.492   0.312  11.668 -1.1266  3.3504 -0.8194
 3665SOL     OW22453   4.305   2.285  11.223 -0.0740  0.1153  0.1544
 3665SOL    HW122454   4.378   2.346  11.234  0.8410 -0.9744  0.1659
 3665SOL    HW222455   4.348   2.239  11.151  0.1651  2.8751 -1.4581
 3666SOL     OW22456   2.376   2.724   9.705 -0.3742  0.1974  0.2810
 3666SOL    HW122457   2.459   2.684   9.731 -0.2307 -1.2211 -2.3810
 3666SOL    HW222458   2.395   2.815   9.683 -1.0358  1.0033  2.9428
 3667SOL     OW22459   2.776   3.967  13.375  0.4946 -0.3727 -0.5382
 3667SOL    HW122460   2.695   3.924  13.401 -0.3531  0.5058 -1.7222
 3667SOL    HW222461   2.838   3.896  13.392 -0.9745 -1.4998  0.0304
 3668SOL     OW22462   2.356   1.375   8.920 -0.2973 -0.1345 -0.3171
 3668SOL    HW122463   2.405   1.304   8.961  0.1541 -2.4120 -4.7719
 3668SOL    HW222464   2.266   1.350   8.944 -0.5803 -0.4716 -1.6922
 3669SOL     OW22465   2.650   4.595  11.532 -0.1071 -0.0525 -0.3751
 3669SOL    HW122466   2.631   4.675  11.483  1.6449  0.4512 -0.2475
 3669SOL    HW222467   2.575   4.592  11.592 -1.1970  0.7412 -1.7048
 3670SOL     OW22468   1.272   4.484   7.159 -0.2537 -0.2517 -0.4679
 3670SOL    HW122469   1.193   4.437   7.132 -0.3231 -0.7836  0.6600
 3670SOL    HW222470   1.307   4.421   7.221 -0.8599 -0.8699 -0.7468
 3671SOL     OW22471   3.521   3.004   8.606  0.3899  0.0931 -0.4114
 3671SOL    HW122472   3.528   3.051   8.689 -0.4642 -0.8941  0.2151
 3671SOL    HW222473   3.596   2.944   8.606  1.7017  1.7063  1.5003
 3672SOL     OW22474   1.671   0.160   8.745  0.5782  0.3037  0.7760
 3672SOL    HW122475   1.672   0.253   8.769  0.3592  0.6891 -0.7347
 3672SOL    HW222476   1.589   0.133   8.786  0.4115 -1.4527 -0.7053
 3673SOL     OW22477   1.480   1.652   5.515  0.1110 -0.3445 -0.4676
 3673SOL    HW122478   1.547   1.583   5.516  0.5830  0.0981 -2.0549
 3673SOL    HW222479   1.416   1.627   5.582  2.0025 -2.6464  0.4697
 3674SOL     OW22480   0.150   0.279   3.341  0.1117 -0.1736 -0.1322
 3674SOL    HW122481   0.096   0.199   3.338  1.0909 -0.8123 -0.6175
 3674SOL    HW222482   0.116   0.317   3.423  0.2685 -1.4304  0.5248
 3675SOL     OW22483   1.788   3.995   9.041  0.2858 -0.6557 -0.1882
 3675SOL    HW122484   1.789   3.967   8.949 -0.5195  0.4271 -0.5279
 3675SOL    HW222485   1.723   4.065   9.030  1.3847  0.7886  2.4732
 3676SOL     OW22486   4.725   2.965   7.650 -0.1735  0.2732  0.0299
 3676SOL    HW122487   4.663   2.901   7.684  1.2293 -0.9583  0.2657
 3676SOL    HW222488   0.083   2.924   7.672  0.4815  1.2739 -0.5927
 3677SOL     OW22489   2.742   1.336   6.370 -0.0908  0.0731 -0.3245
 3677SOL    HW122490   2.772   1.353   6.459 -1.1790  1.4735 -0.2144
 3677SOL    HW222491   2.708   1.424   6.352  1.1861  0.8733  1.1869
 3678SOL     OW22492   0.166   0.508  13.473  0.0442  0.1638  0.4240
 3678SOL    HW122493   0.154   0.506  13.568  1.2783 -1.2553  0.5432
 3678SOL    HW222494   0.190   0.600  13.460  0.4608 -0.3172 -2.1279
 3679SOL     OW22495   0.900   3.398   7.457  0.7266  0.3361  0.0669
 3679SOL    HW122496   0.887   3.490   7.432  0.3923  0.2422 -0.1080
 3679SOL    HW222497   0.944   3.420   7.539  0.1644  4.1853 -0.6445
 3680SOL     OW22498   2.086   2.597   5.453  0.2262 -0.1111  0.3114
 3680SOL    HW122499   2.016   2.629   5.509  1.1147  2.2502  0.0716
 3680SOL    HW222500   2.120   2.518   5.494  1.9583 -0.2533 -1.3818
 3681SOL     OW22501   2.187   4.496  15.581 -0.1578 -0.2799  0.7408
 3681SOL    HW122502   2.138   4.468  15.659 -1.2458 -0.8386 -0.1414
 3681SOL    HW222503   2.191   4.591  15.579 -0.6734 -0.3497 -3.4351
 3682SOL     OW22504   1.714   2.255   7.219 -0.3231 -0.1821 -0.7429
 3682SOL    HW122505   1.764   2.176   7.201  0.3305  0.1869 -0.5419
 3682SOL    HW222506   1.675   2.273   7.133  0.9529  2.6474 -0.7521
 3683SOL     OW22507   3.648   4.085   6.418 -0.3038 -0.4162  0.0751
 3683SOL    HW122508   3.557   4.097   6.390 -0.4926  3.0260  2.1923
 3683SOL    HW222509   3.631   4.067   6.510  2.1217 -0.1755  0.5727
 3684SOL     OW22510   4.507   3.916   3.860  0.3837 -0.8857 -0.4710
 3684SOL    HW122511   4.566   3.841   3.865  1.1519 -0.1692  1.3593
 3684SOL    HW222512   4.568   3.988   3.850 -0.1710 -0.2633  0.5655
 3685SOL     OW22513   0.207   3.610   1.217 -0.0833 -0.0584  0.0392
 3685SOL    HW122514   0.210   3.575   1.306  0.6031 -0.9345 -0.3194
 3685SOL    HW222515   0.222   3.528   1.169  0.4751  0.5106 -0.7597
 3686SOL     OW22516   4.017   3.544  17.342  0.1783 -0.1459  0.8357
 3686SOL    HW122517   4.091   3.603  17.358  1.1056 -1.1454  0.2311
 3686SOL    HW222518   4.018   3.504  17.428 -2.5536  0.0791  0.9629
 3687SOL     OW22519   2.366   4.138   1.602  0.9617 -0.2366  0.6040
 3687SOL    HW122520   2.293   4.152   1.541  0.7472 -1.9817  0.4478
 3687SOL    HW222521   2.342   4.053   1.640 -0.4402  0.2006  0.7244
 3688SOL     OW22522   0.605   0.924  16.122  0.5841 -0.2288 -0.1235
 3688SOL    HW122523   0.699   0.941  16.114  0.3467  0.8246 -0.7924
 3688SOL    HW222524   0.592   0.855  16.058  1.5907  0.4829 -1.0897
 3689SOL     OW22525   2.565   0.505   6.323  0.1949  0.1933  0.3589
 3689SOL    HW122526   2.562   0.439   6.393  0.1180  0.8884  1.0008
 3689SOL    HW222527   2.590   0.581   6.375 -0.5252  1.2329 -0.8396
 3690SOL     OW22528   1.095   1.860   6.590  0.0860 -0.1298  0.2043
 3690SOL    HW122529   1.095   1.849   6.495  1.4600  2.0171 -0.0434
 3690SOL    HW222530   1.162   1.795   6.609 -0.5146 -0.2365  1.9528
 3691SOL     OW22531   0.272   0.533   2.465  0.1774 -0.5389 -0.0926
 3691SOL    HW122532   0.363   0.527   2.437  0.5464  2.3547  0.4861
 3691SOL    HW222533   0.253   0.439   2.462 -0.1074 -0.4688 -0.5227
 3692SOL     OW22534   4.247   2.362   1.668 -0.0523  0.6012 -0.0055
 3692SOL    HW122535   4.255   2.269   1.645 -0.3761  0.1707  1.6370
 3692SOL    HW222536   4.194   2.348   1.746 -1.2461 -0.5985 -1.0287
 3693SOL     OW22537   4.004   4.048  12.482  0.0078  0.8336 -0.3824
 3693SOL    HW122538   4.058   3.990  12.428 -1.9133  0.0169 -1.4322
 3693SOL    HW222539   4.069   4.076  12.546  0.0296 -2.6877  1.1482
 3694SOL     OW22540   2.987   3.679   8.568  0.0676  0.0848  0.1004
 3694SOL    HW122541   2.893   3.675   8.547 -0.3881  0.1381  2.1199
 3694SOL    HW222542   2.979   3.738   8.643  0.2520 -1.0252  0.9866
 3695SOL     OW22543   1.426   4.056  13.400  0.4491  0.3614 -0.1084
 3695SOL    HW122544   1.347   4.102  13.428  0.5579 -0.4512  1.5332
 3695SOL    HW222545   1.445   4.106  13.320 -0.5049  0.2952 -0.3775
 3696SOL     OW22546   2.301   4.593   9.654 -0.0086 -0.0900 -0.2608
 3696SOL    HW122547   2.301   4.673   9.601 -0.1977  1.1421  1.5873
 3696SOL    HW222548   2.280   4.625   9.742  3.4509  1.4784 -0.0146
 3697SOL     OW22549   0.950   0.011   0.849  0.0248 -0.3158 -0.6783
 3697SOL    HW122550   0.980   0.041   0.935  0.7758  0.4249 -1.2084
 3697SOL    HW222551   0.906   4.659   0.884  2.4589 -0.8984  1.0444
 3698SOL     OW22552   0.073   1.117   1.814 -0.8948  0.3104  0.4041
 3698SOL    HW122553   0.131   1.066   1.757 -0.9955 -0.7740  1.2785
 3698SOL    HW222554   0.042   1.180   1.748 -0.5636 -2.3100 -2.2706
 3699SOL     OW22555   2.858   3.989   4.849  0.4884  0.4440 -0.2417
 3699SOL    HW122556   2.859   4.050   4.922 -2.8758  0.8890 -0.5897
 3699SOL    HW222557   2.820   4.051   4.787  2.6987  0.3688 -1.6902
 3700SOL     OW22558   1.149   4.714   1.767  0.1701  1.1192  0.3918
 3700SOL    HW122559   1.128   0.028   1.683  0.0927 -1.6475 -0.8948
 3700SOL    HW222560   1.154   4.622   1.741 -0.8769  1.8908 -2.4553
 3701SOL     OW22561   0.189   0.572   6.036  0.2181  0.2869 -0.0014
 3701SOL    HW122562   0.237   0.639   5.987  3.6666 -1.0577  1.5405
 3701SOL    HW222563   0.111   0.622   6.059  0.0392 -0.5843  1.2653
 3702SOL     OW22564   1.158   3.223   7.998 -0.1856  0.3007  0.6352
 3702SOL    HW122565   1.211   3.169   7.939 -1.8009 -0.8245  0.2101
 3702SOL    HW222566   1.210   3.302   8.009 -0.1568  0.2639  0.7628
 3703SOL     OW22567   4.590   4.588  14.190 -0.6882  0.0859 -0.3216
 3703SOL    HW122568   4.645   4.567  14.266 -2.9824 -1.6798  0.8110
 3703SOL    HW222569   4.640   4.539  14.125 -2.2794 -2.7866  0.6471
 3704SOL     OW22570   1.483   0.963  13.928  0.7638  0.3531 -0.0702
 3704SOL    HW122571   1.445   1.049  13.911  2.9577  0.5752 -3.8502
 3704SOL    HW222572   1.514   0.937  13.841 -3.0599  0.8026 -1.5781
 3705SOL     OW22573   2.019   2.747   4.788 -0.2538  0.0838  0.2801
 3705SOL    HW122574   2.049   2.656   4.794 -0.8580 -0.0634  1.2282
 3705SOL    HW222575   1.926   2.727   4.799 -0.5400 -0.1599 -2.5052
 3706SOL     OW22576   1.230   1.245  14.543  0.1126 -0.0154  0.2321
 3706SOL    HW122577   1.135   1.252  14.557  0.4610  2.1327  1.5568
 3706SOL    HW222578   1.235   1.159  14.501 -1.9763  1.5176 -3.2125
 3707SOL     OW22579   1.162   1.009   5.354 -0.1606 -0.0197  0.0435
 3707SOL    HW122580   1.149   0.965   5.270  1.2478 -0.4589  0.0558
 3707SOL    HW222581   1.220   0.946   5.397 -1.1220  0.6586  2.3476
 3708SOL     OW22582   4.554   3.881  13.525  0.2986 -0.4181  1.1047
 3708SOL    HW122583   4.623   3.893  13.590  1.3269  0.3467 -0.1429
 3708SOL    HW222584   4.578   3.796  13.490  0.5543  0.7099 -1.4674
 3709SOL     OW22585   2.741   0.646   9.813 -0.2456 -0.5174 -0.1791
 3709SOL    HW122586   2.690   0.676   9.888  1.4650 -0.0040  0.7915
 3709SOL    HW222587   2.673   0.600   9.764 -0.6330 -1.2287  1.0295
 3710SOL     OW22588   0.050   2.595  15.308 -0.5696  0.1462 -0.2208
 3710SOL    HW122589   0.047   2.575  15.401  4.5499  1.8453  0.3210
 3710SOL    HW222590   0.137   2.558  15.296 -0.2764  1.1112 -1.0981
 3711SOL     OW22591   4.222   0.630   2.376 -0.4601  0.1042 -0.4543
 3711SOL    HW122592   4.164   0.704   2.365  1.5880  0.9578 -5.6563
 3711SOL    HW222593   4.306   0.674   2.393 -0.0798 -0.2588 -1.3644
 3712SOL     OW22594   3.132   1.654   9.007  0.1396 -0.3525  0.1465
 3712SOL    HW122595   3.125   1.718   9.078  0.3432  0.4408 -0.5531
 3712SOL    HW222596   3.143   1.696   8.922 -1.3187 -0.3279 -0.0172
 3713SOL     OW22597   0.856   4.486  16.167 -0.0734 -0.0963 -0.3666
 3713SOL    HW122598   0.812   4.462  16.249  2.0346 -0.9425  0.5178
 3713SOL    HW222599   0.818   4.416  16.112 -0.0387  1.4523 -2.3556
 3714SOL     OW22600   4.432   0.898   6.174  0.3906  0.0326 -0.1923
 3714SOL    HW122601   4.341   0.872   6.188  0.2524  1.0259  0.8267
 3714SOL    HW222602   4.465   0.863   6.257 -1.9520 -0.1579  0.6593
 3715SOL     OW22603   1.134   1.263   6.755 -0.4917 -0.8325  0.2949
 3715SOL    HW122604   1.113   1.236   6.665 -0.4536 -1.0764  0.3604
 3715SOL    HW222605   1.046   1.295   6.777  0.0590  0.8031  0.0853
 3716SOL     OW22606   3.696   3.946   8.165  0.2897 -0.0568  0.1074
 3716SOL    HW122607   3.656   3.912   8.085  0.0376  0.5780 -0.0334
 3716SOL    HW222608   3.769   3.886   8.181  0.6070  0.3801  0.2691
 3717SOL     OW22609   2.893   4.161  14.948  0.0665 -0.4045 -0.3755
 3717SOL    HW122610   2.950   4.129  15.018 -1.3443 -1.2371  0.4138
 3717SOL    HW222611   2.852   4.079  14.919  0.3806  0.3672 -2.9958
 3718SOL     OW22612   4.116   1.126   0.414  0.1882 -0.2955 -0.1463
 3718SOL    HW122613   4.179   1.117   0.485 -0.2709 -0.6740  0.2093
 3718SOL    HW222614   4.052   1.188   0.448  1.9310  2.2507 -1.4701
 3719SOL     OW22615   0.380   2.697  11.042  0.1556  0.6829  0.0156
 3719SOL    HW122616   0.413   2.625  10.989  0.6355 -0.3392  1.7067
 3719SOL    HW222617   0.458   2.753  11.033  1.2575 -0.7040  0.8979
 3720SOL     OW22618   3.043   0.558   8.303  0.0551  0.1083  0.1075
 3720SOL    HW122619   3.036   0.502   8.381  2.9284  0.2129  0.4696
 3720SOL    HW222620   3.000   0.635   8.339 -0.0887  0.7205 -1.4079
 3721SOL     OW22621   4.039   2.782  10.177 -0.1492 -0.2316 -0.0855
 3721SOL    HW122622   4.062   2.723  10.249  2.9516  0.1592 -0.7460
 3721SOL    HW222623   3.943   2.777  10.182 -0.0110 -1.6019  1.1615
 3722SOL     OW22624   0.971   3.424  12.633 -0.0287 -0.2069  0.4473
 3722SOL    HW122625   0.959   3.383  12.547 -1.4642  0.2896  0.3984
 3722SOL    HW222626   0.882   3.435  12.668  0.1470  0.3909  0.7014
 3723SOL     OW22627   2.200   3.077   8.404 -0.1437 -0.4585  0.8679
 3723SOL    HW122628   2.207   2.991   8.362 -0.5077 -2.2417  4.4244
 3723SOL    HW222629   2.168   3.060   8.493  0.0784 -0.4179  0.9541
 3724SOL     OW22630   0.887   2.567   5.436  0.5492  0.3454  0.3771
 3724SOL    HW122631   0.920   2.646   5.480 -0.4688  0.6211  0.6425
 3724SOL    HW222632   0.967   2.515   5.434  1.1552  1.3194 -1.0101
 3725SOL     OW22633   0.312   4.093  12.725  0.4141 -0.1034 -0.6013
 3725SOL    HW122634   0.240   4.144  12.688 -0.8234 -0.0396  1.9322
 3725SOL    HW222635   0.373   4.167  12.725 -0.8155  0.8843  0.2090
 3726SOL     OW22636   0.163   3.272  11.565 -0.3109 -0.1297 -0.2934
 3726SOL    HW122637   0.195   3.245  11.652  0.5369  2.1314  0.0802
 3726SOL    HW222638   0.246   3.300  11.525  0.3241  1.3101  2.0299
 3727SOL     OW22639   1.604   4.620  12.822 -0.5481 -0.3775 -0.0812
 3727SOL    HW122640   1.567   4.534  12.845 -1.9805  0.3892  0.4452
 3727SOL    HW222641   1.693   4.620  12.858 -0.7372 -1.8729  0.3912
 3728SOL     OW22642   1.069   0.654   5.914 -0.3307  0.5732 -0.1898
 3728SOL    HW122643   0.974   0.651   5.897  0.2999  0.2403 -3.6800
 3728SOL    HW222644   1.073   0.730   5.973  2.6987  1.6371 -1.7913
 3729SOL     OW22645   0.965   3.287   9.791 -0.2769 -0.0221  0.3646
 3729SOL    HW122646   1.015   3.317   9.867  0.8613 -1.8367  0.3119
 3729SOL    HW222647   1.019   3.209   9.778 -0.2418 -0.2201  1.6696
 3730SOL     OW22648   4.195   0.689   8.331 -0.0990 -0.4073 -0.1142
 3730SOL    HW122649   4.121   0.633   8.356 -0.3567 -0.6990 -1.5368
 3730SOL    HW222650   4.197   0.742   8.410  1.1922 -1.5764  0.6241
 3731SOL     OW22651   2.817   0.006   7.378  0.1328  0.1900  0.4404
 3731SOL    HW122652   2.895   4.688   7.343 -0.4411 -0.8563  0.4535
 3731SOL    HW222653   2.755   4.658   7.375 -0.7967  1.0831 -2.8051
 3732SOL     OW22654   2.839   4.089   8.162 -0.3727 -0.5489 -0.1707
 3732SOL    HW122655   2.777   4.049   8.224 -2.2365  2.2391 -0.2004
 3732SOL    HW222656   2.787   4.081   8.082 -2.3405  1.7863  0.8532
 3733SOL     OW22657   4.504   2.583   4.946  0.2809 -0.4076  0.0446
 3733SOL    HW122658   4.468   2.546   5.027  1.1283 -1.4659 -0.0527
 3733SOL    HW222659   4.575   2.521   4.923  0.9311 -0.1497  1.3771
 3734SOL     OW22660   2.731   2.689   1.210 -0.4624  0.1343 -0.0373
 3734SOL    HW122661   2.779   2.678   1.292  1.5195  1.2168 -1.0721
 3734SOL    HW222662   2.757   2.603   1.176  0.8522  0.5048  0.0578
 3735SOL     OW22663   3.879   3.539   4.332 -0.2015 -0.3703  0.2704
 3735SOL    HW122664   3.837   3.552   4.247 -0.3074 -1.1899  0.1931
 3735SOL    HW222665   3.808   3.493   4.377 -0.4194  0.0154  0.3204
 3736SOL     OW22666   2.995   2.720  16.215 -0.1439 -0.2032  0.0454
 3736SOL    HW122667   2.947   2.802  16.219 -0.6965 -0.5756  1.2855
 3736SOL    HW222668   3.022   2.729  16.124 -0.1865  0.7051  0.1308
 3737SOL     OW22669   1.040   0.711   3.929  0.2698 -0.3014  0.2352
 3737SOL    HW122670   1.112   0.676   3.981  0.6966  0.5985  0.2525
 3737SOL    HW222671   1.079   0.691   3.844  0.3965  3.2354 -0.5693
 3738SOL     OW22672   2.396   2.858  12.417  0.1331  0.0517 -0.8505
 3738SOL    HW122673   2.349   2.846  12.500 -0.1665  1.9600 -0.7524
 3738SOL    HW222674   2.468   2.908  12.455  1.0926 -0.4243 -2.0715
 3739SOL     OW22675   1.597   2.539   8.452 -0.7365 -0.5221  0.4989
 3739SOL    HW122676   1.505   2.513   8.453  0.0714 -3.3467  1.7750
 3739SOL    HW222677   1.642   2.462   8.488  2.8321  0.3054 -2.1434
 3740SOL     OW22678   4.094   4.043  11.735  0.2363 -0.0895 -0.3418
 3740SOL    HW122679   4.176   4.089  11.751 -0.0066  0.0872  0.3874
 3740SOL    HW222680   4.123   3.954  11.758 -1.9007 -0.7880 -0.3353
 3741SOL     OW22681   3.111   4.712   7.990 -0.0610  0.1971  0.0090
 3741SOL    HW122682   3.072   4.633   7.950 -0.2321  0.1255  0.3142
 3741SOL    HW222683   3.035   0.038   8.016 -0.7392 -0.7525 -0.0693
 3742SOL     OW22684   1.336   2.763   8.404 -0.1091  0.1842  0.1096
 3742SOL    HW122685   1.334   2.717   8.488 -0.6184 -1.7277 -0.9589
 3742SOL    HW222686   1.285   2.839   8.434 -0.0056  0.9156 -1.5863
 3743SOL     OW22687   2.427   2.361   9.242  0.3814 -0.4477 -0.0842
 3743SOL    HW122688   2.389   2.304   9.309  0.8436  0.7593  1.1866
 3743SOL    HW222689   2.515   2.324   9.230  0.0228 -1.6289  0.9471
 3744SOL     OW22690   1.672   3.759   5.184  0.4188 -0.0295 -0.5475
 3744SOL    HW122691   1.623   3.806   5.252  1.8387 -2.1576  1.9248
 3744SOL    HW222692   1.664   3.670   5.217  0.4601  0.9337  2.1604
 3745SOL     OW22693   0.405   0.764   4.200  0.2380  0.0441  0.1974
 3745SOL    HW122694   0.485   0.809   4.224 -0.7726  1.8304  0.2353
 3745SOL    HW222695   0.436   0.686   4.154 -2.7952 -0.1188 -1.5952
 3746SOL     OW22696   2.295   4.071   7.664  0.7199 -0.0951 -0.2976
 3746SOL    HW122697   2.215   4.023   7.641  0.5458 -1.3621  2.9328
 3746SOL    HW222698   2.304   4.052   7.757  1.9400 -2.0057 -0.8032
 3747SOL     OW22699   1.570   3.247   7.192 -0.0717  0.2225 -0.1605
 3747SOL    HW122700   1.551   3.184   7.262  1.3961  0.1581  0.1984
 3747SOL    HW222701   1.579   3.327   7.245 -1.1222  0.4487 -0.3405
 3748SOL     OW22702   3.863   4.144  11.647 -0.1941 -0.2747  0.2058
 3748SOL    HW122703   3.795   4.081  11.667  0.0205 -0.6240 -0.1583
 3748SOL    HW222704   3.944   4.099  11.671 -0.0475  0.2694  0.7312
 3749SOL     OW22705   2.418   3.448   3.552  0.1712 -0.4087 -0.3246
 3749SOL    HW122706   2.418   3.461   3.457 -0.3131 -1.0319 -0.4105
 3749SOL    HW222707   2.338   3.409   3.587 -0.1992  1.5313  0.9614
 3750SOL     OW22708   1.894   3.255  11.873  0.0299  0.2067 -0.6713
 3750SOL    HW122709   1.807   3.246  11.912  1.0030  0.8799  1.6645
 3750SOL    HW222710   1.942   3.220  11.948 -1.3512  0.0826  0.1579
 3751SOL     OW22711   3.818   2.270   8.332 -0.3044  0.7443 -0.1179
 3751SOL    HW122712   3.742   2.327   8.341 -1.0914 -0.0781 -1.6203
 3751SOL    HW222713   3.870   2.329   8.277  0.9181  1.6673  2.0372
 3752SOL     OW22714   0.704   1.388   4.341  0.0226  0.1517 -0.5484
 3752SOL    HW122715   0.762   1.426   4.275  1.1261 -0.9603 -0.2133
 3752SOL    HW222716   0.679   1.468   4.388  1.5532  0.8340 -0.9087
 3753SOL     OW22717   2.590   1.449   4.470  0.7280 -0.3883 -0.5466
 3753SOL    HW122718   2.612   1.426   4.561 -0.3085  2.1420  0.3333
 3753SOL    HW222719   2.539   1.529   4.479  3.4977  1.1595  1.1696
 3754SOL     OW22720   2.508   2.818   6.699  0.1815  0.5893 -0.7434
 3754SOL    HW122721   2.510   2.795   6.606 -0.5541  0.9937 -0.8610
 3754SOL    HW222722   2.521   2.731   6.735 -0.3470 -0.7886 -3.9159
 3755SOL     OW22723   0.977   4.122   4.348  0.0262  0.2512  0.3239
 3755SOL    HW122724   0.942   4.042   4.310 -0.2111  0.8060 -0.6361
 3755SOL    HW222725   0.917   4.194   4.326  0.7153  0.4943 -0.7614
 3756SOL     OW22726   3.535   4.236   8.151 -0.0761 -0.2394  0.5993
 3756SOL    HW122727   3.544   4.168   8.217  0.0565  0.3383  1.1811
 3756SOL    HW222728   3.488   4.191   8.082 -1.8274  1.0018  0.9695
 3757SOL     OW22729   2.192   1.142   9.521 -0.8117  0.2297  0.5351
 3757SOL    HW122730   2.174   1.220   9.574  0.3133  1.1753 -0.4626
 3757SOL    HW222731   2.211   1.080   9.591 -0.8639  0.9120  1.1622
 3758SOL     OW22732   1.907   2.932   0.904 -0.0946  0.1412  0.3097
 3758SOL    HW122733   1.948   2.982   0.974 -0.5267  2.6538 -1.2279
 3758SOL    HW222734   1.864   3.001   0.853  0.0805 -0.7200 -0.9851
 3759SOL     OW22735   2.392   0.171  14.765  0.7979  0.2679 -0.0783
 3759SOL    HW122736   2.298   0.165  14.749  0.6973 -0.2495  0.6861
 3759SOL    HW222737   2.390   0.168  14.861  0.5625  0.9706 -0.0679
 3760SOL     OW22738   3.997   4.340   8.017 -0.2879  0.6183 -0.3121
 3760SOL    HW122739   3.923   4.299   7.972  1.4324 -0.9261 -1.7719
 3760SOL    HW222740   4.071   4.280   8.005 -1.7855 -1.4231  0.7804
 3761SOL     OW22741   4.630   0.363  16.444 -0.4424 -1.0179 -0.2515
 3761SOL    HW122742   4.547   0.386  16.487  1.9038  1.7259  2.8020
 3761SOL    HW222743   4.662   0.316  16.522  3.6161  0.8418 -0.8115
 3762SOL     OW22744   4.581   4.577  16.381  0.0187  0.2613  0.1093
 3762SOL    HW122745   4.579   4.485  16.405  0.3744 -0.2351 -1.7520
 3762SOL    HW222746   4.610   4.564  16.291  0.8616 -1.3668  0.6214
 3763SOL     OW22747   3.308   4.131   5.015 -0.0765 -0.1878 -0.3393
 3763SOL    HW122748   3.313   4.107   4.922 -0.8514 -2.1835  0.1241
 3763SOL    HW222749   3.298   4.044   5.054  1.7143  0.2308  1.0494
 3764SOL     OW22750   1.052   0.287   2.199  0.1830 -0.3330  0.2980
 3764SOL    HW122751   1.071   0.238   2.119  1.2537 -0.5290  0.6739
 3764SOL    HW222752   1.140   0.300   2.235  0.5696 -0.0276 -0.7547
 3765SOL     OW22753   0.819   3.652   5.288  0.3775 -0.6657  0.2170
 3765SOL    HW122754   0.737   3.701   5.286  0.8526  0.0573 -1.2803
 3765SOL    HW222755   0.890   3.708   5.258  1.4125 -1.4916  1.1335
 3766SOL     OW22756   0.907   2.913  11.628 -0.0803 -0.3916  0.3976
 3766SOL    HW122757   0.848   2.844  11.657 -0.8673  0.3098  0.4803
 3766SOL    HW222758   0.923   2.900  11.534 -2.8678 -2.2988  0.2024
 3767SOL     OW22759   0.300   1.729   7.883 -0.0448  0.5640  0.1550
 3767SOL    HW122760   0.267   1.647   7.920  1.0479 -1.4432 -3.4201
 3767SOL    HW222761   0.238   1.748   7.813 -0.5938 -1.1527  0.1875
 3768SOL     OW22762   2.809   2.477   7.592  0.3341  0.1745  0.5820
 3768SOL    HW122763   2.819   2.556   7.540  2.2527 -0.4580 -0.0073
 3768SOL    HW222764   2.887   2.479   7.648  0.7350  0.6614 -0.0038
 3769SOL     OW22765   4.623   3.446  13.138  0.7726  0.2423  0.3619
 3769SOL    HW122766   4.625   3.386  13.213 -1.8849 -0.1750  0.1163
 3769SOL    HW222767   4.626   3.381  13.068  1.1504 -0.3110  0.8972
 3770SOL     OW22768   0.492   0.733   9.068  0.1089  0.5633  0.2329
 3770SOL    HW122769   0.403   0.761   9.087 -0.5822 -0.6407 -1.1588
 3770SOL    HW222770   0.542   0.814   9.057 -1.1893  1.0747 -1.9262
 3771SOL     OW22771   4.293   0.611  12.670 -0.0304 -0.0756  0.3383
 3771SOL    HW122772   4.372   0.658  12.696 -0.0550  0.3088 -0.2733
 3771SOL    HW222773   4.249   0.671  12.610 -0.6077 -0.2082  0.6347
 3772SOL     OW22774   3.255   0.399  17.421 -0.2017 -0.8435  0.1320
 3772SOL    HW122775   3.252   0.403  17.325 -1.4851  1.0087  0.2532
 3772SOL    HW222776   3.244   0.304  17.430  2.2663 -1.1250  0.2367
 3773SOL     OW22777   1.234   2.793   3.858 -0.3071 -0.3383 -0.3654
 3773SOL    HW122778   1.303   2.801   3.792 -0.0274  0.4694  0.0296
 3773SOL    HW222779   1.189   2.715   3.823  1.0313  0.0942 -3.0444
 3774SOL     OW22780   0.725   2.417  15.779  0.0710 -1.0590  0.3873
 3774SOL    HW122781   0.759   2.417  15.868  0.2229 -0.6909  0.3290
 3774SOL    HW222782   0.764   2.335  15.748  2.8777  1.3866 -2.6065
 3775SOL     OW22783   4.055   3.752   0.032 -0.1010 -0.7974 -0.4289
 3775SOL    HW122784   4.115   3.678   0.021 -0.6958 -1.4211  0.5797
 3775SOL    HW222785   3.982   3.718   0.083  0.1880  0.7899  1.0491
 3776SOL     OW22786   3.022   3.267   8.438  0.0573  0.0122 -0.2001
 3776SOL    HW122787   2.964   3.342   8.424  0.0652  0.0170 -0.2073
 3776SOL    HW222788   3.094   3.282   8.377  1.6337 -2.2976  1.1030
 3777SOL     OW22789   0.111   0.292   7.260 -0.1570 -0.3958  0.4936
 3777SOL    HW122790   0.197   0.269   7.225 -0.2657 -1.0251  0.6393
 3777SOL    HW222791   0.126   0.329   7.347  0.2041  0.0508  0.2391
 3778SOL     OW22792   1.293   1.302   7.459 -0.0290  0.0946 -0.2153
 3778SOL    HW122793   1.222   1.241   7.438 -1.2006  1.0222  1.0776
 3778SOL    HW222794   1.323   1.318   7.370 -1.1947 -1.5727 -0.9122
 3779SOL     OW22795   3.886   0.236   7.697 -0.1451 -0.2730 -0.2201
 3779SOL    HW122796   3.843   0.167   7.647 -0.4218  0.5620 -1.1194
 3779SOL    HW222797   3.926   0.187   7.769  0.1766 -0.8962 -0.8228
 3780SOL     OW22798   2.709   1.363   5.311  0.0755 -0.3505 -0.5084
 3780SOL    HW122799   2.630   1.335   5.265 -0.8597  0.0219  0.9099
 3780SOL    HW222800   2.702   1.317   5.394 -1.4254  1.0626  0.1433
 3781SOL     OW22801   2.610   4.374   1.961  0.2678 -0.3840 -0.3514
 3781SOL    HW122802   2.599   4.351   2.054  1.0324 -0.0852 -0.1879
 3781SOL    HW222803   2.525   4.361   1.918 -0.0051  1.8006 -0.4885
 3782SOL     OW22804   4.256   4.485   8.144 -0.2709 -0.3416  0.0511
 3782SOL    HW122805   4.320   4.451   8.083  0.0756  0.5017 -0.0536
 3782SOL    HW222806   4.172   4.460   8.106  0.4063 -0.0947 -1.5904
 3783SOL     OW22807   1.697   3.404   3.816  0.2502 -0.1643  0.4448
 3783SOL    HW122808   1.754   3.393   3.892 -0.0407  1.9826  0.9801
 3783SOL    HW222809   1.622   3.413   3.874  0.5629  1.9522  0.5114
 3784SOL     OW22810   2.672   1.666   5.636 -0.6510 -0.3522 -0.2843
 3784SOL    HW122811   2.589   1.627   5.664 -1.8204  2.7951  0.6688
 3784SOL    HW222812   2.639   1.752   5.613  2.4792  1.0335  0.4005
 3785SOL     OW22813   1.853   0.999  13.660  0.3829  0.1965  0.1104
 3785SOL    HW122814   1.846   0.939  13.735  1.9228 -0.3617 -0.1918
 3785SOL    HW222815   1.771   0.982  13.614  0.3403  1.6290 -0.3340
 3786SOL     OW22816   1.440   0.602   3.509 -0.3256  0.0622 -0.1954
 3786SOL    HW122817   1.442   0.610   3.605  1.9532  0.6277 -0.2955
 3786SOL    HW222818   1.387   0.681   3.496 -3.5470 -2.3162 -1.6648
 3787SOL     OW22819   1.914   3.707  15.869 -0.3810  0.1534 -0.2089
 3787SOL    HW122820   1.897   3.707  15.963  2.3085 -1.1795  0.2698
 3787SOL    HW222821   2.004   3.738  15.863  0.1784 -1.6507 -1.0156
 3788SOL     OW22822   1.516   3.326   4.021 -0.2444 -0.1828 -0.7107
 3788SOL    HW122823   1.475   3.241   4.036 -1.2590  0.5675  0.7196
 3788SOL    HW222824   1.530   3.354   4.111  2.5613 -1.1836 -0.8187
 3789SOL     OW22825   3.315   0.496   7.067 -0.5000 -0.1756 -0.0318
 3789SOL    HW122826   3.277   0.575   7.105  3.0562  1.1908  0.7193
 3789SOL    HW222827   3.239   0.439   7.062  0.2852 -1.2265 -0.1074
 3790SOL     OW22828   1.315   4.517   9.817  0.0700 -0.0996  0.1543
 3790SOL    HW122829   1.338   4.563   9.736  0.5043 -1.0858 -0.2876
 3790SOL    HW222830   1.320   4.424   9.796  0.1480 -0.0125 -0.2072
 3791SOL     OW22831   3.445   0.460   3.192  0.9640 -0.3919 -0.1863
 3791SOL    HW122832   3.481   0.372   3.190  0.0516 -0.7510 -1.3846
 3791SOL    HW222833   3.371   0.452   3.132 -0.2810  0.7126  1.2204
 3792SOL     OW22834   2.811   4.279   1.322 -0.0333 -0.3044  0.4386
 3792SOL    HW122835   2.755   4.253   1.249  0.3977 -1.1849  0.4343
 3792SOL    HW222836   2.892   4.311   1.282 -0.6313 -0.3978 -0.8575
 3793SOL     OW22837   2.230   0.572   3.482  0.3959 -0.5173 -0.7690
 3793SOL    HW122838   2.140   0.588   3.454 -0.3546 -1.0634  1.3503
 3793SOL    HW222839   2.232   0.476   3.482 -0.1843 -0.5306 -0.8845
 3794SOL     OW22840   1.060   4.295   6.114 -0.3358 -0.6252  0.3599
 3794SOL    HW122841   1.001   4.253   6.051 -0.5451 -0.6323  0.5600
 3794SOL    HW222842   1.113   4.222   6.146  1.5529  0.4479 -0.3368
 3795SOL     OW22843   1.723   1.381   3.766 -0.2159  0.2641  0.7304
 3795SOL    HW122844   1.761   1.468   3.752 -1.8786  0.4940 -2.3754
 3795SOL    HW222845   1.728   1.355   3.674  1.6858 -0.5547  1.0527
 3796SOL     OW22846   0.711   4.459   2.655 -0.2940 -0.1790 -0.2607
 3796SOL    HW122847   0.734   4.370   2.680 -0.2468 -0.0412  0.1797
 3796SOL    HW222848   0.706   4.443   2.561 -1.2305 -2.4324  0.1802
 3797SOL     OW22849   1.692   3.556   1.762  0.6400  0.0793 -0.7148
 3797SOL    HW122850   1.629   3.484   1.760  0.5888  0.1125 -0.2236
 3797SOL    HW222851   1.711   3.575   1.670  0.3588  2.6377 -0.2585
 3798SOL     OW22852   2.219   4.225   5.898  0.3598 -0.0039 -0.0304
 3798SOL    HW122853   2.301   4.203   5.853  0.5901  0.1639  0.3049
 3798SOL    HW222854   2.249   4.281   5.970 -1.3760  0.9052 -0.0109
 3799SOL     OW22855   0.809   0.108   8.980 -0.1034 -0.0135 -0.1461
 3799SOL    HW122856   0.748   0.111   8.906  0.0133  1.5949 -0.1838
 3799SOL    HW222857   0.745   0.096   9.050  0.1390  0.3822  0.1384
 3800SOL     OW22858   1.506   3.931   4.360  0.0095 -0.5380  0.3910
 3800SOL    HW122859   1.440   3.987   4.401  0.1907 -0.3566  0.4331
 3800SOL    HW222860   1.441   3.874   4.319  1.7889 -1.1999 -1.5069
 3801SOL     OW22861   2.867   4.174   3.193 -0.4536 -0.2893 -0.7421
 3801SOL    HW122862   2.830   4.162   3.281 -0.8031  3.6408 -0.3642
 3801SOL    HW222863   2.954   4.211   3.210 -1.0896 -0.7670  3.5242
 3802SOL     OW22864   4.347   3.271  11.274 -0.6833 -0.4955  0.0848
 3802SOL    HW122865   4.418   3.207  11.270 -0.6590 -0.5000  0.5574
 3802SOL    HW222866   4.315   3.262  11.185 -0.1380 -2.0672  0.0448
 3803SOL     OW22867   1.712   1.679   9.023 -0.4653 -0.2992  0.5425
 3803SOL    HW122868   1.716   1.774   9.025 -1.1728 -0.2995  1.6829
 3803SOL    HW222869   1.758   1.665   8.940  1.6240  1.3773  1.4126
 3804SOL     OW22870   1.953   1.862   7.283  0.1666 -0.0407  0.1123
 3804SOL    HW122871   2.027   1.816   7.324  1.7229  0.6372 -1.9412
 3804SOL    HW222872   2.000   1.916   7.219 -2.2128 -0.6251 -2.1311
 3805SOL     OW22873   3.273   0.181   3.067 -0.2860 -0.2287 -0.1098
 3805SOL    HW122874   3.221   0.115   3.020 -0.7648  2.2323 -3.0179
 3805SOL    HW222875   3.226   0.264   3.056  0.6298  0.0985 -1.5725
 3806SOL     OW22876   0.499   1.282  17.039  0.0458  0.1840  0.1848
 3806SOL    HW122877   0.468   1.329  16.962  1.9364 -0.6053 -1.0565
 3806SOL    HW222878   0.443   1.204  17.034 -0.3925  0.4818  0.4682
 3807SOL     OW22879   2.446   0.088   6.437 -0.0787  0.1146  0.5584
 3807SOL    HW122880   2.501   0.047   6.504  0.5116  0.4945  0.3039
 3807SOL    HW222881   2.453   0.029   6.362  2.1904 -0.1306  0.9681
 3808SOL     OW22882   1.128   1.706   6.943 -0.1257  0.5971  0.0910
 3808SOL    HW122883   1.186   1.753   7.003 -1.1236  0.8219  0.8693
 3808SOL    HW222884   1.182   1.710   6.864  0.9847  0.7424  0.8517
 3809SOL     OW22885   1.389   2.711   7.212 -0.4762  0.1252 -0.3655
 3809SOL    HW122886   1.426   2.645   7.154 -0.6979  0.5551 -0.9965
 3809SOL    HW222887   1.464   2.770   7.223  0.1592 -0.5860 -0.8830
 3810SOL     OW22888   4.199   3.966   3.110 -0.1139  0.1216 -0.1216
 3810SOL    HW122889   4.105   3.952   3.100 -0.0661  0.4931 -1.1399
 3810SOL    HW222890   4.229   3.876   3.121 -0.3602  0.3269  2.1796
 3811SOL     OW22891   1.090   1.625   2.234  0.2115  0.2062 -0.3819
 3811SOL    HW122892   1.106   1.636   2.141  0.0065  0.6725 -0.3586
 3811SOL    HW222893   1.175   1.661   2.260 -0.0761 -1.0300  2.3421
 3812SOL     OW22894   3.770   4.554  10.467 -0.2375  0.0227  0.1771
 3812SOL    HW122895   3.794   4.618  10.400 -0.5853  2.8186  2.7171
 3812SOL    HW222896   3.841   4.575  10.528  0.1802  1.6059 -0.8723
 3813SOL     OW22897   3.264   2.282  11.636 -0.2875  0.0108 -1.2975
 3813SOL    HW122898   3.266   2.251  11.727 -2.2807 -0.6630 -1.4931
 3813SOL    HW222899   3.174   2.269  11.609 -0.3937  1.6681 -1.7146
 3814SOL     OW22900   1.003   1.457   2.998  0.4450  0.3258 -0.1028
 3814SOL    HW122901   0.994   1.552   2.986  1.0456  0.5648  1.3652
 3814SOL    HW222902   0.983   1.444   3.091 -4.1391 -1.5474 -1.3481
 3815SOL     OW22903   0.516   1.003   7.513 -0.4869 -0.6732  0.3341
 3815SOL    HW122904   0.499   1.073   7.576  1.4397 -1.0087  1.2390
 3815SOL    HW222905   0.446   0.939   7.527 -0.0353 -0.8050  1.9432
 3816SOL     OW22906   3.850   4.573   0.347  0.2891  1.0257 -0.4670
 3816SOL    HW122907   3.941   4.568   0.316  0.8434  0.3975  1.2638
 3816SOL    HW222908   3.859   4.600   0.438  2.7677  0.7040 -0.6089
 3817SOL     OW22909   2.219   2.421   8.451 -0.2670 -0.0813 -0.1492
 3817SOL    HW122910   2.272   2.349   8.416  0.8565 -0.3560  2.0556
 3817SOL    HW222911   2.217   2.417   8.547 -0.8169 -0.3991 -0.1764
 3818SOL     OW22912   3.766   2.909   7.452  0.4097 -0.1495  0.2336
 3818SOL    HW122913   3.674   2.887   7.439  0.1906 -0.4180  2.2476
 3818SOL    HW222914   3.783   2.980   7.389 -0.3043  0.8102  1.1324
 3819SOL     OW22915   0.777   0.823  14.586 -0.0465 -0.5077  0.4597
 3819SOL    HW122916   0.868   0.824  14.560  0.2852 -1.4363  1.5699
 3819SOL    HW222917   0.790   0.849  14.678 -0.1073  2.5184 -0.3948
 3820SOL     OW22918   1.862   1.835   5.694 -0.8956 -0.8980 -0.4684
 3820SOL    HW122919   1.868   1.749   5.653  1.2763 -0.6799 -0.6036
 3820SOL    HW222920   1.767   1.850   5.693 -0.6422  0.8560  0.4094
 3821SOL     OW22921   4.671   3.412   6.713 -0.0958 -0.1077  0.2687
 3821SOL    HW122922   0.001   3.337   6.735 -0.1050 -0.2470 -0.1828
 3821SOL    HW222923   4.582   3.376   6.711 -0.2580  0.3984 -1.3449
 3822SOL     OW22924   2.671   4.108   9.007  0.6764 -0.6699 -0.1323
 3822SOL    HW122925   2.630   4.125   9.092  0.9018 -2.1266  0.2627
 3822SOL    HW222926   2.725   4.030   9.023  3.0114  0.5229 -2.2218
 3823SOL     OW22927   2.094   1.393   3.385 -0.3522  0.0005 -0.0854
 3823SOL    HW122928   2.166   1.392   3.449 -1.3454 -0.7163  1.0243
 3823SOL    HW222929   2.135   1.335   3.321 -0.2929 -1.1090  0.9417
 3824SOL     OW22930   4.023   3.293  11.283 -0.1464  0.3200 -0.1881
 3824SOL    HW122931   3.996   3.385  11.277  2.2312  0.9539 -1.1529
 3824SOL    HW222932   4.017   3.263  11.192  1.0252 -4.4369  1.3211
 3825SOL     OW22933   3.707   4.340   9.687 -0.0254  0.7553 -0.1159
 3825SOL    HW122934   3.637   4.388   9.732 -0.0871  0.5343  0.0247
 3825SOL    HW222935   3.658   4.314   9.609  0.9277  0.7841 -0.7167
 3826SOL     OW22936   2.443   1.469   9.911 -0.1272  0.2867  0.2811
 3826SOL    HW122937   2.411   1.557   9.930  0.6410  0.7634 -0.6933
 3826SOL    HW222938   2.535   1.493   9.908  0.7887 -3.1140  0.6733
 3827SOL     OW22939   1.223   1.421   3.885  0.4438 -0.0498 -0.0230
 3827SOL    HW122940   1.267   1.474   3.951  0.2250 -1.4458  1.2340
 3827SOL    HW222941   1.248   1.480   3.813 -0.1858 -0.2025 -0.3700
 3828SOL     OW22942   0.486   0.197   5.466  0.2107  0.0329 -0.6318
 3828SOL    HW122943   0.534   0.124   5.426  2.2142  0.5124  0.9134
 3828SOL    HW222944   0.556   0.260   5.481 -0.6183  0.2914  2.1515
 3829SOL     OW22945   1.796   0.710  10.132  0.1740  0.3079 -0.1309
 3829SOL    HW122946   1.828   0.770  10.200 -0.4572 -0.8914  1.2300
 3829SOL    HW222947   1.782   0.760  10.051 -0.4759  0.1156 -0.1412
 3830SOL     OW22948   3.025   2.023  16.189  0.1338 -0.4909 -0.5914
 3830SOL    HW122949   3.086   1.985  16.253  0.6059 -0.3037 -0.9271
 3830SOL    HW222950   2.998   2.102  16.234  3.2954 -0.6038  1.4822
 3831SOL     OW22951   4.309   4.136  15.326 -0.2949  0.1140  0.0756
 3831SOL    HW122952   4.386   4.191  15.314 -1.0456  0.9113 -1.0812
 3831SOL    HW222953   4.267   4.178  15.401 -0.0775 -1.6448  1.1933
 3832SOL     OW22954   2.706   0.118  11.397 -0.2238 -0.6059  0.1722
 3832SOL    HW122955   2.716   0.163  11.481  0.1641 -1.3173  0.5060
 3832SOL    HW222956   2.786   0.149  11.354  1.0019 -1.3196  1.9156
 3833SOL     OW22957   2.255   0.512  17.474  0.2223  0.1359  0.0874
 3833SOL    HW122958   2.287   0.432  17.433  2.3532  1.2265 -0.4066
 3833SOL    HW222959   2.328   0.573  17.459  1.1318 -0.9088  0.2902
 3834SOL     OW22960   2.810   3.348  14.798 -0.0333  0.5438  0.7402
 3834SOL    HW122961   2.852   3.264  14.815  0.8965  0.9163  0.2800
 3834SOL    HW222962   2.748   3.325  14.729  1.4791  0.8655 -0.7356
 3835SOL     OW22963   0.596   2.854   8.473  0.1248  0.1162 -0.5253
 3835SOL    HW122964   0.608   2.786   8.539  0.7505  0.7892  0.0512
 3835SOL    HW222965   0.500   2.848   8.471  0.2990 -2.2104 -1.8754
 3836SOL     OW22966   3.442   0.901   8.699  0.3457 -0.4747 -0.2246
 3836SOL    HW122967   3.378   0.956   8.744 -2.4142 -3.3650 -0.5857
 3836SOL    HW222968   3.521   0.942   8.734  1.2088 -3.2783  1.1089
 3837SOL     OW22969   0.045   3.032   3.002 -0.4975 -0.3500 -0.4888
 3837SOL    HW122970   0.039   3.105   2.941 -1.2756 -0.5426 -0.6520
 3837SOL    HW222971   0.117   2.981   2.968  0.9589  0.4965  1.3224
 3838SOL     OW22972   1.834   1.693   3.197 -0.2004  0.4213 -0.1618
 3838SOL    HW122973   1.790   1.769   3.237  1.9289  2.6167 -1.9660
 3838SOL    HW222974   1.907   1.692   3.260 -0.2337  1.5517 -0.0930
 3839SOL     OW22975   3.073   1.125   4.418  0.3095 -0.2931 -0.2843
 3839SOL    HW122976   3.039   1.214   4.423 -0.5243 -0.4784 -2.4272
 3839SOL    HW222977   3.161   1.142   4.451 -0.3101  0.3665  1.0150
 3840SOL     OW22978   4.575   3.120   6.781  0.5058 -0.2515 -0.5335
 3840SOL    HW122979   4.664   3.126   6.817  0.0831 -0.3726  0.5548
 3840SOL    HW222980   4.594   3.088   6.693  2.1976 -1.4949  0.2818
 3841SOL     OW22981   3.283   0.390   5.441  0.7662 -0.2866 -0.6505
 3841SOL    HW122982   3.295   0.342   5.523 -1.2093  2.0270  0.9950
 3841SOL    HW222983   3.266   0.318   5.380 -0.6697 -2.7898  2.7366
 3842SOL     OW22984   2.556   3.362   3.134  0.1953 -0.3076 -0.0345
 3842SOL    HW122985   2.629   3.311   3.099 -0.3909 -1.3934  0.3169
 3842SOL    HW222986   2.586   3.450   3.112 -1.2710 -0.1604 -1.4770
 3843SOL     OW22987   2.007   3.038   7.828 -0.3910 -0.9127  0.5478
 3843SOL    HW122988   1.961   3.115   7.792 -2.1063 -2.2426 -0.1174
 3843SOL    HW222989   1.931   2.981   7.837 -0.9710  0.0000  1.3941
 3844SOL     OW22990   1.455   1.895  16.257 -0.2527 -0.4017  0.1288
 3844SOL    HW122991   1.512   1.820  16.242  0.1446  0.0826 -0.7960
 3844SOL    HW222992   1.517   1.960  16.224 -0.7494  0.2299  0.4456
 3845SOL     OW22993   0.653   0.429  15.757 -0.4199 -0.7986 -0.0831
 3845SOL    HW122994   0.657   0.498  15.822  0.4285 -0.2503 -0.7151
 3845SOL    HW222995   0.565   0.397  15.778 -0.1661 -1.3683  0.1209
 3846SOL     OW22996   1.633   3.116   8.831 -0.5345  0.0199  0.1249
 3846SOL    HW122997   1.588   3.069   8.761  1.6560 -0.6249 -0.8660
 3846SOL    HW222998   1.569   3.134   8.899 -1.0359  1.7131 -0.7855
 3847SOL     OW22999   3.872   2.187   9.484  0.0716  0.0477 -0.0790
 3847SOL    HW123000   3.940   2.122   9.503  0.2905  0.6014  1.0195
 3847SOL    HW223001   3.912   2.227   9.406 -2.6728  1.2651 -0.8782
 3848SOL     OW23002   2.151   1.822   6.597 -0.1894  0.1362 -0.3290
 3848SOL    HW123003   2.074   1.843   6.544 -2.7412 -0.8134  3.0359
 3848SOL    HW223004   2.140   1.730   6.621  1.0479 -0.0613 -0.4945
 3849SOL     OW23005   0.741   3.491  14.641  0.2454  0.5028 -0.6230
 3849SOL    HW123006   0.818   3.495  14.584  0.9906  0.1813  0.3605
 3849SOL    HW223007   0.777   3.502  14.729  0.4939 -1.0053 -0.5306
 3850SOL     OW23008   1.186   4.121  14.835 -0.1072 -0.3506  0.0260
 3850SOL    HW123009   1.126   4.195  14.834 -0.3774 -0.5707 -0.0158
 3850SOL    HW223010   1.140   4.072  14.903  0.6200 -0.0242  0.7583
 3851SOL     OW23011   0.463   0.755   2.904 -0.5397 -0.9826 -0.2203
 3851SOL    HW123012   0.461   0.669   2.945 -1.2903  0.9572  3.8003
 3851SOL    HW223013   0.480   0.803   2.985  3.2381  1.4957 -2.5253
 3852SOL     OW23014   4.245   2.153   1.116  0.2983 -1.0359 -0.1738
 3852SOL    HW123015   4.167   2.096   1.114 -0.0196 -0.6003 -0.0822
 3852SOL    HW223016   4.262   2.163   1.210  0.9365  0.4926 -0.4629
 3853SOL     OW23017   3.328   3.302   4.025 -0.6391  0.2841 -0.7541
 3853SOL    HW123018   3.418   3.332   4.014 -0.0584 -0.6133  1.7257
 3853SOL    HW223019   3.323   3.302   4.120 -4.1550 -0.6080 -0.9434
 3854SOL     OW23020   2.507   0.564  17.394  0.1682 -0.5027 -0.1271
 3854SOL    HW123021   2.591   0.533  17.428  1.0182  2.0920  0.1907
 3854SOL    HW223022   2.520   0.656  17.368  1.4679 -0.6667 -0.0567
 3855SOL     OW23023   4.475   0.755   5.321  0.0865 -0.2760 -0.1885
 3855SOL    HW123024   4.502   0.779   5.410  2.4041  0.5919 -1.1165
 3855SOL    HW223025   4.453   0.841   5.287  3.3625  1.3293  1.7310
 3856SOL     OW23026   4.696   2.482  14.366 -0.2510 -0.3823  0.0326
 3856SOL    HW123027   4.614   2.522  14.336  0.4636 -1.1381 -2.9700
 3856SOL    HW223028   0.019   2.479  14.283  1.2374 -1.3278  0.9515
 3857SOL     OW23029   4.123   3.718  14.140 -0.4989  0.2792  0.2543
 3857SOL    HW123030   4.200   3.679  14.182 -1.4282 -0.3871  1.3317
 3857SOL    HW223031   4.054   3.729  14.205 -1.7856  0.1571 -1.0723
 3858SOL     OW23032   4.517   2.487   2.205 -0.0779  0.5467 -0.2081
 3858SOL    HW123033   4.563   2.539   2.139  0.5987  0.8904  0.5322
 3858SOL    HW223034   4.555   2.532   2.280  2.6401  0.2815 -1.4419
 3859SOL     OW23035   1.321   1.839   7.838  0.4834  0.1099  0.2330
 3859SOL    HW123036   1.337   1.865   7.747 -0.6622  1.6764  0.4837
 3859SOL    HW223037   1.385   1.893   7.884  0.7782 -1.7597  1.9949
 3860SOL     OW23038   0.334   0.165   8.803  0.2538 -0.5998  0.4596
 3860SOL    HW123039   0.297   0.089   8.849  0.2731 -1.0454 -0.2675
 3860SOL    HW223040   0.264   0.226   8.827 -0.5420 -1.3159 -0.0617
 3861SOL     OW23041   3.405   3.752   8.372  0.2189  0.4966 -0.0091
 3861SOL    HW123042   3.433   3.668   8.408  2.6490  0.3817 -2.1814
 3861SOL    HW223043   3.314   3.738   8.348  0.0832  1.2370  0.0541
 3862SOL     OW23044   1.068   1.575   1.391  0.0765  0.3817 -0.1580
 3862SOL    HW123045   1.132   1.622   1.337  0.2773 -1.5378 -1.6009
 3862SOL    HW223046   0.996   1.638   1.392  1.2961  1.8225 -2.3254
 3863SOL     OW23047   2.600   0.058   9.997 -0.6585  0.3362 -0.6147
 3863SOL    HW123048   2.552   0.139   9.979  1.5751  1.7500 -0.1999
 3863SOL    HW223049   2.684   0.070   9.953 -0.4378  1.3041  0.0696
 3864SOL     OW23050   2.686   0.851   1.907  0.2547  0.5604 -0.4939
 3864SOL    HW123051   2.663   0.917   1.842  0.7750 -0.0963 -1.3360
 3864SOL    HW223052   2.637   0.882   1.983 -1.4124 -0.5925 -1.1132
 3865SOL     OW23053   0.617   2.464  10.423 -0.0835 -0.8023  0.0727
 3865SOL    HW123054   0.663   2.543  10.396  0.9951 -0.9448  1.5090
 3865SOL    HW223055   0.554   2.470  10.351 -0.0370 -1.6330 -0.0405
 3866SOL     OW23056   3.934   2.465   3.271 -0.0214  0.0511  0.1247
 3866SOL    HW123057   4.004   2.513   3.316 -2.3138  1.8921  1.7121
 3866SOL    HW223058   3.861   2.501   3.321 -1.0228 -1.7728 -0.0158
 3867SOL     OW23059   1.056   3.232   4.088  0.0013  0.2336 -0.3579
 3867SOL    HW123060   1.078   3.311   4.038  2.0780 -0.7674 -1.0043
 3867SOL    HW223061   0.999   3.180   4.032 -1.3991  1.8027 -0.3876
 3868SOL     OW23062   4.256   0.411  15.292  1.5639 -0.0741 -0.0943
 3868SOL    HW123063   4.180   0.417  15.234  1.7953  2.5607 -0.1270
 3868SOL    HW223064   4.303   0.347  15.238  1.4519 -0.4884  0.3070
 3869SOL     OW23065   0.522   2.022   3.160  0.0125  0.1180 -0.4636
 3869SOL    HW123066   0.505   2.116   3.167 -1.0882 -0.2521  1.8116
 3869SOL    HW223067   0.452   1.995   3.101  0.4917  0.4905 -1.2050
 3870SOL     OW23068   1.764   3.526   3.086  0.0297 -0.1941  0.1446
 3870SOL    HW123069   1.812   3.591   3.035 -0.0907 -0.9564 -0.9551
 3870SOL    HW223070   1.720   3.492   3.008  2.1771 -0.4633 -0.9358
 3871SOL     OW23071   0.884   3.952   6.324 -0.1732 -0.0109  0.3199
 3871SOL    HW123072   0.976   3.968   6.306 -0.3165 -0.9288 -1.1703
 3871SOL    HW223073   0.892   3.903   6.406  0.4237  1.2617  1.0251
 3872SOL     OW23074   2.934   1.302   1.972  0.2556 -0.0385 -0.9523
 3872SOL    HW123075   2.948   1.356   2.050  1.2890 -0.5083 -0.8087
 3872SOL    HW223076   2.939   1.369   1.904 -2.7432  0.5226 -0.6431
 3873SOL     OW23077   1.496   3.821   8.305 -0.1292 -0.0098  0.4444
 3873SOL    HW123078   1.443   3.879   8.249  0.3978 -1.6256 -1.7557
 3873SOL    HW223079   1.456   3.840   8.390 -1.5419  0.5281 -0.3315
 3874SOL     OW23080   4.633   3.895   6.505 -0.0394  0.0851 -0.2004
 3874SOL    HW123081   4.696   3.967   6.511 -0.9185  0.8816 -0.5926
 3874SOL    HW223082   4.682   3.824   6.463 -0.4700 -0.9289  1.0249
 3875SOL     OW23083   2.035   1.653  11.011  0.4194 -0.1413 -0.4796
 3875SOL    HW123084   1.973   1.717  11.047  1.1655  0.4600 -0.2491
 3875SOL    HW223085   1.994   1.621  10.931 -2.8368 -0.5302  1.3543
 3876SOL     OW23086   1.431   2.026  15.626  0.0131  0.4525 -0.7234
 3876SOL    HW123087   1.398   2.094  15.568  3.2111  0.1628 -2.8605
 3876SOL    HW223088   1.390   2.045  15.711  0.7388 -0.3564 -0.1900
 3877SOL     OW23089   1.333   4.679   0.344 -0.2316 -0.2525 -0.4329
 3877SOL    HW123090   1.349   0.042   0.313 -0.2356  0.1821  0.8280
 3877SOL    HW223091   1.421   4.656   0.375 -0.3330 -0.3094 -0.1851
 3878SOL     OW23092   0.493   1.703  15.175 -0.0085 -0.1993 -0.0030
 3878SOL    HW123093   0.572   1.662  15.139 -0.1150 -1.1697  0.8469
 3878SOL    HW223094   0.429   1.632  15.166 -1.8775  1.5759 -0.7315
 3879SOL     OW23095   0.188   3.319   4.702 -0.2858  0.2651  0.0974
 3879SOL    HW123096   0.248   3.301   4.630 -1.8546  2.6879 -1.8055
 3879SOL    HW223097   0.127   3.246   4.692  0.2920 -0.2574  0.3554
 3880SOL     OW23098   4.163   2.948  10.489  0.1999  0.0122  0.0283
 3880SOL    HW123099   4.127   2.990  10.568 -0.1770  1.3368 -0.8564
 3880SOL    HW223100   4.248   2.923  10.525  0.2420 -2.2539 -1.6462
 3881SOL     OW23101   1.515   2.298   8.059  0.4255 -0.1421 -0.0476
 3881SOL    HW123102   1.450   2.266   8.123  1.8646  0.0617  1.5203
 3881SOL    HW223103   1.461   2.365   8.017 -1.3714  0.5137  3.2813
 3882SOL     OW23104   4.483   3.270   7.865  0.1200  0.2767 -0.4829
 3882SOL    HW123105   4.505   3.293   7.775  1.5002 -1.4233 -0.5594
 3882SOL    HW223106   4.568   3.288   7.905  0.7690 -3.6101 -0.1994
 3883SOL     OW23107   2.490   0.148  16.080 -0.4293  0.3418 -0.3228
 3883SOL    HW123108   2.413   0.104  16.115 -0.2615 -0.3655 -0.8448
 3883SOL    HW223109   2.468   0.234  16.044 -3.4947 -0.1019  0.4627
 3884SOL     OW23110   3.916   3.736  10.465 -0.5918 -1.0568  0.4689
 3884SOL    HW123111   3.882   3.807  10.519 -2.4579 -2.3099  0.9376
 3884SOL    HW223112   3.958   3.681  10.531 -0.7748 -1.5290  0.1874
 3885SOL     OW23113   2.769   3.380   0.056  0.1801  0.5012 -0.4072
 3885SOL    HW123114   2.761   3.474   0.074 -0.8136  0.8510 -2.7282
 3885SOL    HW223115   2.719   3.347   0.130 -0.3756  1.4077 -0.3836
 3886SOL     OW23116   2.121   3.032   2.984 -0.7984  0.0770  0.2922
 3886SOL    HW123117   2.055   3.100   2.998 -1.4208 -0.3890 -0.3870
 3886SOL    HW223118   2.174   3.069   2.914 -0.0660 -0.4278  0.5770
 3887SOL     OW23119   4.556   2.707   0.907 -0.0588 -1.1394  0.3692
 3887SOL    HW123120   4.508   2.626   0.924  2.0698 -2.1538  1.5288
 3887SOL    HW223121   4.563   2.745   0.995  0.4880  0.0095 -0.1624
 3888SOL     OW23122   1.108   0.955  13.481  0.2873 -0.1990  0.0409
 3888SOL    HW123123   1.089   0.977  13.573 -0.9324 -0.4922 -0.1488
 3888SOL    HW223124   1.119   1.040  13.439 -0.2934 -0.6925 -1.1032
 3889SOL     OW23125   3.278   1.886   7.660  0.1120 -0.2483 -0.0843
 3889SOL    HW123126   3.320   1.822   7.717 -0.6296  0.2469  1.0278
 3889SOL    HW223127   3.283   1.838   7.578  1.4468 -0.4119  0.0967
 3890SOL     OW23128   4.084   2.404   4.384 -0.7118  0.3170  0.7336
 3890SOL    HW123129   4.165   2.434   4.426 -0.3801  0.0863  0.2705
 3890SOL    HW223130   4.026   2.462   4.433 -1.0678  0.2868  0.3506
 3891SOL     OW23131   1.171   3.019  11.453  0.8194  0.4212 -0.2994
 3891SOL    HW123132   1.112   3.063  11.392  0.6167 -1.1035 -1.1906
 3891SOL    HW223133   1.182   3.090  11.516 -1.6323 -2.3591  3.2375
 3892SOL     OW23134   1.970   2.122   9.535  0.4035  0.8671  0.5139
 3892SOL    HW123135   1.962   2.073   9.617  1.6730  0.9634  0.6951
 3892SOL    HW223136   1.973   2.209   9.575  0.4083  1.3084 -0.4562
 3893SOL     OW23137   2.498   2.904   6.983  0.0022  0.1158 -0.0250
 3893SOL    HW123138   2.457   2.840   7.041 -0.3125  1.3450  1.1179
 3893SOL    HW223139   2.462   2.887   6.897  0.5323 -0.1779 -0.1868
 3894SOL     OW23140   0.649   1.761   3.773 -0.4062  0.1123  0.1221
 3894SOL    HW123141   0.730   1.802   3.742 -0.1148 -0.8606 -0.4009
 3894SOL    HW223142   0.588   1.781   3.701  0.8426  1.5180 -0.5570
 3895SOL     OW23143   1.882   3.147   8.522 -0.2490  0.3801 -0.5382
 3895SOL    HW123144   1.936   3.166   8.599 -1.3890 -0.9620  0.5978
 3895SOL    HW223145   1.802   3.168   8.571  1.6424  0.6495  2.4863
 3896SOL     OW23146   2.271   4.119   3.377  0.0871 -0.2909  0.0383
 3896SOL    HW123147   2.268   4.090   3.468 -1.0309 -1.2852 -0.3062
 3896SOL    HW223148   2.176   4.119   3.368 -0.0464  1.3624  1.3263
 3897SOL     OW23149   2.982   3.873   4.628  0.4908 -0.0201  0.0874
 3897SOL    HW123150   2.968   3.941   4.695  1.2927  0.4493 -0.2227
 3897SOL    HW223151   2.904   3.882   4.573  0.9507  0.2214 -0.5271
 3898SOL     OW23152   0.334   1.323   6.974  0.0725  0.1273  0.3920
 3898SOL    HW123153   0.413   1.272   6.988  2.0366  3.3095  0.9406
 3898SOL    HW223154   0.289   1.309   7.057 -0.2815 -1.2636 -0.0435
 3899SOL     OW23155   1.606   0.145  13.412 -0.1335 -0.4743 -0.1505
 3899SOL    HW123156   1.553   0.074  13.450 -0.2121  0.0090  0.6544
 3899SOL    HW223157   1.588   0.142  13.318 -0.9933  0.4938 -0.0099
 3900SOL     OW23158   3.618   1.919   2.593  0.4257  0.1414 -0.5330
 3900SOL    HW123159   3.648   1.883   2.509 -2.8031 -1.8589 -0.8251
 3900SOL    HW223160   3.593   1.839   2.640 -3.0105  1.2332 -0.4939
 3901SOL     OW23161   2.883   0.793   9.634  1.1137 -0.0244  0.1278
 3901SOL    HW123162   2.957   0.823   9.688  2.0377 -0.4526 -0.8993
 3901SOL    HW223163   2.832   0.732   9.687 -0.5334  0.8904 -0.4099
 3902SOL     OW23164   3.702   3.675   0.355 -0.3588  0.4593  0.2110
 3902SOL    HW123165   3.727   3.720   0.435 -2.2055 -1.1726  1.7141
 3902SOL    HW223166   3.718   3.582   0.369 -0.3363  0.1966 -1.5382
 3903SOL     OW23167   3.699   1.601   5.687 -0.4953 -0.0748 -0.3607
 3903SOL    HW123168   3.721   1.509   5.701  2.5257  0.6712 -0.1663
 3903SOL    HW223169   3.717   1.640   5.773 -1.4686 -0.6061  0.0796
 3904SOL     OW23170   1.074   2.957  15.192  0.1561  0.0502  0.0823
 3904SOL    HW123171   1.139   2.923  15.254  0.7156  1.1450  0.0825
 3904SOL    HW223172   1.065   3.050  15.210  0.5798  0.6095 -2.6112
 3905SOL     OW23173   0.957   4.048  13.443 -0.4048 -0.0312  0.0422
 3905SOL    HW123174   1.002   4.027  13.525 -2.1138  1.5159  1.3820
 3905SOL    HW223175   0.898   3.973  13.434  0.1894 -0.6049  0.8877
 3906SOL     OW23176   0.700   0.866   4.310 -0.0663  0.2805 -0.1336
 3906SOL    HW123177   0.697   0.952   4.268 -0.1839 -0.1661 -1.0346
 3906SOL    HW223178   0.731   0.806   4.242  2.5484  1.4084  0.0543
 3907SOL     OW23179   1.485   4.432   2.984 -0.6908 -0.1705  0.0798
 3907SOL    HW123180   1.392   4.423   3.004 -0.9405 -0.5106 -1.2267
 3907SOL    HW223181   1.505   4.342   3.008  2.1552  0.9299  1.7907
 3908SOL     OW23182   1.860   2.491   7.344  0.0603  0.1663  0.2412
 3908SOL    HW123183   1.800   2.418   7.326 -2.1959  2.1793 -0.3685
 3908SOL    HW223184   1.877   2.473   7.436  2.2228  2.0328  0.2010
 3909SOL     OW23185   1.215   1.078   4.882  0.0737  0.2024 -0.4939
 3909SOL    HW123186   1.156   1.022   4.933 -0.4160 -0.6117 -1.9739
 3909SOL    HW223187   1.162   1.158   4.882  0.4197  0.4359  0.7513
 3910SOL     OW23188   3.434   2.744   4.237  0.5953  0.2610 -0.1441
 3910SOL    HW123189   3.446   2.721   4.145  1.2413 -2.0965  0.5262
 3910SOL    HW223190   3.424   2.839   4.226 -0.4846  0.0328 -1.0115
 3911SOL     OW23191   3.723   0.107   5.095  0.8176  0.4307  0.2266
 3911SOL    HW123192   3.709   0.079   5.004 -2.8743  1.3690  0.5200
 3911SOL    HW223193   3.795   0.169   5.081  0.9525 -0.0144 -1.1102
 3912SOL     OW23194   3.254   1.201   7.750 -0.5317  0.1338 -0.2825
 3912SOL    HW123195   3.286   1.201   7.660 -1.1510  1.9511 -0.5096
 3912SOL    HW223196   3.319   1.154   7.801  0.3858  1.3930 -0.2854
 3913SOL     OW23197   0.968   2.957  16.551 -0.1054 -0.5680  0.3634
 3913SOL    HW123198   1.016   2.966  16.634  1.1428  0.3319 -0.4562
 3913SOL    HW223199   0.943   3.048  16.539 -2.8019 -1.4791 -0.9325
 3914SOL     OW23200   2.836   2.792  13.816  0.1267 -0.0877  0.4192
 3914SOL    HW123201   2.813   2.819  13.905  1.3885  1.5306  0.2631
 3914SOL    HW223202   2.751   2.807  13.774 -0.0396 -0.6164  0.5776
 3915SOL     OW23203   3.799   2.580   2.711  0.3467  0.1980  0.5012
 3915SOL    HW123204   3.802   2.606   2.803  1.6013 -2.0935  1.0906
 3915SOL    HW223205   3.851   2.500   2.708 -0.6212 -0.3870 -0.8385
 3916SOL     OW23206   3.807   4.461  13.639 -0.0847 -0.7045 -0.3371
 3916SOL    HW123207   3.761   4.398  13.695 -1.1798 -1.5729 -2.2199
 3916SOL    HW223208   3.893   4.460  13.681  0.2183 -0.2080 -0.9656
 3917SOL     OW23209   2.795   2.440   7.287  0.1368  0.2270  0.1218
 3917SOL    HW123210   2.712   2.467   7.248  0.2197 -0.1821 -0.3350
 3917SOL    HW223211   2.816   2.521   7.334 -0.4421  0.4440  0.0028
 3918SOL     OW23212   0.452   1.721   5.372 -0.1932  0.0362  0.1949
 3918SOL    HW123213   0.447   1.788   5.440 -3.6477 -0.6291  0.5654
 3918SOL    HW223214   0.481   1.771   5.296 -1.5486  1.4863  0.6392
 3919SOL     OW23215   2.275   4.614  15.238 -0.0178 -0.1358 -0.0545
 3919SOL    HW123216   2.339   4.590  15.304  0.6269 -0.3437 -0.7567
 3919SOL    HW223217   2.222   4.535  15.238  0.7781 -0.6611 -0.6901
 3920SOL     OW23218   1.968   1.742   5.102  0.1860 -0.2338 -0.9005
 3920SOL    HW123219   1.965   1.829   5.062  2.2254  0.0891 -0.3572
 3920SOL    HW223220   2.006   1.766   5.187 -1.2142 -1.5426  0.0960
 3921SOL     OW23221   0.481   4.447   6.780 -0.4009 -0.7403  0.3719
 3921SOL    HW123222   0.420   4.377   6.756  0.3645 -1.2323 -0.1272
 3921SOL    HW223223   0.570   4.413   6.768 -0.5476 -1.0456  0.1286
 3922SOL     OW23224   4.176   0.053   8.191 -0.0447  0.2445  0.2159
 3922SOL    HW123225   4.228   0.056   8.111 -0.9555 -0.8856 -0.4283
 3922SOL    HW223226   4.104   4.724   8.161 -2.0333  1.3006  2.9703
 3923SOL     OW23227   3.603   1.870   8.565  0.5729  0.1513  0.3106
 3923SOL    HW123228   3.628   1.885   8.474 -1.4345  0.7192 -0.1380
 3923SOL    HW223229   3.677   1.910   8.611 -0.1618  1.3721  0.4377
 3924SOL     OW23230   1.269   2.813  11.078 -0.0839 -0.1614  0.3812
 3924SOL    HW123231   1.282   2.747  11.146 -2.8124 -2.7631 -1.5675
 3924SOL    HW223232   1.359   2.825  11.051 -0.0439  0.7474  0.9162
 3925SOL     OW23233   2.250   4.163  12.989 -0.2364  0.2797  0.4167
 3925SOL    HW123234   2.327   4.121  13.027 -1.2582  0.2459  2.4722
 3925SOL    HW223235   2.179   4.099  12.998 -2.1891  2.7707  2.9793
 3926SOL     OW23236   3.259   3.913   1.766  0.5270  0.4589  0.3317
 3926SOL    HW123237   3.168   3.917   1.795  0.8488  1.1813  1.2504
 3926SOL    HW223238   3.305   3.954   1.840  1.3621  0.8388 -0.3902
 3927SOL     OW23239   0.251   3.623   5.023  0.2101 -0.0281 -0.0681
 3927SOL    HW123240   0.166   3.579   5.018  0.5802 -0.9392  1.5942
 3927SOL    HW223241   0.247   3.680   4.946 -2.2818 -0.7034 -0.4295
 3928SOL     OW23242   2.824   3.309   2.634 -0.2182 -0.5771 -0.5840
 3928SOL    HW123243   2.892   3.274   2.691  0.2290 -0.1271 -0.8419
 3928SOL    HW223244   2.821   3.258   2.553 -1.7031  2.4922 -2.4308
 3929SOL     OW23245   4.261   1.964  14.420 -0.1944 -0.2444 -0.3035
 3929SOL    HW123246   4.335   1.983  14.362  0.7059  0.3887  1.0503
 3929SOL    HW223247   4.208   2.043  14.411  2.3509  1.3085 -1.5406
 3930SOL     OW23248   2.327   0.480   4.116  0.1967  0.3804  0.4349
 3930SOL    HW123249   2.372   0.553   4.158 -1.7512  0.3479  2.5629
 3930SOL    HW223250   2.404   0.428   4.091 -0.8453 -1.9371  2.1071
 3931SOL     OW23251   4.488   3.021   3.061 -0.3898  0.2943  0.4096
 3931SOL    HW123252   4.567   3.007   3.112 -0.4577 -0.2054  0.3764
 3931SOL    HW223253   4.521   3.056   2.977  3.1319 -0.3989  1.5125
 3932SOL     OW23254   1.543   1.431   5.882  0.0243 -0.3253  0.1643
 3932SOL    HW123255   1.492   1.371   5.828 -0.5767  0.6957 -0.3997
 3932SOL    HW223256   1.488   1.509   5.877 -0.8043 -0.9097  0.2416
 3933SOL     OW23257   2.478   3.399   1.959 -0.5723 -0.5348  0.5164
 3933SOL    HW123258   2.559   3.393   1.907 -2.1693  1.3173 -2.1842
 3933SOL    HW223259   2.508   3.434   2.042  0.8700  0.8129 -0.5603
 3934SOL     OW23260   3.741   3.428  14.376  0.6065  0.8894 -0.0911
 3934SOL    HW123261   3.691   3.403  14.454  2.4530 -0.1627  0.7533
 3934SOL    HW223262   3.711   3.352  14.327 -2.5680  1.1108  1.5035
 3935SOL     OW23263   4.028   1.461  13.600  0.0649  0.0572  0.5866
 3935SOL    HW123264   3.934   1.481  13.609 -0.2775 -1.1660 -0.2247
 3935SOL    HW223265   4.031   1.367  13.617 -0.7147 -0.4527 -2.0268
 3936SOL     OW23266   3.760   2.105  12.824 -0.3814 -0.6790 -0.2533
 3936SOL    HW123267   3.717   2.110  12.739 -1.0306  2.8821  0.2632
 3936SOL    HW223268   3.845   2.145  12.806 -0.8293  0.4394  0.1052
 3937SOL     OW23269   0.129   4.514   1.426 -0.1950 -0.2682  0.7501
 3937SOL    HW123270   0.204   4.514   1.486  1.2732  0.7944 -1.0879
 3937SOL    HW223271   0.078   4.576   1.478  0.3946 -2.8083  4.3807
 3938SOL     OW23272   2.357   1.434   3.563  0.1892  0.3854  0.2924
 3938SOL    HW123273   2.426   1.487   3.522  0.7742 -1.1300 -0.6909
 3938SOL    HW223274   2.335   1.489   3.639  0.4398  2.0051 -0.8050
 3939SOL     OW23275   1.299   4.248  10.101 -0.2160 -0.1067 -0.3176
 3939SOL    HW123276   1.217   4.211  10.135 -0.0564 -0.1209  0.0512
 3939SOL    HW223277   1.357   4.173  10.088 -0.8876 -1.0361  1.9320
 3940SOL     OW23278   1.498   0.093  12.595  0.4967  0.1355 -0.3702
 3940SOL    HW123279   1.545   0.039  12.659  1.8212  2.2063  0.4078
 3940SOL    HW223280   1.520   0.061  12.508 -0.1071  0.7380 -0.7499
 3941SOL     OW23281   0.380   3.888   4.043 -0.1455 -0.1880  0.6826
 3941SOL    HW123282   0.350   3.809   3.998 -0.7377 -0.5512  1.7377
 3941SOL    HW223283   0.324   3.958   4.007  0.6126 -0.7126 -1.5527
 3942SOL     OW23284   0.817   3.507   2.915  0.0874 -0.5331  0.7485
 3942SOL    HW123285   0.736   3.504   2.966 -0.4909  1.8569 -0.0192
 3942SOL    HW223286   0.876   3.494   2.988  1.1250 -0.5104 -0.0941
 3943SOL     OW23287   2.585   3.513   2.645  0.0985  0.0779 -0.3313
 3943SOL    HW123288   2.616   3.534   2.557 -2.6679  0.9328 -1.0989
 3943SOL    HW223289   2.671   3.485   2.675 -0.2183  0.8039  1.2835
 3944SOL     OW23290   3.183   0.374  10.230  0.3524 -0.4812  0.0563
 3944SOL    HW123291   3.123   0.412  10.295  0.2329  0.0197 -0.3449
 3944SOL    HW223292   3.140   0.292  10.206  0.0933 -0.0556 -0.9103
 3945SOL     OW23293   1.904   4.168  10.685 -0.0601  0.4980 -0.7420
 3945SOL    HW123294   1.918   4.262  10.681 -1.3204  0.7807  1.4281
 3945SOL    HW223295   1.968   4.120  10.632 -0.9318 -2.0761  0.5013
 3946SOL     OW23296   2.248   2.454  11.584 -0.2678 -0.0905  0.0501
 3946SOL    HW123297   2.343   2.451  11.580 -0.2904  1.5516 -1.7222
 3946SOL    HW223298   2.249   2.547  11.605 -1.8836  0.0948 -0.6536
 3947SOL     OW23299   3.886   2.799   2.580  0.4036 -0.2804 -0.5778
 3947SOL    HW123300   3.954   2.762   2.525  1.6791 -0.1878  0.9247
 3947SOL    HW223301   3.854   2.728   2.636  4.5397  0.8247  3.1890
 3948SOL     OW23302   1.015   3.826  11.077 -0.2667  0.3724 -0.3846
 3948SOL    HW123303   0.931   3.870  11.089 -1.3266 -1.6374 -0.3774
 3948SOL    HW223304   1.074   3.902  11.077 -2.3596  1.9873 -0.9143
 3949SOL     OW23305   0.964   0.202   3.032 -0.4590  0.2390 -0.1320
 3949SOL    HW123306   0.976   0.107   3.031  1.2666  0.4360  2.5375
 3949SOL    HW223307   0.871   0.204   3.010 -0.0757 -0.0963 -1.8485
 3950SOL     OW23308   1.003   1.580   6.247 -0.5332 -0.1596 -0.0879
 3950SOL    HW123309   0.959   1.581   6.332  0.0263 -0.4749  0.2031
 3950SOL    HW223310   0.925   1.564   6.194  0.4208  1.6745 -2.0430
 3951SOL     OW23311   3.055   0.349  11.687 -0.1884  0.2778 -0.3658
 3951SOL    HW123312   2.976   0.311  11.726 -0.5183  0.3537 -0.9695
 3951SOL    HW223313   3.052   0.441  11.710 -1.1560  0.3055 -0.6015
 3952SOL     OW23314   0.685   1.322   3.429 -0.5199  0.1874  0.7629
 3952SOL    HW123315   0.633   1.252   3.469  0.4794 -0.2367  1.3173
 3952SOL    HW223316   0.623   1.394   3.439 -0.0553  0.4890  1.4015
 3953SOL     OW23317   4.566   0.264   8.454 -0.0885  0.5804  0.3618
 3953SOL    HW123318   4.521   0.200   8.399 -0.3569  2.8387 -2.0142
 3953SOL    HW223319   4.580   0.337   8.394  0.7557 -0.3135 -0.5424
 3954SOL     OW23320   2.935   4.398  17.082 -0.2687  0.0150  0.0677
 3954SOL    HW123321   2.967   4.369  16.996 -1.8856  0.3668 -0.6645
 3954SOL    HW223322   2.850   4.438  17.064 -0.5143 -0.4701  0.1270
 3955SOL     OW23323   0.665   0.977   2.621  0.2154  0.6175  0.4773
 3955SOL    HW123324   0.570   0.976   2.614  0.3130  0.8906 -0.8961
 3955SOL    HW223325   0.694   1.052   2.569 -0.5593 -0.0420 -0.8989
 3956SOL     OW23326   0.949   0.420  14.906  0.0479 -0.3935  0.2766
 3956SOL    HW123327   0.883   0.423  14.837  0.6225 -1.5415 -0.3354
 3956SOL    HW223328   0.992   0.505  14.904 -1.9271  0.6286  0.6218
 3957SOL     OW23329   4.660   3.684  13.346  0.0298 -0.0205 -1.0421
 3957SOL    HW123330   4.661   3.695  13.251 -0.7977 -1.5752 -1.2326
 3957SOL    HW223331   4.657   3.588  13.349  0.6813 -0.0205 -0.3293
 3958SOL     OW23332   3.929   0.544  14.458  0.6826 -0.0796  0.1631
 3958SOL    HW123333   3.994   0.594  14.507 -0.0220  1.7603 -0.7641
 3958SOL    HW223334   3.964   0.456  14.468  2.4598  0.0915 -4.1125
 3959SOL     OW23335   1.787   4.262   2.376  0.7101  0.0032 -0.0904
 3959SOL    HW123336   1.735   4.283   2.299  2.9226  1.3876 -1.2259
 3959SOL    HW223337   1.768   4.331   2.439 -0.2414  0.0474 -0.4383
 3960SOL     OW23338   3.681   4.579   5.173 -0.6095 -0.4157  0.2820
 3960SOL    HW123339   3.588   4.595   5.158 -0.5237  0.4397  0.6347
 3960SOL    HW223340   3.716   4.665   5.147  0.6963 -0.7260  0.9934
 3961SOL     OW23341   4.155   1.427   5.361 -0.2371  0.1169  0.0464
 3961SOL    HW123342   4.169   1.423   5.266 -4.8428 -0.4626 -0.6304
 3961SOL    HW223343   4.073   1.378   5.359 -0.5388  0.6464 -0.7268
 3962SOL     OW23344   3.095   3.742   4.368  0.1594  0.0099  0.0600
 3962SOL    HW123345   3.028   3.791   4.416 -0.0741 -0.3601  0.1133
 3962SOL    HW223346   3.173   3.776   4.413  0.2474 -1.7486  1.2573
 3963SOL     OW23347   0.182   0.124   6.720  0.5493 -0.8790 -0.6265
 3963SOL    HW123348   0.127   0.074   6.660 -0.6976  0.0062 -0.1973
 3963SOL    HW223349   0.152   0.089   6.805  1.5119 -0.5836 -0.1644
 3964SOL     OW23350   0.336   3.265   3.186  0.7745 -0.0696 -0.1925
 3964SOL    HW123351   0.278   3.337   3.162 -0.0262 -0.9382 -0.8646
 3964SOL    HW223352   0.400   3.264   3.115  1.9251 -0.2840  0.8622
 3965SOL     OW23353   0.292   1.996   4.984  0.0033 -0.3720 -0.4023
 3965SOL    HW123354   0.203   1.962   4.998 -0.6343  1.5361  0.2602
 3965SOL    HW223355   0.312   1.957   4.899 -0.7494  0.1577 -0.8209
 3966SOL     OW23356   1.162   0.750   7.364 -0.2527  0.5673  0.1131
 3966SOL    HW123357   1.191   0.694   7.292  1.9647  0.7272  0.8792
 3966SOL    HW223358   1.072   0.774   7.344 -0.5170  0.5001  1.1896
 3967SOL     OW23359   0.323   1.039   4.280 -0.0530  0.3787 -0.1460
 3967SOL    HW123360   0.276   0.962   4.247  0.2642 -0.0564  0.4137
 3967SOL    HW223361   0.274   1.102   4.228  0.9212 -0.0611 -1.5734
 3968SOL     OW23362   1.248   4.335  13.130  0.6958  0.3798 -0.4261
 3968SOL    HW123363   1.247   4.400  13.201  0.1173  0.6870 -0.7145
 3968SOL    HW223364   1.168   4.364  13.087 -0.0119 -2.5590 -1.0682
 3969SOL     OW23365   0.516   2.187   4.475  0.5939 -0.0127  0.0467
 3969SOL    HW123366   0.596   2.135   4.467  2.0189  1.7339  3.2349
 3969SOL    HW223367   0.494   2.179   4.568  0.0597 -0.8873 -0.1552
 3970SOL     OW23368   0.157   2.494   0.495 -0.4225 -0.1991  0.5897
 3970SOL    HW123369   0.187   2.498   0.404  0.2383 -1.6130  0.7451
 3970SOL    HW223370   0.108   2.412   0.496 -0.0945 -0.4144 -1.8478
 3971SOL     OW23371   4.643   1.488   7.272 -0.6046  0.0848  0.4778
 3971SOL    HW123372   4.683   1.520   7.353  0.1647 -1.4042  0.6767
 3971SOL    HW223373   4.596   1.567   7.244 -1.1427 -1.0195 -1.6536
 3972SOL     OW23374   4.559   2.952  13.051 -0.3746 -0.3885  0.0112
 3972SOL    HW123375   4.563   2.948  13.147 -1.4807  0.0461  0.0833
 3972SOL    HW223376   4.564   2.860  13.028  1.3742 -0.0497 -0.8988
 3973SOL     OW23377   2.361   4.145  11.016  0.2616 -0.0650 -0.4485
 3973SOL    HW123378   2.444   4.186  10.992  0.4022  0.7517  1.4499
 3973SOL    HW223379   2.298   4.211  10.988 -1.8755 -2.1813 -0.6207
 3974SOL     OW23380   0.305   3.944  15.209  0.5477  0.5893  0.0605
 3974SOL    HW123381   0.233   3.884  15.226 -1.4392  3.3407  1.2499
 3974SOL    HW223382   0.385   3.893  15.224 -0.4876 -1.2119 -0.6225
 3975SOL     OW23383   2.132   0.269   6.405  0.2376 -0.2552  0.1495
 3975SOL    HW123384   2.161   0.236   6.490  1.3723  0.6910  0.1295
 3975SOL    HW223385   2.170   0.200   6.351 -1.5113 -0.6724 -0.5324
 3976SOL     OW23386   3.807   1.757   0.522  0.3609 -0.5184  0.2908
 3976SOL    HW123387   3.840   1.668   0.529  0.1899 -0.3980  2.5411
 3976SOL    HW223388   3.734   1.758   0.584  1.1597 -0.2329  1.2294
 3977SOL     OW23389   2.075   1.673   3.324 -0.3880 -0.2299  0.1125
 3977SOL    HW123390   2.131   1.701   3.397  0.3468  1.2215 -1.0161
 3977SOL    HW223391   2.074   1.578   3.335  2.0937 -0.3235 -0.5878
 3978SOL     OW23392   3.912   1.738   0.053 -0.2008  0.2301 -0.0489
 3978SOL    HW123393   3.933   1.784   0.135 -1.1367  2.2537 -0.9327
 3978SOL    HW223394   3.877   1.657   0.090  1.0665  0.3464  1.4070
 3979SOL     OW23395   1.111   0.747   7.890  0.4843  0.0100 -0.0582
 3979SOL    HW123396   1.053   0.751   7.814 -0.5568 -2.8850  0.5734
 3979SOL    HW223397   1.142   0.657   7.876  0.0289 -0.3038  0.9936
 3980SOL     OW23398   2.963   3.452   6.083  0.1908  0.2198 -0.1722
 3980SOL    HW123399   2.904   3.429   6.011 -0.6492 -1.5360  1.0813
 3980SOL    HW223400   3.045   3.425   6.043 -1.1305  0.6567 -3.2484
 3981SOL     OW23401   3.118   3.318   3.854 -0.2378 -0.1071 -0.1138
 3981SOL    HW123402   3.191   3.324   3.916  1.3313 -1.6572 -1.7925
 3981SOL    HW223403   3.171   3.272   3.789  0.3998  0.9243 -0.3255
 3982SOL     OW23404   3.992   2.884  15.595 -0.5334 -0.0696  0.5572
 3982SOL    HW123405   3.963   2.842  15.676 -0.8282  0.0424  0.5080
 3982SOL    HW223406   4.048   2.813  15.563  2.0177  1.2132  2.1334
 3983SOL     OW23407   0.692   2.195   2.784  0.2035 -0.3820 -0.1527
 3983SOL    HW123408   0.607   2.204   2.828  0.5512 -2.4677  0.9450
 3983SOL    HW223409   0.683   2.228   2.695 -0.0773  1.8732  0.7054
 3984SOL     OW23410   4.380   1.704  14.577  0.8632  0.0340 -0.1547
 3984SOL    HW123411   4.325   1.771  14.537 -0.3609 -1.0922 -0.3581
 3984SOL    HW223412   4.414   1.662  14.498  0.6457  0.9861 -0.7552
 3985SOL     OW23413   4.195   1.714   6.541  0.0725  0.1377 -1.0665
 3985SOL    HW123414   4.224   1.802   6.519 -0.7142  0.5070 -0.5984
 3985SOL    HW223415   4.270   1.669   6.501  0.2169  0.8472 -1.5869
 3986SOL     OW23416   1.423   0.589   1.798 -0.3805  0.1182  0.3773
 3986SOL    HW123417   1.518   0.597   1.809 -0.1469 -0.2571 -1.3983
 3986SOL    HW223418   1.416   0.494   1.790  1.6430 -0.0902  0.9937
 3987SOL     OW23419   3.707   2.515   2.318 -0.2110  0.4647  0.4879
 3987SOL    HW123420   3.725   2.595   2.270 -2.4224  0.9717  0.5171
 3987SOL    HW223421   3.767   2.456   2.272 -1.1299  0.3270 -0.5362
 3988SOL     OW23422   1.655   2.451  12.318  0.0828 -0.8315 -0.3033
 3988SOL    HW123423   1.692   2.539  12.310  1.2520 -1.4163 -1.3266
 3988SOL    HW223424   1.704   2.403  12.250 -2.8216  0.1693 -3.0920
 3989SOL     OW23425   4.240   0.848  11.360 -0.1733 -0.1155 -0.2207
 3989SOL    HW123426   4.212   0.756  11.362  0.1800 -0.2437 -1.1942
 3989SOL    HW223427   4.189   0.887  11.431 -0.9394 -2.8476  0.7314
 3990SOL     OW23428   1.541   4.059  10.008  0.0336  0.1558 -0.2721
 3990SOL    HW123429   1.576   3.988   9.954 -0.4201  0.7054 -1.2860
 3990SOL    HW223430   1.583   4.054  10.094 -0.0712  2.3005 -0.0911
 3991SOL     OW23431   3.027   3.766  17.063 -0.7563 -0.1989 -0.1622
 3991SOL    HW123432   2.960   3.834  17.063 -0.3404  0.2088 -0.4367
 3991SOL    HW223433   3.101   3.813  17.026 -0.9863 -0.2736 -0.7068
 3992SOL     OW23434   3.317   4.695  11.688 -0.3451 -0.7824  0.7011
 3992SOL    HW123435   3.402   4.685  11.732  1.0278 -0.5408 -1.8740
 3992SOL    HW223436   3.289   0.050  11.730  1.0435 -0.1928  0.5096
 3993SOL     OW23437   1.944   4.206  16.910 -0.4948  0.8959  0.4544
 3993SOL    HW123438   1.859   4.167  16.888 -0.0592 -0.9882  2.0765
 3993SOL    HW223439   1.985   4.209  16.824  2.8197  2.5963  2.1297
 3994SOL     OW23440   0.183   3.852   8.932  0.2432  0.1340 -0.3133
 3994SOL    HW123441   0.102   3.817   8.896 -0.7500 -0.0343  2.1102
 3994SOL    HW223442   0.160   3.944   8.942  1.6493  0.4693 -0.1556
 3995SOL     OW23443   4.034   3.609   4.062 -0.0205  0.1745  0.1754
 3995SOL    HW123444   3.949   3.581   4.094  1.0928 -1.1487  1.9517
 3995SOL    HW223445   4.054   3.541   3.998  0.5465  1.8260 -1.4259
 3996SOL     OW23446   4.215   1.286   6.524  0.2307  0.3372  0.0059
 3996SOL    HW123447   4.184   1.196   6.536  2.0417  0.0036  2.3863
 3996SOL    HW223448   4.300   1.280   6.569  0.3686 -1.1532 -0.4646
 3997SOL     OW23449   4.084   4.688   8.545 -0.6685  0.4447  0.2598
 3997SOL    HW123450   3.989   4.698   8.550 -1.0270 -2.5077 -0.8915
 3997SOL    HW223451   4.112   4.726   8.628 -0.1238 -1.0353  0.7406
 3998SOL     OW23452   4.182   2.892   8.640 -0.4937  0.0585  0.5420
 3998SOL    HW123453   4.256   2.836   8.617  0.1866  1.3307 -0.3583
 3998SOL    HW223454   4.156   2.849   8.722 -0.4392 -1.0147  0.0027
 3999SOL     OW23455   3.782   0.240   2.837 -0.4676 -0.2184 -0.7055
 3999SOL    HW123456   3.720   0.188   2.889  1.1472  1.2562  2.6880
 3999SOL    HW223457   3.864   0.221   2.881  0.0744  0.6319 -1.3475
 4000SOL     OW23458   1.137   3.670   4.194  0.3105  0.0227  0.4958
 4000SOL    HW123459   1.194   3.738   4.159  0.6091 -0.8067 -0.6320
 4000SOL    HW223460   1.194   3.607   4.239  0.8933  0.8424  0.9047
 4001SOL     OW23461   1.946   0.573   0.211 -0.7415  0.7065 -0.4388
 4001SOL    HW123462   1.940   0.505   0.278  0.0541  1.0937  0.0276
 4001SOL    HW223463   2.039   0.571   0.187 -1.2506 -2.1754 -2.1025
 4002SOL     OW23464   2.174   2.973  12.310 -0.8074 -0.0852  0.0071
 4002SOL    HW123465   2.202   3.060  12.338  0.8147 -0.3459 -0.8148
 4002SOL    HW223466   2.252   2.930  12.345 -0.6681 -0.5540 -0.8815
 4003SOL     OW23467   0.976   4.431   6.607 -0.2407  0.0492  0.2719
 4003SOL    HW123468   1.009   4.510   6.649 -0.1465  0.6136 -0.8735
 4003SOL    HW223469   0.998   4.441   6.515  2.1853  1.7184  1.0413
 4004SOL     OW23470   0.152   3.759   2.622  0.7041 -0.8991 -0.6773
 4004SOL    HW123471   0.082   3.724   2.677 -0.1277  2.2360  0.2491
 4004SOL    HW223472   0.167   3.844   2.662 -0.4371 -0.1024 -1.9522
 4005SOL     OW23473   3.408   3.476   8.825 -0.2680 -0.3601  0.2131
 4005SOL    HW123474   3.482   3.502   8.770 -1.8220  2.6069 -0.4812
 4005SOL    HW223475   3.362   3.552   8.861  0.4410 -0.1518  0.6694
 4006SOL     OW23476   4.573   2.603   5.680 -0.1601  0.0598  0.6525
 4006SOL    HW123477   4.500   2.665   5.681 -0.6253 -0.4869  0.6843
 4006SOL    HW223478   4.561   2.560   5.765 -2.9424  1.8460  1.1488
 4007SOL     OW23479   4.127   2.235   8.443  0.2845 -1.0664  0.6467
 4007SOL    HW123480   4.108   2.178   8.369 -1.2764 -0.9503  0.9659
 4007SOL    HW223481   4.197   2.290   8.407 -1.2876  0.0398 -0.6914
 4008SOL     OW23482   3.913   1.031   9.798 -0.1114 -0.0297  0.6639
 4008SOL    HW123483   3.914   0.939   9.772  1.3855  1.1600 -3.4998
 4008SOL    HW223484   3.951   1.077   9.723 -0.6671  2.4209  1.8902
 4009SOL     OW23485   2.088   4.115   5.497  0.6060  0.2468 -0.2835
 4009SOL    HW123486   2.058   4.117   5.588  0.7268 -0.5205 -0.2247
 4009SOL    HW223487   2.156   4.049   5.503  1.2327  0.8903 -0.3287
 4010SOL     OW23488   0.821   3.682   1.853  0.0922 -0.2297 -0.2457
 4010SOL    HW123489   0.754   3.716   1.793 -2.2460 -0.8481  2.0328
 4010SOL    HW223490   0.858   3.607   1.806 -1.4801 -1.2421  0.1364
 4011SOL     OW23491   0.153   1.034   2.302 -0.1236 -0.0600 -0.7034
 4011SOL    HW123492   0.195   1.028   2.216 -2.7785 -0.7526 -1.9694
 4011SOL    HW223493   0.188   0.956   2.345 -0.4098  0.3883  0.3567
 4012SOL     OW23494   3.174   1.455  11.366  0.4711 -0.0801 -0.4239
 4012SOL    HW123495   3.211   1.501  11.291  0.7072  1.6232  0.7322
 4012SOL    HW223496   3.083   1.483  11.363  1.0150  1.6965 -0.1114
 4013SOL     OW23497   2.719   3.214  12.901  0.4335 -0.5699  0.5582
 4013SOL    HW123498   2.701   3.229  12.994 -0.0190 -0.0688  0.3916
 4013SOL    HW223499   2.673   3.131  12.891 -1.2756  0.4901 -0.3766
 4014SOL     OW23500   0.195   3.284   3.785 -0.0301  0.3066 -0.2273
 4014SOL    HW123501   0.268   3.275   3.724 -0.7547  0.9279 -1.1894
 4014SOL    HW223502   0.169   3.194   3.803  2.4215 -0.6110 -1.3346
 4015SOL     OW23503   0.973   2.393   6.483  0.2398 -0.1095 -0.1211
 4015SOL    HW123504   1.044   2.368   6.424 -0.2594  1.4424 -1.3684
 4015SOL    HW223505   0.935   2.307   6.503 -0.9123 -0.0090 -1.8845
 4016SOL     OW23506   0.775   0.366   5.769  0.5213  0.4424 -0.2653
 4016SOL    HW123507   0.710   0.386   5.701  1.0843 -5.7371 -2.5520
 4016SOL    HW223508   0.857   0.383   5.723  0.2994  1.5878 -0.2534
 4017SOL     OW23509   0.365   0.209   8.165 -0.0228  0.3629 -0.0374
 4017SOL    HW123510   0.425   0.283   8.166  1.4569 -0.8415 -0.2288
 4017SOL    HW223511   0.397   0.152   8.095 -0.2757  0.0117  0.1305
 4018SOL     OW23512   2.297   0.014   1.940 -0.5922 -0.3646  0.1967
 4018SOL    HW123513   2.269   0.106   1.938 -1.8062 -0.7713 -1.6237
 4018SOL    HW223514   2.220   4.689   1.915 -0.9030  0.3887 -0.3802
 4019SOL     OW23515   3.238   1.879  10.195 -0.4892  0.0306 -0.1048
 4019SOL    HW123516   3.307   1.931  10.154 -0.9845  1.9986  1.5907
 4019SOL    HW223517   3.228   1.793  10.154 -1.4857  0.4007 -0.6348
 4020SOL     OW23518   3.683   2.673   4.904  0.6958 -0.0410  0.2925
 4020SOL    HW123519   3.623   2.684   4.830  0.6492  1.6761  0.5878
 4020SOL    HW223520   3.691   2.578   4.904 -0.1631 -0.1072  1.3605
 4021SOL     OW23521   4.711   4.679   6.530  0.1183 -0.0965  0.0006
 4021SOL    HW123522   4.621   4.676   6.563  0.8109  2.1751  2.0870
 4021SOL    HW223523   4.693   4.710   6.441 -1.9170 -1.2150  0.0253
 4022SOL     OW23524   1.168   4.493   9.276 -0.8534 -0.4285  0.1165
 4022SOL    HW123525   1.087   4.532   9.307 -1.3681 -2.1117  0.9018
 4022SOL    HW223526   1.162   4.501   9.181  2.1820 -0.0404 -0.0433
 4023SOL     OW23527   3.836   2.406   7.739  1.1097 -0.4722 -0.3759
 4023SOL    HW123528   3.902   2.341   7.762  1.9630  0.4942 -0.1089
 4023SOL    HW223529   3.751   2.361   7.748  1.1969 -1.0390 -2.3199
 4024SOL     OW23530   2.308   0.235  10.743  0.1632 -0.5764  0.1355
 4024SOL    HW123531   2.277   0.154  10.703  0.3942 -1.5198  1.8441
 4024SOL    HW223532   2.224   0.274  10.767 -0.0434 -0.3778 -0.8956
 4025SOL     OW23533   1.110   4.026   4.845  0.3660 -0.1386  0.0778
 4025SOL    HW123534   1.167   3.972   4.789  0.5680 -2.1002  2.1769
 4025SOL    HW223535   1.045   3.964   4.878  0.6082 -0.9503 -0.9703
 4026SOL     OW23536   0.690   3.129  11.377  0.2810  0.0451  0.3929
 4026SOL    HW123537   0.696   3.034  11.375  1.9132  0.2102 -1.5820
 4026SOL    HW223538   0.656   3.133  11.467 -0.1783  0.2255  0.2145
 4027SOL     OW23539   0.234   3.660   7.098  0.2543 -0.1281 -0.1689
 4027SOL    HW123540   0.236   3.678   7.004 -0.0474  0.2576 -0.1007
 4027SOL    HW223541   0.158   3.708   7.131  0.1725 -0.2245 -0.2177
 4028SOL     OW23542   0.516   3.020   7.611  0.1268 -0.0960  0.0564
 4028SOL    HW123543   0.552   2.964   7.680 -1.6843 -1.0209  0.2283
 4028SOL    HW223544   0.441   3.052   7.660 -0.5234  0.0641 -1.0534
 4029SOL     OW23545   2.477   4.036   2.030  0.7004  0.2492  0.0392
 4029SOL    HW123546   2.570   4.035   2.054  0.5499 -0.1020  0.5894
 4029SOL    HW223547   2.454   3.945   2.010  1.4379  0.1944 -0.5606
 4030SOL     OW23548   1.375   1.406   8.912  0.7859  0.2196  0.1833
 4030SOL    HW123549   1.365   1.412   9.007  1.1191  1.4817  0.1377
 4030SOL    HW223550   1.443   1.470   8.893 -0.5366  1.3151 -0.8632
 4031SOL     OW23551   1.381   4.517   0.752 -0.3868  0.1086  0.2081
 4031SOL    HW123552   1.333   4.523   0.670  0.0629  0.1607 -0.0504
 4031SOL    HW223553   1.454   4.456   0.743 -0.0916  0.5450 -0.3350
 4032SOL     OW23554   1.671   4.350   4.421 -0.0791 -1.0336 -0.3736
 4032SOL    HW123555   1.639   4.437   4.443  0.8691  0.1054 -3.4848
 4032SOL    HW223556   1.621   4.305   4.489  0.9803 -0.7843  0.5662
 4033SOL     OW23557   4.332   1.062  13.741  0.0897  0.5834  0.1195
 4033SOL    HW123558   4.311   1.153  13.718 -3.1386  0.4535  2.5119
 4033SOL    HW223559   4.425   1.050  13.726 -0.0523 -1.0066  0.5188
 4034SOL     OW23560   2.330   0.024   0.153  0.7192 -0.0183 -0.8315
 4034SOL    HW123561   2.308   4.673   0.205 -1.4341  1.3692  0.3211
 4034SOL    HW223562   2.424   0.030   0.168  0.7337 -1.7589 -0.2803
 4035SOL     OW23563   0.077   1.295   8.719  0.1578 -0.2050 -0.0566
 4035SOL    HW123564   0.059   1.202   8.708 -1.0585  0.0050  0.1774
 4035SOL    HW223565   0.057   1.315   8.810 -1.1253  2.5116 -0.9050
 4036SOL     OW23566   1.847   2.991  13.152 -0.2261 -0.1949 -0.6789
 4036SOL    HW123567   1.917   2.985  13.088 -0.4040  0.7567 -0.9483
 4036SOL    HW223568   1.769   3.017  13.103 -1.0042  0.4363  0.8935
 4037SOL     OW23569   1.106   1.671  13.181 -0.6545  0.8702  0.1890
 4037SOL    HW123570   1.085   1.709  13.095  1.1178  0.6300 -0.3470
 4037SOL    HW223571   1.021   1.684  13.223 -0.9951  1.5992 -0.7085
 4038SOL     OW23572   4.517   2.001   0.729 -0.6623  0.6323  0.3741
 4038SOL    HW123573   4.502   2.029   0.819  2.2349 -0.2065  1.1230
 4038SOL    HW223574   4.602   2.036   0.703  0.3527 -1.0892  1.3417
 4039SOL     OW23575   4.153   1.365   2.834  0.0899 -0.8526  0.3335
 4039SOL    HW123576   4.134   1.443   2.886  0.9135  0.0384 -0.6869
 4039SOL    HW223577   4.069   1.355   2.789 -0.1658  2.5244  0.0818
 4040SOL     OW23578   0.075   3.214   2.803  0.1126 -0.4179  0.0138
 4040SOL    HW123579   0.131   3.292   2.808 -0.5982  0.1369 -0.6621
 4040SOL    HW223580   4.723   3.253   2.763 -0.8616 -3.7422 -1.4151
 4041SOL     OW23581   3.074   0.648   2.524  0.3587  0.5949  0.0770
 4041SOL    HW123582   3.078   0.579   2.457  1.2810 -1.7238  2.5031
 4041SOL    HW223583   2.997   0.696   2.493  1.2577  0.9664 -1.6090
 4042SOL     OW23584   0.587   3.770   5.357 -0.3118  0.3629  0.1513
 4042SOL    HW123585   0.498   3.738   5.342  0.0256 -0.4492 -0.1443
 4042SOL    HW223586   0.557   3.861   5.353  1.5130  0.9113 -0.9620
 4043SOL     OW23587   0.467   2.650   3.863  1.1066  0.4919  0.2403
 4043SOL    HW123588   0.444   2.658   3.770 -0.3015 -1.0033  0.4692
 4043SOL    HW223589   0.476   2.743   3.885 -3.1630  0.8586  0.2711
 4044SOL     OW23590   2.493   3.541   7.342 -1.0160 -0.2591 -0.7909
 4044SOL    HW123591   2.427   3.477   7.367 -0.6068  0.1705  1.4629
 4044SOL    HW223592   2.569   3.481   7.340  0.2486  1.3568 -1.0939
 4045SOL     OW23593   3.646   2.871   3.155  0.5609 -0.1877  0.1049
 4045SOL    HW123594   3.600   2.936   3.101  1.3434  0.7465  0.5532
 4045SOL    HW223595   3.659   2.803   3.090  0.9245 -0.6015  0.6047
 4046SOL     OW23596   1.728   1.081  10.207 -0.4599 -0.5350 -0.3519
 4046SOL    HW123597   1.819   1.058  10.187  0.6346  1.2107  2.6400
 4046SOL    HW223598   1.706   1.130  10.128 -3.0305 -1.2196 -0.0542
 4047SOL     OW23599   1.634   3.408   4.600 -0.4674  0.3493 -0.3989
 4047SOL    HW123600   1.728   3.395   4.599 -0.7655 -1.8282 -0.7353
 4047SOL    HW223601   1.598   3.321   4.582 -0.5482  0.3957 -0.4612
 4048SOL     OW23602   1.861   0.451   1.887  0.1671 -0.0889 -0.4012
 4048SOL    HW123603   1.840   0.363   1.918 -0.4280  0.1198 -0.2152
 4048SOL    HW223604   1.778   0.491   1.858 -0.8676 -0.6181  1.8278
 4049SOL     OW23605   1.980   3.873   1.840 -0.6417 -0.1637  0.2374
 4049SOL    HW123606   1.995   3.779   1.849 -1.4301 -0.4642 -1.6205
 4049SOL    HW223607   1.975   3.880   1.745 -1.9419  2.9326  0.5480
 4050SOL     OW23608   4.505   4.179   0.338  0.2612 -0.6046 -0.8433
 4050SOL    HW123609   4.484   4.087   0.353  0.3110 -0.5213 -0.2683
 4050SOL    HW223610   4.563   4.203   0.410 -0.2395  0.9853 -0.9636
 4051SOL     OW23611   1.571   0.270   0.114 -0.4090 -0.4262  0.8367
 4051SOL    HW123612   1.545   0.330   0.043  0.1104  0.2742  1.2300
 4051SOL    HW223613   1.665   0.290   0.111 -0.8271  0.8602 -3.5446
 4052SOL     OW23614   3.429   0.838  16.606  0.2967  0.3095 -0.4977
 4052SOL    HW123615   3.379   0.917  16.624 -0.0410 -0.0992  0.3747
 4052SOL    HW223616   3.504   0.878  16.562 -0.4054 -0.4245 -2.3896
 4053SOL     OW23617   1.427   3.709   7.403 -0.3540  0.4240  0.3238
 4053SOL    HW123618   1.459   3.729   7.491  2.2477  1.2027 -0.8014
 4053SOL    HW223619   1.479   3.775   7.358 -1.1230  0.3668 -0.6536
 4054SOL     OW23620   3.399   4.084   3.334 -0.1391 -0.1017  0.2861
 4054SOL    HW123621   3.411   4.016   3.400  0.1546  0.7007  1.0626
 4054SOL    HW223622   3.349   4.029   3.274  1.1970 -1.6088  0.5575
 4055SOL     OW23623   4.192   4.018  13.770 -0.4099  0.4059 -0.1409
 4055SOL    HW123624   4.275   3.982  13.802 -0.9757  1.5551  2.5707
 4055SOL    HW223625   4.159   4.058  13.850 -1.9047 -0.3671 -0.3603
 4056SOL     OW23626   1.511   2.223  10.734 -0.3292  0.1691 -0.9991
 4056SOL    HW123627   1.535   2.183  10.818  0.0254  1.3940 -0.5261
 4056SOL    HW223628   1.550   2.162  10.672  0.3299 -0.8844  0.4446
 4057SOL     OW23629   0.457   1.007   6.135  0.1107  0.5425 -0.3577
 4057SOL    HW123630   0.418   1.013   6.048 -1.2104  0.2270  0.2126
 4057SOL    HW223631   0.376   1.012   6.186  1.7975  1.8921  2.1837
 4058SOL     OW23632   4.270   4.337   3.832 -0.8483 -0.2370  0.2241
 4058SOL    HW123633   4.281   4.371   3.743 -1.8002  0.5467  0.4011
 4058SOL    HW223634   4.344   4.385   3.868  0.0837 -0.0737 -1.8991
 4059SOL     OW23635   1.501   2.946  14.951 -0.0543  0.4298  0.2104
 4059SOL    HW123636   1.473   2.889  14.880 -1.3577  3.3370 -1.6233
 4059SOL    HW223637   1.505   2.876  15.016  2.5623 -0.1488 -0.5689
 4060SOL     OW23638   2.683   2.983   1.701 -0.3542  0.2207 -0.4891
 4060SOL    HW123639   2.648   2.934   1.626 -0.6384  0.5250 -0.5567
 4060SOL    HW223640   2.752   2.921   1.722 -0.6753 -0.1399 -0.5102
 4061SOL     OW23641   1.883   3.729   2.499  0.0176 -0.2685 -0.1566
 4061SOL    HW123642   1.866   3.701   2.409  0.0924  0.6969 -0.4693
 4061SOL    HW223643   1.970   3.768   2.498  0.6759 -1.6934  0.9200
 4062SOL     OW23644   4.271   1.697   4.065  0.3943 -0.4634 -0.1745
 4062SOL    HW123645   4.347   1.643   4.045  1.0963  0.9721 -1.3910
 4062SOL    HW223646   4.240   1.707   3.975 -0.3921  0.4421  0.1920
 4063SOL     OW23647   0.032   4.252   3.440  0.6786  1.0583 -0.0415
 4063SOL    HW123648   0.054   4.340   3.410  0.5045  0.7637 -1.0504
 4063SOL    HW223649   4.697   4.223   3.372  1.1106  1.3858 -0.5704
 4064SOL     OW23650   2.755   1.199  15.590 -0.3835 -0.3479  0.7593
 4064SOL    HW123651   2.800   1.283  15.596  0.0631 -0.4620 -1.2055
 4064SOL    HW223652   2.818   1.148  15.539  2.7926  1.0508  3.2202
 4065SOL     OW23653   3.670   1.123   7.696 -0.1205 -0.1471 -0.3156
 4065SOL    HW123654   3.733   1.180   7.651 -0.1115 -0.5926 -0.8646
 4065SOL    HW223655   3.696   1.035   7.666 -0.6800 -1.0240  1.7658
 4066SOL     OW23656   2.617   1.881   4.048  0.1957  0.2757 -0.4997
 4066SOL    HW123657   2.650   1.793   4.032  1.7278  0.8559 -0.5260
 4066SOL    HW223658   2.524   1.874   4.025  0.1996  0.6730 -0.6330
 4067SOL     OW23659   0.161   0.377  16.021  0.0017  0.3430 -0.8074
 4067SOL    HW123660   0.080   0.389  16.070  0.6336 -2.5131  0.9255
 4067SOL    HW223661   0.208   0.305  16.063 -0.6359  1.0628  1.1234
 4068SOL     OW23662   1.104   3.753   7.559 -0.2168 -0.4468  0.0554
 4068SOL    HW123663   1.060   3.824   7.606  1.0552 -0.3306  1.1036
 4068SOL    HW223664   1.149   3.803   7.491  3.1526 -1.5192  1.4814
 4069SOL     OW23665   4.414   2.206  10.976  0.2896  0.0172  0.2285
 4069SOL    HW123666   4.497   2.159  10.977  0.5106  0.4002 -0.7719
 4069SOL    HW223667   4.355   2.141  10.936  0.3855  0.5984 -0.8417
 4070SOL     OW23668   2.023   4.052   2.036  0.4976  0.1017  0.5285
 4070SOL    HW123669   2.114   4.078   2.024  0.3623  0.8366  1.0951
 4070SOL    HW223670   2.004   3.993   1.962  0.1909  0.8033  0.0492
 4071SOL     OW23671   2.343   0.928   6.506  0.6559 -0.3616  0.0489
 4071SOL    HW123672   2.385   0.863   6.563  0.5918 -0.9571 -0.5781
 4071SOL    HW223673   2.321   0.872   6.432  3.0172 -0.5511 -0.5352
 4072SOL     OW23674   2.722   3.544  16.596 -0.1704 -0.3288 -0.1759
 4072SOL    HW123675   2.644   3.497  16.624 -0.9405  0.2006 -1.4676
 4072SOL    HW223676   2.675   3.602  16.537  0.3020  0.4813  0.2378
 4073SOL     OW23677   4.587   3.164   3.328  0.6122  0.2660 -0.3271
 4073SOL    HW123678   4.623   3.248   3.298 -0.0538 -0.2545 -2.5503
 4073SOL    HW223679   4.662   3.105   3.329  0.2651 -0.1597  0.7519
 4074SOL     OW23680   1.971   3.950  10.351  0.1427  0.0475 -0.9966
 4074SOL    HW123681   2.031   4.005  10.401  0.6847 -0.8231 -0.6782
 4074SOL    HW223682   1.908   3.918  10.417  0.9313  0.7250  0.0862
 4075SOL     OW23683   2.220   4.544   3.741 -0.7217  0.1211  0.1836
 4075SOL    HW123684   2.229   4.449   3.746  0.9630  0.3493  1.3193
 4075SOL    HW223685   2.311   4.573   3.746 -1.1007  1.0968  1.4514
 4076SOL     OW23686   2.880   2.648   2.333 -0.5420 -0.4944 -0.0581
 4076SOL    HW123687   2.886   2.662   2.239  0.3287 -1.5695 -0.1602
 4076SOL    HW223688   2.895   2.553   2.337  1.9505 -0.0524  1.0803
 4077SOL     OW23689   2.862   4.023   9.511 -0.3459 -0.7776  0.1860
 4077SOL    HW123690   2.852   3.928   9.513  1.9209 -1.0156  0.1477
 4077SOL    HW223691   2.924   4.031   9.439  0.5997 -2.6595  0.7797
 4078SOL     OW23692   0.803   2.314   4.188  0.5709 -0.2960  0.3359
 4078SOL    HW123693   0.743   2.240   4.180  0.8112 -0.7036  2.3560
 4078SOL    HW223694   0.820   2.330   4.095  0.1494  0.2192  0.3468
 4079SOL     OW23695   1.769   4.060   4.412  0.1720  0.0164 -0.9831
 4079SOL    HW123696   1.692   4.009   4.388 -0.6523  1.1556 -0.7081
 4079SOL    HW223697   1.738   4.150   4.409  0.9750  0.3715  2.1124
 4080SOL     OW23698   4.076   2.572   8.722 -0.5350 -0.1817 -0.3300
 4080SOL    HW123699   4.093   2.499   8.783  0.5036 -2.1839 -3.0232
 4080SOL    HW223700   4.059   2.642   8.785  1.0523  0.8368 -1.0482
 4081SOL     OW23701   2.140   1.730   7.904  0.2036 -0.3689 -0.3572
 4081SOL    HW123702   2.181   1.722   7.990  0.0074 -0.4711 -0.2743
 4081SOL    HW223703   2.169   1.818   7.879  0.6987  0.0073  1.6066
 4082SOL     OW23704   1.497   2.090   2.971 -0.1258  0.7599 -0.2488
 4082SOL    HW123705   1.429   2.101   2.905 -1.5317 -1.3693  0.8478
 4082SOL    HW223706   1.574   2.060   2.923  0.8207  0.8651  1.2077
 4083SOL     OW23707   4.027   2.921  10.759  0.0546 -0.3545  0.0097
 4083SOL    HW123708   3.966   2.850  10.779  0.3762 -1.0061 -1.3762
 4083SOL    HW223709   3.974   2.998  10.782 -2.2591 -1.3792 -1.9391
 4084SOL     OW23710   0.557   2.485   8.463  0.2671 -0.5780  0.4985
 4084SOL    HW123711   0.468   2.458   8.487 -0.7484  2.0259 -0.3547
 4084SOL    HW223712   0.551   2.506   8.370 -0.2309  0.0827  0.6774
 4085SOL     OW23713   2.443   2.876   4.198  0.3742  0.4628 -0.0338
 4085SOL    HW123714   2.362   2.920   4.173 -1.5330 -2.2952  1.3708
 4085SOL    HW223715   2.424   2.842   4.285  1.1989  0.0620 -0.0075
 4086SOL     OW23716   4.296   4.576  13.596  0.6106  0.2290  0.0631
 4086SOL    HW123717   4.308   4.564  13.502 -2.5761  0.5808 -0.3867
 4086SOL    HW223718   4.342   4.660  13.606  1.4670 -0.0827 -1.2295
 4087SOL     OW23719   1.089   2.981  10.583  0.2716  0.3082 -0.2687
 4087SOL    HW123720   1.128   3.006  10.667  0.9694 -3.3862  0.4929
 4087SOL    HW223721   1.004   2.962  10.623 -0.5418  0.4192 -1.9602
 4088SOL     OW23722   3.550   3.517   3.753 -0.0165 -0.5464  0.1153
 4088SOL    HW123723   3.559   3.423   3.763 -2.6038 -1.0709 -2.5048
 4088SOL    HW223724   3.635   3.553   3.778 -0.4195 -0.6308  1.5861
 4089SOL     OW23725   2.575   3.258   4.931 -0.1720  0.1713 -0.6696
 4089SOL    HW123726   2.486   3.266   4.896 -1.1957 -0.5720  1.7882
 4089SOL    HW223727   2.569   3.242   5.025  0.4706  1.3327 -0.4251
 4090SOL     OW23728   1.073   0.390   3.442  0.2496 -0.1950 -0.2884
 4090SOL    HW123729   1.080   0.370   3.349  0.7542  2.1749 -0.7616
 4090SOL    HW223730   1.166   0.387   3.466  0.1784  1.4378  0.2447
 4091SOL     OW23731   1.398   4.045  11.701  0.1168 -0.4142  0.7089
 4091SOL    HW123732   1.484   4.032  11.660 -0.6973  0.0012 -1.1325
 4091SOL    HW223733   1.345   4.021  11.624  0.3336 -1.8548  1.0157
 4092SOL     OW23734   0.524   3.088   4.827  0.2977 -0.4756  0.6049
 4092SOL    HW123735   0.442   3.049   4.796 -1.0506  2.2057  0.8301
 4092SOL    HW223736   0.495   3.135   4.905 -0.7760 -0.3802  0.1484
 4093SOL     OW23737   1.294   4.006   8.924  0.3697  0.0813  0.3986
 4093SOL    HW123738   1.365   4.061   8.892  0.8130 -0.7999 -0.1232
 4093SOL    HW223739   1.346   3.945   8.975  0.8757 -0.1292 -0.3716
 4094SOL     OW23740   0.503   0.565  11.018 -0.2375  0.1101 -0.6717
 4094SOL    HW123741   0.457   0.585  11.100 -0.7728  3.2150 -1.6991
 4094SOL    HW223742   0.546   0.481  11.034 -0.0001  0.3286 -0.1422
 4095SOL     OW23743   4.376   4.334  12.105  0.3923 -0.0725  0.0801
 4095SOL    HW123744   4.358   4.399  12.037  0.5197  0.5476  0.6385
 4095SOL    HW223745   4.289   4.293  12.108  0.8520 -0.8921  2.1912
 4096SOL     OW23746   0.659   3.161  16.022  0.0500 -0.0681 -0.0836
 4096SOL    HW123747   0.714   3.158  16.101 -0.1910  2.9613  0.2273
 4096SOL    HW223748   0.648   3.067  16.013 -3.9201  0.6175 -2.2238
 4097SOL     OW23749   0.883   1.767  13.316 -0.2014  0.3717  0.3828
 4097SOL    HW123750   0.792   1.780  13.290  0.2402 -0.0483 -1.4516
 4097SOL    HW223751   0.868   1.721  13.398  0.1317  0.9948  0.7909
 4098SOL     OW23752   0.856   0.754  17.289  0.1643  0.2060  0.5661
 4098SOL    HW123753   0.862   0.835  17.238 -1.2541 -1.6971 -2.5568
 4098SOL    HW223754   0.777   0.773  17.339 -0.8824 -1.9655 -0.2407
 4099SOL     OW23755   2.036   3.490   7.276  0.6353 -0.2287  0.2239
 4099SOL    HW123756   2.121   3.534   7.273 -0.3424  1.7519  1.3722
 4099SOL    HW223757   2.016   3.486   7.182  0.3619 -0.5800  0.2976
 4100SOL     OW23758   3.442   2.678   3.416  0.1064 -0.4453 -0.2117
 4100SOL    HW123759   3.384   2.740   3.374  1.3523  0.4763 -0.5775
 4100SOL    HW223760   3.385   2.601   3.423 -0.6077  0.2094  1.1167
 4101SOL     OW23761   4.673   0.243  15.108 -0.5336 -0.1436 -0.1063
 4101SOL    HW123762   0.037   0.236  15.140 -0.9512 -1.9649  0.6443
 4101SOL    HW223763   4.702   0.238  15.017 -0.5288 -0.2094 -0.1007
 4102SOL     OW23764   1.432   4.292  14.476  0.3311  0.4358  0.1994
 4102SOL    HW123765   1.489   4.369  14.481 -1.6590  1.8648  0.5823
 4102SOL    HW223766   1.361   4.317  14.534  0.5475  3.5208 -0.8348
 4103SOL     OW23767   3.311   3.790   6.944 -0.2582  0.1641  0.5143
 4103SOL    HW123768   3.397   3.825   6.921 -0.8121 -0.0692 -1.8990
 4103SOL    HW223769   3.278   3.774   6.855 -1.2309 -0.3706  0.9655
 4104SOL     OW23770   2.532   0.151  11.190 -0.0946 -0.0089  0.5234
 4104SOL    HW123771   2.582   0.130  11.269  0.5258 -0.0386  0.1157
 4104SOL    HW223772   2.450   0.180  11.230 -0.9434 -3.6938  1.4566
 4105SOL     OW23773   4.269   1.990   5.422  0.0548  0.0775 -0.8048
 4105SOL    HW123774   4.332   2.048   5.380 -0.3052  2.8244  2.4333
 4105SOL    HW223775   4.281   2.022   5.511 -2.2223 -0.8623 -0.1537
 4106SOL     OW23776   4.170   0.374   9.108  0.3273 -0.3819  0.5194
 4106SOL    HW123777   4.163   0.283   9.137 -0.3826 -0.6319 -0.4448
 4106SOL    HW223778   4.252   0.377   9.058  0.9218 -0.3554  1.4957
 4107SOL     OW23779   2.255   3.204  12.699 -0.1498  0.6410  0.7187
 4107SOL    HW123780   2.346   3.230  12.716 -0.2863  1.0553  0.8079
 4107SOL    HW223781   2.264   3.202  12.603  1.6142 -0.9508  0.9236
 4108SOL     OW23782   0.208   2.471   3.748  0.4869 -0.0412  0.1470
 4108SOL    HW123783   0.235   2.490   3.838  0.0483 -0.1927  0.3124
 4108SOL    HW223784   0.257   2.546   3.715  0.0241  0.2437  0.1061
 4109SOL     OW23785   3.517   0.085  15.374  0.4406  0.0705 -0.3639
 4109SOL    HW123786   3.487   0.150  15.310  0.8971  1.0126  0.3815
 4109SOL    HW223787   3.610   0.105  15.383  0.4181  0.7889 -1.7039
 4110SOL     OW23788   3.842   2.551   6.319  0.2386  0.1058 -0.5147
 4110SOL    HW123789   3.877   2.508   6.242 -1.0739 -3.3839  0.8493
 4110SOL    HW223790   3.765   2.498   6.336 -0.5166  1.2439 -0.3619
 4111SOL     OW23791   0.765   2.295   3.209  0.6199 -0.3496 -0.6010
 4111SOL    HW123792   0.685   2.290   3.157 -0.6389  1.7604  1.1966
 4111SOL    HW223793   0.830   2.320   3.143  2.0615 -2.7810 -0.1316
 4112SOL     OW23794   3.694   1.895   8.297  0.5325 -0.2571 -0.0066
 4112SOL    HW123795   3.756   1.851   8.238 -0.3681 -2.0508  0.3924
 4112SOL    HW223796   3.663   1.973   8.252 -1.2466 -0.7338  0.3863
 4113SOL     OW23797   1.983   3.899   6.183 -0.2999 -0.2826 -0.3280
 4113SOL    HW123798   2.021   3.882   6.270  1.0820  4.3506  0.0006
 4113SOL    HW223799   2.009   3.817   6.141 -0.3143 -0.3285 -0.2472
 4114SOL     OW23800   2.517   3.745   3.423 -0.0206  0.1072  0.3085
 4114SOL    HW123801   2.557   3.805   3.360 -0.1544  0.8199  0.8957
 4114SOL    HW223802   2.445   3.717   3.366  0.1531 -0.3011  0.2905
 4115SOL     OW23803   1.337   4.179   5.427 -0.0527 -0.9223  0.5133
 4115SOL    HW123804   1.424   4.212   5.405 -0.5337  0.0965  0.1110
 4115SOL    HW223805   1.348   4.156   5.519 -0.6793  0.1759  0.8663
 4116SOL     OW23806   4.667   3.753   9.620  0.0348 -0.0388  0.2269
 4116SOL    HW123807   4.677   3.833   9.568  0.2282 -0.5922 -0.5932
 4116SOL    HW223808   4.661   3.695   9.544 -1.4564 -1.3641  1.3631
 4117SOL     OW23809   1.330   3.418   4.383 -0.1774  0.7151 -0.1361
 4117SOL    HW123810   1.413   3.438   4.339 -0.1919  0.0847 -0.4541
 4117SOL    HW223811   1.294   3.347   4.330  1.1487  0.5430 -0.8092
 4118SOL     OW23812   1.498   2.818  13.067  0.0820  0.3512 -0.5990
 4118SOL    HW123813   1.518   2.908  13.041  2.6600 -0.0698 -0.0292
 4118SOL    HW223814   1.584   2.779  13.083  0.3148  0.4366 -1.6255
 4119SOL     OW23815   0.323   0.548  13.202  0.3808  0.5515  0.1917
 4119SOL    HW123816   0.234   0.517  13.186  1.1855 -1.1253 -1.0912
 4119SOL    HW223817   0.352   0.565  13.112  0.4606  2.5796  0.6073
 4120SOL     OW23818   0.013   4.469  14.370 -0.0844 -0.4693  0.3939
 4120SOL    HW123819   0.104   4.478  14.399 -0.2347 -1.0707  1.0486
 4120SOL    HW223820   4.706   4.404  14.432 -0.3926 -0.2123  0.5029
 4121SOL     OW23821   2.583   2.552   9.113 -0.7111  0.1813 -0.4074
 4121SOL    HW123822   2.525   2.628   9.117 -1.9631 -0.7466 -1.0518
 4121SOL    HW223823   2.548   2.503   9.187  1.7726 -0.5020  0.2963
 4122SOL     OW23824   1.869   3.269   8.771 -0.2860  0.3437 -0.1862
 4122SOL    HW123825   1.918   3.216   8.834  0.1299  0.2223 -0.6116
 4122SOL    HW223826   1.779   3.238   8.782 -0.4548  0.6166 -0.8382
 4123SOL     OW23827   1.288   2.669   7.805  0.3325 -0.6489 -0.5197
 4123SOL    HW123828   1.356   2.734   7.789 -1.0102  1.0392  0.6004
 4123SOL    HW223829   1.226   2.723   7.853 -0.4379  0.3384 -2.6088
 4124SOL     OW23830   2.914   3.146   2.382  0.2276  0.1423 -0.3621
 4124SOL    HW123831   2.963   3.205   2.325 -1.0270  0.7741 -0.8049
 4124SOL    HW223832   2.954   3.059   2.372  0.8868  0.6296 -2.0061
 4125SOL     OW23833   2.443   4.607  11.719 -0.6279 -0.3762 -0.4606
 4125SOL    HW123834   2.436   4.664  11.795  1.0383  2.0298 -2.1036
 4125SOL    HW223835   2.354   4.570  11.712 -0.8454  0.0994 -0.1802
 4126SOL     OW23836   3.020   3.575  12.694  0.5141  1.1318  0.8170
 4126SOL    HW123837   3.045   3.542  12.608  2.3802 -1.3966  2.3306
 4126SOL    HW223838   3.002   3.491  12.735 -1.1286  0.8891 -0.3953
 4127SOL     OW23839   2.558   2.016   0.624 -0.5844  0.4855 -0.0684
 4127SOL    HW123840   2.549   1.924   0.600  1.4580 -0.0432  1.2315
 4127SOL    HW223841   2.468   2.047   0.632 -0.2637  1.8411 -1.7408
 4128SOL     OW23842   0.613   2.113   6.363  0.4391  0.2546  0.2454
 4128SOL    HW123843   0.568   2.197   6.355 -0.3551 -0.1805  0.1339
 4128SOL    HW223844   0.598   2.102   6.457  0.8191 -0.2374  0.2460
 4129SOL     OW23845   0.870   4.020   7.434  0.0691  0.1268 -0.4494
 4129SOL    HW123846   0.833   3.963   7.367 -0.4212 -1.8949  1.5623
 4129SOL    HW223847   0.888   4.097   7.380  2.5351 -1.0487 -1.3014
 4130SOL     OW23848   0.844   0.144  11.173 -0.5717  0.7479 -0.6239
 4130SOL    HW123849   0.927   0.156  11.219 -0.1193  0.6105 -1.3967
 4130SOL    HW223850   0.862   0.180  11.086  0.6100 -0.0781 -0.7134
 4131SOL     OW23851   1.772   0.210   1.670 -0.3302 -0.5723  0.1369
 4131SOL    HW123852   1.724   0.138   1.629 -0.8627 -0.3787  0.4098
 4131SOL    HW223853   1.758   0.178   1.759 -0.1967 -0.7473  0.0954
 4132SOL     OW23854   2.800   1.885   8.166  0.6527  0.6977  0.2558
 4132SOL    HW123855   2.790   1.842   8.251 -1.2131 -0.3479 -0.4895
 4132SOL    HW223856   2.717   1.858   8.128  1.8679 -2.3144 -0.2834
 4133SOL     OW23857   2.244   0.198   7.838 -0.4883 -0.1056  0.1223
 4133SOL    HW123858   2.158   0.204   7.796 -0.5769 -2.1418  0.0233
 4133SOL    HW223859   2.298   0.269   7.804  2.1060 -1.8896  0.5600
 4134SOL     OW23860   2.406   2.712   4.462  0.1693 -0.7129 -0.2522
 4134SOL    HW123861   2.314   2.701   4.487  0.4582  1.2502  1.6285
 4134SOL    HW223862   2.445   2.754   4.539  1.6133 -2.2843 -0.1298
 4135SOL     OW23863   1.892   4.643   8.840  0.0804  0.5356 -0.1772
 4135SOL    HW123864   1.862   4.725   8.879  1.5502 -0.5526  3.2771
 4135SOL    HW223865   1.940   4.611   8.916 -1.6013 -1.1374  0.1807
 4136SOL     OW23866   2.278   0.854   7.388 -0.2727  0.0754 -0.3060
 4136SOL    HW123867   2.341   0.786   7.411 -0.0496  0.6211  0.6883
 4136SOL    HW223868   2.338   0.928   7.381 -1.4842  1.0475 -0.3190
 4137SOL     OW23869   0.999   3.686  12.576  0.1839 -0.2470 -0.3399
 4137SOL    HW123870   1.013   3.593  12.596  1.3739  0.3482  1.6344
 4137SOL    HW223871   1.091   3.699  12.551  0.8572 -0.9677  1.6964
 4138SOL     OW23872   2.915   4.718  17.592  0.2321 -0.6325 -0.3087
 4138SOL    HW123873   2.913   4.683  17.681 -1.5815  0.1363 -0.0478
 4138SOL    HW223874   2.826   4.702  17.561 -0.6873  3.2157  0.2502
 4139SOL     OW23875   4.665   0.834   2.999 -0.2924 -0.1673  0.2390
 4139SOL    HW123876   4.602   0.806   3.066 -1.6724  2.2120 -0.0463
 4139SOL    HW223877   4.648   0.785   2.919 -1.1890 -1.8636  1.4735
 4140SOL     OW23878   1.680   3.032   4.839 -0.0143  0.0364 -0.1758
 4140SOL    HW123879   1.739   3.089   4.888  1.8507 -1.1518 -1.0777
 4140SOL    HW223880   1.655   3.098   4.773  0.5734  1.0975  0.6654
 4141SOL     OW23881   4.220   2.531  15.639  0.3097 -0.0263 -0.3474
 4141SOL    HW123882   4.296   2.535  15.581  0.3037  3.4020 -0.1007
 4141SOL    HW223883   4.182   2.614  15.610  1.1216  0.7002  0.6675
 4142SOL     OW23884   3.692   2.172   5.233  0.0586 -0.1582 -0.5067
 4142SOL    HW123885   3.754   2.194   5.304  1.6660 -1.6535 -1.4538
 4142SOL    HW223886   3.759   2.149   5.169 -0.5401 -0.3065 -1.0758
 4143SOL     OW23887   1.362   3.598   8.850  0.9447  0.2522 -0.0627
 4143SOL    HW123888   1.436   3.602   8.790 -0.2092  2.4598 -1.3170
 4143SOL    HW223889   1.396   3.661   8.913 -3.3326  0.3971  2.0489
 4144SOL     OW23890   2.264   3.605  10.027  0.2845 -0.0143  0.2063
 4144SOL    HW123891   2.222   3.691  10.030  0.7660  0.2050  0.5418
 4144SOL    HW223892   2.191   3.555  10.063  1.5082 -0.8812  1.4681
 4145SOL     OW23893   2.408   2.287   2.009  0.2583  0.2516  0.2978
 4145SOL    HW123894   2.370   2.374   2.015 -0.1686  0.1286 -0.7058
 4145SOL    HW223895   2.480   2.301   1.948  0.6311 -1.7229  0.2736
 4146SOL     OW23896   1.311   0.143  10.215 -0.2768 -0.6125 -0.4395
 4146SOL    HW123897   1.393   0.131  10.262 -1.7785  0.7024  2.4697
 4146SOL    HW223898   1.327   0.099  10.131  1.0516  0.2599 -0.6548
 4147SOL     OW23899   2.833   0.744   5.443 -0.1524  0.1634 -0.1480
 4147SOL    HW123900   2.779   0.735   5.522 -1.2607 -0.7589 -1.0165
 4147SOL    HW223901   2.776   0.699   5.381  2.0263 -1.0479 -1.2219
 4148SOL     OW23902   2.795   3.947   7.195  0.5042  0.8518  0.0255
 4148SOL    HW123903   2.745   3.896   7.259 -1.7320  2.4807 -0.4368
 4148SOL    HW223904   2.834   4.014   7.252  0.8491  0.9103 -0.2841
 4149SOL     OW23905   2.468   0.055   0.943  0.1819  0.3071  0.1764
 4149SOL    HW123906   2.447   4.688   0.953  0.0077  0.1645 -1.4935
 4149SOL    HW223907   2.547   0.064   0.996  0.4576  0.1100 -0.1987
 4150SOL     OW23908   1.424   2.706  15.406  0.0139  0.1100 -0.1058
 4150SOL    HW123909   1.447   2.618  15.379  1.5755  1.0073 -1.6964
 4150SOL    HW223910   1.431   2.763  15.329 -2.3511  0.8557  0.2126
 4151SOL     OW23911   2.251   4.471   7.779  0.5110  0.9578  0.0593
 4151SOL    HW123912   2.285   4.560   7.775  1.8863  0.3637 -1.1276
 4151SOL    HW223913   2.260   4.454   7.873  2.9190  0.8139 -0.1901
 4152SOL     OW23914   0.190   3.820   6.481  0.0155 -0.2531  0.8330
 4152SOL    HW123915   0.223   3.864   6.559  2.8088 -1.6647  0.4559
 4152SOL    HW223916   0.160   3.738   6.521  0.7301 -2.1128 -2.3874
 4153SOL     OW23917   2.635   3.690   6.284 -0.4406  0.4065  0.0993
 4153SOL    HW123918   2.603   3.707   6.196  0.7336 -0.2403 -0.4579
 4153SOL    HW223919   2.636   3.778   6.321  2.7016 -0.6241  2.4618
 4154SOL     OW23920   3.388   4.230   8.484  0.0656 -0.3718 -0.1946
 4154SOL    HW123921   3.333   4.279   8.422 -1.1109 -2.3178 -0.6961
 4154SOL    HW223922   3.431   4.173   8.421  0.9887  0.0147  0.0801
 4155SOL     OW23923   3.666   0.707   3.767 -0.3831 -0.2099  0.1687
 4155SOL    HW123924   3.686   0.734   3.678  1.6027  1.5544  1.1487
 4155SOL    HW223925   3.684   0.614   3.771  1.3303  0.2374  3.4356
 4156SOL     OW23926   3.548   0.609   2.284 -0.3835  0.1304 -0.5910
 4156SOL    HW123927   3.517   0.666   2.354 -0.3950  0.4834 -0.8875
 4156SOL    HW223928   3.609   0.561   2.340  0.9454  0.3322 -1.8878
 4157SOL     OW23929   4.329   1.565   8.176  0.2091  0.8039 -0.0460
 4157SOL    HW123930   4.422   1.549   8.158  0.8721  2.8256  1.5913
 4157SOL    HW223931   4.321   1.637   8.113 -0.3299 -1.0670 -2.1228
 4158SOL     OW23932   3.916   1.861   0.289 -0.2407 -0.0311 -0.2111
 4158SOL    HW123933   3.909   1.810   0.370 -1.8647 -0.1820 -0.4460
 4158SOL    HW223934   3.988   1.922   0.305  1.1314 -2.5439  3.3207
 4159SOL     OW23935   4.630   2.892   6.222  0.0362  0.1772 -0.0327
 4159SOL    HW123936   4.722   2.897   6.247 -0.3286 -1.3129  1.5657
 4159SOL    HW223937   4.598   2.811   6.261  0.4910 -0.0344 -0.0939
 4160SOL     OW23938   2.174   1.983  14.512 -0.0236  0.0839  0.6426
 4160SOL    HW123939   2.117   2.039  14.565 -2.2833 -1.4507 -0.1560
 4160SOL    HW223940   2.246   1.955  14.568  0.5944  0.1036 -0.1373
 4161SOL     OW23941   2.912   1.826  14.600 -0.1229 -0.1849 -0.3702
 4161SOL    HW123942   2.951   1.910  14.580 -0.7910  0.3186  0.4260
 4161SOL    HW223943   2.987   1.772  14.577 -1.8298 -2.4225 -0.7542
 4162SOL     OW23944   1.704   1.535  12.332 -0.2560  0.4997  0.1672
 4162SOL    HW123945   1.616   1.567  12.315 -0.2185 -0.1556 -1.2739
 4162SOL    HW223946   1.754   1.614  12.353  0.0398  0.3904 -0.1080
 4163SOL     OW23947   2.254   2.703   0.613  0.5486  0.8080  0.0962
 4163SOL    HW123948   2.208   2.720   0.695 -2.8738 -0.7874 -1.5192
 4163SOL    HW223949   2.257   2.608   0.625 -3.7639  0.7495  0.7610
 4164SOL     OW23950   0.095   3.349   7.793 -0.4634  0.0930  0.2588
 4164SOL    HW123951   0.052   3.407   7.731 -0.2252 -0.4810 -0.4471
 4164SOL    HW223952   0.136   3.409   7.855  0.6171  0.1859 -0.5351
 4165SOL     OW23953   4.195   2.240  13.569  0.1812 -0.2568  0.3000
 4165SOL    HW123954   4.199   2.153  13.608 -0.8797 -0.1993  0.5438
 4165SOL    HW223955   4.288   2.262  13.573  0.7383 -1.9226 -2.8410
 4166SOL     OW23956   2.232   3.720   2.821  0.2475  0.1252  0.0453
 4166SOL    HW123957   2.326   3.739   2.828 -0.0072  1.5052 -0.3289
 4166SOL    HW223958   2.194   3.788   2.765  1.7617  0.5175 -0.5097
 4167SOL     OW23959   3.419   3.155  14.462  0.2318 -0.4608  0.3394
 4167SOL    HW123960   3.494   3.187  14.512  0.1082  0.8821 -0.3387
 4167SOL    HW223961   3.422   3.060  14.469  0.4532 -0.5176 -0.4467
 4168SOL     OW23962   0.254   4.723   3.974 -0.2676  0.0806  0.4536
 4168SOL    HW123963   0.254   0.091   3.987 -0.8445  0.5002 -2.5351
 4168SOL    HW223964   0.292   4.697   4.058 -1.2375 -0.4764  0.7295
 4169SOL     OW23965   4.403   1.576   7.068 -0.1587 -0.6174  0.5500
 4169SOL    HW123966   4.380   1.486   7.090 -2.5565 -0.7200 -2.2781
 4169SOL    HW223967   4.350   1.604   6.993 -0.2232  1.1678  1.2520
 4170SOL     OW23968   2.249   2.711   2.874  0.2117 -0.0453  0.0157
 4170SOL    HW123969   2.327   2.767   2.878 -0.1064  0.4106 -0.1833
 4170SOL    HW223970   2.188   2.771   2.831  2.2143  0.4942 -2.1303
 4171SOL     OW23971   1.482   0.969  15.855 -0.1527  0.3983  0.0239
 4171SOL    HW123972   1.435   1.045  15.891 -1.5768 -0.5294  0.1307
 4171SOL    HW223973   1.438   0.905  15.911 -1.2218  0.0488 -1.2166
 4172SOL     OW23974   4.208   2.923  11.809 -0.5195 -0.1477 -0.3843
 4172SOL    HW123975   4.139   2.990  11.813  0.1574  0.4888  0.4862
 4172SOL    HW223976   4.158   2.842  11.792  0.2383 -0.1700 -2.4251
 4173SOL     OW23977   2.869   1.632   9.795 -0.0853 -0.1846  0.2715
 4173SOL    HW123978   2.796   1.622   9.856  0.0251  2.6534  0.8579
 4173SOL    HW223979   2.853   1.726   9.800  0.9949  0.1095 -1.8944
 4174SOL     OW23980   4.366   0.302   3.873 -0.8415  0.6017  0.1889
 4174SOL    HW123981   4.399   0.244   3.942  1.9318  2.5479  0.4987
 4174SOL    HW223982   4.313   0.246   3.816 -0.7651  1.3550 -0.6311
 4175SOL     OW23983   4.601   3.421   8.942 -0.0026 -0.1204 -0.2760
 4175SOL    HW123984   4.551   3.374   8.875 -1.8587  2.0640 -0.4295
 4175SOL    HW223985   4.559   3.507   8.939  1.0135  0.3639 -0.5608
 4176SOL     OW23986   3.630   1.385   5.182  0.5027 -0.0290  0.5189
 4176SOL    HW123987   3.616   1.478   5.165  1.3976 -0.2304 -1.2742
 4176SOL    HW223988   3.637   1.389   5.278  0.8267  0.3101  0.4798
 4177SOL     OW23989   4.396   1.235   7.075 -0.2238  0.1266 -0.4611
 4177SOL    HW123990   4.406   1.250   7.169  1.4214 -1.8249 -0.3406
 4177SOL    HW223991   4.303   1.212   7.071 -0.1329 -0.0200 -1.5778
 4178SOL     OW23992   1.557   3.084   1.676  0.0389  0.4423 -0.0929
 4178SOL    HW123993   1.484   3.069   1.735  0.6817 -0.2929  0.5098
 4178SOL    HW223994   1.637   3.077   1.727 -0.1256  0.1173  0.1216
 4179SOL     OW23995   3.425   0.553   1.555 -0.2698 -0.1078  0.1624
 4179SOL    HW123996   3.483   0.550   1.631  0.1011  3.4267  0.0143
 4179SOL    HW223997   3.492   0.560   1.487  0.1300 -0.6781  0.5049
 4180SOL     OW23998   2.786   2.858   5.268  0.2951  0.1371  0.5446
 4180SOL    HW123999   2.821   2.813   5.192 -1.4262 -0.7448  0.2781
 4180SOL    HW224000   2.873   2.894   5.286  0.7894 -0.5220 -0.5524
 4181SOL     OW24001   0.867   0.836   8.034  0.0830 -0.3476  0.4335
 4181SOL    HW124002   0.949   0.801   7.998 -0.9617 -1.2001 -1.1331
 4181SOL    HW224003   0.873   0.822   8.129 -0.8113  0.9257  0.6780
 4182SOL     OW24004   1.927   2.614   5.240  0.2091  0.4695 -0.9239
 4182SOL    HW124005   1.968   2.678   5.182 -1.6643  3.1766  0.7404
 4182SOL    HW224006   1.989   2.610   5.312  0.4690 -0.2678 -1.1862
 4183SOL     OW24007   3.684   3.545   2.485  0.7519 -0.3511 -0.3817
 4183SOL    HW124008   3.697   3.629   2.530  0.3988 -1.3101  1.5137
 4183SOL    HW224009   3.616   3.504   2.539  0.2287  0.9137 -0.0621
 4184SOL     OW24010   2.036   2.765   1.111  0.4475 -0.3189  0.0344
 4184SOL    HW124011   1.953   2.803   1.083 -0.4154 -1.9471  0.4041
 4184SOL    HW224012   2.062   2.838   1.167 -0.6032  2.3051 -2.9032
 4185SOL     OW24013   3.362   2.269  16.741 -0.1256 -0.0882  0.6375
 4185SOL    HW124014   3.330   2.351  16.780 -1.7314  1.0710 -3.1604
 4185SOL    HW224015   3.284   2.233  16.699  0.3904 -0.8992  0.3871
 4186SOL     OW24016   2.199   0.251   8.110  0.4999  0.0421 -0.2512
 4186SOL    HW124017   2.191   0.346   8.103  0.9455 -0.2483 -4.2354
 4186SOL    HW224018   2.211   0.234   8.017  1.4328  0.4260 -0.2023
 4187SOL     OW24019   0.552   1.038   8.079  0.6271 -0.4351 -0.3142
 4187SOL    HW124020   0.540   1.013   8.171 -0.1575  0.6148 -0.1371
 4187SOL    HW224021   0.606   0.964   8.051  0.2571 -0.3087 -1.3423
 4188SOL     OW24022   2.425   2.454   3.950 -0.4714  0.4279 -0.4586
 4188SOL    HW124023   2.403   2.489   3.864 -0.6800  2.2813  0.3659
 4188SOL    HW224024   2.515   2.425   3.932 -1.1460 -1.3910 -0.8973
 4189SOL     OW24025   0.634   0.462   2.189  0.1870  0.4692 -0.1582
 4189SOL    HW124026   0.686   0.453   2.109 -0.3186 -0.7946 -0.3466
 4189SOL    HW224027   0.574   0.392   2.165  2.2571 -0.8995 -1.3558
 4190SOL     OW24028   3.741   0.041   7.580 -0.8917  0.0679  0.0626
 4190SOL    HW124029   3.710   4.682   7.611  1.3986 -1.9013 -2.9916
 4190SOL    HW224030   3.694   0.059   7.499  0.5149 -2.7299 -1.4051
 4191SOL     OW24031   4.569   0.723   2.775 -0.0535 -0.6995  0.8350
 4191SOL    HW124032   4.479   0.752   2.793 -0.8516 -2.3546 -0.4709
 4191SOL    HW224033   4.567   0.679   2.690  1.3242 -2.4558  1.7056
 4192SOL     OW24034   0.485   3.598  13.112  0.5377  0.1929  0.3903
 4192SOL    HW124035   0.395   3.569  13.100  0.9765 -0.3472 -1.6314
 4192SOL    HW224036   0.485   3.693  13.099  2.9029  0.3530  1.6075
 4193SOL     OW24037   2.473   1.475  11.257  0.0195 -0.0236  0.0590
 4193SOL    HW124038   2.429   1.548  11.212  0.9378  0.8670  0.6048
 4193SOL    HW224039   2.410   1.403  11.254 -2.8704  2.4674  0.1255
 4194SOL     OW24040   0.376   1.932   8.061 -0.0642 -0.3467  0.1221
 4194SOL    HW124041   0.349   1.859   8.005  0.4644 -0.9760  0.6854
 4194SOL    HW224042   0.451   1.900   8.111 -0.3861 -0.8192  0.3019
 4195SOL     OW24043   3.450   3.812   8.027  0.1883 -0.0855  0.0482
 4195SOL    HW124044   3.378   3.750   8.038  0.9746 -1.0482 -0.3116
 4195SOL    HW224045   3.529   3.760   8.041  1.4327  1.6565 -0.5067
 4196SOL     OW24046   4.118   2.968   7.645  0.1310  0.2697 -0.6666
 4196SOL    HW124047   4.030   2.998   7.664 -0.0053 -0.8230  0.4109
 4196SOL    HW224048   4.166   3.007   7.718 -1.6817  1.3246 -0.0396
 4197SOL     OW24049   1.879   2.994  17.221  0.4593 -0.4410 -0.1077
 4197SOL    HW124050   1.928   3.074  17.208 -0.6903  0.4036  0.7772
 4197SOL    HW224051   1.873   2.969  17.129 -2.4545 -0.0726 -0.0275
 4198SOL     OW24052   4.570   4.546   5.027  0.3606 -0.4516  0.0730
 4198SOL    HW124053   4.629   4.575   4.958 -0.2847 -1.2316 -0.8203
 4198SOL    HW224054   4.634   4.518   5.093  1.7912  2.4805 -0.1041
 4199SOL     OW24055   3.905   1.218  13.687 -0.2139  0.1434  0.2591
 4199SOL    HW124056   3.906   1.187  13.778 -0.0601 -1.4593 -0.3020
 4199SOL    HW224057   3.827   1.169  13.662  2.0711 -2.0481 -2.5217
 4200SOL     OW24058   4.659   1.902   4.031  0.0724  0.1023 -0.0958
 4200SOL    HW124059   4.572   1.942   4.023 -0.7992 -1.5375  1.1649
 4200SOL    HW224060   4.719   1.974   4.010  0.2421  0.4504  1.6001
 4201SOL     OW24061   4.652   3.571   1.321  0.3071 -0.0915  0.5821
 4201SOL    HW124062   4.684   3.482   1.306  0.7189 -0.3210  2.8236
 4201SOL    HW224063   4.722   3.609   1.374 -1.5454 -0.1818  3.0874
 4202SOL     OW24064   3.941   2.022  15.545  0.5571 -0.2386  0.2315
 4202SOL    HW124065   4.013   1.985  15.597  0.0077 -2.1149 -0.3452
 4202SOL    HW224066   3.993   2.068  15.479  1.5680 -0.0210  1.1615
 4203SOL     OW24067   1.222   2.406   1.399  0.0107  0.0581 -0.7530
 4203SOL    HW124068   1.164   2.469   1.357 -1.7370 -0.7811  0.4038
 4203SOL    HW224069   1.289   2.386   1.334 -0.3682 -0.7637 -0.8872
 4204SOL     OW24070   2.269   4.034  10.741 -0.3314  0.0499  0.2615
 4204SOL    HW124071   2.293   3.942  10.757 -1.4652 -0.2231  0.3713
 4204SOL    HW224072   2.271   4.070  10.830 -1.8190 -0.1688  0.3820
 4205SOL     OW24073   0.282   0.947  10.716 -0.8343  0.4820  0.0523
 4205SOL    HW124074   0.310   0.859  10.742  0.0398  0.8178  0.2646
 4205SOL    HW224075   0.202   0.937  10.665 -0.5244  1.2409 -0.6000
 4206SOL     OW24076   3.333   0.814   1.585  0.4198  0.2750  0.1275
 4206SOL    HW124077   3.246   0.818   1.546  1.5766 -0.2254 -2.5353
 4206SOL    HW224078   3.356   0.722   1.591  0.9464  0.4494  0.7955
 4207SOL     OW24079   1.625   3.272   9.978 -0.5401 -0.4326  0.1663
 4207SOL    HW124080   1.708   3.239  10.013 -0.8415 -2.5969 -1.1706
 4207SOL    HW224081   1.602   3.190   9.935 -0.6318 -0.4206  0.1933
 4208SOL     OW24082   0.516   4.267   7.582  0.0552  0.2083  0.0377
 4208SOL    HW124083   0.466   4.194   7.545 -0.4468 -0.3524  1.8120
 4208SOL    HW224084   0.543   4.235   7.668 -0.7272 -0.1080  0.1694
 4209SOL     OW24085   3.345   1.134   7.494 -0.7049  0.0303  0.5719
 4209SOL    HW124086   3.360   1.203   7.429 -2.7415  1.0510  1.1911
 4209SOL    HW224087   3.432   1.093   7.497  0.2331  2.0713  0.8909
 4210SOL     OW24088   2.001   2.100   4.046  0.4151  0.2077  0.4213
 4210SOL    HW124089   2.074   2.162   4.041  1.5560 -1.1885 -0.1030
 4210SOL    HW224090   1.964   2.117   4.133  0.5817  0.6436  0.4062
 4211SOL     OW24091   4.685   2.273   0.484  0.3314 -0.2296 -0.1689
 4211SOL    HW124092   4.606   2.247   0.532  1.0477 -1.9841  0.0498
 4211SOL    HW224093   4.707   2.192   0.438 -1.2238 -1.2100  0.8335
 4212SOL     OW24094   0.758   4.001  16.526  0.3889 -0.3120  0.2360
 4212SOL    HW124095   0.775   3.982  16.434  2.8486  3.1458 -0.0197
 4212SOL    HW224096   0.670   4.037  16.538  0.1463 -1.2876  1.4587
 4213SOL     OW24097   0.058   2.932   4.020  0.4022 -0.2320 -0.2846
 4213SOL    HW124098   4.724   3.005   4.038  0.1158 -0.4137 -0.5134
 4213SOL    HW224099   0.138   2.976   4.050  0.6070 -0.5842 -0.3172
 4214SOL     OW24100   2.946   4.035  17.081 -0.4066 -0.5206  0.9365
 4214SOL    HW124101   2.881   4.075  17.137 -1.5776 -1.0545 -0.0419
 4214SOL    HW224102   3.010   4.106  17.075  0.6129 -1.4003  1.3286
 4215SOL     OW24103   3.411   2.566  10.546  0.6898 -0.2987  0.5165
 4215SOL    HW124104   3.412   2.661  10.548  1.2753 -0.3555  2.5810
 4215SOL    HW224105   3.401   2.545  10.639  0.3468 -2.9913 -0.1043
 4216SOL     OW24106   2.425   0.201   9.306  0.0170  0.2533 -0.0466
 4216SOL    HW124107   2.507   0.163   9.274  0.4892  1.6271 -0.4720
 4216SOL    HW224108   2.398   0.256   9.232 -0.2806  1.3385  0.8648
 4217SOL     OW24109   2.435   1.213  10.127  0.2812  0.2901 -0.6441
 4217SOL    HW124110   2.371   1.248  10.188  0.2551  0.0882 -0.5543
 4217SOL    HW224111   2.510   1.266  10.155 -0.2009  0.0967  1.0358
 4218SOL     OW24112   3.363   0.337   3.872 -0.6242 -0.4824 -0.3160
 4218SOL    HW124113   3.418   0.322   3.795 -1.3988  1.7285 -1.3035
 4218SOL    HW224114   3.331   0.425   3.852 -0.8623 -0.4486  0.2210
 4219SOL     OW24115   0.336   1.166   7.972  0.6052 -0.2814 -0.8715
 4219SOL    HW124116   0.416   1.140   8.018  0.2701  1.1923  0.5231
 4219SOL    HW224117   0.310   1.086   7.925  2.3148 -0.3270 -1.7501
 4220SOL     OW24118   1.823   3.578   7.440 -0.5232 -0.2526 -0.1945
 4220SOL    HW124119   1.882   3.620   7.503 -2.1709  1.1750  0.4223
 4220SOL    HW224120   1.868   3.581   7.355 -1.2299 -1.0942 -0.5935
 4221SOL     OW24121   2.673   4.458  11.806  0.0470  0.0612  0.4986
 4221SOL    HW124122   2.640   4.373  11.777 -1.0696  1.2463 -1.7011
 4221SOL    HW224123   2.601   4.515  11.778  1.6449  1.5563 -0.6178
 4222SOL     OW24124   2.454   0.608   9.757 -0.0859 -0.0467 -0.4745
 4222SOL    HW124125   2.389   0.539   9.767 -0.2569 -0.0762 -1.7035
 4222SOL    HW224126   2.466   0.604   9.662  0.8908  0.3673 -0.3729
 4223SOL     OW24127   1.446   0.975  10.215  0.0887 -0.1327 -0.1728
 4223SOL    HW124128   1.497   0.964  10.135 -1.1727  1.7768 -1.2529
 4223SOL    HW224129   1.369   0.922  10.196  1.4081 -1.7736 -0.9099
 4224SOL     OW24130   4.139   2.570  13.538 -0.1750  0.2299 -0.3789
 4224SOL    HW124131   4.135   2.479  13.566 -2.3079  0.7874  1.0876
 4224SOL    HW224132   4.154   2.624  13.615 -2.4076  2.1865 -1.3131
 4225SOL     OW24133   3.153   3.683   8.317  0.0650 -0.0237 -0.6711
 4225SOL    HW124134   3.127   3.772   8.295 -1.7092 -0.6626 -1.1707
 4225SOL    HW224135   3.098   3.671   8.395 -1.2144  2.3572 -1.2167
 4226SOL     OW24136   0.247   4.372   5.172  0.5876  0.0704 -0.3170
 4226SOL    HW124137   0.153   4.377   5.190  0.4800 -1.6959 -0.3743
 4226SOL    HW224138   0.256   4.279   5.191 -0.9337 -0.1196 -0.5078
 4227SOL     OW24139   2.514   0.208   3.196 -0.0664  0.6390  0.0477
 4227SOL    HW124140   2.487   0.120   3.221  0.1271  0.4432 -0.4184
 4227SOL    HW224141   2.535   0.199   3.102 -0.7339  1.0453 -0.1404
 4228SOL     OW24142   2.879   2.125   8.128 -0.2474 -0.3779  0.0897
 4228SOL    HW124143   2.850   2.034   8.136 -1.6936  0.0999  0.3063
 4228SOL    HW224144   2.898   2.126   8.034  0.0602  2.0488  0.1887
 4229SOL     OW24145   2.997   4.234   2.267  0.2724  0.0910  0.0625
 4229SOL    HW124146   3.038   4.269   2.188 -0.4169 -0.3337 -0.4818
 4229SOL    HW224147   3.027   4.295   2.335  0.6587  2.5964 -2.3314
 4230SOL     OW24148   1.294   4.247   9.830  0.0627 -0.0172  0.3082
 4230SOL    HW124149   1.325   4.240   9.920  0.8221 -2.3918 -0.1471
 4230SOL    HW224150   1.328   4.165   9.794  0.1713 -0.5922  1.7064
 4231SOL     OW24151   0.487   2.144   6.614 -0.4782 -0.1812  0.2730
 4231SOL    HW124152   0.462   2.132   6.706 -0.8657 -1.8020 -0.0445
 4231SOL    HW224153   0.494   2.239   6.606 -2.0971 -0.1514 -0.9140
 4232SOL     OW24154   3.305   2.213   3.612 -0.0813  0.0814  0.1868
 4232SOL    HW124155   3.327   2.164   3.691  3.8900  0.4334 -0.7272
 4232SOL    HW224156   3.218   2.176   3.595 -0.4630  0.2959  1.6558
 4233SOL     OW24157   3.900   0.871  15.579  0.4094 -0.0430  0.7230
 4233SOL    HW124158   3.995   0.881  15.569  0.1097  1.3743 -0.5766
 4233SOL    HW224159   3.892   0.776  15.568  0.8396  0.1077 -0.8197
 4234SOL     OW24160   2.955   3.383  11.283  0.2288  0.2214 -0.1416
 4234SOL    HW124161   2.957   3.424  11.196  2.4310 -1.3516 -0.8340
 4234SOL    HW224162   2.876   3.424  11.318  0.0564 -2.1820  2.2967
 4235SOL     OW24163   2.193   0.885   5.943 -0.7904  0.6088 -0.2428
 4235SOL    HW124164   2.130   0.889   5.871 -1.1801 -0.1599  0.0516
 4235SOL    HW224165   2.178   0.796   5.976 -0.6370  0.0642 -1.6114
 4236SOL     OW24166   1.845   3.791   7.229  0.2399 -0.0367  0.0508
 4236SOL    HW124167   1.828   3.756   7.142  2.0921  0.7554 -0.6254
 4236SOL    HW224168   1.788   3.868   7.225  0.5626  0.3574  2.7746
 4237SOL     OW24169   2.531   2.024   7.349 -0.2556  0.1847 -0.3491
 4237SOL    HW124170   2.486   1.942   7.325  2.3268 -1.6481  1.0899
 4237SOL    HW224171   2.456   2.084   7.351 -1.7986 -1.7198 -1.0475
 4238SOL     OW24172   0.254   0.248   5.580  0.0138 -0.0653  0.1745
 4238SOL    HW124173   0.334   0.224   5.532  1.1937 -0.5638  2.3688
 4238SOL    HW224174   0.290   0.270   5.666  1.9909 -0.4396 -0.5479
 4239SOL     OW24175   1.921   1.265   6.878 -0.0476 -0.3487 -0.4200
 4239SOL    HW124176   1.940   1.202   6.809  2.6452  0.9059 -0.7916
 4239SOL    HW224177   2.008   1.286   6.912  0.7416 -1.1196 -1.9988
 4240SOL     OW24178   3.821   1.845  11.526  0.2479  0.2262  0.0555
 4240SOL    HW124179   3.772   1.764  11.510  1.0124  0.1567 -1.9380
 4240SOL    HW224180   3.825   1.878  11.436  0.3701  0.7732  0.2631
 4241SOL     OW24181   2.892   3.276  17.410  0.7574  0.6181  0.6313
 4241SOL    HW124182   2.961   3.342  17.403  1.0332  0.2112 -0.5533
 4241SOL    HW224183   2.939   3.214  17.466 -0.7416 -1.6667 -0.6264
 4242SOL     OW24184   3.490   3.585   7.785 -0.0506 -0.0315 -0.5513
 4242SOL    HW124185   3.498   3.674   7.818 -1.0186  0.3438 -1.3258
 4242SOL    HW224186   3.520   3.597   7.695 -1.0410 -0.5663 -0.9543
 4243SOL     OW24187   0.386   0.870   3.874  0.2075  0.2396  0.0478
 4243SOL    HW124188   0.320   0.804   3.853 -0.4956  1.6192 -2.1094
 4243SOL    HW224189   0.342   0.948   3.840  0.4200  0.3887  0.1130
 4244SOL     OW24190   0.183   4.374   6.596  0.0612 -0.5831  0.1998
 4244SOL    HW124191   0.189   4.469   6.600 -1.4729 -0.4762  0.1540
 4244SOL    HW224192   0.255   4.345   6.540  1.1813 -1.3901  2.0496
 4245SOL     OW24193   4.595   4.723  16.681  0.3297  0.2386 -0.1745
 4245SOL    HW124194   4.508   0.026  16.655  0.4891 -0.9175 -1.9774
 4245SOL    HW224195   4.635   0.037  16.604  1.1461  0.5103  0.3822
 4246SOL     OW24196   2.233   2.865  16.720  1.1301 -0.2723 -0.1253
 4246SOL    HW124197   2.229   2.911  16.804 -0.9254  1.0339 -0.9466
 4246SOL    HW224198   2.151   2.895  16.680  0.5254 -2.7624 -0.7340
 4247SOL     OW24199   4.182   1.827   9.012 -0.4037 -0.0984  0.4647
 4247SOL    HW124200   4.089   1.849   9.011 -0.5616 -0.7617  0.0801
 4247SOL    HW224201   4.225   1.910   8.993 -0.4062  0.0260  1.0121
 4248SOL     OW24202   4.436   1.980   4.576 -0.1689 -0.2259  0.6035
 4248SOL    HW124203   4.393   2.044   4.520  1.1328 -2.2299 -2.6632
 4248SOL    HW224204   4.391   1.902   4.543  0.9987 -0.4813 -0.3595
 4249SOL     OW24205   3.514   2.601   8.072 -0.6027 -1.0689  0.1298
 4249SOL    HW124206   3.444   2.663   8.051  2.0393  2.8794  2.9157
 4249SOL    HW224207   3.504   2.607   8.167  1.0035 -2.3720  0.3793
 4250SOL     OW24208   0.551   0.400   7.226  0.1657  0.0972  0.0833
 4250SOL    HW124209   0.629   0.421   7.175 -0.7942  1.1196 -0.9639
 4250SOL    HW224210   0.593   0.369   7.306 -1.6541  2.0009  1.7912
 4251SOL     OW24211   1.047   2.666   6.829 -0.3421  0.2081  0.5034
 4251SOL    HW124212   1.134   2.627   6.834  0.2091  1.4447  0.5498
 4251SOL    HW224213   1.006   2.669   6.916  0.9631 -3.2134  1.2302
 4252SOL     OW24214   4.470   2.891   0.568 -0.2578  0.3349 -0.3241
 4252SOL    HW124215   4.417   2.969   0.552  0.4959  1.1966  1.3414
 4252SOL    HW224216   4.405   2.821   0.562  0.3836 -0.1255 -1.7926
 4253SOL     OW24217   4.135   4.150   7.620  0.1408 -0.2024  0.1040
 4253SOL    HW124218   4.073   4.222   7.611  2.1678  1.5680  0.2289
 4253SOL    HW224219   4.179   4.134   7.536 -0.0608 -1.3523  0.2097
 4254SOL     OW24220   2.053   4.650   9.443  0.1506 -0.6946  0.4904
 4254SOL    HW124221   2.114   4.582   9.417  1.5812  1.0331 -0.6042
 4254SOL    HW224222   2.072   4.718   9.379 -1.5742 -0.9932 -0.3561
 4255SOL     OW24223   4.402   0.149   7.422 -0.1512  0.1127 -0.0546
 4255SOL    HW124224   4.494   0.125   7.424  0.3584  2.3239  3.3987
 4255SOL    HW224225   4.406   0.219   7.357  1.5163  0.5670  0.5570
 4256SOL     OW24226   3.685   3.658  14.683 -0.0575 -0.0004 -0.3827
 4256SOL    HW124227   3.720   3.735  14.639 -0.8717  0.9340  0.6199
 4256SOL    HW224228   3.626   3.695  14.748  1.5504 -0.6257  1.4366
 4257SOL     OW24229   2.255   2.383  16.548  0.0597  0.3589 -0.0373
 4257SOL    HW124230   2.186   2.395  16.613 -0.4657  1.4206 -0.7859
 4257SOL    HW224231   2.277   2.475  16.538 -0.5784  0.5958  0.7451
 4258SOL     OW24232   1.371   1.296  11.808 -0.2033 -0.6200  0.1674
 4258SOL    HW124233   1.398   1.377  11.765 -0.6836 -1.3491 -1.5060
 4258SOL    HW224234   1.409   1.311  11.895  2.5703  2.5385 -1.6315
 4259SOL     OW24235   2.893   2.994   2.672 -0.3332 -0.0631  0.3680
 4259SOL    HW124236   2.820   2.971   2.615 -1.0752 -0.9969  1.7022
 4259SOL    HW224237   2.965   3.008   2.611 -0.5463  2.3279  0.6900
 4260SOL     OW24238   1.336   1.759   2.208 -0.8655 -0.1571 -0.0569
 4260SOL    HW124239   1.328   1.782   2.300 -0.8306 -1.6677  0.3337
 4260SOL    HW224240   1.374   1.841   2.177  1.9035 -1.1377  0.7906
 4261SOL     OW24241   3.597   0.553   5.054 -0.3185 -0.1901 -0.0474
 4261SOL    HW124242   3.524   0.492   5.054 -0.1494 -0.3908  0.3598
 4261SOL    HW224243   3.641   0.548   4.970  0.6931 -1.3700  0.5616
 4262SOL     OW24244   0.401   0.688  15.665  0.2961 -0.2616  0.3255
 4262SOL    HW124245   0.379   0.605  15.707  3.3703 -0.4662  1.5829
 4262SOL    HW224246   0.395   0.743  15.744  0.5768 -0.3849  0.4349
 4263SOL     OW24247   4.583   0.738   8.478  0.2441  0.3219 -0.0411
 4263SOL    HW124248   4.552   0.828   8.476  0.2370  0.3122 -0.3492
 4263SOL    HW224249   4.494   0.703   8.487  0.0101  1.1072  0.6351
 4264SOL     OW24250   0.321   4.306   6.126 -0.1492 -0.1665 -0.7373
 4264SOL    HW124251   0.372   4.226   6.113 -0.9307 -0.8244  0.2785
 4264SOL    HW224252   0.236   4.291   6.083 -0.6596 -0.9076  0.5380
 4265SOL     OW24253   0.257   4.392   7.025  0.9575  0.3896 -0.3919
 4265SOL    HW124254   0.275   4.303   7.054  0.3234  0.6631  0.8282
 4265SOL    HW224255   0.165   4.383   7.003  0.7307  0.7106  0.4252
 4266SOL     OW24256   2.678   3.536   8.575 -0.2586  0.0277 -0.1231
 4266SOL    HW124257   2.618   3.605   8.604 -0.7441 -0.5148  0.1724
 4266SOL    HW224258   2.686   3.483   8.655  3.4874  1.4435  0.4244
 4267SOL     OW24259   4.151   3.936  17.436  0.1447 -0.3214  0.6304
 4267SOL    HW124260   4.207   4.003  17.476  2.9048 -2.3227  0.0782
 4267SOL    HW224261   4.067   3.968  17.469  0.4249 -2.0119  2.9205
 4268SOL     OW24262   2.259   1.964   5.296  0.4506 -0.7972  0.1944
 4268SOL    HW124263   2.240   2.056   5.283 -1.3089 -1.3298 -1.0057
 4268SOL    HW224264   2.334   1.958   5.237 -1.2577 -0.1203 -2.0504
 4269SOL     OW24265   0.363   1.178  15.941  0.4675  0.2395  0.3189
 4269SOL    HW124266   0.355   1.105  16.003  2.0330  0.9103  1.3200
 4269SOL    HW224267   0.318   1.135  15.869 -0.3964  1.1046  0.3418
 4270SOL     OW24268   1.286   4.300  11.716  0.2400 -0.4782  0.1989
 4270SOL    HW124269   1.288   4.207  11.737 -0.9930 -0.7939 -1.0968
 4270SOL    HW224270   1.369   4.304  11.669  0.8644  3.2512  1.5506
 4271SOL     OW24271   3.250   2.570   0.456 -0.0919  0.0090  0.0553
 4271SOL    HW124272   3.245   2.588   0.550 -0.2330 -0.2348  0.0937
 4271SOL    HW224273   3.163   2.535   0.433  0.1875 -0.0365 -0.9493
 4272SOL     OW24274   0.725   4.326   5.203 -0.3215 -0.1409  0.2435
 4272SOL    HW124275   0.760   4.409   5.171  0.8315 -0.3441  0.9824
 4272SOL    HW224276   0.792   4.303   5.268 -1.9082 -0.9921  1.5750
 4273SOL     OW24277   3.130   2.432   3.843 -0.5184  0.0787 -0.1411
 4273SOL    HW124278   3.216   2.413   3.879  0.1041  2.6215 -0.2836
 4273SOL    HW224279   3.079   2.354   3.867  3.3396 -1.6843  2.3089
 4274SOL     OW24280   3.266   2.898   0.701  0.0196 -0.2179  0.0967
 4274SOL    HW124281   3.268   2.932   0.611  3.2001  0.7094  0.5470
 4274SOL    HW224282   3.360   2.896   0.715 -0.0504  0.8841  0.7436
 4275SOL     OW24283   3.873   1.298   2.336 -0.0100 -0.4876 -0.5002
 4275SOL    HW124284   3.831   1.280   2.251 -0.6889  1.3574 -0.5515
 4275SOL    HW224285   3.823   1.375   2.360 -1.4599 -1.4770 -0.3662
 4276SOL     OW24286   3.837   1.090   5.581  0.2855 -0.2293  0.5489
 4276SOL    HW124287   3.849   1.159   5.516  1.8671 -1.4615 -0.4543
 4276SOL    HW224288   3.814   1.015   5.527  1.5050 -0.7374  0.7458
 4277SOL     OW24289   1.423   1.215  15.125 -0.8815 -0.2045  0.3058
 4277SOL    HW124290   1.338   1.238  15.088  0.0663  2.4779 -0.1874
 4277SOL    HW224291   1.423   1.121  15.107 -2.6578 -0.2171  0.4056
 4278SOL     OW24292   0.911   0.392   2.777  0.5762  0.1394 -0.1051
 4278SOL    HW124293   0.923   0.351   2.863 -1.0398  1.0337  0.5316
 4278SOL    HW224294   0.984   0.368   2.721  0.3775  0.9275 -0.6958
 4279SOL     OW24295   0.366   1.263   2.438 -0.9623 -0.0066  0.3089
 4279SOL    HW124296   0.288   1.212   2.461 -0.3315 -0.5552  1.2797
 4279SOL    HW224297   0.395   1.221   2.357  0.2000  2.1772 -0.4041
 4280SOL     OW24298   1.587   1.737   7.961 -0.0248 -0.0742  0.3367
 4280SOL    HW124299   1.562   1.828   7.945  1.4430  0.1374 -0.7490
 4280SOL    HW224300   1.644   1.742   8.037  1.3735 -1.0892 -0.6257
 4281SOL     OW24301   3.379   0.594   2.492 -0.2031 -0.6475 -0.4283
 4281SOL    HW124302   3.293   0.571   2.526 -0.0923  0.5528  0.6555
 4281SOL    HW224303   3.407   0.517   2.443  2.4553 -0.6859  1.1358
 4282SOL     OW24304   0.111   0.797   0.144  0.1547  0.1326  0.4683
 4282SOL    HW124305   0.030   0.785   0.094 -0.9190  0.8571  2.0380
 4282SOL    HW224306   0.097   0.726   0.206  0.8979 -0.4614 -0.0345
 4283SOL     OW24307   1.806   3.967  10.840  0.3078  0.3178 -0.5660
 4283SOL    HW124308   1.835   4.037  10.782  0.9243  1.0295  0.6023
 4283SOL    HW224309   1.724   4.014  10.857  0.5400 -0.0935  1.7023
 4284SOL     OW24310   1.151   3.264   3.290 -0.3170 -0.5609  0.1817
 4284SOL    HW124311   1.208   3.317   3.233  0.1876  0.4889  1.6647
 4284SOL    HW224312   1.150   3.184   3.238  0.0967 -0.6255  0.2744
 4285SOL     OW24313   0.317   0.306  14.032  0.4524 -0.1365  0.3201
 4285SOL    HW124314   0.375   0.382  14.038 -1.5860  1.4587 -0.4942
 4285SOL    HW224315   0.379   0.236  14.012  0.9458 -0.0045  1.3872
 4286SOL     OW24316   1.893   2.368   5.089  0.3009 -0.2367 -0.3192
 4286SOL    HW124317   1.807   2.344   5.125  0.3424  1.9080  1.2049
 4286SOL    HW224318   1.904   2.447   5.142 -1.2373 -0.2416  0.0084
 4287SOL     OW24319   4.712   2.771  13.317  0.0594 -0.3869 -0.0268
 4287SOL    HW124320   0.034   2.806  13.392  2.0085  0.0925 -1.4840
 4287SOL    HW224321   4.637   2.830  13.309  0.1148 -0.5661 -2.0107
 4288SOL     OW24322   4.308   2.831   9.780  0.0210 -0.6242  0.2789
 4288SOL    HW124323   4.361   2.779   9.841  1.0222 -0.9216 -0.8480
 4288SOL    HW224324   4.223   2.813   9.818 -0.5740 -0.0690 -0.7812
 4289SOL     OW24325   1.158   1.445  15.802 -0.0201  0.5076 -0.3142
 4289SOL    HW124326   1.138   1.414  15.714 -0.4702  1.4648 -0.5464
 4289SOL    HW224327   1.161   1.361  15.849 -1.1456  0.7693  0.2230
 4290SOL     OW24328   0.466   0.736  13.890 -0.3291  0.6551  0.2132
 4290SOL    HW124329   0.394   0.693  13.936  1.0816 -0.5184  1.3599
 4290SOL    HW224330   0.447   0.828  13.905  0.3908  0.8932 -0.3543
 4291SOL     OW24331   1.436   2.086   9.861  0.3051  0.0933  0.1095
 4291SOL    HW124332   1.498   2.041   9.918  0.1519  0.5766  0.6617
 4291SOL    HW224333   1.385   2.014   9.826  0.8011 -1.0431  1.7390
 4292SOL     OW24334   2.842   1.406  15.333 -0.4874 -0.3867 -0.8994
 4292SOL    HW124335   2.775   1.356  15.285 -0.0679 -0.7961 -1.0533
 4292SOL    HW224336   2.915   1.400  15.271 -0.8898  0.3242 -1.4463
 4293SOL     OW24337   2.762   1.022   5.678 -0.0198  0.1625 -0.1553
 4293SOL    HW124338   2.692   0.958   5.665 -1.7815  2.0299  0.0388
 4293SOL    HW224339   2.831   0.981   5.730 -0.5527  0.0629  0.4795
 4294SOL     OW24340   2.169   3.497  16.096 -0.0286  0.3089  0.8528
 4294SOL    HW124341   2.184   3.588  16.069 -1.4189  0.0640 -0.8234
 4294SOL    HW224342   2.244   3.466  16.045 -0.6650  2.2078 -1.2213
 4295SOL     OW24343   2.841   3.234  14.083 -0.1546 -0.0441  0.1473
 4295SOL    HW124344   2.917   3.286  14.057 -0.8460  1.7121  1.6040
 4295SOL    HW224345   2.883   3.148  14.085  0.7024  0.3787  0.3745
 4296SOL     OW24346   1.912   1.098  11.152 -0.6059 -0.0824  0.8182
 4296SOL    HW124347   1.844   1.089  11.086  1.4270 -1.5282 -1.1001
 4296SOL    HW224348   1.946   1.185  11.133  2.6668 -1.4040  0.5356
 4297SOL     OW24349   3.728   4.058  13.622 -0.4473 -0.0101  0.4311
 4297SOL    HW124350   3.651   4.113  13.614  0.2688  0.7904 -0.9635
 4297SOL    HW224351   3.744   4.039  13.530 -1.2292 -0.3106  0.3565
 4298SOL     OW24352   1.034   1.122   5.694  0.5539  0.1774  0.0235
 4298SOL    HW124353   0.982   1.044   5.672  0.1303  0.6557 -0.6671
 4298SOL    HW224354   0.974   1.196   5.693  0.2382 -0.0822 -0.3886
 4299SOL     OW24355   4.676   1.805  14.794 -0.5510  0.4785  0.5531
 4299SOL    HW124356   4.675   1.776  14.703  0.8304 -0.9676  0.9906
 4299SOL    HW224357   4.662   1.900  14.787 -2.3127  0.1659 -0.2425
 4300SOL     OW24358   2.762   1.244  14.521  0.3267  0.6018  0.5173
 4300SOL    HW124359   2.726   1.169  14.473  0.5470  0.6166  0.3231
 4300SOL    HW224360   2.853   1.228  14.492 -0.0119 -0.6833  0.1570
 4301SOL     OW24361   3.653   0.734   9.452  0.5269  0.6655 -0.6081
 4301SOL    HW124362   3.676   0.826   9.466  0.1671  0.0569  4.1210
 4301SOL    HW224363   3.650   0.703   9.543 -1.3070 -0.3403 -1.0098
 4302SOL     OW24364   4.339   0.325   3.023 -0.3937  0.0976 -0.5038
 4302SOL    HW124365   4.314   0.310   2.932 -0.2970  2.9441 -0.9938
 4302SOL    HW224366   4.314   0.417   3.033  2.0816  0.6322  0.8154
 4303SOL     OW24367   4.302   0.571   7.556  0.7179  0.5503  0.2538
 4303SOL    HW124368   4.258   0.520   7.623 -1.7593  2.5920  0.1981
 4303SOL    HW224369   4.392   0.537   7.555  0.6726  0.4606 -0.5574
 4304SOL     OW24370   0.704   3.616  15.753  0.5000  0.6209 -0.0793
 4304SOL    HW124371   0.786   3.638  15.796  0.6772  0.2099 -0.2112
 4304SOL    HW224372   0.648   3.594  15.827 -0.8523  0.1373 -1.2430
 4305SOL     OW24373   0.186   2.068   0.984  0.6629 -0.4213 -0.4158
 4305SOL    HW124374   0.152   2.105   0.903 -0.3494  0.9283  0.6256
 4305SOL    HW224375   0.278   2.063   0.959  1.4514 -1.5773  2.6252
 4306SOL     OW24376   1.406   0.447   8.999 -0.0342  0.2681  0.4567
 4306SOL    HW124377   1.378   0.463   9.089 -0.1082 -0.7336  0.6146
 4306SOL    HW224378   1.499   0.439   9.020  0.1160 -0.0201 -0.2926
 4307SOL     OW24379   4.224   4.160   5.365  0.4714 -0.1752 -0.2116
 4307SOL    HW124380   4.197   4.189   5.452 -0.4548  1.3603 -1.0171
 4307SOL    HW224381   4.147   4.116   5.330 -1.6679  1.6731  2.1869
 4308SOL     OW24382   4.556   0.439   4.310 -0.4580 -0.0329 -0.2490
 4308SOL    HW124383   4.584   0.429   4.401 -1.6726  0.0721  0.1409
 4308SOL    HW224384   4.590   0.362   4.265 -0.1461 -0.0855  0.0794
 4309SOL     OW24385   2.321   3.315   9.936 -0.4233  0.0888 -0.1687
 4309SOL    HW124386   2.324   3.228   9.976 -1.8226 -0.4148 -1.1560
 4309SOL    HW224387   2.226   3.327   9.929 -0.5494 -1.2612 -0.7426
 4310SOL     OW24388   1.565   2.738   2.687  0.4918 -0.4229 -0.4537
 4310SOL    HW124389   1.527   2.654   2.663 -1.0587 -0.1262  0.9169
 4310SOL    HW224390   1.651   2.732   2.646  0.4353 -1.9036 -0.3329
 4311SOL     OW24391   4.072   3.750   7.315 -0.1741 -0.0388  0.1607
 4311SOL    HW124392   3.991   3.701   7.325  0.9928 -2.1105 -0.6859
 4311SOL    HW224393   4.070   3.804   7.394  0.7695 -1.5807  1.2364
 4312SOL     OW24394   3.105   0.871  11.375 -0.0776  0.8765  0.2827
 4312SOL    HW124395   3.024   0.912  11.403 -0.1587  1.3913 -0.6966
 4312SOL    HW224396   3.082   0.779  11.388  0.6316  0.5192 -0.9531
 4313SOL     OW24397   3.247   1.899   2.159 -0.4682  0.0786 -0.0535
 4313SOL    HW124398   3.328   1.934   2.195 -0.9940 -1.3446  2.5240
 4313SOL    HW224399   3.255   1.804   2.170 -0.6026 -0.0634 -1.2095
 4314SOL     OW24400   1.429   1.474   4.139  0.2348  0.0952  0.6894
 4314SOL    HW124401   1.479   1.549   4.170 -0.7752  0.0914  2.2652
 4314SOL    HW224402   1.499   1.431   4.088  0.7688 -1.3545  2.6423
 4315SOL     OW24403   3.382   4.068   4.748 -0.1096 -0.2039  0.2769
 4315SOL    HW124404   3.437   3.995   4.720 -1.1813 -0.6321 -0.7411
 4315SOL    HW224405   3.336   4.092   4.668 -1.0230  1.3631  1.2643
 4316SOL     OW24406   1.353   4.178   3.777 -0.1905  0.0034  0.6339
 4316SOL    HW124407   1.351   4.193   3.872 -0.6465  1.2086  0.4280
 4316SOL    HW224408   1.334   4.265   3.743  1.2255  0.4405  0.9844
 4317SOL     OW24409   4.116   0.433   7.673  0.0211  0.6823 -0.2538
 4317SOL    HW124410   4.070   0.422   7.590 -0.1808 -1.2935  0.1201
 4317SOL    HW224411   4.051   0.401   7.736  0.1072  0.0015 -0.5216
 4318SOL     OW24412   3.148   2.013   3.122  0.4084 -0.4970  0.3300
 4318SOL    HW124413   3.243   2.015   3.117  0.4910 -1.8125  1.4654
 4318SOL    HW224414   3.130   1.924   3.151  0.1548 -0.2217  1.0262
 4319SOL     OW24415   0.389   4.070  14.052  0.4054  0.5117 -0.1891
 4319SOL    HW124416   0.429   4.131  13.989  1.3082  1.1168  0.9783
 4319SOL    HW224417   0.347   4.136  14.106 -0.0005  1.2380 -1.3793
 4320SOL     OW24418   1.883   3.803  10.146  0.5592  0.3708 -0.1035
 4320SOL    HW124419   1.897   3.861  10.221  2.1942  0.3389 -0.3879
 4320SOL    HW224420   1.972   3.780  10.118  0.7052  0.9213 -0.0919
 4321SOL     OW24421   0.485   3.493   4.948  0.2689  0.1234  0.5868
 4321SOL    HW124422   0.412   3.533   4.995 -1.6856 -1.0214 -1.4893
 4321SOL    HW224423   0.550   3.563   4.938  2.3338 -1.7934  0.6356
 4322SOL     OW24424   2.035   0.365   6.146  0.4244 -0.2057  0.1088
 4322SOL    HW124425   2.072   0.283   6.179  0.8513 -1.0184 -2.3977
 4322SOL    HW224426   1.978   0.382   6.221  0.5088 -1.8591  0.5535
 4323SOL     OW24427   1.857   1.060   1.313  0.7931 -0.5987  0.5487
 4323SOL    HW124428   1.882   1.102   1.396  1.3582  1.1932 -0.5304
 4323SOL    HW224429   1.819   0.979   1.346 -3.0652  0.4839 -1.3077
 4324SOL     OW24430   2.706   0.479  12.820  0.1130  0.1107  0.4924
 4324SOL    HW124431   2.742   0.555  12.774 -2.4268  0.6843 -0.5614
 4324SOL    HW224432   2.751   0.400  12.791  0.4505 -0.2815  2.0722
 4325SOL     OW24433   3.736   0.633  13.611 -0.1105 -0.1983  0.5975
 4325SOL    HW124434   3.782   0.555  13.639  0.9886  0.2718  0.0834
 4325SOL    HW224435   3.764   0.708  13.663 -0.9445 -0.0032  0.7606
 4326SOL     OW24436   3.058   3.447   7.415 -0.7163 -0.0771  0.7917
 4326SOL    HW124437   3.076   3.529   7.461 -0.1588 -0.6934  1.6693
 4326SOL    HW224438   3.119   3.390   7.462 -0.2330 -0.8150 -0.7278
 4327SOL     OW24439   4.036   0.719  17.431 -0.1851 -0.7854  0.0598
 4327SOL    HW124440   3.983   0.793  17.402 -0.4113  0.0268  2.5087
 4327SOL    HW224441   4.123   0.757  17.427 -0.0748 -1.0102  0.3030
 4328SOL     OW24442   1.193   4.175   5.082 -0.0354 -0.0075  0.7745
 4328SOL    HW124443   1.188   4.128   4.999 -0.6806  0.0403  0.7896
 4328SOL    HW224444   1.156   4.113   5.144  0.7366 -0.2559  0.9836
 4329SOL     OW24445   2.233   2.594   9.370 -0.4996  0.5265  0.8410
 4329SOL    HW124446   2.301   2.659   9.351  0.9250 -1.0523  0.5767
 4329SOL    HW224447   2.180   2.602   9.291  0.3922  1.1387  0.3070
 4330SOL     OW24448   1.854   3.023  12.402 -0.1914  0.0035  0.1894
 4330SOL    HW124449   1.923   2.983  12.455 -0.2166  0.8507  0.8685
 4330SOL    HW224450   1.795   3.060  12.468  0.2158 -0.6005  0.8863
 4331SOL     OW24451   4.569   2.166   1.431 -0.0650 -0.6140 -0.5971
 4331SOL    HW124452   4.522   2.107   1.489 -1.2347 -0.2724 -1.1918
 4331SOL    HW224453   4.506   2.235   1.409  1.1379  0.5763 -0.3716
 4332SOL     OW24454   2.277   0.011   5.177  0.3436 -0.3041  0.3506
 4332SOL    HW124455   2.362   0.023   5.220  0.5832  0.6036 -0.3793
 4332SOL    HW224456   2.241   0.097   5.199  0.8692  0.0763 -0.2758
 4333SOL     OW24457   1.492   3.129   7.445  0.1598 -0.2546 -0.0678
 4333SOL    HW124458   1.439   3.190   7.496  0.2944 -0.4076  0.2642
 4333SOL    HW224459   1.426   3.072   7.407  0.2307 -1.6579  1.8842
 4334SOL     OW24460   4.067   3.878  16.803 -0.0123 -0.3268 -0.2417
 4334SOL    HW124461   4.117   3.817  16.857 -0.2700 -1.3379 -1.1363
 4334SOL    HW224462   4.143   3.903  16.750 -0.7388  1.9751 -0.1822
 4335SOL     OW24463   4.123   0.892  12.644  0.0455 -0.0998 -0.2079
 4335SOL    HW124464   4.175   0.971  12.629 -1.4878  0.5554 -2.1750
 4335SOL    HW224465   4.140   0.844  12.563 -1.0353 -1.5817  0.4461
 4336SOL     OW24466   2.201   2.401   8.733  0.2368  0.5898 -0.3175
 4336SOL    HW124467   2.281   2.358   8.765  0.3203  1.4141  0.6037
 4336SOL    HW224468   2.129   2.370   8.789  1.3956 -0.4393  0.6147
 4337SOL     OW24469   2.093   2.595  13.093 -0.2857 -0.2097  0.0940
 4337SOL    HW124470   2.138   2.606  13.009  1.2814  2.2010  1.2318
 4337SOL    HW224471   2.015   2.547  13.066 -0.5432  1.4399 -2.0879
 4338SOL     OW24472   0.508   1.840   5.934  0.1726  0.3878  0.2941
 4338SOL    HW124473   0.420   1.825   5.969 -0.2283  0.5740 -0.6332
 4338SOL    HW224474   0.545   1.884   6.010 -0.2600 -0.4667  0.9941
 4339SOL     OW24475   4.507   3.261   2.550 -0.0396 -0.6093 -0.3082
 4339SOL    HW124476   4.434   3.301   2.503 -0.4002 -0.4859  0.3607
 4339SOL    HW224477   4.565   3.336   2.564 -0.0084 -0.8665  0.9215
 4340SOL     OW24478   3.751   2.204   3.325  0.3738 -0.6374  0.5842
 4340SOL    HW124479   3.677   2.256   3.292 -0.2123  0.0519  2.9774
 4340SOL    HW224480   3.828   2.251   3.292  0.2069  0.3991  1.6699
 4341SOL     OW24481   2.518   0.578   9.167  0.1972 -0.1768  0.1570
 4341SOL    HW124482   2.511   0.571   9.072 -2.5006  1.5645  0.2089
 4341SOL    HW224483   2.594   0.522   9.182  0.9666  0.8066 -0.0052
 4342SOL     OW24484   1.599   1.291   6.594  0.1494  0.5483 -0.1446
 4342SOL    HW124485   1.588   1.356   6.663  0.9199 -1.1548  1.5685
 4342SOL    HW224486   1.538   1.223   6.621  1.1393 -0.7462 -1.2085
 4343SOL     OW24487   1.862   3.228   4.925 -0.0790 -0.4234 -0.0340
 4343SOL    HW124488   1.920   3.291   4.881 -2.3751  2.3815  0.9109
 4343SOL    HW224489   1.920   3.188   4.989  1.5260  1.0299 -0.5603
 4344SOL     OW24490   3.815   4.616   1.675  0.1368 -0.2631  0.0636
 4344SOL    HW124491   3.790   4.629   1.766  1.7208 -4.3250  1.1090
 4344SOL    HW224492   3.739   4.651   1.629  0.6256 -0.3682 -0.8321
 4345SOL     OW24493   4.595   0.307  12.778 -0.5365 -0.6016 -0.0026
 4345SOL    HW124494   4.566   0.246  12.846  0.6764 -2.6480 -1.3088
 4345SOL    HW224495   4.686   0.321  12.804 -1.5282  4.7134  0.4846
 4346SOL     OW24496   3.202   1.391   3.902  0.2326  0.2942  0.4270
 4346SOL    HW124497   3.272   1.455   3.888 -1.0453  1.1955 -1.7232
 4346SOL    HW224498   3.237   1.332   3.835 -2.0333 -0.9217  0.2992
 4347SOL     OW24499   2.934   0.454   7.830  0.7613 -0.1335  0.0400
 4347SOL    HW124500   2.991   0.524   7.863 -0.3261  0.4215  0.7475
 4347SOL    HW224501   2.893   0.426   7.912 -1.9149  0.4537 -1.0942
 4348SOL     OW24502   3.256   3.829   7.255  0.0316 -0.3333 -0.4905
 4348SOL    HW124503   3.345   3.845   7.223  0.3569 -3.3452 -1.0098
 4348SOL    HW224504   3.233   3.913   7.297  0.2556 -0.8104  0.5774
 4349SOL     OW24505   2.305   2.185   7.380 -0.3248 -0.2877  0.0316
 4349SOL    HW124506   2.211   2.201   7.370 -0.5465 -0.2346  2.2589
 4349SOL    HW224507   2.328   2.231   7.460  0.1673  1.1668 -0.9557
 4350SOL     OW24508   3.338   0.557   4.860  0.4099 -0.0967  0.8191
 4350SOL    HW124509   3.350   0.493   4.930 -0.8090 -0.4134  0.7261
 4350SOL    HW224510   3.243   0.563   4.855  0.7041  1.2488 -2.8404
 4351SOL     OW24511   4.479   0.091   0.772 -0.2174 -0.5288  0.3124
 4351SOL    HW124512   4.500   0.183   0.786  1.6367 -0.8642 -0.2635
 4351SOL    HW224513   4.393   0.105   0.731  0.4126  0.4203 -0.6731
 4352SOL     OW24514   0.950   0.370   6.482  0.7356 -0.0300 -0.0305
 4352SOL    HW124515   0.910   0.431   6.545  1.3522  0.4459 -0.0927
 4352SOL    HW224516   0.881   0.304   6.475 -0.8907  1.9446 -2.9300
 4353SOL     OW24517   0.251   3.572   7.948  0.1971 -0.0314  0.1918
 4353SOL    HW124518   0.265   3.505   8.015 -0.6496 -0.2040  0.1951
 4353SOL    HW224519   0.213   3.638   8.007 -0.7258 -1.3128  1.0501
 4354SOL     OW24520   2.739   0.238   4.323 -0.2928  1.1586  0.5560
 4354SOL    HW124521   2.755   0.296   4.397  0.8580 -0.2724  1.4183
 4354SOL    HW224522   2.750   0.310   4.260  0.6782  0.7435  0.2520
 4355SOL     OW24523   1.921   4.412   6.418 -0.3116  0.2074  0.2659
 4355SOL    HW124524   1.982   4.352   6.462 -0.7980  0.2263  0.9601
 4355SOL    HW224525   1.837   4.375   6.444 -0.5878  0.0772 -0.8135
 4356SOL     OW24526   3.429   2.086   3.821  0.0182 -0.1378 -0.1490
 4356SOL    HW124527   3.492   2.047   3.881  0.1754 -0.1920 -0.3474
 4356SOL    HW224528   3.419   2.004   3.772  1.2511 -0.4366  0.1056
 4357SOL     OW24529   2.815   1.754   1.616 -0.0945 -0.4563 -0.2849
 4357SOL    HW124530   2.837   1.841   1.584 -0.8551  0.3776  1.4862
 4357SOL    HW224531   2.808   1.769   1.710  1.7823 -0.4786 -0.1513
 4358SOL     OW24532   4.429   1.126  15.233 -0.1365  0.3860  0.4197
 4358SOL    HW124533   4.490   1.116  15.160  1.7496 -1.7146  2.2841
 4358SOL    HW224534   4.477   1.194  15.279 -0.1165  0.8922 -0.3359
 4359SOL     OW24535   1.635   1.678  16.200 -0.1358 -0.3462  0.2039
 4359SOL    HW124536   1.640   1.592  16.242 -2.1981 -0.2955  0.5281
 4359SOL    HW224537   1.726   1.689  16.173 -0.4292  0.0255 -0.6380
 4360SOL     OW24538   0.166   2.874   8.695  0.1584 -0.0860  0.0114
 4360SOL    HW124539   0.228   2.896   8.764 -0.7745 -0.9367  1.1176
 4360SOL    HW224540   0.104   2.945   8.710  0.6516  0.7669 -1.9847
 4361SOL     OW24541   0.364   1.518   2.505  0.2893  0.6694  0.6072
 4361SOL    HW124542   0.396   1.564   2.427 -1.4934  1.2030  0.1968
 4361SOL    HW224543   0.348   1.430   2.470 -0.1916  1.3735 -0.9396
 4362SOL     OW24544   3.105   0.972   4.177  0.0400 -0.1164  0.0608
 4362SOL    HW124545   3.121   1.019   4.259  0.7861  0.6586 -0.5259
 4362SOL    HW224546   3.057   1.031   4.118 -0.1422  0.2454  0.5625
 4363SOL     OW24547   4.407   0.110   8.715 -0.0619 -0.7011  0.6898
 4363SOL    HW124548   4.363   0.165   8.650 -2.3446 -0.8494  2.1296
 4363SOL    HW224549   4.338   0.069   8.767 -3.7780  1.6251 -2.3691
 4364SOL     OW24550   4.582   4.551   4.166  0.3088 -0.3277  0.2466
 4364SOL    HW124551   4.645   4.554   4.094 -2.0536 -2.9762 -1.9187
 4364SOL    HW224552   4.541   4.465   4.162 -2.5481  1.0208  0.5048
 4365SOL     OW24553   3.442   4.371  15.674  0.7760  0.1047  0.6537
 4365SOL    HW124554   3.413   4.446  15.622 -1.1224  0.0774  1.6868
 4365SOL    HW224555   3.470   4.302  15.614 -1.5798  0.6567 -1.0831
 4366SOL     OW24556   2.081   0.808   3.931 -0.0459  0.2547  0.3211
 4366SOL    HW124557   1.994   0.799   3.894  0.5057 -0.1994 -0.8524
 4366SOL    HW224558   2.121   0.723   3.913 -0.4761  0.1850 -0.2886
 4367SOL     OW24559   3.428   2.481   1.063 -0.0033 -0.8305 -0.0127
 4367SOL    HW124560   3.477   2.463   1.144 -0.9823 -0.4174  0.6690
 4367SOL    HW224561   3.505   2.509   1.015  0.6946 -0.2127  1.4476
 4368SOL     OW24562   1.134   3.668  15.409  0.2962 -0.4668  0.1134
 4368SOL    HW124563   1.063   3.605  15.421 -0.6900  0.8177  1.0576
 4368SOL    HW224564   1.117   3.686  15.316  0.0723 -0.8933  0.0716
 4369SOL     OW24565   2.178   0.957   6.985 -0.4131 -0.0446 -0.2526
 4369SOL    HW124566   2.248   0.929   7.043 -0.4596  1.2790  0.4378
 4369SOL    HW224567   2.095   0.936   7.029 -1.7821  0.5292 -2.5642
 4370SOL     OW24568   3.874   1.287   3.065 -0.3389 -0.7656 -0.0679
 4370SOL    HW124569   3.878   1.248   2.978  1.1732  0.0084 -0.3359
 4370SOL    HW224570   3.926   1.233   3.124  1.4297 -0.1357 -1.0791
 4371SOL     OW24571   2.527   3.461  12.446  0.5942  0.1706  0.4472
 4371SOL    HW124572   2.595   3.497  12.504  2.2139 -0.0291 -1.3235
 4371SOL    HW224573   2.571   3.391  12.398 -0.6116 -0.0759 -0.2901
 4372SOL     OW24574   3.531   2.434  11.952  0.3816 -0.2132 -0.5907
 4372SOL    HW124575   3.469   2.490  11.907 -1.0074  0.7881  2.5631
 4372SOL    HW224576   3.616   2.464  11.921  0.1033  1.4146  0.2353
 4373SOL     OW24577   3.316   0.544   0.191  0.1284  0.1889  0.0822
 4373SOL    HW124578   3.328   0.548   0.097  0.1047  0.7599  0.1065
 4373SOL    HW224579   3.389   0.498   0.232 -2.2983 -0.3709  3.8663
 4374SOL     OW24580   3.547   1.165   3.045  0.2718 -0.2362 -0.5038
 4374SOL    HW124581   3.544   1.136   2.954  0.0413 -1.4573 -0.1019
 4374SOL    HW224582   3.602   1.093   3.077  2.3009  1.5335  0.0087
 4375SOL     OW24583   0.108   2.102   3.030  0.0803 -0.3180  0.3430
 4375SOL    HW124584   0.050   2.102   3.107  1.4032 -1.1450  1.3456
 4375SOL    HW224585   0.061   2.162   2.973  1.1971 -0.0414 -0.2905
 4376SOL     OW24586   2.382   3.353   7.847  0.7875  0.4337 -0.4155
 4376SOL    HW124587   2.312   3.383   7.789 -0.7090 -0.9380  0.7199
 4376SOL    HW224588   2.340   3.270   7.867  1.8436  0.0084  0.0123
 4377SOL     OW24589   4.564   1.401   2.566  0.6784  0.3790  0.5417
 4377SOL    HW124590   4.536   1.427   2.654  0.6214  0.6924  0.4316
 4377SOL    HW224591   4.656   1.429   2.559  1.5278 -2.6340 -0.6393
 4378SOL     OW24592   3.298   0.732  11.221  0.2504 -0.1277 -0.3167
 4378SOL    HW124593   3.257   0.803  11.271  0.9781  0.1600 -0.1238
 4378SOL    HW224594   3.321   0.667  11.288 -0.3164 -0.2765 -0.2704
 4379SOL     OW24595   3.336   4.228   3.010  0.1028 -0.3071  0.3493
 4379SOL    HW124596   3.342   4.318   3.043 -2.0382  0.0975 -0.3647
 4379SOL    HW224597   3.241   4.225   2.996  0.5866 -2.4161 -2.6065
 4380SOL     OW24598   2.396   3.924   9.520  0.0270  0.1339 -0.2746
 4380SOL    HW124599   2.453   3.892   9.449 -0.1424  2.1092 -1.2915
 4380SOL    HW224600   2.421   4.015   9.534  0.6596 -0.6424  3.6771
 4381SOL     OW24601   3.466   1.930   6.600  0.1656 -0.5127 -0.5759
 4381SOL    HW124602   3.474   1.945   6.506  0.7672 -0.0158 -0.4538
 4381SOL    HW224603   3.380   1.893   6.615 -0.4485  0.8975 -0.5817
 4382SOL     OW24604   1.531   4.513   1.862  0.2698  0.0599  0.3245
 4382SOL    HW124605   1.458   4.455   1.886  0.9925 -0.5375  1.0470
 4382SOL    HW224606   1.561   4.477   1.778 -0.3213  1.0084 -0.3000
 4383SOL     OW24607   4.297   1.853  14.816 -0.3300  0.2415  0.7199
 4383SOL    HW124608   4.217   1.801  14.819  0.4649 -1.0061  0.2522
 4383SOL    HW224609   4.335   1.819  14.735 -0.4747 -0.1007  0.7967
 4384SOL     OW24610   0.336   1.612   4.424  0.1916 -0.2789 -0.0023
 4384SOL    HW124611   0.364   1.690   4.472  0.3782  0.4359 -1.2729
 4384SOL    HW224612   0.261   1.589   4.480 -1.0075  1.1750 -0.9958
 4385SOL     OW24613   0.342   2.480   1.986 -0.5875 -0.1207  0.9817
 4385SOL    HW124614   0.273   2.438   1.935 -0.2301 -1.1715  1.3524
 4385SOL    HW224615   0.329   2.443   2.073 -0.6331  1.1158  1.4991
 4386SOL     OW24616   2.316   1.923  14.732  0.0754 -0.0046 -0.4884
 4386SOL    HW124617   2.392   1.940  14.787  0.7251 -2.4729 -0.6152
 4386SOL    HW224618   2.282   1.846  14.779 -1.3929  1.2821  0.5363
 4387SOL     OW24619   4.111   2.659   3.437 -0.4277 -0.0102 -0.3099
 4387SOL    HW124620   4.042   2.702   3.385 -0.2995  1.7963  0.9850
 4387SOL    HW224621   4.183   2.676   3.377 -1.2738  1.2077 -0.9998
 4388SOL     OW24622   2.163   4.649   4.801  0.1258 -0.2814  0.0105
 4388SOL    HW124623   2.247   4.631   4.845 -0.0386 -0.6312  0.1794
 4388SOL    HW224624   2.134   4.559   4.786  1.3366 -1.0074  2.0431
 4389SOL     OW24625   4.396   1.518   7.624  0.3256 -0.1168 -0.2396
 4389SOL    HW124626   4.458   1.570   7.575 -0.5155  0.1590 -1.0034
 4389SOL    HW224627   4.310   1.540   7.589  0.3242 -1.4409 -1.0473
 4390SOL     OW24628   0.560   2.473   6.936 -0.4236 -0.4408 -0.5039
 4390SOL    HW124629   0.632   2.535   6.947 -1.8256  1.0437  0.1504
 4390SOL    HW224630   0.506   2.513   7.004  1.2696  2.2916 -0.7520
 4391SOL     OW24631   2.460   4.112   0.756 -0.2662  0.4198 -0.2251
 4391SOL    HW124632   2.368   4.107   0.729  0.5665  0.0931 -2.9989
 4391SOL    HW224633   2.451   4.139   0.848 -0.1268  0.1256 -0.1224
 4392SOL     OW24634   4.536   0.338   1.843  0.1646 -0.0517  0.2736
 4392SOL    HW124635   4.465   0.369   1.900  1.6677 -1.5554  2.9663
 4392SOL    HW224636   4.493   0.256   1.821  1.1743 -0.8604  1.3009
 4393SOL     OW24637   3.950   1.940  14.046  0.1522 -0.0966 -0.2498
 4393SOL    HW124638   3.945   1.994  13.966  0.5059  0.9419  0.4301
 4393SOL    HW224639   3.988   2.006  14.104 -1.1128 -1.5866  2.2629
 4394SOL     OW24640   0.789   1.934   5.615  0.2134 -1.0298  0.1608
 4394SOL    HW124641   0.792   1.849   5.659  2.1361 -1.2534 -0.3771
 4394SOL    HW224642   0.699   1.949   5.642  0.9120  2.3760  0.5533
 4395SOL     OW24643   2.816   2.150   3.704  0.0603  0.1474  0.4486
 4395SOL    HW124644   2.821   2.119   3.794  1.6803  0.4809  0.4780
 4395SOL    HW224645   2.767   2.077   3.665  0.4323  0.0666  0.1320
 4396SOL     OW24646   4.217   3.305  11.525  0.2507  0.4712  0.2483
 4396SOL    HW124647   4.205   3.215  11.555 -0.1754  1.0030  1.6929
 4396SOL    HW224648   4.226   3.308  11.430  0.9130 -0.6624  0.2695
 4397SOL     OW24649   2.110   2.173   9.287  0.0738 -0.1776  0.3557
 4397SOL    HW124650   2.052   2.147   9.358  0.5745  2.3539  1.6672
 4397SOL    HW224651   2.047   2.210   9.226 -0.4517  0.8099  1.5107
 4398SOL     OW24652   1.406   4.461   3.878  0.1268  0.0215  0.1219
 4398SOL    HW124653   1.485   4.511   3.901  1.2812 -1.2094 -1.1740
 4398SOL    HW224654   1.365   4.508   3.805 -2.8022  0.4522  2.0533
 4399SOL     OW24655   4.459   3.223  14.798 -0.3550 -0.1494  0.6730
 4399SOL    HW124656   4.451   3.283  14.724 -0.1527 -2.1824 -0.9967
 4399SOL    HW224657   4.462   3.290  14.867 -1.0942  0.9981 -0.3923
 4400SOL     OW24658   2.376   1.446   6.522 -0.5741  0.1897 -1.0469
 4400SOL    HW124659   2.352   1.353   6.524 -2.0479  0.5714 -1.3588
 4400SOL    HW224660   2.291   1.472   6.487 -0.5924  0.8965 -0.4637
 4401SOL     OW24661   4.581   0.955   4.174 -0.4629 -0.7030  0.6548
 4401SOL    HW124662   4.673   0.976   4.155 -0.9140  0.2040 -0.5209
 4401SOL    HW224663   4.581   0.860   4.174  1.7555 -0.6958 -1.1122
 4402SOL     OW24664   2.126   0.770   8.180  0.6625  0.2846  0.3829
 4402SOL    HW124665   2.209   0.779   8.226 -0.3736 -0.9695  2.5107
 4402SOL    HW224666   2.065   0.754   8.252  0.5832  0.9341  0.4597
 4403SOL     OW24667   2.077   1.760   4.533  0.2556 -0.6761 -0.1904
 4403SOL    HW124668   1.991   1.800   4.544  0.1846 -0.9175  0.1627
 4403SOL    HW224669   2.052   1.690   4.472  0.8063  0.6911 -1.9738
 4404SOL     OW24670   0.142   0.389  12.824 -0.0341 -0.5407  0.1776
 4404SOL    HW124671   0.204   0.461  12.830 -2.4703  1.5867  0.1313
 4404SOL    HW224672   0.180   0.324  12.765 -2.6433 -1.7486 -0.1909
 4405SOL     OW24673   4.475   4.138  13.475 -0.1794  0.1277 -0.0949
 4405SOL    HW124674   4.385   4.122  13.448  1.1433 -0.2323 -4.2577
 4405SOL    HW224675   4.497   4.050  13.506 -1.3922 -0.4128 -0.8063
 4406SOL     OW24676   1.284   1.654   6.664 -0.2220  0.3601 -0.2199
 4406SOL    HW124677   1.371   1.638   6.702  0.3617  2.1919 -0.7689
 4406SOL    HW224678   1.296   1.589   6.595 -0.1929  1.7606 -1.5313
 4407SOL     OW24679   2.167   0.141   9.310 -0.0717  0.3711 -0.3889
 4407SOL    HW124680   2.132   0.230   9.314 -0.3960  0.2567 -0.6212
 4407SOL    HW224681   2.261   0.155   9.298 -0.0543  0.1570 -0.4993
 4408SOL     OW24682   0.324   0.314  16.706  0.0569  0.0673 -0.2589
 4408SOL    HW124683   0.350   0.225  16.729  1.8651  1.3859  2.7993
 4408SOL    HW224684   0.372   0.361  16.774  0.1786  0.7209 -0.7887
 4409SOL     OW24685   4.472   4.235   3.320 -0.1166  0.0977  0.1894
 4409SOL    HW124686   4.482   4.152   3.273 -0.2371 -0.8654  1.8683
 4409SOL    HW224687   4.440   4.291   3.250  0.1403  1.0927  0.8609
 4410SOL     OW24688   1.657   2.168   9.288  0.6296 -0.6160 -0.5406
 4410SOL    HW124689   1.702   2.251   9.302  3.0638 -1.7730 -1.6061
 4410SOL    HW224690   1.593   2.196   9.223 -1.4500 -0.1477  1.7143
 4411SOL     OW24691   4.345   3.510   4.521  0.6554  0.6062 -0.3698
 4411SOL    HW124692   4.254   3.482   4.528  0.0419  2.6149 -0.1696
 4411SOL    HW224693   4.386   3.460   4.450  1.9189  0.2604  0.5861
 4412SOL     OW24694   0.998   2.406  11.144  1.0409 -0.1757 -0.6262
 4412SOL    HW124695   0.918   2.441  11.104  0.8132 -2.6678 -2.3223
 4412SOL    HW224696   0.994   2.423  11.238  0.6950 -2.1837 -0.2959
 4413SOL     OW24697   0.101   2.767  10.779  0.0490  0.3433 -0.1438
 4413SOL    HW124698   0.161   2.815  10.835  0.9200 -1.1106  0.1493
 4413SOL    HW224699   0.036   2.831  10.749 -0.5469 -0.8720 -1.4714
 4414SOL     OW24700   1.199   0.177   5.748 -0.5128  0.2359 -0.3600
 4414SOL    HW124701   1.146   0.117   5.801  0.8440 -0.0461  0.6853
 4414SOL    HW224702   1.145   0.256   5.746  0.6046  0.9774 -1.0216
 4415SOL     OW24703   0.601   0.490   1.345  0.2137  0.2103  0.1888
 4415SOL    HW124704   0.607   0.571   1.396 -0.6157 -0.7660  1.8291
 4415SOL    HW224705   0.691   0.470   1.323  0.1384 -0.2867  0.3397
 4416SOL     OW24706   3.978   4.246  16.489 -0.7166  0.5902 -0.0435
 4416SOL    HW124707   3.912   4.254  16.421  0.0476  1.7875 -0.6250
 4416SOL    HW224708   3.963   4.156  16.520  1.1993 -0.2042 -1.4383
 4417SOL     OW24709   0.022   4.153   7.158 -0.1102 -0.1131 -0.2451
 4417SOL    HW124710   0.117   4.153   7.146  0.1431  0.2933  1.8189
 4417SOL    HW224711   0.015   4.219   7.088  0.0291 -1.1273 -1.2169
 4418SOL     OW24712   2.448   0.890   5.915 -0.0897 -0.7344  0.0827
 4418SOL    HW124713   2.486   0.978   5.922 -1.6305  0.0541 -1.2790
 4418SOL    HW224714   2.354   0.905   5.928  0.0224  1.1566 -1.2236
 4419SOL     OW24715   0.597   3.951  15.914 -0.5930 -0.1300 -0.4887
 4419SOL    HW124716   0.565   3.915  15.831  1.4864  0.9869 -1.7825
 4419SOL    HW224717   0.600   3.878  15.975  0.3676  0.1079 -0.2545
 4420SOL     OW24718   1.360   2.904   2.889  0.5364  0.3344  0.0624
 4420SOL    HW124719   1.297   2.956   2.939 -0.4557 -1.1171  0.3114
 4420SOL    HW224720   1.435   2.913   2.948  0.1141  0.8303  0.5213
 4421SOL     OW24721   3.852   0.237  12.137 -0.4908 -0.0799  0.2493
 4421SOL    HW124722   3.815   0.182  12.206 -0.0298  0.1576  0.6883
 4421SOL    HW224723   3.775   0.265  12.088 -1.6294 -0.8768  1.5729
 4422SOL     OW24724   1.298   4.217   6.407  0.1065  0.0175  0.7332
 4422SOL    HW124725   1.322   4.294   6.458  1.1604  1.0908 -1.3916
 4422SOL    HW224726   1.316   4.251   6.319  0.9021  3.8309  2.3870
 4423SOL     OW24727   4.481   2.062   8.544 -0.3362 -0.1748 -0.0770
 4423SOL    HW124728   4.485   2.146   8.589  0.6694 -0.3404  0.1365
 4423SOL    HW224729   4.388   2.051   8.523 -0.7300  1.7017  0.6926
 4424SOL     OW24730   2.803   0.470  11.564 -0.2051  0.2487 -0.0079
 4424SOL    HW124731   2.735   0.430  11.618 -1.6147  2.2850 -0.2911
 4424SOL    HW224732   2.808   0.415  11.486 -0.6986  0.5807 -0.2715
 4425SOL     OW24733   4.321   0.449   1.994 -0.2078 -0.1736  0.1050
 4425SOL    HW124734   4.334   0.542   2.013 -0.8496 -0.0149 -0.2148
 4425SOL    HW224735   4.391   0.415   2.050 -1.5318 -2.2689  0.4523
 4426SOL     OW24736   0.093   0.928  12.695 -0.1654  0.0919  0.2586
 4426SOL    HW124737   0.029   0.970  12.753  0.4210  2.8131 -1.0642
 4426SOL    HW224738   0.108   0.850  12.749  1.2340  1.5564  1.9625
 4427SOL     OW24739   3.188   3.852  16.094 -0.1811 -0.4474 -0.3750
 4427SOL    HW124740   3.182   3.782  16.028  1.4168  0.5168 -1.5345
 4427SOL    HW224741   3.189   3.786  16.164  0.1007 -0.4402 -0.3748
 4428SOL     OW24742   4.615   1.456   1.160  0.3672  0.2417  0.0400
 4428SOL    HW124743   4.561   1.382   1.189  0.3697  0.7898  1.4834
 4428SOL    HW224744   4.689   1.413   1.119  0.2256 -1.2168  1.3165
 4429SOL     OW24745   4.489   0.663   5.793 -0.5648 -0.0387  0.2788
 4429SOL    HW124746   4.421   0.625   5.738  1.0965 -0.0303 -1.7873
 4429SOL    HW224747   4.442   0.737   5.832  0.0285 -0.8281  2.4908
 4430SOL     OW24748   0.600   3.456   6.958  0.0832  0.0090  0.1945
 4430SOL    HW124749   0.635   3.379   6.912 -1.0935 -1.0672  1.1104
 4430SOL    HW224750   0.506   3.440   6.952  0.1590 -1.0540  2.0604
 4431SOL     OW24751   1.707   1.098   5.147  0.1561  0.1066  0.3536
 4431SOL    HW124752   1.624   1.089   5.101  0.5383  0.8476 -0.4747
 4431SOL    HW224753   1.749   1.116   5.063  3.6767 -2.5819  1.5559
 4432SOL     OW24754   3.109   0.957   9.489 -0.4016  0.2450 -0.1872
 4432SOL    HW124755   3.184   0.908   9.523 -0.3035  0.5674  0.0609
 4432SOL    HW224756   3.039   0.903   9.526 -1.2357  1.7902  0.4753
 4433SOL     OW24757   2.563   2.448   6.315 -0.1034 -0.1190 -0.4102
 4433SOL    HW124758   2.586   2.526   6.264 -1.7717  1.2977  0.9908
 4433SOL    HW224759   2.572   2.382   6.246 -2.3167 -0.3510 -0.4481
 4434SOL     OW24760   0.343   3.341  10.344  0.0848 -0.3473 -0.0857
 4434SOL    HW124761   0.270   3.367  10.400 -1.0599 -0.4090 -1.5612
 4434SOL    HW224762   0.298   3.311  10.265 -0.7793 -1.0174  0.6621
 4435SOL     OW24763   2.733   2.809   7.183 -0.1989  0.2591 -0.2517
 4435SOL    HW124764   2.674   2.817   7.108  0.4426 -0.2243 -0.8028
 4435SOL    HW224765   2.817   2.815   7.138 -0.0179  0.4924  0.1177
 4436SOL     OW24766   1.757   2.493   6.654 -0.0233 -0.2165 -0.0218
 4436SOL    HW124767   1.834   2.499   6.597 -1.6805  1.7112 -2.0658
 4436SOL    HW224768   1.796   2.435   6.719  1.2984  2.1339  1.3077
 4437SOL     OW24769   3.487   2.063   7.600  0.2189  0.1797  0.3208
 4437SOL    HW124770   3.401   2.021   7.604 -0.6296  1.9814  0.7775
 4437SOL    HW224771   3.547   1.989   7.594 -0.2455 -0.0585 -1.3813
 4438SOL     OW24772   2.245   4.542  12.129  0.3856  0.2213  0.0006
 4438SOL    HW124773   2.175   4.551  12.193  0.3848  2.3670 -0.3151
 4438SOL    HW224774   2.261   4.448  12.118 -0.7929  0.1571 -1.1302
 4439SOL     OW24775   4.695   2.559   3.668  0.4931 -0.0992 -0.0935
 4439SOL    HW124776   4.627   2.562   3.735  1.5747 -0.9205  1.0476
 4439SOL    HW224777   0.053   2.543   3.711  0.1752  0.0795  0.5847
 4440SOL     OW24778   3.176   1.365  10.087 -0.1604  0.3018 -0.1575
 4440SOL    HW124779   3.224   1.443  10.114  0.0004 -0.0897  0.6901
 4440SOL    HW224780   3.227   1.292  10.121 -1.1763 -0.8220 -1.0104
 4441SOL     OW24781   0.838   4.633  11.416  0.1739  0.2375 -0.6417
 4441SOL    HW124782   0.921   4.680  11.422  1.1466 -1.6915  1.4269
 4441SOL    HW224783   0.839   4.625  11.321 -0.6752 -0.5049 -0.5879
 4442SOL     OW24784   2.557   0.125   5.119 -0.0161  0.2723  0.1613
 4442SOL    HW124785   2.545   0.118   5.024  0.6556  1.6720 -0.0319
 4442SOL    HW224786   2.533   0.217   5.125 -1.5321 -0.2314  1.8744
 4443SOL     OW24787   2.157   3.138   6.796  0.9616  0.6552  0.6184
 4443SOL    HW124788   2.130   3.070   6.857  0.6485 -0.3784 -0.6825
 4443SOL    HW224789   2.220   3.101   6.735  2.1076  1.4540  1.3254
 4444SOL     OW24790   1.813   4.450  13.172  0.6819  0.2545  0.5222
 4444SOL    HW124791   1.802   4.446  13.267 -0.0733 -1.1284  0.3722
 4444SOL    HW224792   1.902   4.416  13.161  0.6408 -0.1336  1.3876
 4445SOL     OW24793   2.255   4.136   1.928 -0.0495  0.1809  0.4833
 4445SOL    HW124794   2.348   4.146   1.949 -0.0249  0.9941 -0.0145
 4445SOL    HW224795   2.260   4.071   1.857 -0.4835 -0.0138  0.6295
 4446SOL     OW24796   4.233   2.659  11.504 -0.0331  0.0919 -0.6103
 4446SOL    HW124797   4.187   2.581  11.474  1.6486 -1.5597  1.0943
 4446SOL    HW224798   4.175   2.709  11.561  2.5713  1.0673  1.1713
 4447SOL     OW24799   2.372   3.051  11.044 -0.2344  0.0770  0.1010
 4447SOL    HW124800   2.324   3.125  11.080  1.2744  1.3381 -0.4979
 4447SOL    HW224801   2.318   2.977  11.073 -0.4239  0.6183  1.1042
 4448SOL     OW24802   4.692   2.324   1.814  0.1330 -0.1346  0.2115
 4448SOL    HW124803   4.720   2.351   1.901  1.5772  1.3499 -0.7189
 4448SOL    HW224804   4.633   2.393   1.786  0.1779  0.2963  1.1828
 4449SOL     OW24805   3.188   4.648   3.545  0.0431  0.1638  0.5192
 4449SOL    HW124806   3.099   4.682   3.541 -0.4620 -1.0643  1.3770
 4449SOL    HW224807   3.230   4.676   3.464  0.1181 -1.3225  0.0420
 4450SOL     OW24808   3.897   2.248  13.076  0.3452  0.0317  0.0093
 4450SOL    HW124809   3.886   2.153  13.072  0.9420 -0.1993  4.0958
 4450SOL    HW224810   3.982   2.244  13.120  2.1238  0.0564 -3.4003
 4451SOL     OW24811   3.769   0.910   3.576  0.2325 -0.7547 -0.2035
 4451SOL    HW124812   3.787   0.956   3.658  1.7124  2.1642 -2.1682
 4451SOL    HW224813   3.749   0.983   3.518 -2.4086 -1.0984  0.2996
 4452SOL     OW24814   0.767   3.135   1.007  0.2622  0.6572 -0.1778
 4452SOL    HW124815   0.673   3.125   0.996  0.0203  1.2605  1.3117
 4452SOL    HW224816   0.801   3.047   0.993 -0.4964  0.5560 -1.3516
 4453SOL     OW24817   4.333   0.537   0.718 -0.1010  0.2661 -0.3563
 4453SOL    HW124818   4.290   0.622   0.712  1.2607  1.0764  1.6428
 4453SOL    HW224819   4.281   0.496   0.788  0.4863  0.4615  0.1930
 4454SOL     OW24820   1.677   3.155   7.973 -0.0575  0.2937 -0.1137
 4454SOL    HW124821   1.606   3.212   7.944  0.4613  0.7401 -0.5067
 4454SOL    HW224822   1.682   3.082   7.911  0.2120  0.5990 -0.4487
 4455SOL     OW24823   4.318   2.856   3.889 -0.0979 -0.5187  0.3362
 4455SOL    HW124824   4.387   2.900   3.838 -1.8935  0.7560 -0.9892
 4455SOL    HW224825   4.300   2.791   3.821  1.6709 -1.0152  0.3186
 4456SOL     OW24826   3.517   4.091  15.607 -0.0011 -0.3557  0.2197
 4456SOL    HW124827   3.564   4.035  15.546  1.0488 -1.5632  2.1365
 4456SOL    HW224828   3.589   4.113  15.667 -0.9944  0.8426  0.9762
 4457SOL     OW24829   0.593   1.822   8.859 -0.2136 -0.4073 -0.1703
 4457SOL    HW124830   0.548   1.799   8.778  2.5196  1.1749 -2.1387
 4457SOL    HW224831   0.650   1.746   8.871  0.3163  0.0081 -0.0480
 4458SOL     OW24832   2.861   4.595   9.933 -0.0069  0.1549  0.0948
 4458SOL    HW124833   2.851   4.548   9.850  0.2919 -1.4813  0.9756
 4458SOL    HW224834   2.882   4.681   9.897 -2.0371  1.1895  1.3726
 4459SOL     OW24835   2.747   2.560   9.758 -0.0082 -0.5719  0.1903
 4459SOL    HW124836   2.739   2.656   9.761 -0.0716 -0.6049  1.2201
 4459SOL    HW224837   2.708   2.556   9.670 -0.5152 -0.7820  0.4230
 4460SOL     OW24838   0.513   2.041   7.482 -0.1193 -0.4412  0.8670
 4460SOL    HW124839   0.541   2.124   7.520 -1.4623 -0.3002  1.5399
 4460SOL    HW224840   0.422   2.050   7.512  0.2663  3.2351  0.9443
 4461SOL     OW24841   4.356   4.064   9.026 -0.0538  0.1146 -0.0471
 4461SOL    HW124842   4.344   4.083   8.933 -0.7952  2.6855  0.5925
 4461SOL    HW224843   4.279   4.107   9.063 -0.0553  0.1225 -0.0594
 4462SOL     OW24844   3.651   0.708   7.359 -0.4720  0.2840 -0.1263
 4462SOL    HW124845   3.603   0.635   7.321 -3.2432  1.9876  0.1319
 4462SOL    HW224846   3.730   0.702   7.306 -2.2956  1.7084 -2.9752
 4463SOL     OW24847   2.623   3.218   6.513 -0.2014 -0.0449 -0.2398
 4463SOL    HW124848   2.572   3.297   6.531  2.2457  1.6960 -0.9939
 4463SOL    HW224849   2.638   3.228   6.419  1.5078 -0.5992 -0.0328
 4464SOL     OW24850   4.593   3.219   7.586  0.0002 -0.2772  0.5674
 4464SOL    HW124851   4.625   3.140   7.631 -1.3324 -0.5972  0.9365
 4464SOL    HW224852   4.641   3.212   7.503  0.3879  1.1609  0.6723
 4465SOL     OW24853   3.284   4.164  14.938 -0.1312  0.0523  0.3651
 4465SOL    HW124854   3.366   4.116  14.922 -0.9496 -1.7315  1.4378
 4465SOL    HW224855   3.319   4.235  14.992 -1.4763  0.2514  0.9730
 4466SOL     OW24856   3.740   1.612  13.300 -0.0012  0.0604 -0.4756
 4466SOL    HW124857   3.682   1.581  13.231 -1.1858  0.1447  0.4721
 4466SOL    HW224858   3.788   1.687  13.265 -2.3081  1.3236 -0.9357
 4467SOL     OW24859   2.381   1.312   0.510 -0.0216 -0.3479 -0.3725
 4467SOL    HW124860   2.470   1.280   0.524 -0.1785 -1.3385 -1.5912
 4467SOL    HW224861   2.339   1.249   0.570  2.6556 -0.9600  0.8633
 4468SOL     OW24862   4.131   4.350   4.605 -0.0205 -0.3275 -0.3305
 4468SOL    HW124863   4.197   4.322   4.669 -0.3833  0.0381  0.2031
 4468SOL    HW224864   4.113   4.439   4.633 -1.3781 -0.6883 -0.0359
 4469SOL     OW24865   2.179   2.121   0.353  0.1038  0.1154  0.0684
 4469SOL    HW124866   2.228   2.161   0.282 -0.2079 -0.2492 -0.3476
 4469SOL    HW224867   2.240   2.125   0.427 -0.9975 -0.2051  0.9941
 4470SOL     OW24868   1.644   2.469  16.377  0.3004  0.0413 -0.4291
 4470SOL    HW124869   1.620   2.434  16.292  0.0145 -1.2022  0.1616
 4470SOL    HW224870   1.716   2.414  16.408  0.3981  0.4498  0.0677
 4471SOL     OW24871   4.126   3.393   6.660  0.5913 -0.0888  0.6716
 4471SOL    HW124872   4.055   3.419   6.719 -1.0448 -1.4610 -0.6994
 4471SOL    HW224873   4.074   3.359   6.588  0.0376  0.2213  0.9285
 4472SOL     OW24874   1.610   4.041   1.046 -0.3890  0.2287  0.1287
 4472SOL    HW124875   1.680   3.987   1.009 -1.4229 -0.4487 -0.8592
 4472SOL    HW224876   1.660   4.087   1.113 -0.8365 -0.7975  1.1727
 4473SOL     OW24877   1.091   2.008   5.042  0.3108 -0.2336  0.0080
 4473SOL    HW124878   1.184   2.020   5.023 -0.7141  1.5258 -3.8812
 4473SOL    HW224879   1.061   1.942   4.979 -2.0978  0.8264  0.0539
 4474SOL     OW24880   0.253   4.340   5.758  0.0827  0.2344  0.1352
 4474SOL    HW124881   0.210   4.317   5.840 -0.8073 -0.0783 -0.4268
 4474SOL    HW224882   0.186   4.324   5.691 -1.6348  0.4879  1.8091
 4475SOL     OW24883   4.686   1.449  15.135 -0.1103  0.9327  0.6632
 4475SOL    HW124884   4.719   1.384  15.073 -0.6628 -0.1008  1.4728
 4475SOL    HW224885   4.653   1.393  15.205 -2.3537  2.0492  0.5311
 4476SOL     OW24886   2.968   0.665  13.614  0.0249 -0.1205  0.0813
 4476SOL    HW124887   3.042   0.683  13.673  1.0393 -0.8996 -0.9517
 4476SOL    HW224888   2.996   0.680  13.524  0.0093  0.4112  0.1628
 4477SOL     OW24889   2.936   3.328   5.104 -0.4397  0.1735  0.2310
 4477SOL    HW124890   2.934   3.352   5.011 -0.5479  0.0388  0.1984
 4477SOL    HW224891   3.010   3.384   5.127 -0.0724  0.2778 -1.1751
 4478SOL     OW24892   3.061   0.522   7.521 -0.1181 -0.6821 -1.4249
 4478SOL    HW124893   3.027   0.610   7.537 -1.5800 -1.6165  0.6467
 4478SOL    HW224894   3.096   0.503   7.608  0.6838  0.2801 -1.5431
 4479SOL     OW24895   2.937   4.147  14.619  0.2591  0.0614 -0.0227
 4479SOL    HW124896   2.855   4.162  14.572  1.2115  0.1285 -1.6413
 4479SOL    HW224897   2.905   4.180  14.704  1.1260 -0.1972  0.4091
 4480SOL     OW24898   3.923   0.929   8.298 -0.1440 -0.2211 -0.2009
 4480SOL    HW124899   3.977   0.904   8.223 -0.2236  0.9149 -0.6303
 4480SOL    HW224900   3.864   0.998   8.268 -1.5255 -1.1013  0.4771
 4481SOL     OW24901   2.056   1.668   3.022 -0.0701  0.0148 -0.5033
 4481SOL    HW124902   2.010   1.724   3.084 -0.4804 -0.1445 -0.6651
 4481SOL    HW224903   2.133   1.647   3.075 -1.3188 -1.6279  0.6431
 4482SOL     OW24904   1.220   2.301  14.011  1.0001 -0.1350  0.6606
 4482SOL    HW124905   1.147   2.361  14.026  1.5769  1.4030 -2.5150
 4482SOL    HW224906   1.260   2.317  14.097  0.7008  0.6423  0.6576
 4483SOL     OW24907   2.304   1.644  11.118  0.6419  0.4242 -0.5633
 4483SOL    HW124908   2.351   1.705  11.061  3.4131  0.8823  2.1966
 4483SOL    HW224909   2.220   1.640  11.073 -0.4823 -0.4165  1.5915
 4484SOL     OW24910   3.505   3.751   4.100  0.0169  0.2943 -0.0948
 4484SOL    HW124911   3.592   3.782   4.075  0.0419 -0.6910 -1.2633
 4484SOL    HW224912   3.452   3.824   4.068 -0.6899  0.9981  2.6983
 4485SOL     OW24913   1.406   1.302   8.223  0.7392 -0.8099  0.5911
 4485SOL    HW124914   1.311   1.306   8.226  0.7957  2.3093 -1.2700
 4485SOL    HW224915   1.428   1.248   8.148  1.5109 -1.3726  1.2203
 4486SOL     OW24916   3.824   2.740  10.760 -0.0088 -0.6153 -0.5406
 4486SOL    HW124917   3.760   2.728  10.829 -0.5543  4.2084 -0.2318
 4486SOL    HW224918   3.770   2.712  10.686 -1.5676  1.4049 -0.1476
 4487SOL     OW24919   0.996   1.659   3.950 -0.5365 -0.1347 -0.1398
 4487SOL    HW124920   0.994   1.567   3.978 -2.0324  0.3424  1.3141
 4487SOL    HW224921   0.981   1.640   3.857 -1.4444 -0.9319  0.1633
 4488SOL     OW24922   0.316   3.104  11.113  0.0331 -1.1249 -0.1507
 4488SOL    HW124923   0.257   3.148  11.174  3.8857 -0.5584  3.2122
 4488SOL    HW224924   0.397   3.147  11.141 -0.6851 -1.1514  1.9426
 4489SOL     OW24925   2.138   2.776   0.833  0.4125 -0.8267  0.6006
 4489SOL    HW124926   2.059   2.826   0.811  1.6806  0.0514 -1.9739
 4489SOL    HW224927   2.132   2.767   0.928 -1.9588  1.9442  0.7117
 4490SOL     OW24928   2.508   2.312   3.080  0.3670 -0.3960 -0.1330
 4490SOL    HW124929   2.485   2.403   3.059  0.2991 -1.0211 -2.6703
 4490SOL    HW224930   2.480   2.271   2.998  1.4430 -1.2709 -0.0662
 4491SOL     OW24931   3.941   1.027  10.761  0.1698  0.0637 -0.8861
 4491SOL    HW124932   3.914   1.108  10.805 -1.7793 -0.2490 -1.4866
 4491SOL    HW224933   4.003   0.996  10.826 -1.1268 -2.0801 -0.6933
 4492SOL     OW24934   1.027   0.876  14.504  0.4348 -0.3230  0.0533
 4492SOL    HW124935   1.106   0.928  14.490 -0.7541  0.9286 -2.0218
 4492SOL    HW224936   1.066   0.806  14.556  0.5204  0.3574  0.9020
 4493SOL     OW24937   0.260   4.448  14.520 -0.1786 -0.5516 -0.1049
 4493SOL    HW124938   0.316   4.378  14.485 -1.1784 -0.1373 -2.5172
 4493SOL    HW224939   0.298   4.439  14.607  2.1317  0.6520 -0.9924
 4494SOL     OW24940   2.143   2.844   8.028  0.2475  0.0659 -0.0650
 4494SOL    HW124941   2.072   2.780   8.033  0.0342  0.3190  0.1407
 4494SOL    HW224942   2.214   2.784   8.005 -0.4438 -0.1227 -1.6990
 4495SOL     OW24943   1.188   3.361   8.808 -0.0029 -0.1018  0.2713
 4495SOL    HW124944   1.100   3.391   8.787  0.5266  1.4745  0.2958
 4495SOL    HW224945   1.245   3.434   8.829  2.6745 -1.1978 -3.0916
 4496SOL     OW24946   2.326   0.534   6.186 -0.4935  0.5602 -0.2615
 4496SOL    HW124947   2.329   0.464   6.121 -2.3914 -0.9311  1.2603
 4496SOL    HW224948   2.401   0.509   6.241 -1.6306  0.6629  1.3408
 4497SOL     OW24949   1.563   1.911  11.636  0.1898  0.4221 -0.3759
 4497SOL    HW124950   1.650   1.882  11.607  0.4375  2.0119 -1.2377
 4497SOL    HW224951   1.533   1.916  11.545  0.0473 -0.5501 -0.3867
 4498SOL     OW24952   0.478   4.447   5.297 -0.0708 -0.0265 -0.1214
 4498SOL    HW124953   0.393   4.409   5.273  0.7485 -1.4624 -0.7714
 4498SOL    HW224954   0.538   4.383   5.258 -1.0270 -1.6157  1.0097
 4499SOL     OW24955   1.171   0.940   8.099  0.0413  0.1339 -0.0456
 4499SOL    HW124956   1.247   0.990   8.070 -0.1347  0.2628 -0.2898
 4499SOL    HW224957   1.164   0.881   8.023 -0.2387  2.3439 -1.7370
 4500SOL     OW24958   1.936   2.541  14.348 -0.1372  0.0570 -0.0001
 4500SOL    HW124959   1.875   2.551  14.421  0.1023 -0.6066  0.2965
 4500SOL    HW224960   1.881   2.481  14.299  0.5310 -1.2427  0.8391
 4501SOL     OW24961   1.123   4.566  16.214 -0.4916 -0.2664 -0.2559
 4501SOL    HW124962   1.041   4.525  16.187  1.3079 -3.4427 -0.9379
 4501SOL    HW224963   1.091   4.655  16.204  1.2084  0.3304 -0.4406
 4502SOL     OW24964   0.454   4.068   7.978 -0.0284 -0.1695 -0.0608
 4502SOL    HW124965   0.424   4.111   8.058  0.3458  0.9007 -0.4960
 4502SOL    HW224966   0.377   4.084   7.922 -0.5097 -0.2736  0.5779
 4503SOL     OW24967   3.919   3.877  13.698  0.4371 -0.0153 -0.1747
 4503SOL    HW124968   3.857   3.945  13.672  0.7466  0.5191  0.4758
 4503SOL    HW224969   3.980   3.922  13.756  0.3262 -0.3215  0.1818
 4504SOL     OW24970   3.772   4.500   4.360 -0.3813 -0.0969 -0.2101
 4504SOL    HW124971   3.705   4.471   4.421 -0.1431 -0.5226 -0.1526
 4504SOL    HW224972   3.787   4.589   4.392 -0.2271 -0.0346 -0.4515
 4505SOL     OW24973   3.435   0.525   7.966  0.2663 -0.0139  0.0011
 4505SOL    HW124974   3.448   0.533   8.060  1.9111 -2.0887 -0.0420
 4505SOL    HW224975   3.484   0.447   7.940  2.4581  1.3290  0.0489
 4506SOL     OW24976   0.425   2.348   4.746  0.2503  0.3636  0.6006
 4506SOL    HW124977   0.479   2.359   4.824  0.7690  0.6999  0.1901
 4506SOL    HW224978   0.382   2.433   4.750 -0.2060  0.0855  1.5972
 4507SOL     OW24979   3.152   4.386   4.583  0.8695 -0.1408 -0.1538
 4507SOL    HW124980   3.204   4.459   4.616 -0.9133 -0.2405  2.9187
 4507SOL    HW224981   3.139   4.355   4.673 -0.4535  2.4359  0.5568
 4508SOL     OW24982   3.652   0.401   1.142 -0.3479  0.1317  0.4823
 4508SOL    HW124983   3.733   0.369   1.182 -1.3233 -1.7259  1.0141
 4508SOL    HW224984   3.618   0.470   1.199  1.1907  0.8890  0.4809
 4509SOL     OW24985   2.377   1.655   4.034 -0.2090 -0.0920  0.0850
 4509SOL    HW124986   2.381   1.690   4.123  3.3146 -1.6446  0.5355
 4509SOL    HW224987   2.340   1.722   3.976 -0.9027 -0.1580  0.4464
 4510SOL     OW24988   2.732   0.622   5.656  0.3394  0.2705 -0.1967
 4510SOL    HW124989   2.654   0.584   5.616  1.3284 -2.2546  0.2698
 4510SOL    HW224990   2.705   0.660   5.739 -1.5300 -2.4635  0.4470
 4511SOL     OW24991   1.443   4.119   4.574 -0.3285 -0.1615 -0.1751
 4511SOL    HW124992   1.484   4.180   4.635 -1.4183  0.9953 -0.6178
 4511SOL    HW224993   1.422   4.047   4.634 -0.2101 -0.1268 -0.0922
 4512SOL     OW24994   1.911   0.798  12.274 -0.0030  0.2340  0.0169
 4512SOL    HW124995   1.882   0.888  12.285 -0.5628 -0.0899  1.2792
 4512SOL    HW224996   1.987   0.794  12.332 -0.8303  1.2072  1.1734
 4513SOL     OW24997   2.897   2.799   1.744 -0.4970  1.2214  0.4187
 4513SOL    HW124998   2.970   2.739   1.730 -1.6129  0.3798 -1.7126
 4513SOL    HW224999   2.928   2.864   1.681  0.3233  1.6951  1.3057
 4514SOL     OW25000   1.924   4.114   5.255 -0.4164  0.1303  0.4497
 4514SOL    HW125001   1.937   4.107   5.349  2.6761  0.1831  0.0411
 4514SOL    HW225002   1.977   4.037   5.232  0.9116  1.1765  0.0346
 4515SOL     OW25003   1.611   3.484   5.271 -0.2184  0.2135  0.0168
 4515SOL    HW125004   1.560   3.484   5.190 -0.2502  1.3690  0.0354
 4515SOL    HW225005   1.570   3.422   5.330 -0.9013  0.1716 -0.4978
 4516SOL     OW25006   0.210   3.331   1.411  0.3477  0.2143  0.0411
 4516SOL    HW125007   0.129   3.301   1.369  0.7778 -1.8725  0.7395
 4516SOL    HW225008   0.256   3.249   1.428 -1.1140 -0.7436 -0.6442
 4517SOL     OW25009   2.044   4.712  13.438 -0.0336 -0.0331  0.7642
 4517SOL    HW125010   2.086   4.636  13.398 -0.1006  0.1308  0.3836
 4517SOL    HW225011   1.952   4.687  13.435 -0.2040  0.5360  1.2086
 4518SOL     OW25012   1.076   1.874   4.067 -0.4283  0.0531  0.3368
 4518SOL    HW125013   1.171   1.872   4.071 -0.3179 -0.7307 -2.6242
 4518SOL    HW225014   1.052   1.783   4.054  0.6392  0.3046 -3.2240
 4519SOL     OW25015   3.596   4.666  11.745 -0.1092 -0.8355 -0.7159
 4519SOL    HW125016   3.642   0.008  11.695  1.1228 -1.4224 -0.3751
 4519SOL    HW225017   3.664   4.639  11.806 -0.9804  0.6299  0.8890
 4520SOL     OW25018   4.537   4.260  15.264  0.3677 -0.4888 -0.4955
 4520SOL    HW125019   4.502   4.324  15.202  1.5157 -1.5283 -2.2040
 4520SOL    HW225020   4.552   4.301  15.349  3.1670 -0.9417 -0.7542
 4521SOL     OW25021   2.721   0.379   5.819 -0.1151 -0.0893  0.3434
 4521SOL    HW125022   2.760   0.446   5.763  0.9041  1.3554  2.7776
 4521SOL    HW225023   2.729   0.409   5.909  2.7601 -1.0692  0.4058
 4522SOL     OW25024   1.521   1.059   8.636  0.2911 -0.3334 -0.1731
 4522SOL    HW125025   1.543   1.141   8.592  0.0858  0.1233  0.5668
 4522SOL    HW225026   1.597   1.023   8.683 -0.0288 -2.6267 -1.4184
 4523SOL     OW25027   3.408   4.267   5.246 -0.5386 -0.3817 -0.1756
 4523SOL    HW125028   3.498   4.291   5.226 -0.9392  0.0312 -1.4829
 4523SOL    HW225029   3.374   4.219   5.170  2.4644 -1.0084 -1.1048
 4524SOL     OW25030   3.198   2.872   5.687  0.0647  0.1556  0.2393
 4524SOL    HW125031   3.189   2.899   5.596  2.5684 -1.8337 -0.6002
 4524SOL    HW225032   3.283   2.914   5.695  0.7689 -0.9691 -1.3486
 4525SOL     OW25033   4.538   1.771   4.263  0.0443 -0.1025  0.1977
 4525SOL    HW125034   4.506   1.835   4.199  0.3775  0.0097  0.1412
 4525SOL    HW225035   4.628   1.753   4.235 -0.0120  0.7532 -0.5356
 4526SOL     OW25036   1.885   0.546   7.789 -0.0982 -0.3131 -0.1132
 4526SOL    HW125037   1.891   0.617   7.853  0.5633  0.2698 -0.8274
 4526SOL    HW225038   1.867   0.476   7.852  1.2461  1.0358  1.7803
 4527SOL     OW25039   4.052   2.434  12.614  0.0777 -0.0953  0.1861
 4527SOL    HW125040   4.110   2.493  12.662 -0.5519 -0.2432  1.1348
 4527SOL    HW225041   4.114   2.371  12.577  0.9745  0.1106  1.3615
 4528SOL     OW25042   2.494   2.007   2.100  0.8082 -0.8220 -0.3106
 4528SOL    HW125043   2.473   2.089   2.055  0.4078 -0.6561  0.1766
 4528SOL    HW225044   2.467   1.947   2.030 -1.0286  1.2713 -1.4158
 4529SOL     OW25045   0.187   4.691   9.970 -0.0131 -1.1310  0.7953
 4529SOL    HW125046   0.257   4.675   9.907  0.2348 -1.9081  1.2775
 4529SOL    HW225047   0.196   4.623  10.037  0.3203 -0.6543  1.2437
 4530SOL     OW25048   4.165   2.852   4.146 -0.1589 -0.7805 -0.0439
 4530SOL    HW125049   4.088   2.897   4.110  0.9003 -0.6820 -2.1718
 4530SOL    HW225050   4.195   2.810   4.065  1.5274  1.8607 -0.8140
 4531SOL     OW25051   2.242   2.637   6.433  0.8668  0.0220  0.4348
 4531SOL    HW125052   2.172   2.650   6.496  1.3735  3.7322  0.2037
 4531SOL    HW225053   2.283   2.555   6.461 -0.0631  0.6085  3.5412
 4532SOL     OW25054   3.141   1.219   2.309 -0.0774  0.8035 -0.0289
 4532SOL    HW125055   3.080   1.159   2.268 -0.7527  0.9694  0.7396
 4532SOL    HW225056   3.161   1.172   2.390 -0.3087  0.2266 -0.3089
 4533SOL     OW25057   4.183   0.876   9.482  0.0245  0.1211  0.3814
 4533SOL    HW125058   4.156   0.800   9.533  0.7976 -2.2268 -2.7186
 4533SOL    HW225059   4.256   0.829   9.442 -0.5159  2.0625 -2.8495
 4534SOL     OW25060   2.861   2.062   6.651  0.3768  0.1565 -0.2286
 4534SOL    HW125061   2.928   2.031   6.712 -1.4620 -1.4963  0.9593
 4534SOL    HW225062   2.787   2.079   6.709  0.8575 -0.6014  0.6251
 4535SOL     OW25063   0.017   4.295   0.151  0.3811 -0.4195 -0.1899
 4535SOL    HW125064   0.078   4.366   0.130 -0.2031 -0.3074 -1.5408
 4535SOL    HW225065   0.071   4.223   0.116 -0.3988 -1.2106  0.2335
 4536SOL     OW25066   1.473   2.696   3.432 -0.1822  1.0177 -0.2269
 4536SOL    HW125067   1.447   2.628   3.369  1.9024 -0.7147  0.7740
 4536SOL    HW225068   1.569   2.687   3.437 -0.1896  1.2110  0.2204
 4537SOL     OW25069   0.979   3.736  13.756 -0.5625 -0.1875 -0.5673
 4537SOL    HW125070   0.888   3.707  13.744 -0.7504  0.6352 -1.1225
 4537SOL    HW225071   0.992   3.692  13.840  1.5136 -0.0162 -0.8032
 4538SOL     OW25072   1.290   1.069   4.562  0.0794 -0.3762  0.3460
 4538SOL    HW125073   1.274   1.089   4.654  0.5377  0.4247  0.2478
 4538SOL    HW225074   1.367   1.122   4.542  1.3126 -2.2601  0.0017
 4539SOL     OW25075   4.595   4.298  15.526  0.3831 -0.1880 -0.3994
 4539SOL    HW125076   4.537   4.303  15.602  0.5353  2.0713 -0.4143
 4539SOL    HW225077   4.682   4.316  15.561  0.1478  1.6672 -0.7489
 4540SOL     OW25078   3.735   4.550   3.607  0.0095  0.6002  0.0603
 4540SOL    HW125079   3.782   4.474   3.572 -0.9223 -1.0779  2.4546
 4540SOL    HW225080   3.698   4.508   3.684  0.0419  0.5398  0.0429
 4541SOL     OW25081   3.632   4.265   4.864 -0.1142 -0.1978 -0.1274
 4541SOL    HW125082   3.705   4.209   4.888  0.4755  1.4530  1.9059
 4541SOL    HW225083   3.560   4.203   4.847  0.7605 -0.5731 -2.5287
 4542SOL     OW25084   4.381   4.229  12.382  0.5895 -0.3207 -0.1056
 4542SOL    HW125085   4.290   4.258  12.393  0.0291 -1.5559 -1.4807
 4542SOL    HW225086   4.409   4.282  12.308 -2.3034  2.3671  0.7129
 4543SOL     OW25087   2.929   3.573   8.037 -0.0931 -0.0680  0.0626
 4543SOL    HW125088   2.947   3.484   8.069  2.7881  0.4295 -0.1776
 4543SOL    HW225089   2.841   3.594   8.066 -0.3650 -0.8255 -0.2145
 4544SOL     OW25090   2.050   2.227   4.514 -0.3540 -0.3266 -0.1270
 4544SOL    HW125091   2.092   2.252   4.597 -0.1053 -0.2213 -0.2854
 4544SOL    HW225092   2.001   2.146   4.530 -0.4022  0.2331  2.6607
 4545SOL     OW25093   1.228   0.805   3.517  0.2886  0.4627  0.0300
 4545SOL    HW125094   1.160   0.741   3.535 -1.2374  1.8675 -0.7811
 4545SOL    HW225095   1.197   0.841   3.434 -2.2644 -0.8453  0.4197
 4546SOL     OW25096   2.112   3.839  12.035  0.1410 -0.3927 -0.5865
 4546SOL    HW125097   2.204   3.858  12.054  0.1576 -2.5824  1.3986
 4546SOL    HW225098   2.113   3.743  12.039  1.3865 -0.3863 -0.7049
 4547SOL     OW25099   4.702   0.099   3.707  0.1947 -0.5588 -0.0934
 4547SOL    HW125100   0.041   0.036   3.739  0.9858  1.0615  1.5174
 4547SOL    HW225101   4.625   0.072   3.757  1.9250  0.0504  2.9043
 4548SOL     OW25102   4.557   4.285   1.308  0.0690 -0.0762 -0.3855
 4548SOL    HW125103   4.560   4.346   1.383  1.4144 -1.7375  0.9125
 4548SOL    HW225104   4.598   4.200   1.322 -1.4308 -1.1988 -2.9702
 4549SOL     OW25105   2.061   2.241   2.783  0.4089  0.1205 -0.1098
 4549SOL    HW125106   2.100   2.325   2.759  1.6913 -0.1253  1.1622
 4549SOL    HW225107   2.123   2.214   2.851 -0.5000  0.2148  0.7654
 4550SOL     OW25108   2.213   4.626   9.913  0.2262  0.4735 -0.0137
 4550SOL    HW125109   2.155   4.697   9.887  0.1448  1.1033  1.8454
 4550SOL    HW225110   2.154   4.555   9.940  0.1750 -0.0109 -1.4094
 4551SOL     OW25111   0.218   3.501  16.087  0.0660  0.6468 -1.0111
 4551SOL    HW125112   0.198   3.529  15.998 -0.0396 -2.2477 -1.8950
 4551SOL    HW225113   0.281   3.431  16.072 -0.3197  0.2314 -0.6641
 4552SOL     OW25114   3.885   4.651  13.168 -0.5634  0.3298  0.3162
 4552SOL    HW125115   3.860   4.648  13.260  0.3609  0.8642  0.5888
 4552SOL    HW225116   3.798   4.659  13.130 -1.6147 -1.0091  2.4425
 4553SOL     OW25117   0.434   0.090   2.791 -0.3189 -0.5868  0.3147
 4553SOL    HW125118   0.490   0.012   2.794 -1.1790 -1.2991 -2.7831
 4553SOL    HW225119   0.377   0.070   2.865  0.0440 -0.7734  0.5444
 4554SOL     OW25120   4.619   1.096  15.018  0.9604 -0.3330  0.0340
 4554SOL    HW125121   4.690   1.032  15.015 -0.2426 -1.5972 -1.1222
 4554SOL    HW225122   4.673   1.170  14.988 -1.2647  1.0410 -0.6234
 4555SOL     OW25123   2.127   3.593   1.108 -0.3831  0.1189 -0.1038
 4555SOL    HW125124   2.188   3.530   1.071  1.6685 -0.0993  3.6377
 4555SOL    HW225125   2.181   3.669   1.129 -1.6554  0.3417  2.4117
 4556SOL     OW25126   2.554   0.736  14.955 -0.0160 -0.0275  0.0573
 4556SOL    HW125127   2.530   0.648  14.983 -3.0444  0.4981 -0.8872
 4556SOL    HW225128   2.482   0.747  14.893 -0.2337 -2.8307 -0.1821
 4557SOL     OW25129   2.535   0.804   4.053 -0.1043  0.0840  0.4643
 4557SOL    HW125130   2.500   0.761   3.974  3.8351  2.3420 -2.5229
 4557SOL    HW225131   2.630   0.797   4.044 -0.2190  1.0683 -1.4782
 4558SOL     OW25132   3.327   3.537   7.167  0.5456  0.1921 -0.0713
 4558SOL    HW125133   3.318   3.511   7.259  0.5048  3.4571  0.8294
 4558SOL    HW225134   3.408   3.587   7.170  0.8619 -0.1304 -3.3218
 4559SOL     OW25135   0.041   1.592   9.687  0.3272 -0.8311  0.2957
 4559SOL    HW125136   0.034   1.498   9.672  0.7523 -0.6278 -1.1968
 4559SOL    HW225137   0.090   1.613   9.607  1.3247 -4.0657  0.0618
 4560SOL     OW25138   4.088   1.398   8.032  0.4852  0.3103 -0.2307
 4560SOL    HW125139   4.162   1.412   8.091  0.8571 -0.1031 -0.6037
 4560SOL    HW225140   4.122   1.329   7.975  0.2783 -0.6456  0.8087
 4561SOL     OW25141   4.705   0.236   1.470  0.0593 -0.4480 -0.0820
 4561SOL    HW125142   4.659   0.183   1.405 -2.9392  1.0835  0.7924
 4561SOL    HW225143   0.063   0.252   1.427 -0.2398  1.3489  0.0100
 4562SOL     OW25144   2.906   0.612  12.654  0.1665 -0.1911  0.7974
 4562SOL    HW125145   2.946   0.696  12.677 -0.6472 -0.6910  4.1415
 4562SOL    HW225146   2.880   0.626  12.563  0.8369 -1.9261  0.3386
 4563SOL     OW25147   4.694   2.470   1.372  0.3908 -0.2897  0.9316
 4563SOL    HW125148   4.672   2.557   1.339 -1.4666 -0.9427  0.4425
 4563SOL    HW225149   4.709   2.491   1.464 -1.4605 -0.9668  1.3860
 4564SOL     OW25150   0.262   0.245   4.738 -0.0348  0.1713 -0.0487
 4564SOL    HW125151   0.320   0.312   4.702  0.6650 -0.2551  0.2761
 4564SOL    HW225152   0.289   0.171   4.683 -1.5029  0.1907 -0.8049
 4565SOL     OW25153   3.024   4.528   5.910 -0.1116  0.1373 -0.2370
 4565SOL    HW125154   3.102   4.481   5.940  0.7092 -0.3702 -3.1251
 4565SOL    HW225155   3.051   4.616   5.938 -0.9779  0.5682 -0.7217
 4566SOL     OW25156   1.985   3.564   4.388  0.3689 -0.1240  0.3374
 4566SOL    HW125157   1.969   3.609   4.305 -0.4062  1.5778  1.4139
 4566SOL    HW225158   2.024   3.632   4.442  0.3886 -0.1945  0.4116
 4567SOL     OW25159   2.626   1.150   3.792 -0.0733  0.2638  0.3146
 4567SOL    HW125160   2.685   1.223   3.771  1.4797 -1.6824 -2.0836
 4567SOL    HW225161   2.544   1.168   3.748  1.6381  1.8862 -2.2014
 4568SOL     OW25162   4.343   3.832   7.465  0.6939 -0.1029  0.1723
 4568SOL    HW125163   4.299   3.910   7.431  0.2302 -1.4805 -2.3850
 4568SOL    HW225164   4.350   3.857   7.557  1.1111 -0.0954  0.1360
 4569SOL     OW25165   1.830   0.594   8.921 -0.4252  0.0067  0.3233
 4569SOL    HW125166   1.890   0.641   8.978 -0.2476  1.2634 -0.9013
 4569SOL    HW225167   1.747   0.608   8.965 -0.1861 -1.4144  1.2271
 4570SOL     OW25168   3.024   0.493   6.137 -0.6267  0.4491  0.3922
 4570SOL    HW125169   3.032   0.431   6.210  0.1336  0.1182  0.0333
 4570SOL    HW225170   2.949   0.545   6.164 -1.4394 -0.1290 -0.7561
 4571SOL     OW25171   0.959   0.568   2.097  0.5920 -0.2181 -0.3132
 4571SOL    HW125172   0.899   0.500   2.067 -0.6278  1.0122 -0.6695
 4571SOL    HW225173   1.042   0.527   2.071  0.1834 -0.4846 -1.2173
 4572SOL     OW25174   2.118   4.135  16.658  0.0454 -0.0857  0.0120
 4572SOL    HW125175   2.095   4.043  16.675 -1.7101 -0.1867 -2.7659
 4572SOL    HW225176   2.052   4.148  16.590  2.7339 -0.0164 -2.6078
 4573SOL     OW25177   0.626   3.063   0.540  0.0469  0.4514 -0.4450
 4573SOL    HW125178   0.556   3.113   0.498  1.0228  3.1910  1.2118
 4573SOL    HW225179   0.690   3.133   0.537  2.8425 -2.1220 -0.4144
 4574SOL     OW25180   3.421   2.328   6.251 -0.4119 -0.2448  0.5027
 4574SOL    HW125181   3.356   2.371   6.196 -0.1209 -1.1614 -0.5636
 4574SOL    HW225182   3.479   2.291   6.184 -1.7046  0.4108 -0.9742
 4575SOL     OW25183   3.526   0.536   4.096  0.5047  0.2380 -0.2094
 4575SOL    HW125184   3.609   0.495   4.118  0.2293  1.5403  3.2632
 4575SOL    HW225185   3.463   0.500   4.159  0.3239 -0.6032 -0.8772
 4576SOL     OW25186   2.178   0.144   6.627  0.0903  0.0451 -0.0238
 4576SOL    HW125187   2.267   0.116   6.651 -0.5420 -1.5128  0.4540
 4576SOL    HW225188   2.122   0.117   6.700 -1.5148 -2.2114 -2.1002
 4577SOL     OW25189   3.857   0.692   6.412 -0.8548  0.2557  0.1027
 4577SOL    HW125190   3.851   0.725   6.502 -1.3403 -0.7275  0.4380
 4577SOL    HW225191   3.945   0.656   6.397 -1.2070 -1.1589  1.4110
 4578SOL     OW25192   0.923   0.648   7.699  0.2834  0.3517 -0.5083
 4578SOL    HW125193   0.897   0.557   7.689  1.3535  0.3223 -2.9711
 4578SOL    HW225194   0.842   0.694   7.674 -0.7351  0.8598  3.6569
 4579SOL     OW25195   4.506   2.456  11.301  0.0890 -0.0017 -0.1281
 4579SOL    HW125196   4.467   2.458  11.388 -0.1624 -0.9656 -0.2211
 4579SOL    HW225197   4.525   2.547  11.277 -2.3124  0.4234 -0.4175
 4580SOL     OW25198   2.400   2.020   2.587 -0.4575  0.2329 -0.3364
 4580SOL    HW125199   2.353   1.940   2.563  0.9341 -1.1891  1.7333
 4580SOL    HW225200   2.475   2.012   2.527 -0.1024  2.8129 -0.2602
 4581SOL     OW25201   0.031   0.177   2.517  0.3383 -0.5522  0.3880
 4581SOL    HW125202   0.024   0.084   2.542  0.5731 -0.9341 -0.9721
 4581SOL    HW225203   0.108   0.196   2.569  0.7798  1.0048 -0.8473
 4582SOL     OW25204   2.234   0.808   1.880  0.4044 -0.0720 -0.0500
 4582SOL    HW125205   2.249   0.881   1.819 -0.6495 -0.5135 -0.8358
 4582SOL    HW225206   2.163   0.842   1.934  1.4833  0.3049  1.1192
 4583SOL     OW25207   0.865   1.328   5.696  0.1933  0.4087  0.4645
 4583SOL    HW125208   0.914   1.376   5.630  1.6142  1.4024  2.2291
 4583SOL    HW225209   0.838   1.407   5.743 -0.7003  0.4523 -0.1431
 4584SOL     OW25210   1.793   1.343   7.563  0.0099  0.2070 -0.2877
 4584SOL    HW125211   1.744   1.341   7.645  0.1986  1.2752 -0.1548
 4584SOL    HW225212   1.842   1.262   7.580  0.6173  0.9211  1.3092
 4585SOL     OW25213   2.953   3.789  15.841  0.0816  0.2093  0.3022
 4585SOL    HW125214   2.887   3.761  15.904 -1.0894 -0.0945 -1.0421
 4585SOL    HW225215   2.943   3.722  15.774 -0.4278  0.2543  0.3375
 4586SOL     OW25216   4.401   0.721   9.900 -0.3359  0.0985  0.3993
 4586SOL    HW125217   4.459   0.770   9.958  0.1788  0.8397 -0.7373
 4586SOL    HW225218   4.455   0.701   9.824 -0.5815 -0.0379  0.2627
 4587SOL     OW25219   1.525   1.740   4.255 -0.3793  0.1220 -0.5477
 4587SOL    HW125220   1.614   1.707   4.247 -0.6348 -0.9138  0.8851
 4587SOL    HW225221   1.526   1.773   4.345  2.0941  0.9540 -0.8751
 4588SOL     OW25222   3.484   2.664   8.765 -0.2792 -0.2750 -0.0630
 4588SOL    HW125223   3.461   2.682   8.856  0.0847  2.3973 -0.4931
 4588SOL    HW225224   3.576   2.691   8.767 -0.4442  0.4446 -1.9879
 4589SOL     OW25225   1.640   3.699   3.421 -0.3814 -0.2499 -0.2994
 4589SOL    HW125226   1.644   3.787   3.383 -0.8550  0.6543  1.7862
 4589SOL    HW225227   1.651   3.707   3.515 -0.6471 -0.4656 -0.2491
 4590SOL     OW25228   0.472   3.016   6.526  0.1666  0.1236  0.2861
 4590SOL    HW125229   0.560   3.045   6.501  0.2909 -1.1485 -0.7276
 4590SOL    HW225230   0.462   2.952   6.455 -2.4712 -1.3700  2.0055
 4591SOL     OW25231   2.655   3.769   6.781 -0.9781 -0.0058  0.0724
 4591SOL    HW125232   2.690   3.850   6.818  0.8044 -1.9299  2.6417
 4591SOL    HW225233   2.729   3.709   6.790 -0.4578  0.6910  0.4653
 4592SOL     OW25234   3.829   0.576   2.401  0.0073 -0.5258 -0.3701
 4592SOL    HW125235   3.921   0.601   2.393 -0.5017  1.2166 -0.7764
 4592SOL    HW225236   3.831   0.506   2.466 -1.8487 -0.0592  0.2047
 4593SOL     OW25237   2.277   3.296   8.279 -0.4336  0.2183  0.2229
 4593SOL    HW125238   2.241   3.213   8.310  1.6886 -0.7745  0.0258
 4593SOL    HW225239   2.301   3.329   8.366  0.2359 -0.9594  0.4893
 4594SOL     OW25240   0.947   2.835   1.191  0.2863 -0.9108  0.2380
 4594SOL    HW125241   0.866   2.863   1.233  0.5611  0.0497  0.1154
 4594SOL    HW225242   0.916   2.841   1.100 -2.2671 -0.4081  1.1520
 4595SOL     OW25243   3.438   0.889   0.771 -0.1858  0.2591 -0.3670
 4595SOL    HW125244   3.392   0.873   0.688  1.5024 -0.7605 -1.1000
 4595SOL    HW225245   3.369   0.944   0.807  1.3661  0.8398  1.7092
 4596SOL     OW25246   2.398   4.696   7.755 -0.1793 -0.2708 -0.7177
 4596SOL    HW125247   2.345   0.050   7.762 -0.2928 -0.1925 -2.3828
 4596SOL    HW225248   2.452   4.706   7.676  0.3988  0.0175 -0.2848
 4597SOL     OW25249   0.217   1.978   4.686 -0.2191 -0.4302  0.6311
 4597SOL    HW125250   0.126   1.959   4.663 -1.3453  1.1701  3.8119
 4597SOL    HW225251   0.226   2.072   4.672 -0.3312 -0.5769 -0.3969
 4598SOL     OW25252   1.617   0.886   8.372  0.3245  0.3026  0.0431
 4598SOL    HW125253   1.535   0.850   8.407  1.8560 -1.0857  2.2634
 4598SOL    HW225254   1.669   0.807   8.359 -2.3439 -1.6267  1.0851
 4599SOL     OW25255   3.515   3.600  14.340 -0.3916 -0.2803  0.3179
 4599SOL    HW125256   3.579   3.530  14.329 -0.4416 -0.7363  2.9768
 4599SOL    HW225257   3.577   3.672  14.355 -0.2048 -0.5494  0.8325
 4600SOL     OW25258   2.036   3.095   6.428 -0.4771  0.1904 -0.0317
 4600SOL    HW125259   1.971   3.165   6.429  2.3813  2.8694 -2.4194
 4600SOL    HW225260   2.114   3.136   6.464  0.6820 -0.2930 -2.0034
 4601SOL     OW25261   3.539   2.114   8.221  0.5244 -0.0276 -0.5916
 4601SOL    HW125262   3.539   2.209   8.235  0.3859 -0.1183  0.0684
 4601SOL    HW225263   3.502   2.091   8.307  2.1453 -1.1361 -0.1857
 4602SOL     OW25264   2.873   0.916   0.590 -0.3795  0.0034 -0.3651
 4602SOL    HW125265   2.841   0.831   0.560 -2.1445  0.1824  0.9659
 4602SOL    HW225266   2.799   0.925   0.650  1.1673 -4.1084  2.1577
 4603SOL     OW25267   3.466   1.220  16.853 -0.5716  0.6578  0.1819
 4603SOL    HW125268   3.556   1.247  16.838 -0.1892 -0.7760 -0.1396
 4603SOL    HW225269   3.430   1.278  16.921  0.2281  0.2057  0.9970
 4604SOL     OW25270   0.384   1.106   6.629 -0.1466 -0.0011 -0.2379
 4604SOL    HW125271   0.302   1.094   6.677 -0.4210 -2.0410 -1.2239
 4604SOL    HW225272   0.422   1.018   6.628  0.9894  0.4807  0.1879
 4605SOL     OW25273   2.630   1.760   2.287  0.5031  0.4097  0.9528
 4605SOL    HW125274   2.538   1.758   2.311 -0.0604  2.5494 -1.0480
 4605SOL    HW225275   2.653   1.674   2.323  2.7906  0.1345 -1.1749
 4606SOL     OW25276   2.025   3.373  16.841 -0.4762  0.0598  0.1106
 4606SOL    HW125277   2.049   3.310  16.774  2.1038 -0.4530  1.5326
 4606SOL    HW225278   2.113   3.401  16.866 -0.7169  1.5325 -0.6298
 4607SOL     OW25279   1.479   0.755   2.045 -0.5576 -0.4512 -0.3966
 4607SOL    HW125280   1.558   0.704   2.065  1.1854  2.5865  0.4658
 4607SOL    HW225281   1.512   0.844   2.035 -1.4456 -0.0424  0.3977
 4608SOL     OW25282   3.006   0.022   3.328  0.2811  0.0300 -0.3384
 4608SOL    HW125283   3.057   4.698   3.263  1.5937  0.4461  0.3657
 4608SOL    HW225284   2.968   0.085   3.267  1.9716 -1.4656 -2.9860
 4609SOL     OW25285   4.074   0.378   9.738 -0.2054  0.6376  0.7821
 4609SOL    HW125286   4.099   0.291   9.769  0.1019  0.7157  0.7485
 4609SOL    HW225287   4.043   0.417   9.820  0.2874 -0.6872  1.6082
 4610SOL     OW25288   3.134   1.150   5.944 -0.6510 -0.1537  0.1774
 4610SOL    HW125289   3.058   1.206   5.960  2.0258  3.7755 -0.9843
 4610SOL    HW225290   3.145   1.164   5.850 -2.6381 -3.3365 -0.5008
 4611SOL     OW25291   0.253   0.591   3.881  0.6683 -0.2535 -0.3948
 4611SOL    HW125292   0.246   0.620   3.790 -0.4026  0.9159  0.0684
 4611SOL    HW225293   0.167   0.549   3.893 -0.4301  1.9812 -0.3844
 4612SOL     OW25294   1.005   1.184   6.093  0.0945 -0.4992  0.1228
 4612SOL    HW125295   1.013   1.244   6.167  3.5640 -0.2126 -0.4907
 4612SOL    HW225296   0.911   1.166   6.088 -0.2677  1.0442  1.3665
 4613SOL     OW25297   4.694   4.002  17.627 -0.1017  0.2781 -0.0023
 4613SOL    HW125298   4.636   3.963  17.693 -1.6058 -2.3928 -2.9693
 4613SOL    HW225299   0.034   4.029  17.692 -0.6379 -2.1356  1.5409
 4614SOL     OW25300   0.235   0.299   7.855 -0.2250  0.2073 -0.2320
 4614SOL    HW125301   0.317   0.250   7.854 -0.0910  0.4226  0.3204
 4614SOL    HW225302   0.274   0.386   7.867 -0.5438  0.3996 -0.5816
 4615SOL     OW25303   0.410   2.816  12.098  0.6154  0.1600 -0.0121
 4615SOL    HW125304   0.369   2.731  12.114  1.3673  0.1300  1.7460
 4615SOL    HW225305   0.504   2.802  12.107  0.7223  0.1489 -1.1816
 4616SOL     OW25306   2.993   0.184   6.913 -0.2990 -0.4112  0.4048
 4616SOL    HW125307   2.925   0.126   6.876  1.9133 -1.9040 -1.3577
 4616SOL    HW225308   3.066   0.147   6.862 -0.8584 -0.4845 -0.3502
 4617SOL     OW25309   0.826   4.015   2.233 -0.2958 -0.1164  0.3586
 4617SOL    HW125310   0.816   4.109   2.216 -0.8615  0.2049  2.4446
 4617SOL    HW225311   0.734   3.993   2.251  0.8237 -2.5147  3.0956
 4618SOL     OW25312   3.395   4.076   3.908 -0.2380 -0.3106 -0.1467
 4618SOL    HW125313   3.460   4.072   3.837 -0.4680  0.5726 -0.4087
 4618SOL    HW225314   3.322   4.122   3.868 -0.1582 -1.5688 -1.7935
 4619SOL     OW25315   2.221   0.834  13.263 -0.1079 -0.5301 -0.3237
 4619SOL    HW125316   2.158   0.762  13.270 -0.3042 -0.4497 -1.2135
 4619SOL    HW225317   2.298   0.791  13.224  1.5279  1.2573  0.9444
 4620SOL     OW25318   2.190   4.385   5.401 -0.4840  0.7036  0.3054
 4620SOL    HW125319   2.102   4.422   5.414 -0.3065  0.9792  0.7229
 4620SOL    HW225320   2.171   4.294   5.421  0.6030  0.7639  1.6494
 4621SOL     OW25321   3.565   0.720  11.104  0.1178 -0.4745 -0.0674
 4621SOL    HW125322   3.477   0.702  11.136  0.3626 -1.7465 -0.1298
 4621SOL    HW225323   3.591   0.784  11.171 -1.1916 -0.5690  0.5254
 4622SOL     OW25324   3.958   4.184   9.539 -0.1835  0.2185  0.0763
 4622SOL    HW125325   3.939   4.100   9.497  0.8249  0.9653 -1.8653
 4622SOL    HW225326   3.872   4.198   9.580 -0.0807 -0.9652  0.6793
 4623SOL     OW25327   3.724   0.075  13.547 -0.3997  0.2320 -0.4134
 4623SOL    HW125328   3.744   0.001  13.490 -0.0532  0.1200 -0.1393
 4623SOL    HW225329   3.795   0.069  13.610  1.0231  1.0340 -1.9584
 4624SOL     OW25330   1.097   0.185   0.379 -0.3081  0.4433  0.4838
 4624SOL    HW125331   1.186   0.168   0.348 -0.8186 -1.0618 -0.1905
 4624SOL    HW225332   1.118   0.262   0.431 -3.4924  1.6597 -0.0503
 4625SOL     OW25333   1.449   3.187  17.389 -0.1088 -0.1938  0.1209
 4625SOL    HW125334   1.361   3.222  17.374  0.7691  1.6043 -0.7887
 4625SOL    HW225335   1.419   3.117  17.448  1.4408  0.3507  1.5554
 4626SOL     OW25336   2.966   0.322   1.371  0.1190 -0.2057 -0.0670
 4626SOL    HW125337   3.034   0.358   1.428  1.3354 -1.2916 -0.8384
 4626SOL    HW225338   2.944   0.397   1.315  1.7728  1.8706  2.0314
 4627SOL     OW25339   1.512   3.762   9.000 -0.0754  0.6756  0.0653
 4627SOL    HW125340   1.478   3.790   9.085  1.0695 -0.3819  0.8786
 4627SOL    HW225341   1.601   3.795   9.005 -0.0923  0.4877  1.5419
 4628SOL     OW25342   3.975   4.609   8.102  1.0628  0.5103  0.4481
 4628SOL    HW125343   3.900   4.611   8.160  0.8448 -0.6905  0.1918
 4628SOL    HW225344   3.968   4.525   8.058  0.9478 -0.0889  1.6266
 4629SOL     OW25345   2.072   0.573   9.852 -0.6676 -0.1453 -0.1647
 4629SOL    HW125346   2.082   0.569   9.757 -1.7530  0.8025 -0.3175
 4629SOL    HW225347   2.153   0.526   9.875 -0.8068 -0.3785 -0.1514
 4630SOL     OW25348   2.345   1.228   9.861 -0.5194  0.6034 -0.0993
 4630SOL    HW125349   2.381   1.198   9.945 -0.3689  0.4415 -0.2226
 4630SOL    HW225350   2.368   1.319   9.877 -0.5050  0.5720  0.0583
 4631SOL     OW25351   1.207   1.082   2.836  0.2999 -0.2313 -0.2236
 4631SOL    HW125352   1.195   1.154   2.775  1.9173 -1.1639 -1.6529
 4631SOL    HW225353   1.280   1.031   2.801 -1.0930 -2.4531  0.0505
 4632SOL     OW25354   3.856   0.301   6.874  0.6085  0.3644  0.5985
 4632SOL    HW125355   3.835   0.393   6.859  0.5482  0.3299  0.4720
 4632SOL    HW225356   3.769   0.263   6.865  0.0745  1.6463  0.4494
 4633SOL     OW25357   3.771   0.076   5.430  0.3961 -0.1620 -0.2667
 4633SOL    HW125358   3.739   0.107   5.346 -3.7089  0.7369  1.5863
 4633SOL    HW225359   3.828   0.007   5.397  0.3852 -0.7321  0.8721
 4634SOL     OW25360   3.133   1.710  12.324  0.6726 -0.0951  0.2770
 4634SOL    HW125361   3.182   1.789  12.297 -0.3994  0.0687 -1.1817
 4634SOL    HW225362   3.068   1.700  12.255  0.4444  1.9493  0.1776
 4635SOL     OW25363   2.038   2.245   8.902  0.8946  0.0557  0.4709
 4635SOL    HW125364   2.057   2.242   8.996  0.0940 -0.3907  0.6161
 4635SOL    HW225365   2.076   2.159   8.882  1.0861  0.2468  0.0241
 4636SOL     OW25366   0.034   3.835   2.381 -0.4422  0.0222 -0.2200
 4636SOL    HW125367   4.676   3.871   2.410 -0.7137  1.7858 -3.2253
 4636SOL    HW225368   0.078   3.811   2.463 -1.8201 -0.6822  0.3284
 4637SOL     OW25369   3.826   3.223   7.575 -0.3300  0.3504 -0.1261
 4637SOL    HW125370   3.910   3.266   7.590  0.1771 -0.8396  0.4385
 4637SOL    HW225371   3.792   3.253   7.490 -1.0474 -0.2398 -0.0480
 4638SOL     OW25372   4.415   0.928   6.549  0.8654 -0.4565  0.0826
 4638SOL    HW125373   4.440   0.842   6.513 -1.1948 -2.2221  2.8454
 4638SOL    HW225374   4.506   0.953   6.563  0.6120  0.7572 -0.4332
 4639SOL     OW25375   1.365   0.898  13.605  0.4602 -0.3993  0.0129
 4639SOL    HW125376   1.312   0.820  13.625 -0.3243  0.1319  0.0234
 4639SOL    HW225377   1.290   0.955  13.587  2.0307  1.5741 -0.1899
 4640SOL     OW25378   0.445   2.512  17.389  0.0936 -0.2185 -0.2957
 4640SOL    HW125379   0.452   2.417  17.377  0.5304  0.0059 -1.7617
 4640SOL    HW225380   0.517   2.529  17.450  0.2372 -1.9102 -0.0008
 4641SOL     OW25381   3.413   2.060   1.922 -0.5118 -0.5648 -0.0811
 4641SOL    HW125382   3.471   2.027   1.854  1.7618  2.7783  0.2428
 4641SOL    HW225383   3.363   2.122   1.869  1.9023 -0.2511 -1.9793
 4642SOL     OW25384   2.234   2.354  16.096  0.4778  0.0497 -0.2292
 4642SOL    HW125385   2.193   2.270  16.118  1.4893  0.0116  1.5218
 4642SOL    HW225386   2.286   2.334  16.018  0.0766  0.5474 -0.6276
 4643SOL     OW25387   1.172   1.281   8.502 -0.8094 -0.1653 -0.5458
 4643SOL    HW125388   1.193   1.361   8.549 -0.6545 -1.9239  2.3891
 4643SOL    HW225389   1.135   1.326   8.427 -0.5699 -1.8948 -1.7135
 4644SOL     OW25390   3.228   0.668   9.622  0.3699 -0.3273 -0.3242
 4644SOL    HW125391   3.252   0.684   9.713 -1.2027 -0.7137  0.1647
 4644SOL    HW225392   3.305   0.620   9.592  0.6944  0.4246 -0.6969
 4645SOL     OW25393   0.430   3.040   3.396  0.5370  0.2647  0.2640
 4645SOL    HW125394   0.414   3.115   3.339  1.8220 -0.5067 -1.1020
 4645SOL    HW225395   0.521   3.024   3.372 -0.5116 -0.4511 -3.1719
 4646SOL     OW25396   2.363   1.396   7.905  0.2071 -0.1686 -0.2994
 4646SOL    HW125397   2.361   1.365   7.814  0.5011 -1.8930  0.2904
 4646SOL    HW225398   2.306   1.336   7.952 -0.8833  1.8518  0.9531
 4647SOL     OW25399   3.841   2.487   9.635 -0.3191  0.2318  0.0346
 4647SOL    HW125400   3.875   2.576   9.646  0.9124 -0.3749  1.1677
 4647SOL    HW225401   3.781   2.486   9.711  0.6724  0.8568  0.8229
 4648SOL     OW25402   3.888   2.145   8.608  0.3212 -0.7524  0.3540
 4648SOL    HW125403   3.980   2.124   8.596  0.7658  1.7289 -0.6678
 4648SOL    HW225404   3.853   2.180   8.526  1.9402  0.7033  0.2777
 4649SOL     OW25405   4.039   2.125   2.497  0.3589  0.3567 -0.8603
 4649SOL    HW125406   3.947   2.104   2.482 -0.1746  1.7726  0.4808
 4649SOL    HW225407   4.080   2.094   2.416 -0.4509  0.2415 -1.2216
 4650SOL     OW25408   1.759   0.084   4.807 -0.4299 -0.1772  0.1029
 4650SOL    HW125409   1.785   0.024   4.738  1.4857 -0.1380  0.8070
 4650SOL    HW225410   1.702   0.024   4.854 -1.6370  1.2080  0.4133
 4651SOL     OW25411   2.291   3.745   6.151  0.2634  0.5349 -0.0833
 4651SOL    HW125412   2.293   3.834   6.114  2.6857  1.0712  1.3036
 4651SOL    HW225413   2.205   3.712   6.126  0.9601  0.2004 -2.0345
 4652SOL     OW25414   0.595   4.484   6.118  0.4320  0.0394  0.2011
 4652SOL    HW125415   0.609   4.571   6.080 -0.9952  0.3180  0.3447
 4652SOL    HW225416   0.505   4.461   6.097 -0.3632  2.7583  0.6041
 4653SOL     OW25417   3.345   3.178   1.626 -0.1542 -0.0047  0.3666
 4653SOL    HW125418   3.326   3.264   1.588  3.0311  0.4238 -0.3186
 4653SOL    HW225419   3.369   3.206   1.714 -2.2105 -1.0734  1.2584
 4654SOL     OW25420   4.291   2.400   8.312  0.7112  0.2200  0.0113
 4654SOL    HW125421   4.290   2.474   8.251 -0.1574  0.9616  0.9180
 4654SOL    HW225422   4.360   2.429   8.372  1.6396 -2.1857  0.0737
 4655SOL     OW25423   0.605   4.716   5.318 -0.3230 -0.0256 -0.3469
 4655SOL    HW125424   0.602   4.621   5.313  0.1135 -0.0502 -0.1603
 4655SOL    HW225425   0.691   0.014   5.282  0.0083  0.8173  0.9968
 4656SOL     OW25426   2.340   4.472  15.875 -0.0053  0.0111 -0.1487
 4656SOL    HW125427   2.427   4.434  15.887  0.1222  0.0258 -1.0311
 4656SOL    HW225428   2.325   4.453  15.782  1.3076 -1.7594  0.0113
 4657SOL     OW25429   1.771   1.145   9.229  0.5848  0.1567 -0.2401
 4657SOL    HW125430   1.720   1.177   9.155 -0.0468 -0.5278 -0.1098
 4657SOL    HW225431   1.856   1.179   9.203  1.5193 -2.0387 -0.0386
 4658SOL     OW25432   2.368   1.011   3.094  0.1217  0.0044 -0.3578
 4658SOL    HW125433   2.374   0.928   3.141  0.1610 -0.3763 -1.0324
 4658SOL    HW225434   2.459   1.035   3.108 -0.4037  1.8920 -0.1289
 4659SOL     OW25435   2.857   3.546   2.884  0.0197 -0.2506 -0.0398
 4659SOL    HW125436   2.867   3.577   2.974 -1.4189 -0.6633  0.2561
 4659SOL    HW225437   2.810   3.465   2.902 -0.0451 -0.2259 -0.0955
 4660SOL     OW25438   3.268   2.658   5.327 -0.3290  0.3023 -0.2362
 4660SOL    HW125439   3.232   2.574   5.299  1.3832 -0.2670 -0.7232
 4660SOL    HW225440   3.261   2.659   5.422 -1.4740 -0.1587 -0.3219
 4661SOL     OW25441   2.059   2.650  12.708 -0.5920 -0.1677  0.1102
 4661SOL    HW125442   1.974   2.646  12.664 -1.7114  0.3540  2.1981
 4661SOL    HW225443   2.120   2.629  12.638 -0.0669 -3.0325  1.4593
 4662SOL     OW25444   3.855   3.181   8.508 -0.6837 -0.1711 -0.7656
 4662SOL    HW125445   3.884   3.116   8.444  2.4480 -0.2535  0.7199
 4662SOL    HW225446   3.856   3.130   8.589 -1.7335  0.5162 -0.3174
 4663SOL     OW25447   1.388   0.159   9.338 -0.6689  0.6215  0.0464
 4663SOL    HW125448   1.312   0.124   9.292  0.1174  0.1415 -0.8991
 4663SOL    HW225449   1.434   0.078   9.361 -0.2833  0.9814  0.5409
 4664SOL     OW25450   3.368   4.328  12.012  0.2476  0.2715  0.4453
 4664SOL    HW125451   3.382   4.276  11.932  1.3078 -0.2391  0.9618
 4664SOL    HW225452   3.299   4.384  11.976 -0.8285 -0.2629  1.6780
 4665SOL     OW25453   1.228   2.560   2.755 -0.2066 -0.6075 -0.2704
 4665SOL    HW125454   1.165   2.610   2.704  1.0756  1.8594  0.5831
 4665SOL    HW225455   1.304   2.551   2.696 -1.1892  2.5567 -2.0158
 4666SOL     OW25456   2.068   1.866   0.766 -0.5281 -0.5965  0.2682
 4666SOL    HW125457   2.001   1.797   0.760  0.3456 -1.2610 -1.7358
 4666SOL    HW225458   2.151   1.820   0.777 -0.0040  0.4689  0.7837
 4667SOL     OW25459   3.248   0.103  17.474  0.5930  0.4130 -0.5859
 4667SOL    HW125460   3.326   0.055  17.444  2.3400  1.7545  1.7754
 4667SOL    HW225461   3.271   0.129  17.563 -0.5123  0.3951 -0.3032
 4668SOL     OW25462   1.191   1.203   5.898  0.0059  0.5094  0.0594
 4668SOL    HW125463   1.119   1.190   5.836 -0.9746  0.3687  1.2192
 4668SOL    HW225464   1.141   1.194   5.979  0.7023 -0.1850  0.4102
 4669SOL     OW25465   4.696   0.642  10.549 -0.1623  0.2421  0.0008
 4669SOL    HW125466   4.725   0.729  10.575 -0.1320 -0.2670  1.6253
 4669SOL    HW225467   4.650   0.669  10.469 -0.6534  0.3351  0.3123
 4670SOL     OW25468   3.934   0.083  16.462 -0.3417 -0.3072  0.2924
 4670SOL    HW125469   3.895   0.131  16.389  0.4288  1.3154  0.9461
 4670SOL    HW225470   3.967   0.154  16.516  1.7895 -0.3190 -1.0031
 4671SOL     OW25471   2.721   3.517   3.445  0.0652 -0.2413  0.0802
 4671SOL    HW125472   2.650   3.578   3.425 -0.5211 -0.6840  0.7976
 4671SOL    HW225473   2.685   3.486   3.528  1.0948  0.6004  0.8413
 4672SOL     OW25474   0.532   3.177  10.477 -0.1502  0.4570 -0.9011
 4672SOL    HW125475   0.465   3.234  10.439 -0.7791 -0.7756 -1.6139
 4672SOL    HW225476   0.497   3.094  10.446 -1.3455 -0.5409  3.1704
 4673SOL     OW25477   3.236   2.754   1.760  0.4913  0.0696  0.2468
 4673SOL    HW125478   3.167   2.704   1.717  0.6548 -1.7222  2.0922
 4673SOL    HW225479   3.242   2.714   1.847 -0.8539  1.1739  0.8495
 4674SOL     OW25480   4.724   3.750   8.779 -0.0262  0.1026  0.5536
 4674SOL    HW125481   0.001   3.784   8.690  0.1417 -2.2653 -0.3369
 4674SOL    HW225482   4.633   3.721   8.788 -0.6912  1.3295 -2.1623
 4675SOL     OW25483   4.708   3.304   1.249  0.1585 -0.3797  0.5744
 4675SOL    HW125484   4.614   3.286   1.254  0.0503  0.1849  0.6150
 4675SOL    HW225485   0.023   3.246   1.185  0.2046  0.6160 -0.2901
 4676SOL     OW25486   3.185   0.878   3.573  0.1660  0.1410 -0.4952
 4676SOL    HW125487   3.091   0.860   3.575  0.6661 -2.4589  1.4906
 4676SOL    HW225488   3.203   0.898   3.482  0.3858 -1.2937 -0.7699
 4677SOL     OW25489   2.507   3.158   3.709  0.7373  0.0956 -0.0806
 4677SOL    HW125490   2.555   3.211   3.645  2.4474 -2.7871 -1.1776
 4677SOL    HW225491   2.499   3.222   3.780 -1.3442 -0.3135  0.0460
 4678SOL     OW25492   4.500   1.242   1.304 -0.1857  0.1414 -0.1314
 4678SOL    HW125493   4.538   1.171   1.355 -0.3473  0.5787  0.6011
 4678SOL    HW225494   4.454   1.194   1.234  2.6526  0.0473 -1.9204
 4679SOL     OW25495   3.322   2.569   2.493 -0.1121  0.7840  0.5242
 4679SOL    HW125496   3.283   2.604   2.413  0.0995  3.0856  1.4395
 4679SOL    HW225497   3.256   2.572   2.563 -0.5554 -2.7378  0.2650
 4680SOL     OW25498   3.864   1.418  12.527  0.4277 -0.0213 -0.1093
 4680SOL    HW125499   3.848   1.499  12.478  0.1666  0.7627  1.2594
 4680SOL    HW225500   3.841   1.455  12.612  1.9648  0.6964 -0.0003
 4681SOL     OW25501   3.375   1.665   9.158 -0.4397  0.2301 -0.1047
 4681SOL    HW125502   3.324   1.654   9.078  0.8220  1.8471 -1.1036
 4681SOL    HW225503   3.307   1.697   9.217 -1.2570  0.3313 -1.1023
 4682SOL     OW25504   0.424   4.630  13.549  0.9265 -0.3664 -0.0482
 4682SOL    HW125505   0.403   4.721  13.569 -1.9117 -1.0876  0.3014
 4682SOL    HW225506   0.419   4.628  13.454  0.5790 -0.7227 -0.0268
 4683SOL     OW25507   0.833   1.673   2.913 -0.8936  0.0595  1.2011
 4683SOL    HW125508   0.801   1.749   2.862 -2.1677 -0.3627  1.3632
 4683SOL    HW225509   0.907   1.704   2.965 -1.6963 -0.2118  2.4926
 4684SOL     OW25510   3.480   3.509   8.120  0.0255  0.1671  0.0292
 4684SOL    HW125511   3.386   3.529   8.120  0.0494  0.2757 -0.0482
 4684SOL    HW225512   3.488   3.487   8.028 -1.4899 -2.8393  0.5986
 4685SOL     OW25513   1.699   3.850   2.990  0.4674 -0.1380  0.1672
 4685SOL    HW125514   1.715   3.866   2.897  2.3459 -1.1374  0.3259
 4685SOL    HW225515   1.783   3.842   3.035  0.9707 -1.5653 -1.0396
 4686SOL     OW25516   0.273   4.384   9.332 -0.3531 -0.3849 -0.3836
 4686SOL    HW125517   0.266   4.306   9.387  0.4741 -1.0363 -1.2060
 4686SOL    HW225518   0.335   4.434   9.385 -2.7106  1.0203  1.0600
 4687SOL     OW25519   2.341   3.749   6.426 -0.5550  0.3741  0.1338
 4687SOL    HW125520   2.250   3.767   6.399 -0.7739  0.1130  0.7086
 4687SOL    HW225521   2.376   3.734   6.338 -1.0241  0.1709 -0.0203
 4688SOL     OW25522   2.580   2.525   8.814 -0.0701 -0.3521 -0.3724
 4688SOL    HW125523   2.610   2.451   8.761  1.6361 -0.7396  1.1692
 4688SOL    HW225524   2.612   2.500   8.900 -0.3415  0.1266 -0.1350
 4689SOL     OW25525   3.940   1.111   8.799 -0.3076  0.3238  0.3292
 4689SOL    HW125526   3.991   1.072   8.728  0.6710  0.1532  1.1237
 4689SOL    HW225527   3.973   1.075   8.882 -0.8412 -0.4457  0.2013
 4690SOL     OW25528   0.471   3.752   7.187  0.1487 -1.1853 -0.3397
 4690SOL    HW125529   0.400   3.713   7.135 -1.3957  0.1681  0.7746
 4690SOL    HW225530   0.419   3.801   7.251  1.0860  1.2460 -1.4232
 4691SOL     OW25531   2.879   1.852  17.374 -0.1112  0.0852 -0.5699
 4691SOL    HW125532   2.891   1.880  17.464 -0.3322  0.2785 -0.6008
 4691SOL    HW225533   2.918   1.765  17.369  1.7969  0.9413 -0.6893
 4692SOL     OW25534   3.999   3.954  16.264 -0.8731 -0.1104 -0.1698
 4692SOL    HW125535   4.003   3.990  16.352 -0.0221  0.0011 -0.2547
 4692SOL    HW225536   3.981   4.033  16.213  0.7345 -0.3866 -1.1732
 4693SOL     OW25537   2.469   0.882   9.354  0.3830 -0.1113  0.6859
 4693SOL    HW125538   2.524   0.913   9.427 -0.4373 -1.4881  1.8875
 4693SOL    HW225539   2.447   0.794   9.383  0.7584  0.1692  1.8266
 4694SOL     OW25540   1.005   0.250   7.580 -0.3223 -0.4578  0.1232
 4694SOL    HW125541   1.034   0.330   7.538 -0.9128  0.4520  1.4424
 4694SOL    HW225542   0.999   0.275   7.672 -0.4337 -2.4325  0.6662
 4695SOL     OW25543   0.934   2.853   8.399  0.1970 -0.2058  0.2379
 4695SOL    HW125544   0.885   2.925   8.440  1.8291  2.1268 -1.9136
 4695SOL    HW225545   1.007   2.905   8.365 -1.0249  2.2244  1.2620
 4696SOL     OW25546   2.782   3.923   1.894 -0.8559  0.1077  0.0071
 4696SOL    HW125547   2.762   3.955   1.982  0.5421  2.0267 -0.3736
 4696SOL    HW225548   2.715   3.856   1.882 -0.0774 -0.8022  0.7343
 4697SOL     OW25549   0.638   0.958   7.275  0.0213  0.2808  0.4385
 4697SOL    HW125550   0.581   0.968   7.351  0.2813 -0.0688  0.6760
 4697SOL    HW225551   0.650   1.049   7.246 -2.0153 -0.2985 -2.2918
 4698SOL     OW25552   4.244   1.168   4.673  0.1008  0.1206  0.9854
 4698SOL    HW125553   4.289   1.174   4.589  0.2187 -0.0219  1.0398
 4698SOL    HW225554   4.156   1.147   4.642 -0.1487 -0.8596  2.3709
 4699SOL     OW25555   3.105   0.664   7.926 -0.0028  0.1525 -0.2363
 4699SOL    HW125556   3.140   0.742   7.883 -0.6456  0.1414 -0.7803
 4699SOL    HW225557   3.157   0.664   8.006 -0.0493  0.0198 -0.2060
 4700SOL     OW25558   4.297   0.827   2.729 -0.3133 -0.1893  0.0999
 4700SOL    HW125559   4.213   0.870   2.712  0.8010  2.0444  0.1369
 4700SOL    HW225560   4.355   0.870   2.665  0.8690 -2.7725 -0.5510
 4701SOL     OW25561   2.860   2.717   5.041  0.1180 -0.5291 -0.1899
 4701SOL    HW125562   2.874   2.623   5.053  0.3624 -0.8243 -2.9700
 4701SOL    HW225563   2.916   2.744   4.969 -3.8886  1.5580 -2.4482
 4702SOL     OW25564   4.325   4.707  16.371 -0.1806 -0.0920  0.2677
 4702SOL    HW125565   4.329   0.014  16.460 -1.1492  1.9121 -0.4192
 4702SOL    HW225566   4.418   4.687  16.364 -0.5881 -1.6935 -0.5959
 4703SOL     OW25567   1.338   3.574  15.764  0.5462  0.3805 -0.2650
 4703SOL    HW125568   1.398   3.639  15.801 -0.5270  2.2244 -1.7107
 4703SOL    HW225569   1.353   3.608  15.675  1.1852 -1.3935 -0.8237
 4704SOL     OW25570   4.171   3.583   7.674  0.2667 -0.3126 -0.2282
 4704SOL    HW125571   4.265   3.594   7.662 -0.0763  1.0423 -1.6136
 4704SOL    HW225572   4.162   3.490   7.653  0.3759 -0.3315 -0.1902
 4705SOL     OW25573   2.144   4.166   1.421  0.3669 -0.1098  0.5612
 4705SOL    HW125574   2.064   4.207   1.453  0.7404  0.3910  0.8528
 4705SOL    HW225575   2.116   4.076   1.436  0.5279 -0.3030 -0.2743
 4706SOL     OW25576   3.955   2.026   7.798 -0.0010 -0.2686  0.6213
 4706SOL    HW125577   3.953   2.037   7.703 -3.1509  4.3444  1.2411
 4706SOL    HW225578   3.873   2.068   7.825 -0.4013  0.8428 -2.3398
 4707SOL     OW25579   3.806   3.654  14.946  0.4310  0.5201  0.6566
 4707SOL    HW125580   3.781   3.600  14.872 -1.7096  1.5762  0.5926
 4707SOL    HW225581   3.758   3.608  15.015  0.6339  0.7707  0.9691
 4708SOL     OW25582   0.864   0.756  15.258 -0.0150  0.1003 -0.4665
 4708SOL    HW125583   0.890   0.670  15.291 -1.9364 -0.5789 -0.7257
 4708SOL    HW225584   0.825   0.737  15.172 -0.5659  4.3464 -1.1810
 4709SOL     OW25585   3.826   1.708  14.423  0.2216 -0.0300  0.1695
 4709SOL    HW125586   3.881   1.786  14.431 -0.1669  0.2106  0.4746
 4709SOL    HW225587   3.839   1.687  14.331 -0.7731 -2.5516  0.5896
 4710SOL     OW25588   4.458   1.926  16.279 -0.5778  0.1870  0.8332
 4710SOL    HW125589   4.488   1.882  16.359 -0.5919  2.6670  2.2002
 4710SOL    HW225590   4.501   2.011  16.284 -1.1009  0.4588  0.6772
 4711SOL     OW25591   1.855   4.666   6.318  0.2890  0.6997  0.1571
 4711SOL    HW125592   1.854   0.006   6.388 -0.3030  1.1024 -0.2347
 4711SOL    HW225593   1.888   4.586   6.358  2.6224  0.8684 -1.3997
 4712SOL     OW25594   4.553   0.811  13.309  0.1757  0.0347 -0.2672
 4712SOL    HW125595   4.580   0.903  13.318  0.3383  0.1836 -2.3833
 4712SOL    HW225596   4.561   0.793  13.215  0.8511 -1.8690  0.1391
 4713SOL     OW25597   1.691   2.665   2.366  0.3125 -0.5428  0.1746
 4713SOL    HW125598   1.651   2.742   2.328  0.0541 -1.0578 -0.5882
 4713SOL    HW225599   1.665   2.595   2.306 -0.5209  0.6262 -0.8310
 4714SOL     OW25600   0.159   2.982   4.456  0.5661  0.1293 -0.6035
 4714SOL    HW125601   0.083   2.937   4.420 -0.3464 -0.3390  1.9221
 4714SOL    HW225602   0.160   3.056   4.394  0.6082  2.3667  2.0447
 4715SOL     OW25603   3.683   0.898   9.914 -0.2686  0.3618 -0.4518
 4715SOL    HW125604   3.743   0.961   9.874 -0.8145  2.0912  1.4714
 4715SOL    HW225605   3.686   0.827   9.850 -2.6935 -0.9335  0.9016
 4716SOL     OW25606   2.976   1.013   8.781  0.4805 -0.0051 -0.7935
 4716SOL    HW125607   2.947   1.101   8.806  0.6411 -0.0525 -0.4408
 4716SOL    HW225608   2.945   0.965   8.858  0.6092 -0.1507 -0.8329
 4717SOL     OW25609   0.983   1.722   5.820  0.0499 -0.3380 -0.0679
 4717SOL    HW125610   1.028   1.684   5.896 -0.5601  1.6651  1.3023
 4717SOL    HW225611   0.910   1.662   5.803  1.3101 -1.8332 -0.1733
 4718SOL     OW25612   3.045   4.268   5.811  0.1748 -0.3496  0.8451
 4718SOL    HW125613   3.014   4.229   5.893  0.1542  1.0139  1.4860
 4718SOL    HW225614   3.037   4.363   5.816 -0.2233 -0.2757 -1.2743
 4719SOL     OW25615   3.319   1.021   2.134  0.3047  0.4895 -0.1957
 4719SOL    HW125616   3.309   0.976   2.050 -0.9149  0.0598  0.1802
 4719SOL    HW225617   3.278   0.956   2.190 -0.0679  1.3301  0.5073
 4720SOL     OW25618   3.861   0.219   8.523  0.4310 -0.2856 -0.2749
 4720SOL    HW125619   3.779   0.250   8.485 -0.4700  0.1436  2.0013
 4720SOL    HW225620   3.842   0.132   8.558 -0.4973  0.4349  1.0361
 4721SOL     OW25621   1.336   3.661   7.693  0.0409  0.1637 -0.1760
 4721SOL    HW125622   1.262   3.712   7.659 -0.8707  0.1672  1.8577
 4721SOL    HW225623   1.295   3.632   7.774  0.9885 -2.9270 -0.8209
 4722SOL     OW25624   3.657   4.263   3.710  0.1000 -0.0650  0.4718
 4722SOL    HW125625   3.677   4.228   3.797 -2.5775 -0.5636  0.9055
 4722SOL    HW225626   3.668   4.194   3.644 -1.1543 -0.2037  0.4070
 4723SOL     OW25627   2.162   1.361   4.830  0.2752  0.0701  0.0862
 4723SOL    HW125628   2.177   1.314   4.912  0.2035  0.0194  0.0706
 4723SOL    HW225629   2.144   1.451   4.857 -0.4584  0.1183 -0.5352
 4724SOL     OW25630   1.895   1.901  15.894 -0.2019 -0.0092  0.1324
 4724SOL    HW125631   1.872   1.814  15.860  1.5606 -0.4215 -0.0010
 4724SOL    HW225632   1.811   1.945  15.881  0.1720  0.6139 -0.1901
 4725SOL     OW25633   3.780   3.830  15.609  0.1261  0.1199 -0.0569
 4725SOL    HW125634   3.803   3.921  15.629  0.4687 -0.2333  1.2017
 4725SOL    HW225635   3.799   3.795  15.696  0.8572  0.9849  0.1387
 4726SOL     OW25636   3.526   4.476  14.506 -0.1793  0.1409 -0.5440
 4726SOL    HW125637   3.553   4.426  14.583  0.2857 -1.3898 -1.6943
 4726SOL    HW225638   3.439   4.511  14.525  0.6452  0.0201  3.4885
 4727SOL     OW25639   2.057   0.916   2.080 -0.0050  0.2455  0.1280
 4727SOL    HW125640   1.989   0.980   2.100  0.1435  0.1633  0.8858
 4727SOL    HW225641   2.018   0.831   2.062  1.7958 -0.1671 -1.8784
 4728SOL     OW25642   2.149   0.956  11.136 -0.1114 -0.0293 -0.3128
 4728SOL    HW125643   2.114   0.945  11.048 -0.6997  0.8031 -0.1822
 4728SOL    HW225644   2.074   1.000  11.175 -0.1851  0.5615 -1.1312
 4729SOL     OW25645   1.208   3.657   2.990  0.3574  0.3653 -0.6167
 4729SOL    HW125646   1.296   3.641   2.957 -0.3926  2.8387 -3.8090
 4729SOL    HW225647   1.157   3.657   2.909 -1.7350 -0.4614  0.6838
 4730SOL     OW25648   1.921   3.421   6.140 -0.1431 -0.1246 -0.1980
 4730SOL    HW125649   1.851   3.364   6.173  1.6108 -2.4549 -0.5362
 4730SOL    HW225650   1.921   3.389   6.050  1.4975  1.9951 -0.9451
 4731SOL     OW25651   3.455   1.048  12.538  0.1197 -0.0035 -0.3976
 4731SOL    HW125652   3.536   1.089  12.509 -0.7800  1.5349 -0.7267
 4731SOL    HW225653   3.393   1.116  12.512  0.4909 -0.0456 -1.3857
 4732SOL     OW25654   4.707   3.259   8.021 -0.3289  0.4985 -0.4423
 4732SOL    HW125655   0.051   3.255   8.087 -1.1736 -0.6047  0.3910
 4732SOL    HW225656   0.028   3.294   7.945  2.9782  1.4969  2.0508
 4733SOL     OW25657   4.621   0.335   5.010  0.3079 -0.1734 -0.0688
 4733SOL    HW125658   4.711   0.303   4.996 -0.3284 -2.6721  1.5606
 4733SOL    HW225659   4.634   0.427   5.030  1.4184 -0.3791  0.1499
 4734SOL     OW25660   0.291   2.439   2.624 -0.2437  0.0792  0.5383
 4734SOL    HW125661   0.262   2.348   2.625  2.1040 -0.6760 -0.9096
 4734SOL    HW225662   0.210   2.487   2.609 -1.1252 -1.4364  0.5026
 4735SOL     OW25663   4.089   0.320   2.147  0.2119  0.7014 -0.2918
 4735SOL    HW125664   4.005   0.364   2.134 -0.3948 -0.1745  0.7230
 4735SOL    HW225665   4.143   0.357   2.078  0.1329  0.0548 -0.7000
 4736SOL     OW25666   2.678   2.165   3.237  0.2411  0.4567  0.1865
 4736SOL    HW125667   2.629   2.228   3.184  0.1314 -0.3731 -0.6954
 4736SOL    HW225668   2.742   2.226   3.274  0.1222 -1.0588  2.8081
 4737SOL     OW25669   4.706   4.696   1.931  0.1283  0.1895 -0.0589
 4737SOL    HW125670   0.035   0.004   1.861 -0.6453  0.7399 -0.3919
 4737SOL    HW225671   4.645   4.634   1.892  0.2703 -0.5844  0.9598
 4738SOL     OW25672   1.231   4.150   3.498  0.2505  0.1382 -0.1580
 4738SOL    HW125673   1.308   4.173   3.551 -0.4973 -0.2054  1.0835
 4738SOL    HW225674   1.225   4.230   3.445 -0.4067 -0.4214 -0.9196
 4739SOL     OW25675   1.291   1.584   2.010  0.0563  0.1353  0.3278
 4739SOL    HW125676   1.330   1.641   2.077  0.2779 -0.6484  0.8769
 4739SOL    HW225677   1.331   1.617   1.930  2.1352 -0.6497  1.0195
 4740SOL     OW25678   3.857   3.439   3.133 -0.0833  0.0807  0.0304
 4740SOL    HW125679   3.938   3.409   3.174  1.3671  2.2191 -1.2530
 4740SOL    HW225680   3.789   3.445   3.199  2.5325  0.4067  2.7167
 4741SOL     OW25681   3.262   4.289   8.951  0.0494 -0.1096 -0.8195
 4741SOL    HW125682   3.309   4.306   9.033  0.9526 -0.4146 -1.2769
 4741SOL    HW225683   3.323   4.234   8.902  0.7808  0.2792 -0.3529
 4742SOL     OW25684   1.774   0.111   5.622  0.3954  0.6217 -0.1695
 4742SOL    HW125685   1.760   0.089   5.714 -0.4384  1.0558 -0.1957
 4742SOL    HW225686   1.686   0.097   5.587  1.2373 -1.7925 -1.2865
 4743SOL     OW25687   2.339   2.664   9.992 -0.0333  0.1725 -0.3256
 4743SOL    HW125688   2.375   2.584   9.953  0.7279  1.2186 -1.7917
 4743SOL    HW225689   2.259   2.676   9.940 -1.1868 -1.6518  1.0155
 4744SOL     OW25690   4.237   3.537   4.219  0.1350  0.1510  0.1418
 4744SOL    HW125691   4.188   3.583   4.150 -0.0224  0.1032  0.2222
 4744SOL    HW225692   4.307   3.597   4.242 -0.2413  1.1872 -1.4012
 4745SOL     OW25693   1.302   1.865   2.446 -0.2951 -0.3220  0.0211
 4745SOL    HW125694   1.210   1.890   2.443 -0.7082 -1.8140  0.3875
 4745SOL    HW225695   1.332   1.943   2.400 -0.3462  0.0748  0.6666
 4746SOL     OW25696   1.109   3.115   7.660  0.0013 -0.5424  0.2124
 4746SOL    HW125697   1.157   3.078   7.735  2.2010  1.6690 -0.0988
 4746SOL    HW225698   1.111   3.046   7.594  0.9376  2.2531 -2.6667
 4747SOL     OW25699   4.051   1.691   3.726 -0.2687  0.0374  0.4308
 4747SOL    HW125700   4.020   1.645   3.804 -0.2786 -0.9157 -0.1481
 4747SOL    HW225701   3.980   1.752   3.706  0.5670  0.9537  0.2484
 4748SOL     OW25702   0.433   0.464  16.906  0.8029  0.6486  0.2485
 4748SOL    HW125703   0.376   0.467  16.983  0.6515  0.3136  0.1484
 4748SOL    HW225704   0.518   0.473  16.950  0.9942 -1.1547  0.2875
 4749SOL     OW25705   0.972   4.135   9.119  0.2903 -0.3721  0.0876
 4749SOL    HW125706   0.903   4.183   9.166 -0.4686 -0.9596 -0.4286
 4749SOL    HW225707   1.020   4.203   9.071 -1.5443  0.8266 -0.0835
 4750SOL     OW25708   0.527   2.649   2.678 -0.2330 -0.8218 -0.4199
 4750SOL    HW125709   0.463   2.719   2.662  0.6210  0.0852  0.1849
 4750SOL    HW225710   0.481   2.578   2.632 -1.2165 -1.1509  1.0964
 4751SOL     OW25711   4.578   3.799   2.772 -0.1456 -0.1145 -0.3944
 4751SOL    HW125712   4.554   3.886   2.802 -0.5184 -0.2206 -0.3896
 4751SOL    HW225713   4.536   3.747   2.841 -2.8473 -1.3888 -3.0086
 4752SOL     OW25714   2.139   4.092  15.238  0.2075 -0.1110  0.2886
 4752SOL    HW125715   2.062   4.075  15.184  0.7151  0.6687 -0.6749
 4752SOL    HW225716   2.197   4.019  15.214 -0.5571 -0.6955  0.1984
 4753SOL     OW25717   3.722   3.775  10.096 -0.3082 -0.2276  0.3524
 4753SOL    HW125718   3.687   3.765  10.007 -0.2753  1.7132  0.1276
 4753SOL    HW225719   3.779   3.701  10.114 -1.3536 -0.8952  0.9330
 4754SOL     OW25720   0.660   4.220   0.756  0.5679  0.2174  0.3589
 4754SOL    HW125721   0.593   4.176   0.809  0.8186 -0.2152  0.3180
 4754SOL    HW225722   0.730   4.159   0.778 -0.2105 -0.8822 -0.1987
 4755SOL     OW25723   2.073   3.867   1.412 -0.5031  0.0577 -0.6457
 4755SOL    HW125724   1.995   3.911   1.444 -0.0619  1.1883 -1.1359
 4755SOL    HW225725   2.057   3.773   1.423  0.8364 -0.0992 -0.0036
 4756SOL     OW25726   2.390   1.939   8.831  0.3097 -0.1425  0.0236
 4756SOL    HW125727   2.417   1.850   8.854  1.1729 -0.0225 -0.5334
 4756SOL    HW225728   2.435   1.991   8.898  0.6458 -1.0092  0.4775
 4757SOL     OW25729   4.326   0.459   5.173  0.4414 -0.5006  0.5518
 4757SOL    HW125730   4.420   0.453   5.155  0.3148 -1.4289  0.2345
 4757SOL    HW225731   4.302   0.547   5.142 -0.4211 -0.3076  1.7757
 4758SOL     OW25732   3.956   2.750   9.661  0.2031 -0.4302  0.2690
 4758SOL    HW125733   4.006   2.748   9.743 -1.1468  1.6764  1.1474
 4758SOL    HW225734   3.925   2.840   9.663 -0.7501 -0.7724  1.3168
 4759SOL     OW25735   3.833   3.917   6.880 -0.4756  0.4837  0.3477
 4759SOL    HW125736   3.921   3.939   6.910 -0.9426 -0.3824  2.3970
 4759SOL    HW225737   3.785   3.910   6.963 -0.8011  1.4277  0.2312
 4760SOL     OW25738   1.107   1.061  15.081  1.1618 -0.1049 -0.2228
 4760SOL    HW125739   1.152   0.978  15.089  1.7621  0.0712 -1.7708
 4760SOL    HW225740   1.120   1.085  14.989 -0.5101  2.1935  0.1233
 4761SOL     OW25741   3.988   4.189   3.962  0.5483  0.8249  0.6067
 4761SOL    HW125742   4.020   4.125   4.025  1.5369  1.2629  0.5552
 4761SOL    HW225743   3.894   4.189   3.979  0.3830  0.2055 -0.3515
 4762SOL     OW25744   4.020   3.649   5.425 -0.8783  0.0909 -0.2067
 4762SOL    HW125745   4.060   3.602   5.352 -1.0555 -0.4127  0.0146
 4762SOL    HW225746   3.958   3.708   5.383  0.2380  0.8789 -0.7260
 4763SOL     OW25747   1.339   0.308  12.635 -0.1539 -0.4150  0.1760
 4763SOL    HW125748   1.379   0.296  12.721 -1.5683  1.6039  1.1228
 4763SOL    HW225749   1.392   0.247  12.584 -1.3867 -1.2206 -0.1628
 4764SOL     OW25750   3.758   4.055  16.016 -0.4774  0.1074  0.2799
 4764SOL    HW125751   3.841   4.094  16.043  0.1305  0.0190 -1.4684
 4764SOL    HW225752   3.737   4.126  15.955  0.7750  0.0753 -0.1856
 4765SOL     OW25753   1.925   1.452   4.446  0.7167  0.4163 -0.7088
 4765SOL    HW125754   1.986   1.399   4.498 -1.6146 -0.7900  0.7950
 4765SOL    HW225755   1.841   1.438   4.489  0.6842  1.8630 -0.2978
 4766SOL     OW25756   2.219   2.280   6.952  0.7155  0.0389  0.2294
 4766SOL    HW125757   2.219   2.301   6.859  1.4714 -0.8163  0.0431
 4766SOL    HW225758   2.300   2.233   6.969  0.6750  0.1718  0.7948
 4767SOL     OW25759   2.525   4.002  12.929 -0.2735 -0.1597  0.6116
 4767SOL    HW125760   2.576   4.016  12.849  2.6773  3.0978  3.0717
 4767SOL    HW225761   2.446   3.959  12.897 -1.5360 -0.2413  3.8212
 4768SOL     OW25762   4.197   3.687   3.459  0.7616 -0.1473 -0.3986
 4768SOL    HW125763   4.202   3.595   3.483  1.3851  0.3222  1.2680
 4768SOL    HW225764   4.108   3.714   3.482  0.6252 -0.3029 -0.7399
 4769SOL     OW25765   1.025   3.199  10.861  0.2095 -0.0683 -0.2549
 4769SOL    HW125766   1.109   3.228  10.896  0.5477  0.8041 -1.8399
 4769SOL    HW225767   0.978   3.276  10.830  0.4491  0.8435  1.6299
 4770SOL     OW25768   2.101   0.115  13.105 -0.6577  0.4245  0.3833
 4770SOL    HW125769   2.123   0.024  13.125  1.7612  1.0550  0.5799
 4770SOL    HW225770   2.174   0.160  13.148  0.8074 -0.8362 -0.7885
 4771SOL     OW25771   1.087   4.163   8.766  0.3786  0.0346  0.4953
 4771SOL    HW125772   1.070   4.211   8.847 -1.9079  0.9530 -0.5093
 4771SOL    HW225773   1.170   4.123   8.787 -1.1008 -2.1136  2.1974
 4772SOL     OW25774   2.805   4.047   0.245  0.6188 -0.2442  0.0403
 4772SOL    HW125775   2.878   4.034   0.184  2.1320  1.6177  1.4585
 4772SOL    HW225776   2.741   4.095   0.192 -0.9092 -1.6166  0.6660
 4773SOL     OW25777   4.402   0.129   4.509 -0.5072  0.4245 -0.2280
 4773SOL    HW125778   4.462   0.055   4.495 -2.1408 -0.7418 -1.0572
 4773SOL    HW225779   4.464   0.199   4.488  1.2850 -1.1096 -0.1457
 4774SOL     OW25780   0.798   1.047   2.859 -0.0813  0.7471  0.1476
 4774SOL    HW125781   0.747   1.029   2.780  0.2810  3.4776 -0.7213
 4774SOL    HW225782   0.795   1.143   2.865  1.4802  0.7658  0.5106
 4775SOL     OW25783   4.584   1.917   7.089  0.6857 -0.4084 -0.0171
 4775SOL    HW125784   4.558   1.927   6.997 -1.9522  3.2012  1.1278
 4775SOL    HW225785   4.679   1.923   7.083  0.9136 -2.9954  1.1229
 4776SOL     OW25786   1.803   3.365   4.337 -0.5025 -0.0887  0.2104
 4776SOL    HW125787   1.801   3.323   4.423 -0.2043  0.1996  0.3579
 4776SOL    HW225788   1.880   3.420   4.348 -0.0173  0.1166 -4.0341
 4777SOL     OW25789   2.376   3.763   1.980 -0.6359 -0.4142 -0.8475
 4777SOL    HW125790   2.394   3.677   2.018  1.4089  0.0765 -0.6705
 4777SOL    HW225791   2.382   3.739   1.888 -0.7197  0.9496 -1.2098
 4778SOL     OW25792   3.782   0.188   8.181 -1.0331 -0.1317  0.1900
 4778SOL    HW125793   3.702   0.168   8.132 -2.4089 -0.5095  2.5577
 4778SOL    HW225794   3.786   0.104   8.226  1.3547 -0.4802 -0.7038
 4779SOL     OW25795   2.869   0.357   1.820 -0.0321 -0.0840 -0.2550
 4779SOL    HW125796   2.816   0.285   1.786  0.3960 -1.5858  2.2440
 4779SOL    HW225797   2.810   0.428   1.844  0.1027  0.0807 -0.4093
 4780SOL     OW25798   3.367   4.713   4.184 -0.2271  0.2039  0.0137
 4780SOL    HW125799   3.352   0.080   4.164 -0.3163  0.0108 -0.8299
 4780SOL    HW225800   3.317   4.671   4.113  1.6041  0.7015 -1.5693
 4781SOL     OW25801   3.109   3.470   9.596  0.2430 -0.3853 -0.3331
 4781SOL    HW125802   3.092   3.420   9.516 -1.0761 -1.4742  0.6166
 4781SOL    HW225803   3.023   3.495   9.630 -0.5728 -1.5170 -1.5308
 4782SOL     OW25804   4.330   0.552   0.425 -0.3108 -0.6199 -0.4311
 4782SOL    HW125805   4.425   0.553   0.429 -0.4239  0.4446  1.4621
 4782SOL    HW225806   4.301   0.548   0.516  2.0306 -0.2476  0.3072
 4783SOL     OW25807   0.352   3.018  11.781  0.2086  0.3557 -0.6488
 4783SOL    HW125808   0.354   2.937  11.730  2.2658  1.7782 -2.8015
 4783SOL    HW225809   0.346   2.990  11.872  1.5110 -0.4693 -0.8224
 4784SOL     OW25810   3.742   2.999  16.279  0.6108  0.6927 -0.5340
 4784SOL    HW125811   3.802   3.030  16.347  0.9262 -0.8239 -0.1370
 4784SOL    HW225812   3.739   2.904  16.285  0.6723  0.4958 -3.3317
 4785SOL     OW25813   3.463   1.960   4.901  0.8341 -0.5833  0.5040
 4785SOL    HW125814   3.548   1.919   4.915 -0.0882 -2.2677  1.1111
 4785SOL    HW225815   3.411   1.885   4.872 -0.3902  0.6285 -0.4340
 4786SOL     OW25816   1.966   1.238   4.665  0.3634 -0.4985  0.1573
 4786SOL    HW125817   2.007   1.152   4.657  1.5462  0.0203  0.5862
 4786SOL    HW225818   2.035   1.272   4.721  0.0158  2.4898 -1.2648
 4787SOL     OW25819   0.621   3.731   2.382 -0.5292 -0.1030 -0.0118
 4787SOL    HW125820   0.636   3.810   2.330 -0.7125 -0.0882 -0.0414
 4787SOL    HW225821   0.529   3.718   2.359 -0.4421 -0.0837 -0.3655
 4788SOL     OW25822   1.553   1.032   1.948 -0.0557 -0.3867  0.8242
 4788SOL    HW125823   1.474   1.008   1.901  1.4597 -2.6742 -0.5121
 4788SOL    HW225824   1.564   1.125   1.925  0.8920 -0.2907  1.6170
 4789SOL     OW25825   3.037   3.592   3.837 -0.6704  0.5536 -0.4293
 4789SOL    HW125826   3.077   3.506   3.825 -1.0132  0.4430 -0.8061
 4789SOL    HW225827   3.107   3.646   3.872 -0.6989 -1.7367  3.1069
 4790SOL     OW25828   1.972   1.274   5.993  0.9100 -0.1914 -0.2299
 4790SOL    HW125829   2.058   1.260   5.953 -0.8787 -1.9539 -3.5146
 4790SOL    HW225830   1.942   1.352   5.946 -2.9234 -2.2343 -1.2006
 4791SOL     OW25831   3.331   2.356   5.664 -0.0293 -0.5285  0.5915
 4791SOL    HW125832   3.334   2.333   5.572 -2.2702  1.7051 -0.0699
 4791SOL    HW225833   3.305   2.448   5.655  0.5660 -0.5506 -1.3453
 4792SOL     OW25834   2.688   3.106  17.347 -0.3059 -0.7498  0.7781
 4792SOL    HW125835   2.670   3.106  17.441  1.1566  2.4696  1.0924
 4792SOL    HW225836   2.757   3.173  17.355  1.3298 -2.4305  0.6907
 4793SOL     OW25837   0.912   2.246   9.093 -0.0710  0.3366  0.0649
 4793SOL    HW125838   0.895   2.170   9.149 -1.1988  0.7206  0.2509
 4793SOL    HW225839   0.936   2.314   9.157 -1.1129  0.9969 -0.2409
 4794SOL     OW25840   1.213   1.721   8.063 -0.5563 -0.3852 -0.5260
 4794SOL    HW125841   1.233   1.775   8.139 -0.5085 -1.4236  0.1907
 4794SOL    HW225842   1.267   1.768   7.998 -0.6384  0.0442 -0.2827
 4795SOL     OW25843   3.045   2.854  15.170 -0.2295  0.4113  1.0986
 4795SOL    HW125844   3.083   2.818  15.250  0.2879  0.6377  0.9537
 4795SOL    HW225845   2.956   2.820  15.182 -0.8481  1.2786 -1.1527
 4796SOL     OW25846   1.888   4.019   1.524  0.2951  0.0794  0.1975
 4796SOL    HW125847   1.794   4.003   1.534  0.3937 -0.7004 -0.1625
 4796SOL    HW225848   1.894   4.109   1.556 -0.2031  0.0463  0.3802
 4797SOL     OW25849   3.676   0.629  14.649  0.0563  0.8633  0.1558
 4797SOL    HW125850   3.651   0.537  14.657 -2.0989  1.5098  1.0657
 4797SOL    HW225851   3.726   0.624  14.568  0.2243  0.2007  0.3016
 4798SOL     OW25852   3.336   2.508  11.496 -0.2864 -0.0527 -0.1222
 4798SOL    HW125853   3.427   2.522  11.469 -0.4358 -0.1113 -0.6504
 4798SOL    HW225854   3.354   2.428  11.546  1.8220  0.6553  0.2680
 4799SOL     OW25855   0.630   0.520  17.080 -0.2684  0.2837 -0.1016
 4799SOL    HW125856   0.724   0.528  17.067 -0.4214 -0.1054 -1.4354
 4799SOL    HW225857   0.632   0.502  17.174  0.1774  2.9739  0.3902
 4800SOL     OW25858   3.490   3.877  13.435  0.3913 -0.8173  0.2533
 4800SOL    HW125859   3.430   3.949  13.413 -0.6276 -1.4582  0.9080
 4800SOL    HW225860   3.573   3.891  13.390 -0.3859  0.0452 -0.9247
 4801SOL     OW25861   1.239   3.337   4.917 -0.0148  0.0521  0.1450
 4801SOL    HW125862   1.286   3.266   4.874  1.4888  0.1131  1.7046
 4801SOL    HW225863   1.180   3.364   4.847 -1.3316 -0.9398  0.8800
 4802SOL     OW25864   3.028   1.194  14.421 -0.5260 -0.2099 -0.0007
 4802SOL    HW125865   3.017   1.145  14.339  1.4339 -1.4770  0.5055
 4802SOL    HW225866   3.122   1.211  14.428 -0.4768  1.0538 -3.5971
 4803SOL     OW25867   4.446   1.652   3.022 -0.2697 -0.0850  0.1320
 4803SOL    HW125868   4.512   1.709   2.983  0.2540 -0.0512  1.0637
 4803SOL    HW225869   4.469   1.651   3.115 -0.2400  1.7210  0.1423
 4804SOL     OW25870   4.303   1.772   8.444  0.0088 -0.3857  0.4225
 4804SOL    HW125871   4.395   1.773   8.472 -0.1203  3.0213  0.7615
 4804SOL    HW225872   4.307   1.827   8.366  1.5514 -1.6072 -0.3620
 4805SOL     OW25873   0.489   2.161   5.383  0.1078  0.0379 -0.5753
 4805SOL    HW125874   0.572   2.116   5.398  0.3239  0.4222 -0.6263
 4805SOL    HW225875   0.465   2.181   5.474 -0.2497 -0.7353 -0.4954
 4806SOL     OW25876   1.419   4.447  11.916 -0.1477 -0.3762  0.2231
 4806SOL    HW125877   1.382   4.378  11.861 -1.0413  0.6994 -0.5230
 4806SOL    HW225878   1.398   4.527  11.868  0.7924 -0.0609  0.3491
 4807SOL     OW25879   3.201   1.883  13.288 -0.1508 -0.2346  0.1076
 4807SOL    HW125880   3.232   1.944  13.220 -1.1696  0.8363  0.6221
 4807SOL    HW225881   3.108   1.903  13.284 -0.5615 -2.0098  0.9481
 4808SOL     OW25882   3.993   3.239   5.910  0.0834  0.0466 -0.0822
 4808SOL    HW125883   3.907   3.282   5.903  0.2959  0.5821  0.6194
 4808SOL    HW225884   3.993   3.179   5.836 -1.2825 -0.5669  0.4063
 4809SOL     OW25885   3.163   1.954   9.089  0.4280  0.2086  0.5452
 4809SOL    HW125886   3.191   1.946   9.181  1.1768 -2.4317  0.0885
 4809SOL    HW225887   3.223   2.025   9.066 -0.4810  1.3175  1.5531
 4810SOL     OW25888   1.461   1.580  14.522  0.1132 -0.3460 -0.8170
 4810SOL    HW125889   1.410   1.662  14.514  0.6009  0.0156 -0.1745
 4810SOL    HW225890   1.522   1.594  14.594  0.7889 -3.2860 -0.8285
 4811SOL     OW25891   4.413   4.403   2.374 -0.0949 -0.9225  0.0772
 4811SOL    HW125892   4.345   4.344   2.343  2.0833 -2.4946 -1.6564
 4811SOL    HW225893   4.384   4.489   2.343  1.2459 -0.0087  1.3721
 4812SOL     OW25894   0.283   4.239  16.355  0.3334 -0.2661  0.2535
 4812SOL    HW125895   0.262   4.160  16.404 -0.9260 -1.4474 -2.2107
 4812SOL    HW225896   0.339   4.198  16.288 -0.9199  1.3051 -1.7789
 4813SOL     OW25897   3.614   2.202  13.093  0.1529 -0.0323  0.9303
 4813SOL    HW125898   3.703   2.228  13.116  0.5855  0.4210 -1.2357
 4813SOL    HW225899   3.617   2.168  13.003 -1.5597  2.0928  0.0468
 4814SOL     OW25900   3.157   1.380   6.899 -0.2928  0.5128 -0.2129
 4814SOL    HW125901   3.109   1.383   6.982 -0.6801 -0.9422 -0.3802
 4814SOL    HW225902   3.086   1.364   6.836 -1.0700 -1.8043  1.2808
 4815SOL     OW25903   3.520   0.075   4.772  0.0268  0.0840 -0.0861
 4815SOL    HW125904   3.529   4.713   4.808 -0.7728 -0.0742 -0.2644
 4815SOL    HW225905   3.600   0.082   4.720 -0.1595  0.5780 -0.3137
 4816SOL     OW25906   3.047   2.528   8.684 -0.6550  0.3103 -0.3018
 4816SOL    HW125907   3.129   2.531   8.634 -1.4207  0.0288 -1.5598
 4816SOL    HW225908   3.077   2.553   8.772  0.7522  1.5663 -1.1376
 4817SOL     OW25909   4.300   2.726   2.154 -0.5140 -0.3843  0.0404
 4817SOL    HW125910   4.383   2.688   2.125  0.2662  0.8610  0.6555
 4817SOL    HW225911   4.318   2.727   2.248  0.2838 -1.1037 -0.1084
 4818SOL     OW25912   0.883   0.376   1.351  0.0728 -0.1204  0.7203
 4818SOL    HW125913   0.861   0.299   1.299 -1.8793  1.3091 -0.5617
 4818SOL    HW225914   0.928   0.429   1.286 -2.6846 -0.5748 -1.5329
 4819SOL     OW25915   2.283   4.575   0.705 -0.5556  0.3973  0.1836
 4819SOL    HW125916   2.215   4.517   0.671 -0.7603  0.5972  0.2519
 4819SOL    HW225917   2.325   4.608   0.625 -0.7638 -0.2173 -0.1817
 4820SOL     OW25918   1.473   2.099   4.893 -0.3902  0.5593 -0.3418
 4820SOL    HW125919   1.464   2.049   4.974 -1.2096  1.3510  0.0419
 4820SOL    HW225920   1.559   2.071   4.860 -1.1457 -0.6934 -1.2540
 4821SOL     OW25921   3.498   4.147   4.222 -0.6096  0.1687 -0.0473
 4821SOL    HW125922   3.422   4.193   4.187 -0.4049  1.2804  0.9836
 4821SOL    HW225923   3.476   4.159   4.314 -0.2710  0.9408 -0.0636
 4822SOL     OW25924   2.878   3.370   9.225  0.7876  0.3271  0.0097
 4822SOL    HW125925   2.902   3.288   9.182  1.7962  1.0767 -0.8612
 4822SOL    HW225926   2.893   3.350   9.317 -0.3311  2.1124  0.5748
 4823SOL     OW25927   4.568   4.176   5.119  0.0918  0.5871  0.6204
 4823SOL    HW125928   4.595   4.184   5.210 -0.5307  2.0979  0.6764
 4823SOL    HW225929   4.641   4.135   5.072  0.3462 -0.2010  1.7234
 4824SOL     OW25930   4.002   1.247   4.548  0.3314 -0.7284 -0.2956
 4824SOL    HW125931   3.940   1.183   4.512  1.0033  0.0025 -2.7657
 4824SOL    HW225932   3.941   1.290   4.608 -0.0682 -1.3004 -0.2926
 4825SOL     OW25933   3.167   4.571   7.014 -0.7088  0.2120  0.3136
 4825SOL    HW125934   3.262   4.581   7.012 -0.7625  0.8925  2.0427
 4825SOL    HW225935   3.145   4.562   6.921  0.8997  0.1463 -0.0694
 4826SOL     OW25936   2.597   1.660   9.183  0.1696 -0.3768 -0.1571
 4826SOL    HW125937   2.525   1.620   9.135 -0.5124  1.0201 -0.2813
 4826SOL    HW225938   2.554   1.728   9.235 -0.3759 -0.8266 -0.0206
 4827SOL     OW25939   3.195   0.638   9.364  0.1566 -0.2804  0.1150
 4827SOL    HW125940   3.187   0.636   9.459  0.6088  0.1710  0.1589
 4827SOL    HW225941   3.276   0.688   9.355 -0.7610  1.1396 -0.2027
 4828SOL     OW25942   1.601   1.310   1.923 -0.0436  0.2054  0.5209
 4828SOL    HW125943   1.538   1.326   1.993 -0.5107 -0.0730  0.1639
 4828SOL    HW225944   1.544   1.338   1.852  3.1829 -1.7901 -2.8347
 4829SOL     OW25945   1.449   1.662   5.058  0.1717  0.0735 -0.2835
 4829SOL    HW125946   1.487   1.580   5.089  1.1357  0.9769  0.9618
 4829SOL    HW225947   1.370   1.626   5.019  0.1520  0.1141 -0.2809
 4830SOL     OW25948   2.416   3.546   5.318 -0.0512 -0.2467  0.1294
 4830SOL    HW125949   2.363   3.497   5.256 -1.3545  2.0825 -0.5936
 4830SOL    HW225950   2.435   3.477   5.381 -0.6593 -1.1051 -0.6332
 4831SOL     OW25951   0.934   1.174   2.317 -0.1070 -0.2894 -0.3060
 4831SOL    HW125952   0.950   1.268   2.331 -0.4506 -0.3128  0.2419
 4831SOL    HW225953   0.839   1.174   2.307 -0.4308 -0.4174  2.9543
 4832SOL     OW25954   3.068   4.640   7.254  0.6455 -0.0041  0.0172
 4832SOL    HW125955   3.128   4.714   7.264  0.6588  0.3154 -2.3303
 4832SOL    HW225956   3.097   4.612   7.167  2.8412  0.9052  0.4635
 4833SOL     OW25957   0.975   0.192  10.926 -0.0280  0.4072 -0.1854
 4833SOL    HW125958   1.023   0.206  10.844 -1.6532  0.3463 -1.1376
 4833SOL    HW225959   1.009   0.103  10.941  0.1073  0.6551  0.9917
 4834SOL     OW25960   1.026   0.062   8.641 -0.0283 -0.4536 -0.1240
 4834SOL    HW125961   1.085   4.714   8.624 -0.8225 -1.4077  1.2730
 4834SOL    HW225962   0.983   0.072   8.556 -1.3313  3.0360  0.9522
 4835SOL     OW25963   2.561   4.363   6.602 -0.2613 -0.0082  0.0129
 4835SOL    HW125964   2.603   4.280   6.578 -0.4684 -0.3293  0.7527
 4835SOL    HW225965   2.487   4.363   6.540 -1.4049  0.2025  1.3764
 4836SOL     OW25966   2.674   1.045   7.874  0.3911  0.2606 -0.2598
 4836SOL    HW125967   2.763   1.022   7.848  0.4987  0.1206  0.2267
 4836SOL    HW225968   2.685   1.057   7.969  0.8201 -2.4580  0.0322
 4837SOL     OW25969   0.277   2.800   4.636 -0.8675 -0.8164  0.0867
 4837SOL    HW125970   0.369   2.808   4.610 -2.4697  0.6859 -5.1128
 4837SOL    HW225971   0.235   2.844   4.562 -0.0638  1.3438  0.8974
 4838SOL     OW25972   1.943   0.638   3.735  0.1624 -0.1289 -0.3086
 4838SOL    HW125973   2.001   0.686   3.676  0.2928  0.4416  0.2890
 4838SOL    HW225974   1.975   0.548   3.731 -0.0039 -0.1720 -0.7030
 4839SOL     OW25975   4.372   0.950   5.153  0.9002  0.2167  0.4121
 4839SOL    HW125976   4.318   0.974   5.228  0.2342  0.7211 -0.2281
 4839SOL    HW225977   4.450   1.005   5.146  0.6868  0.5022  0.2695
 4840SOL     OW25978   1.825   2.662   0.818  0.5418 -0.0188  0.1214
 4840SOL    HW125979   1.744   2.673   0.868  0.1938 -1.6146 -0.0820
 4840SOL    HW225980   1.860   2.749   0.836  0.9158  0.1351 -1.3582
 4841SOL     OW25981   2.048   4.444   2.197  0.1648  0.1926  0.8821
 4841SOL    HW125982   2.029   4.426   2.105 -2.0003 -0.6119  1.4840
 4841SOL    HW225983   1.993   4.383   2.247 -0.6882  1.2793  1.2546
 4842SOL     OW25984   3.405   2.422   1.900 -0.1483  0.2466  0.0228
 4842SOL    HW125985   3.400   2.414   1.995  2.3687  3.9171  0.4433
 4842SOL    HW225986   3.335   2.360   1.877  1.7199 -2.0571  0.4613
 4843SOL     OW25987   3.165   2.587   1.005  0.0956 -0.2552 -0.2002
 4843SOL    HW125988   3.099   2.537   1.055 -0.6460  1.2954  0.3735
 4843SOL    HW225989   3.241   2.530   1.016  0.6306  0.5325  0.1408
 4844SOL     OW25990   4.431   3.853   4.635 -0.1084  0.3081 -0.0895
 4844SOL    HW125991   4.522   3.829   4.615 -0.0313  0.3569  0.2007
 4844SOL    HW225992   4.400   3.877   4.548  1.2684  1.2670 -0.3197
 4845SOL     OW25993   2.817   4.474   4.882 -0.2300 -0.1987 -0.3042
 4845SOL    HW125994   2.821   4.568   4.903  0.6812 -0.1180 -0.8359
 4845SOL    HW225995   2.824   4.474   4.787  0.8524  0.4653 -0.2266
 4846SOL     OW25996   4.468   2.670   5.276 -0.0971  0.9965 -0.0235
 4846SOL    HW125997   4.475   2.764   5.265 -2.2432  1.2841  1.1527
 4846SOL    HW225998   4.554   2.645   5.242  1.0920  2.3937  1.9878
 4847SOL     OW25999   3.885   4.350   6.229 -0.4618 -0.0750  0.5058
 4847SOL    HW126000   3.801   4.304   6.220 -0.4517  0.0751 -0.4351
 4847SOL    HW226001   3.881   4.391   6.315  0.1467  1.3022 -0.1082
 4848SOL     OW26002   2.171   1.143   4.314 -0.1253  0.2566  0.2217
 4848SOL    HW126003   2.217   1.172   4.393 -1.3478  1.6744  0.4039
 4848SOL    HW226004   2.234   1.083   4.273  0.0060 -0.6821  1.8006
 4849SOL     OW26005   2.793   4.679  10.196 -0.2261  0.1226  0.0158
 4849SOL    HW126006   2.805   4.633  10.114 -0.0659  1.9207 -0.9682
 4849SOL    HW226007   2.732   0.024  10.178 -0.0052  0.2348 -0.2783
 4850SOL     OW26008   1.750   4.207   7.605  0.0567 -0.7165  0.7310
 4850SOL    HW126009   1.781   4.163   7.526  0.0447  2.4656 -1.0499
 4850SOL    HW226010   1.821   4.210   7.668  0.0722 -1.0117  0.7280
 4851SOL     OW26011   0.171   2.977  12.185  0.3549  0.0264 -0.0127
 4851SOL    HW126012   0.133   2.900  12.141  0.9592 -0.6663  0.6718
 4851SOL    HW226013   0.260   2.943  12.176  0.0067 -1.0643  0.6492
 4852SOL     OW26014   3.269   3.891   0.623  0.0528 -0.4222 -0.1569
 4852SOL    HW126015   3.317   3.888   0.706  0.4368  0.1106 -0.3563
 4852SOL    HW226016   3.336   3.849   0.569  1.0870  1.0750 -0.0521
 4853SOL     OW26017   1.652   1.859   8.186  0.2653 -0.0264  0.0836
 4853SOL    HW126018   1.594   1.829   8.256  0.9519 -0.5078  0.4404
 4853SOL    HW226019   1.742   1.844   8.215  1.0730  3.2928 -0.6792
 4854SOL     OW26020   4.383   0.648   9.475  0.5636 -0.1865  0.0757
 4854SOL    HW126021   4.441   0.713   9.517  0.3007 -0.6810  1.1950
 4854SOL    HW226022   4.428   0.566   9.495  2.2176  0.4275 -1.1278
 4855SOL     OW26023   4.270   2.706   1.657  0.4177  0.2035 -0.3444
 4855SOL    HW126024   4.297   2.796   1.674 -2.1385  0.8057  0.5755
 4855SOL    HW226025   4.260   2.677   1.748 -1.1193 -0.5921 -0.7648
 4856SOL     OW26026   4.669   0.148  17.527  0.3980  0.3014 -0.2359
 4856SOL    HW126027   0.020   0.188  17.487  0.0242  0.2429 -1.0252
 4856SOL    HW226028   4.633   0.216  17.584 -0.2037 -1.9551  2.0521
 4857SOL     OW26029   4.098   4.721   5.056 -0.1046 -0.4792 -0.3238
 4857SOL    HW126030   4.105   4.678   4.971  0.9457 -0.2195 -0.3771
 4857SOL    HW226031   4.186   0.031   5.070  0.0118 -0.9033  0.0406
 4858SOL     OW26032   2.876   1.776   2.806 -0.2197 -0.1989 -0.0884
 4858SOL    HW126033   2.800   1.789   2.750 -1.0297  0.4363  1.1582
 4858SOL    HW226034   2.850   1.804   2.894 -0.6586 -0.0499 -0.2668
 4859SOL     OW26035   3.169   0.162   5.255 -0.1061  0.6029  0.8408
 4859SOL    HW126036   3.091   0.192   5.209 -1.4895 -1.1659  2.0218
 4859SOL    HW226037   3.134   0.084   5.298  0.6809 -1.0960 -1.6270
 4860SOL     OW26038   2.309   2.541   2.088 -0.1002 -0.0359 -0.9588
 4860SOL    HW126039   2.230   2.543   2.033 -0.2746 -1.6697 -0.7524
 4860SOL    HW226040   2.283   2.610   2.148 -1.4380 -2.0388  0.7276
 4861SOL     OW26041   0.202   1.016   2.023  0.6827 -0.0945 -0.3867
 4861SOL    HW126042   0.201   0.939   1.966  0.5265  0.3286 -0.9529
 4861SOL    HW226043   0.183   1.090   1.966 -0.6297  1.2061  1.7491
 4862SOL     OW26044   1.519   3.018   5.103 -0.1801 -0.4142  0.0225
 4862SOL    HW126045   1.504   3.113   5.098 -0.6132 -0.5067 -0.3808
 4862SOL    HW226046   1.586   3.014   5.034  0.4247  1.9334  0.4473
 4863SOL     OW26047   2.282   3.668  13.345  0.1234 -0.4447 -0.0665
 4863SOL    HW126048   2.263   3.602  13.279 -0.2511  0.5231 -0.9265
 4863SOL    HW226049   2.227   3.638  13.417  0.6018  0.5044  0.7063
 4864SOL     OW26050   2.548   3.577   9.915 -0.8184 -0.1036  0.1271
 4864SOL    HW126051   2.511   3.665   9.908  3.5442  1.9653  3.3252
 4864SOL    HW226052   2.580   3.568   9.825 -1.3859 -2.2748  0.1260
 4865SOL     OW26053   1.877   2.691  17.286  0.8351  0.0301 -0.1579
 4865SOL    HW126054   1.824   2.761  17.248  0.5610 -0.6319 -1.0201
 4865SOL    HW226055   1.930   2.665  17.210 -0.5854 -0.6592 -0.9055
 4866SOL     OW26056   2.659   0.452  14.702  0.1417  0.3183  0.3835
 4866SOL    HW126057   2.644   0.428  14.611 -0.9550  1.5450  0.2372
 4866SOL    HW226058   2.623   0.537  14.678  0.7974  0.6831  0.6639
 4867SOL     OW26059   0.422   4.050   6.067  0.2031 -0.2602 -0.4489
 4867SOL    HW126060   0.507   4.007   6.067 -1.7768 -4.1662  1.2340
 4867SOL    HW226061   0.369   3.995   6.124 -1.7365  1.6355 -0.4040
 4868SOL     OW26062   4.224   0.947   5.381 -0.4966 -0.2466 -0.0372
 4868SOL    HW126063   4.263   0.912   5.461 -0.8427  0.5351  0.4740
 4868SOL    HW226064   4.136   0.909   5.383 -0.4448 -0.3650 -0.0337
 4869SOL     OW26065   4.400   2.404   6.842  0.8493  0.3678  0.0931
 4869SOL    HW126066   4.380   2.431   6.932  0.1310 -0.6637  0.2377
 4869SOL    HW226067   4.313   2.407   6.804 -0.2940 -2.7403  2.5119
 4870SOL     OW26068   1.522   2.252   5.383 -0.0528 -0.4280 -0.2580
 4870SOL    HW126069   1.580   2.176   5.395  0.1057 -0.2527  0.0915
 4870SOL    HW226070   1.466   2.234   5.458 -0.1278  2.1154  0.2708
 4871SOL     OW26071   4.600   0.344   0.019 -0.2274 -0.3232 -0.3784
 4871SOL    HW126072   4.578   0.437   0.017  3.3783  0.5219 -2.3416
 4871SOL    HW226073   4.627   0.321   0.108 -1.4859  0.6395  0.2501
 4872SOL     OW26074   3.196   0.398  13.594  0.0518  0.6281 -0.5268
 4872SOL    HW126075   3.233   0.360  13.514 -0.2024  2.7108 -1.6545
 4872SOL    HW226076   3.279   0.442  13.613  0.2886 -0.2668  0.4495
 4873SOL     OW26077   0.133   3.335   6.146  0.8069  0.4449  0.2463
 4873SOL    HW126078   0.057   3.371   6.193  1.3468 -0.0380  1.4932
 4873SOL    HW226079   0.194   3.328   6.220  0.9621 -1.0874 -0.0361
 4874SOL     OW26080   3.489   1.097   3.495 -0.7399 -0.1255 -0.0712
 4874SOL    HW126081   3.575   1.080   3.457 -0.1965  3.4838 -0.4507
 4874SOL    HW226082   3.445   1.020   3.458 -0.7792 -0.2367  0.2047
 4875SOL     OW26083   1.662   2.564   5.912 -0.1533 -0.3384 -0.1153
 4875SOL    HW126084   1.567   2.552   5.901  0.1052 -0.6823 -2.0448
 4875SOL    HW226085   1.688   2.539   5.823  0.4492 -2.0415  0.5414
 4876SOL     OW26086   1.000   4.453   8.138 -0.5930 -0.5397 -0.0177
 4876SOL    HW126087   0.999   4.521   8.070 -3.6143  0.1088  0.6512
 4876SOL    HW226088   0.968   4.505   8.211 -1.2088 -1.5777  0.4638
 4877SOL     OW26089   2.592   1.624   3.799  0.4075 -0.1257 -0.3028
 4877SOL    HW126090   2.670   1.658   3.843 -1.0089 -0.3431  2.3830
 4877SOL    HW226091   2.513   1.634   3.852 -0.1102  1.3405 -1.3370
 4878SOL     OW26092   2.314   3.577  17.195  0.0834 -0.0599  0.0918
 4878SOL    HW126093   2.345   3.598  17.106 -1.3810  1.3125 -0.0984
 4878SOL    HW226094   2.398   3.587  17.239  0.0207  0.7157  0.0320
 4879SOL     OW26095   1.682   1.699   2.937  0.9677 -0.3172 -0.6192
 4879SOL    HW126096   1.713   1.719   3.025 -0.5881  0.5791 -0.2827
 4879SOL    HW226097   1.754   1.725   2.879  1.9885 -1.7765  0.0067
 4880SOL     OW26098   4.086   0.105   6.648 -0.1410  0.1093 -0.9132
 4880SOL    HW126099   4.144   0.090   6.574  3.8965  1.0924  2.0461
 4880SOL    HW226100   4.010   0.049   6.633 -0.2286  0.2324 -0.9333
 4881SOL     OW26101   4.576   2.978   7.325 -0.0650  0.4884 -0.4691
 4881SOL    HW126102   4.625   3.050   7.366 -2.7295  0.6756  2.4190
 4881SOL    HW226103   4.531   2.938   7.399  0.0758 -0.4999 -0.9241
 4882SOL     OW26104   2.968   4.216   4.508  0.1515  0.3563 -0.0159
 4882SOL    HW126105   2.941   4.302   4.540  0.2443  0.6123 -0.6335
 4882SOL    HW226106   3.063   4.226   4.508  0.1938 -0.0936 -0.2677
 4883SOL     OW26107   1.365   3.419   6.806 -0.3208  0.6255 -0.1277
 4883SOL    HW126108   1.292   3.365   6.834  0.8375 -0.5048  0.7037
 4883SOL    HW226109   1.386   3.474   6.881 -2.1951  2.1824 -0.7489
 4884SOL     OW26110   2.037   4.008   6.692 -0.1291 -0.0333  0.6228
 4884SOL    HW126111   2.128   4.019   6.666 -0.8629 -0.9555 -2.2784
 4884SOL    HW226112   2.046   3.969   6.779  1.4207 -0.8168  0.0929
 4885SOL     OW26113   4.327   2.417   3.687 -0.1427 -0.4028 -0.3478
 4885SOL    HW126114   4.391   2.397   3.619 -0.4898 -4.3270  0.4750
 4885SOL    HW226115   4.287   2.331   3.695  0.1855 -0.5963 -0.7779
 4886SOL     OW26116   3.467   1.717   2.732 -0.4005 -0.1706  0.0277
 4886SOL    HW126117   3.401   1.768   2.778  0.4448  0.0050  1.0325
 4886SOL    HW226118   3.508   1.672   2.805  1.1795  2.7516  0.9475
 4887SOL     OW26119   1.605   3.359  11.749  0.4685 -0.3560  0.0034
 4887SOL    HW126120   1.633   3.352  11.658 -0.7349 -0.4554 -0.3597
 4887SOL    HW226121   1.591   3.451  11.773 -0.7424 -0.0739 -1.7912
 4888SOL     OW26122   1.310   2.055   7.364  0.5256 -0.2903  0.6411
 4888SOL    HW126123   1.347   2.133   7.323  2.4819 -0.6351  1.7045
 4888SOL    HW226124   1.223   2.049   7.325  0.4140 -1.0305  0.9931
 4889SOL     OW26125   4.440   2.996   4.456  0.5523  0.1922 -0.4381
 4889SOL    HW126126   4.377   2.952   4.400  0.8261  0.3209 -0.8475
 4889SOL    HW226127   4.525   2.965   4.425  0.5472 -0.9451  0.6751
 4890SOL     OW26128   3.045   2.909   6.654  0.7617  0.4562 -0.3546
 4890SOL    HW126129   3.054   2.885   6.562  3.4754  0.1759 -0.0018
 4890SOL    HW226130   2.956   2.944   6.651 -0.7720 -3.5313 -0.9230
 4891SOL     OW26131   0.930   0.561   1.158 -0.3575 -0.1945  0.1857
 4891SOL    HW126132   0.908   0.650   1.185 -2.6399 -0.0671 -2.0626
 4891SOL    HW226133   0.894   0.552   1.069  0.7576 -2.8615 -0.0089
 4892SOL     OW26134   3.483   1.452   2.110  0.4132  0.2527  0.0001
 4892SOL    HW126135   3.524   1.411   2.034  1.2010 -0.2533  0.7028
 4892SOL    HW226136   3.560   1.492   2.148 -1.4966  3.5222  0.3970
 4893SOL     OW26137   2.567   1.912   9.988 -0.6033  0.2877 -0.9711
 4893SOL    HW126138   2.583   1.980  10.054 -0.0511 -0.2809 -0.5194
 4893SOL    HW226139   2.482   1.935   9.952 -1.5898 -0.1496  1.0869
 4894SOL     OW26140   4.009   3.735   4.494  0.0010 -0.1325 -0.2614
 4894SOL    HW126141   3.958   3.663   4.459 -1.1072  0.9255 -0.8339
 4894SOL    HW226142   4.040   3.696   4.576  0.3104  2.4104  0.8571
 4895SOL     OW26143   2.867   0.558  15.411 -0.0028 -0.1210 -0.2462
 4895SOL    HW126144   2.839   0.600  15.330  1.0525  0.7188 -0.1799
 4895SOL    HW226145   2.795   0.507  15.448  0.5168  0.7328  1.9673
 4896SOL     OW26146   0.515   2.291   1.400 -0.1495 -0.2072  0.0929
 4896SOL    HW126147   0.586   2.267   1.460 -0.4810  1.1697  1.0415
 4896SOL    HW226148   0.479   2.374   1.431  0.3518  0.4742 -1.1725
 4897SOL     OW26149   1.804   2.328   4.678  0.5834  0.2011 -0.2474
 4897SOL    HW126150   1.762   2.246   4.704 -3.3552  1.5646 -2.2676
 4897SOL    HW226151   1.833   2.317   4.588  1.8514 -0.3239  0.2311
 4898SOL     OW26152   2.329   0.350   5.516  0.3808  0.1178 -0.0757
 4898SOL    HW126153   2.282   0.292   5.456  2.2880  0.1725 -1.6217
 4898SOL    HW226154   2.399   0.298   5.555 -0.1452 -1.0502 -0.7188
 4899SOL     OW26155   0.671   3.166  17.629 -0.2047 -0.2497 -0.0419
 4899SOL    HW126156   0.708   3.188   0.011  0.5743  1.9839 -0.9471
 4899SOL    HW226157   0.584   3.139  17.658  0.1358 -0.1777  1.0768
 4900SOL     OW26158   4.342   0.571   6.535 -0.1576  0.0126  0.3437
 4900SOL    HW126159   4.419   0.611   6.495 -0.6123  1.2728  0.7273
 4900SOL    HW226160   4.378   0.522   6.609  2.0253  2.3896  0.8564
 4901SOL     OW26161   2.559   4.330   5.641 -0.2533 -0.7912 -0.2672
 4901SOL    HW126162   2.645   4.366   5.664 -0.6828 -1.4711  2.4668
 4901SOL    HW226163   2.519   4.397   5.586 -0.9357 -1.8621 -1.0712
 4902SOL     OW26164   3.561   2.985  13.223 -0.0123  0.0272  0.5689
 4902SOL    HW126165   3.600   2.923  13.285 -0.6937 -0.1201  0.8462
 4902SOL    HW226166   3.537   3.054  13.285 -2.0448 -1.0355  0.9768
 4903SOL     OW26167   3.449   3.435   7.416  0.3053 -0.0595  0.0692
 4903SOL    HW126168   3.509   3.436   7.341  2.0506  0.3786  1.4842
 4903SOL    HW226169   3.488   3.514   7.453  0.0146 -0.7792  1.9097
 4904SOL     OW26170   1.849   4.553   5.183  0.3283  0.5631  0.3872
 4904SOL    HW126171   1.923   4.586   5.132  0.5462 -3.1132 -1.6841
 4904SOL    HW226172   1.782   4.621   5.181 -1.1525 -0.7498  4.0546
 4905SOL     OW26173   0.172   2.129  16.517 -0.0518  0.6582 -0.8214
 4905SOL    HW126174   0.266   2.133  16.539 -0.3231  0.5123  0.3656
 4905SOL    HW226175   0.153   2.038  16.492 -2.0141  0.8726 -0.0910
 4906SOL     OW26176   0.423   1.735   8.669  0.0691 -0.0144 -0.4358
 4906SOL    HW126177   0.382   1.649   8.655  0.3993 -0.2787  0.2149
 4906SOL    HW226178   0.346   1.791   8.672  1.4362  1.9491 -1.7701
 4907SOL     OW26179   3.356   0.913   3.347 -0.2969  0.1373 -0.0729
 4907SOL    HW126180   3.323   0.881   3.263 -0.1588  0.6917 -0.3373
 4907SOL    HW226181   3.399   0.833   3.376 -1.9987 -0.6460  0.2901
 4908SOL     OW26182   4.666   2.638   7.046 -0.1237 -0.4002  0.1532
 4908SOL    HW126183   4.683   2.713   7.103 -1.4273  0.3537 -0.4452
 4908SOL    HW226184   4.695   2.555   7.084 -0.5306 -0.2412  0.8167
 4909SOL     OW26185   2.690   0.437  10.031  0.3018 -0.1196  0.3099
 4909SOL    HW126186   2.613   0.384  10.012  0.2914 -0.4341  1.1941
 4909SOL    HW226187   2.738   0.368  10.077 -1.9550 -1.4941  0.6244
 4910SOL     OW26188   2.285   0.079  12.539  0.0911 -0.5397  0.4358
 4910SOL    HW126189   2.279   0.004  12.599 -0.8982 -1.1434 -0.4174
 4910SOL    HW226190   2.335   0.036  12.469 -0.1248 -1.2227  0.6943
 4911SOL     OW26191   2.390   1.207   3.687  0.1118  0.2443  0.3378
 4911SOL    HW126192   2.311   1.174   3.731  2.0806 -2.1198  2.0966
 4911SOL    HW226193   2.363   1.296   3.665 -1.4271  0.4414  2.9629
 4912SOL     OW26194   3.172   0.008  13.221  0.2316  0.0054 -0.0499
 4912SOL    HW126195   3.114   4.684  13.279  0.6969  1.2504  1.4639
 4912SOL    HW226196   3.117   0.012  13.142 -3.7253  1.3833  2.7661
 4913SOL     OW26197   4.421   4.254   4.397  0.2429  0.1839 -0.5536
 4913SOL    HW126198   4.508   4.280   4.427  0.2331  0.1127 -0.4637
 4913SOL    HW226199   4.369   4.234   4.474 -1.1160  0.1763 -1.4605
 4914SOL     OW26200   2.744   1.292   1.300 -0.2903 -0.1085 -0.3688
 4914SOL    HW126201   2.694   1.322   1.375  1.3584  0.1059  0.6432
 4914SOL    HW226202   2.814   1.355   1.283 -1.1087  0.5892 -1.0924
 4915SOL     OW26203   1.973   3.694   3.284 -0.6193  0.7177  0.2207
 4915SOL    HW126204   1.877   3.695   3.288 -0.6352  3.2013 -0.8069
 4915SOL    HW226205   1.995   3.737   3.201  0.0959 -1.1223 -0.5227
 4916SOL     OW26206   2.641   3.406   8.864  0.2913  0.0951 -0.2380
 4916SOL    HW126207   2.667   3.315   8.874  1.0729  0.3213 -0.2425
 4916SOL    HW226208   2.548   3.407   8.890  0.2719 -0.3507 -0.2918
 4917SOL     OW26209   1.234   3.472  10.209 -0.0216 -0.4275  0.3107
 4917SOL    HW126210   1.269   3.389  10.174  1.0604  0.3961 -0.5667
 4917SOL    HW226211   1.151   3.474  10.161  1.0768 -0.4857 -1.6309
 4918SOL     OW26212   3.621   4.119  11.425 -0.1374 -0.3190 -0.5361
 4918SOL    HW126213   3.681   4.091  11.494 -0.5707 -0.1028 -0.0699
 4918SOL    HW226214   3.677   4.174  11.371 -0.7485  0.1916 -0.6374
 4919SOL     OW26215   0.023   2.954  11.404 -0.2342  0.4868 -0.0079
 4919SOL    HW126216   0.002   2.977  11.495  0.1640 -0.2385  0.2650
 4919SOL    HW226217   0.114   2.984  11.412 -0.1820  0.8341 -1.9636
 4920SOL     OW26218   3.369   3.009   4.169  1.0489  0.7075  0.3928
 4920SOL    HW126219   3.370   3.091   4.218  1.5101  1.5723 -1.0624
 4920SOL    HW226220   3.275   3.005   4.150  0.8463  1.1887  1.3283
 4921SOL     OW26221   3.665   1.343   6.782 -0.4180  0.3987  0.6846
 4921SOL    HW126222   3.574   1.364   6.803 -1.0442 -2.6169  0.8662
 4921SOL    HW226223   3.703   1.419   6.737  1.2096 -0.2404  0.9784
 4922SOL     OW26224   4.237   3.348   7.965  0.2293  0.2866  0.4720
 4922SOL    HW126225   4.203   3.287   8.031 -1.3800  0.4727 -0.1843
 4922SOL    HW226226   4.323   3.316   7.937 -0.4310 -1.1716  0.1342
 4923SOL     OW26227   2.856   2.402  10.777  0.0166 -0.1892 -0.0543
 4923SOL    HW126228   2.837   2.493  10.801  1.6569  0.3653 -0.8947
 4923SOL    HW226229   2.778   2.371  10.730 -1.4852  1.5461  1.2757
 4924SOL     OW26230   1.359   2.342   4.894  0.4636  0.8449 -0.0738
 4924SOL    HW126231   1.385   2.254   4.865 -2.5010 -0.3800  0.9380
 4924SOL    HW226232   1.441   2.382   4.922  2.3207 -0.4136 -3.7261
 4925SOL     OW26233   0.067   0.502   2.890  0.1557 -0.8469 -0.2492
 4925SOL    HW126234   0.006   0.442   2.934  1.0854 -1.7567 -0.1919
 4925SOL    HW226235   0.027   0.588   2.897 -3.4847 -2.4434 -1.1846
 4926SOL     OW26236   4.489   3.194   8.194 -0.2636  0.4937 -0.5095
 4926SOL    HW126237   4.401   3.174   8.160 -0.7878  0.4533  0.8876
 4926SOL    HW226238   4.539   3.167   8.116 -0.4636 -2.1901  0.2719
 4927SOL     OW26239   0.898   1.792   1.394 -0.7284  0.4079 -0.0071
 4927SOL    HW126240   0.806   1.806   1.416  0.1398  0.2487  3.7905
 4927SOL    HW226241   0.921   1.878   1.359  0.6323  0.3964  0.8457
 4928SOL     OW26242   3.131   1.114   2.563 -0.2075  0.3890  0.6187
 4928SOL    HW126243   3.084   1.048   2.615 -2.8649  1.0576 -0.9661
 4928SOL    HW226244   3.141   1.187   2.624  3.9775 -1.3549  2.0228
 4929SOL     OW26245   4.192   3.172   7.284 -0.0418  0.6266  0.2134
 4929SOL    HW126246   4.264   3.226   7.251  0.3797 -1.2097 -1.9474
 4929SOL    HW226247   4.200   3.094   7.229  0.7004  0.9702 -0.1638
 4930SOL     OW26248   4.203   3.086   2.744  0.1247 -0.2282  0.5067
 4930SOL    HW126249   4.132   3.025   2.764 -1.1166  1.7024  1.9879
 4930SOL    HW226250   4.183   3.120   2.657  1.9226  0.7636  0.4783
 4931SOL     OW26251   0.161   2.525  13.143 -0.5359  0.7072 -0.0679
 4931SOL    HW126252   0.092   2.582  13.177 -0.4462  0.1698  1.0156
 4931SOL    HW226253   0.238   2.554  13.192 -1.3126 -0.2314  1.7072
 4932SOL     OW26254   2.968   4.123   6.036 -0.3743  0.3276  0.1745
 4932SOL    HW126255   2.916   4.075   6.101  0.7831  0.8271  1.4773
 4932SOL    HW226256   3.049   4.071   6.039  0.3098  1.4084  0.1717
 4933SOL     OW26257   1.206   2.330   3.857  0.1442  0.3379  0.5613
 4933SOL    HW126258   1.224   2.295   3.770 -0.7289 -0.2169  0.6040
 4933SOL    HW226259   1.170   2.413   3.825  1.7396  1.4070  1.5258
 4934SOL     OW26260   1.449   3.781   7.092 -0.1680  0.8933 -0.0840
 4934SOL    HW126261   1.396   3.700   7.091 -1.3434  1.6665 -0.5518
 4934SOL    HW226262   1.535   3.743   7.073 -0.4120  1.7689 -2.9730
 4935SOL     OW26263   2.722   3.745  13.970  0.1074  0.6439  0.3051
 4935SOL    HW126264   2.670   3.740  13.890 -2.2117  1.7007  1.6996
 4935SOL    HW226265   2.801   3.784  13.934  1.3843 -1.6759  0.6093
 4936SOL     OW26266   3.865   1.979  15.911  0.5916 -0.1633 -0.4768
 4936SOL    HW126267   3.946   1.982  15.859  1.1357  0.5818  0.3982
 4936SOL    HW226268   3.803   1.978  15.839 -1.1841 -1.3735  1.0691
 4937SOL     OW26269   4.352   4.356   5.037 -0.7167  0.1757  0.1717
 4937SOL    HW126270   4.420   4.292   5.059 -1.1180  0.6702  2.8206
 4937SOL    HW226271   4.407   4.433   5.025  2.1204 -1.8556  0.1478
 4938SOL     OW26272   1.590   2.575   4.660  0.3333  1.1639  0.6662
 4938SOL    HW126273   1.527   2.565   4.732  1.4392  0.4781  1.5355
 4938SOL    HW226274   1.662   2.539   4.711  0.6717  0.5881 -0.2143
 4939SOL     OW26275   0.176   4.373   7.431  0.0122 -0.4075 -0.3406
 4939SOL    HW126276   0.207   4.460   7.455 -0.8348 -0.4776  1.0209
 4939SOL    HW226277   0.252   4.346   7.380  1.1132 -1.9257  2.0733
 4940SOL     OW26278   1.925   4.273   1.601  0.3651  0.2382  0.5233
 4940SOL    HW126279   1.856   4.339   1.609  2.7856  3.0671 -1.7648
 4940SOL    HW226280   2.002   4.329   1.615  0.2811  0.1618  1.2943
 4941SOL     OW26281   1.428   2.633  12.535 -0.3195 -0.4640 -0.2302
 4941SOL    HW126282   1.466   2.580  12.465  0.8191 -0.9326  0.7403
 4941SOL    HW226283   1.359   2.680  12.487 -0.2573 -1.3254 -1.1764
 4942SOL     OW26284   1.454   2.170   7.088 -0.1174 -0.0323  0.5024
 4942SOL    HW126285   1.496   2.240   7.038 -0.7723  0.4719  0.6562
 4942SOL    HW226286   1.395   2.132   7.023  1.8766 -3.2559  0.6121
 4943SOL     OW26287   1.972   2.411   3.190 -0.2022 -0.6201  0.4690
 4943SOL    HW126288   1.916   2.486   3.170  0.6807 -0.0887 -0.0515
 4943SOL    HW226289   2.041   2.420   3.124 -0.2617  0.1717  0.5214
 4944SOL     OW26290   3.907   0.003  15.258  0.5432  0.1806  0.0763
 4944SOL    HW126291   3.991   0.050  15.261 -0.7099  2.5483 -1.9567
 4944SOL    HW226292   3.884   4.714  15.350  0.3651  2.1302  0.3477
 4945SOL     OW26293   2.531   3.982   7.594  0.4158 -0.3130  0.5767
 4945SOL    HW126294   2.445   4.024   7.590  0.9219  0.7772  1.0321
 4945SOL    HW226295   2.587   4.060   7.588  2.8111 -2.1813 -1.2677
 4946SOL     OW26296   1.924   2.948   7.451 -0.3590 -0.3083 -0.3104
 4946SOL    HW126297   1.886   3.023   7.497  1.3978  2.5355 -3.5045
 4946SOL    HW226298   1.969   2.996   7.382 -2.4054  0.3381 -1.1835
 4947SOL     OW26299   0.493   4.127   6.659 -0.1718 -0.1762 -0.1796
 4947SOL    HW126300   0.567   4.131   6.599 -0.4878  0.4524 -0.5205
 4947SOL    HW226301   0.537   4.096   6.739 -2.2815 -0.2380  0.9756
 4948SOL     OW26302   2.465   3.646   2.393 -0.9040  0.3243  0.6809
 4948SOL    HW126303   2.392   3.700   2.422 -1.0980 -1.2632  3.1776
 4948SOL    HW226304   2.538   3.706   2.413 -0.8113  1.0555 -1.9156
 4949SOL     OW26305   1.083   4.259   2.848  0.3745  0.2326  0.7449
 4949SOL    HW126306   1.076   4.167   2.822 -0.5236  0.7877 -0.9637
 4949SOL    HW226307   1.047   4.291   2.766  0.1546 -2.2986 -0.1677
 4950SOL     OW26308   0.002   2.571   1.625  0.2609  0.3189 -0.4186
 4950SOL    HW126309   4.677   2.650   1.606  0.8682  0.9471  0.6120
 4950SOL    HW226310   0.067   2.609   1.684  1.9407 -0.7763 -1.5575
 4951SOL     OW26311   4.616   2.256  14.985  0.7641 -0.4759 -0.1943
 4951SOL    HW126312   4.561   2.319  14.939  0.3213 -1.2556 -0.7185
 4951SOL    HW226313   4.612   2.179  14.929  0.4914 -0.4015 -0.2755
 4952SOL     OW26314   3.238   4.360   6.346  0.0529  0.4855 -0.1312
 4952SOL    HW126315   3.161   4.401   6.384  0.2613  1.3112 -0.6065
 4952SOL    HW226316   3.251   4.268   6.369 -1.0910  0.4406  0.3294
 4953SOL     OW26317   1.842   0.564  12.137  0.0450  0.0534  0.2642
 4953SOL    HW126318   1.860   0.649  12.179 -2.3885  0.1899  0.9961
 4953SOL    HW226319   1.784   0.519  12.198 -1.0370 -0.8410 -1.4431
 4954SOL     OW26320   1.377   1.458   3.050 -0.6310  0.7051 -0.7532
 4954SOL    HW126321   1.440   1.471   3.121 -1.2794 -1.7240  0.2766
 4954SOL    HW226322   1.298   1.445   3.103  0.1849 -1.3160 -0.0291
 4955SOL     OW26323   1.594   2.327   6.138 -0.7461  0.3288  0.0474
 4955SOL    HW126324   1.622   2.252   6.190 -0.4373 -0.3259 -1.0604
 4955SOL    HW226325   1.593   2.295   6.048  1.8857 -1.1895  0.5726
 4956SOL     OW26326   4.548   0.406   4.596  0.0966 -0.0936  0.1147
 4956SOL    HW126327   4.469   0.403   4.650  0.1716 -1.8174  0.1313
 4956SOL    HW226328   4.589   0.485   4.632  1.3854  0.2862 -2.2216
 4957SOL     OW26329   0.532   2.542   8.180  0.3018  0.0092 -0.1737
 4957SOL    HW126330   0.596   2.612   8.195  1.1132 -0.6659 -0.4954
 4957SOL    HW226331   0.577   2.508   8.102 -0.4226  1.8799 -1.4296
 4958SOL     OW26332   4.600   1.942   3.045 -0.5560  0.3182 -0.1766
 4958SOL    HW126333   4.645   1.894   2.976 -1.0674  0.6986 -0.7679
 4958SOL    HW226334   4.540   1.985   2.984  3.4758  2.2898 -2.7209
 4959SOL     OW26335   2.939   0.672   9.290 -0.0853  0.5777  0.2643
 4959SOL    HW126336   2.956   0.762   9.263 -0.5574 -0.4063 -3.3558
 4959SOL    HW226337   3.029   0.650   9.313 -0.3265  0.2397  0.8784
 4960SOL     OW26338   3.177   0.305  15.287 -0.5381 -0.9350  0.0809
 4960SOL    HW126339   3.115   0.255  15.234 -1.8891 -1.2444  1.9516
 4960SOL    HW226340   3.128   0.321  15.368  0.8120 -0.4827  0.7964
 4961SOL     OW26341   2.510   1.860  13.756  0.9269 -0.2829  0.2263
 4961SOL    HW126342   2.513   1.882  13.849  3.6722  1.2372 -0.2228
 4961SOL    HW226343   2.493   1.766  13.749 -1.6311  0.3122 -1.4082
 4962SOL     OW26344   1.880   0.179   5.091  0.0207  0.1474 -0.9604
 4962SOL    HW126345   1.932   0.101   5.072 -0.5805 -0.1700 -1.3065
 4962SOL    HW226346   1.833   0.182   5.007  2.0690  0.7010 -2.0994
 4963SOL     OW26347   1.037   1.889  17.292  0.6022 -0.0994 -0.5354
 4963SOL    HW126348   1.109   1.840  17.251  1.0742 -0.4293  0.6819
 4963SOL    HW226349   0.969   1.835  17.252 -1.6021  1.7780  0.6541
 4964SOL     OW26350   3.829   4.194  15.057 -0.6253 -0.1128  0.5622
 4964SOL    HW126351   3.785   4.166  14.977  0.1413  1.7522 -0.5198
 4964SOL    HW226352   3.876   4.112  15.067 -0.4769  0.0123  0.8922
 4965SOL     OW26353   1.565   2.315   7.458 -0.5012  0.3820  0.3456
 4965SOL    HW126354   1.593   2.297   7.368 -1.8171 -2.3085  0.4734
 4965SOL    HW226355   1.598   2.238   7.503  2.0426  1.4127  0.2726
 4966SOL     OW26356   1.967   4.639   7.965 -0.0036  0.3688  0.1495
 4966SOL    HW126357   1.903   4.569   7.950 -0.0680  0.2926  0.7928
 4966SOL    HW226358   1.989   4.619   8.056  1.2581 -1.2261 -0.5059
 4967SOL     OW26359   2.662   3.920  15.066 -0.0211 -0.1731  0.1590
 4967SOL    HW126360   2.701   3.921  14.979 -0.3592 -0.9171  0.0034
 4967SOL    HW226361   2.740   3.888  15.112 -0.0896  0.2197  0.5452
 4968SOL     OW26362   4.091   3.139   6.975  0.4785  0.3648 -0.3068
 4968SOL    HW126363   4.161   3.103   6.920  0.0848  0.6640 -1.0027
 4968SOL    HW226364   4.142   3.201   7.027  1.1645 -0.0310 -0.5080
 4969SOL     OW26365   3.678   4.642  16.658  0.4123  0.0909 -0.4736
 4969SOL    HW126366   3.684   4.685  16.743  1.8349  0.2356 -0.6428
 4969SOL    HW226367   3.760   4.594  16.645  0.0722 -0.4732 -0.5211
 4970SOL     OW26368   1.345   3.429   8.028 -0.0171  0.5644  0.2844
 4970SOL    HW126369   1.411   3.461   8.089  1.4388 -0.3042 -0.8220
 4970SOL    HW226370   1.297   3.512   8.024 -0.0686  0.6740  3.5185
 4971SOL     OW26371   2.707   0.155   2.400  0.0596  0.0358  0.2663
 4971SOL    HW126372   2.729   0.206   2.478 -0.4179  1.0185 -0.2385
 4971SOL    HW226373   2.717   0.221   2.331 -1.8114 -0.7088 -0.6927
 4972SOL     OW26374   0.925   4.562   3.771  0.0263 -0.3126 -0.9595
 4972SOL    HW126375   0.894   4.643   3.729  0.0394  0.0171 -0.3279
 4972SOL    HW226376   0.849   4.506   3.757  1.3656 -2.4218  0.2708
 4973SOL     OW26377   0.061   2.706   5.545 -0.2551  0.3176  0.6273
 4973SOL    HW126378   4.715   2.654   5.581 -1.0524  0.0687 -1.3608
 4973SOL    HW226379   0.008   2.782   5.524  0.5217  0.4305 -0.8953
 4974SOL     OW26380   3.536   3.862   9.370 -0.1232 -0.2694 -0.1729
 4974SOL    HW126381   3.571   3.951   9.375 -2.8329  0.7336  0.5422
 4974SOL    HW226382   3.613   3.807   9.357  0.6975  0.3276  2.1596
 4975SOL     OW26383   2.678   0.359   7.038  0.0526 -0.0760  0.4516
 4975SOL    HW126384   2.760   0.390   7.076  0.9931 -1.2972 -0.5694
 4975SOL    HW226385   2.682   0.264   7.052  1.6175 -0.0279  0.2825
 4976SOL     OW26386   0.118   1.329   2.740 -0.2723  0.1027 -0.2495
 4976SOL    HW126387   0.096   1.258   2.679  2.4713 -1.3068  0.4010
 4976SOL    HW226388   0.201   1.305   2.782 -0.0620  0.4966 -0.4441
 4977SOL     OW26389   3.692   3.344   6.949  0.2542  0.5862 -0.1405
 4977SOL    HW126390   3.659   3.317   6.863  0.5153 -0.1322 -0.0152
 4977SOL    HW226391   3.705   3.257   6.986 -0.5985  0.1122 -0.9332
 4978SOL     OW26392   0.364   2.409  16.238  0.0162 -0.2964 -0.2308
 4978SOL    HW126393   0.301   2.478  16.217  0.5512 -0.2263 -1.6125
 4978SOL    HW226394   0.380   2.426  16.331  0.1613 -1.6101 -0.0130
 4979SOL     OW26395   2.123   3.186   2.262  0.2545 -0.1605  0.1063
 4979SOL    HW126396   2.136   3.270   2.305  1.8799 -0.2015 -0.3077
 4979SOL    HW226397   2.204   3.189   2.212  0.4123  1.8700  0.4872
 4980SOL     OW26398   0.107   0.067   7.880  0.2953  0.4490  0.0465
 4980SOL    HW126399   0.201   0.062   7.865  0.2740 -0.2109  0.1457
 4980SOL    HW226400   0.099   0.161   7.892  2.1534  0.5953  0.1406
 4981SOL     OW26401   2.456   4.314   2.932 -0.4834  0.4899  0.2619
 4981SOL    HW126402   2.429   4.229   2.896  1.7522  0.0754 -0.4317
 4981SOL    HW226403   2.551   4.300   2.935 -0.6811 -0.8580  0.3244
 4982SOL     OW26404   1.946   2.934  13.770 -0.0295 -0.2353 -0.3969
 4982SOL    HW126405   1.877   2.880  13.810  1.6410 -2.9360 -1.1196
 4982SOL    HW226406   1.947   2.909  13.678  1.7121  0.4463 -0.5454
 4983SOL     OW26407   3.775   0.206   3.640  0.1449 -0.2976  0.4081
 4983SOL    HW126408   3.833   0.179   3.569  1.0952  0.1977  0.9934
 4983SOL    HW226409   3.783   0.141   3.710  0.7157 -1.3514 -0.6430
 4984SOL     OW26410   3.748   3.057   4.834 -0.3985 -0.1634  0.0027
 4984SOL    HW126411   3.711   2.972   4.858 -2.7539  0.8314 -0.1127
 4984SOL    HW226412   3.784   3.097   4.914  0.6326  0.0864 -0.5916
 4985SOL     OW26413   2.916   4.324   8.265  0.0880  0.2589 -0.3118
 4985SOL    HW126414   2.885   4.246   8.219 -2.9639  2.4527 -1.9641
 4985SOL    HW226415   2.992   4.296   8.317 -0.2760 -1.5773 -0.7758
 4986SOL     OW26416   0.256   2.279   8.611 -0.3216  0.3633 -0.0868
 4986SOL    HW126417   0.177   2.228   8.595 -1.2976  1.5942  0.8499
 4986SOL    HW226418   0.225   2.342   8.675  1.8367  0.5376  0.8106
 4987SOL     OW26419   2.760   0.483   9.198 -0.3977 -0.4397  0.0077
 4987SOL    HW126420   2.757   0.416   9.265 -0.0342  0.3482  0.8122
 4987SOL    HW226421   2.833   0.537   9.228 -0.4681 -0.2000 -0.2478
 4988SOL     OW26422   4.210   1.293  12.279  0.9270  0.8572 -0.1418
 4988SOL    HW126423   4.117   1.314  12.266  0.3739 -1.1761  0.6222
 4988SOL    HW226424   4.246   1.378  12.304  3.1016  0.0368 -0.5527
 4989SOL     OW26425   2.103   3.961   6.957 -0.3532  0.1969  0.3755
 4989SOL    HW126426   2.175   4.011   6.917 -0.1361 -0.1829  0.2915
 4989SOL    HW226427   2.124   3.949   7.049  0.2903 -0.3178  0.1584
 4990SOL     OW26428   1.369   3.296  12.028 -0.3851 -0.6742  0.4548
 4990SOL    HW126429   1.415   3.229  11.977  1.9588  0.8032  0.6167
 4990SOL    HW226430   1.375   3.377  11.977  1.5034 -1.9477 -1.3655
 4991SOL     OW26431   3.727   0.718   8.162  0.0120 -0.6133 -0.1233
 4991SOL    HW126432   3.733   0.745   8.070 -2.6535  1.3625  0.2901
 4991SOL    HW226433   3.820   0.705   8.181  0.4508  2.0914 -0.3745
 4992SOL     OW26434   3.958   0.512   5.440  0.1448  1.0334 -0.3599
 4992SOL    HW126435   3.913   0.508   5.355 -0.9426  1.4002  0.2044
 4992SOL    HW226436   4.033   0.455   5.423 -0.1820  0.2301  0.9633
 4993SOL     OW26437   3.401   2.661   5.882 -0.2132 -0.0339  0.1349
 4993SOL    HW126438   3.458   2.590   5.853  2.0737  1.1800  1.6491
 4993SOL    HW226439   3.342   2.606   5.934 -1.0611  0.4748 -0.2991
 4994SOL     OW26440   3.721   0.025   2.409  0.2766 -0.0296 -0.4028
 4994SOL    HW126441   3.808   0.057   2.385  0.4612 -0.2409 -0.0202
 4994SOL    HW226442   3.677   0.097   2.365  1.8398  0.4978 -1.1022
 4995SOL     OW26443   3.905   3.551  17.088  0.2461 -0.0127 -0.1056
 4995SOL    HW126444   3.932   3.570  17.178 -2.9919 -1.2767  1.1339
 4995SOL    HW226445   3.881   3.640  17.063  0.6651 -0.4396 -2.0875
 4996SOL     OW26446   1.036   1.292   7.280  0.1298  0.2879  0.1673
 4996SOL    HW126447   1.052   1.354   7.208 -0.1644 -0.8374 -0.8646
 4996SOL    HW226448   1.036   1.207   7.236  0.8758 -0.9504  2.5879
 4997SOL     OW26449   0.912   0.870   9.985  0.0608  0.4524 -0.3797
 4997SOL    HW126450   0.991   0.835   9.943  0.1998  1.7778 -1.2254
 4997SOL    HW226451   0.851   0.860   9.913  1.4313  1.8914 -1.7526
 4998SOL     OW26452   3.674   1.527   2.367  0.2503 -0.4591  0.1297
 4998SOL    HW126453   3.752   1.569   2.403 -0.3687  0.9385 -0.1549
 4998SOL    HW226454   3.603   1.590   2.385  0.3024 -0.6077  0.8628
 4999SOL     OW26455   3.904   3.548   4.667  0.0671 -0.6909 -0.0486
 4999SOL    HW126456   3.934   3.466   4.628 -0.7581 -2.2897  2.6984
 4999SOL    HW226457   3.977   3.567   4.726  0.6655 -1.4852 -0.5340
 5000SOL     OW26458   1.125   1.131  15.904  0.0540  0.0007 -0.0851
 5000SOL    HW126459   1.111   1.096  15.816 -1.2053 -0.2506  0.2251
 5000SOL    HW226460   1.033   1.147  15.923 -0.1226 -1.4465  0.2422
 5001SOL     OW26461   2.544   3.222  12.246 -0.0587 -0.5876  0.6780
 5001SOL    HW126462   2.537   3.242  12.153  2.5755 -0.5643  0.4835
 5001SOL    HW226463   2.605   3.148  12.242 -0.4980 -1.0318  2.0068
 5002SOL     OW26464   1.715   1.921   7.409 -0.5753 -0.6418  0.0140
 5002SOL    HW126465   1.796   1.887   7.373  0.5503 -0.9506  2.8559
 5002SOL    HW226466   1.660   1.931   7.331  0.9335 -0.6307 -1.0441
 5003SOL     OW26467   0.535   2.387   5.005  0.3870 -0.6040  0.1243
 5003SOL    HW126468   0.619   2.342   5.000  0.0699 -1.3196  1.3951
 5003SOL    HW226469   0.480   2.332   5.060  0.6869 -0.5395  0.4844
 5004SOL     OW26470   4.619   4.546   7.492 -0.4326 -0.1191  0.4701
 5004SOL    HW126471   4.592   4.542   7.584 -1.2176  0.6189  0.2745
 5004SOL    HW226472   4.705   4.585   7.508 -0.8205  0.2980  1.5603
 5005SOL     OW26473   1.011   1.420   2.450 -0.0295  0.2591 -0.6741
 5005SOL    HW126474   1.061   1.497   2.422 -0.6929  0.9845  0.1632
 5005SOL    HW226475   0.997   1.454   2.538  0.0307  0.1587 -0.6256
 5006SOL     OW26476   1.633   4.657  11.026 -0.7207  0.6507 -0.2927
 5006SOL    HW126477   1.596   4.570  11.042 -0.5063  0.8513  1.3055
 5006SOL    HW226478   1.719   4.633  11.060 -0.5746  1.2138 -0.2799
 5007SOL     OW26479   3.314   3.713   6.438 -0.2878 -0.2569 -0.3702
 5007SOL    HW126480   3.259   3.637   6.418  0.2361 -0.8084  0.2936
 5007SOL    HW226481   3.380   3.692   6.373 -0.1891 -1.2839  0.0520
 5008SOL     OW26482   0.091   0.450   3.546 -0.6570 -0.0650  0.1632
 5008SOL    HW126483   0.142   0.507   3.605 -2.4246  0.1371  1.5028
 5008SOL    HW226484   0.014   0.430   3.598 -2.2936 -0.3585 -2.4120
 5009SOL     OW26485   0.361   0.986  11.465  0.2609  0.0057 -0.0797
 5009SOL    HW126486   0.425   1.045  11.426 -0.2071  0.1361 -0.6494
 5009SOL    HW226487   0.394   0.982  11.555  1.5266  2.0766 -0.4638
 5010SOL     OW26488   2.095   2.420   6.278  0.4595  0.0665  0.2719
 5010SOL    HW126489   2.040   2.431   6.200  1.1924 -2.3111 -0.5734
 5010SOL    HW226490   2.180   2.388   6.248  0.2223  0.2658 -0.6113
 5011SOL     OW26491   3.292   1.611  13.211  0.0491  0.9031 -0.7638
 5011SOL    HW126492   3.343   1.635  13.133  2.8116  0.5129  0.9142
 5011SOL    HW226493   3.252   1.693  13.239 -0.3128  0.2001  0.7466
 5012SOL     OW26494   2.808   2.444   8.477  0.3153  0.0045 -0.1653
 5012SOL    HW126495   2.770   2.460   8.391  1.7892  1.4492 -0.5456
 5012SOL    HW226496   2.840   2.530   8.504 -1.1503  1.6633 -3.7073
 5013SOL     OW26497   2.531   3.541  14.512 -0.2214 -0.1574  0.4864
 5013SOL    HW126498   2.534   3.626  14.555  3.1370 -0.3942  0.6784
 5013SOL    HW226499   2.448   3.544  14.464 -0.5344  3.2590  1.2520
 5014SOL     OW26500   2.103   0.940   3.058  0.5459 -0.3404 -0.3345
 5014SOL    HW126501   2.129   0.862   3.009  0.7429 -1.1853  1.1013
 5014SOL    HW226502   2.189   0.982   3.068 -0.6365  2.0530 -0.3332
 5015SOL     OW26503   2.094   1.278   5.370 -0.4219 -0.4492  0.4995
 5015SOL    HW126504   2.098   1.192   5.328 -1.2637  1.2314 -3.1011
 5015SOL    HW226505   2.001   1.282   5.392 -0.5979  0.9222 -0.4624
 5016SOL     OW26506   2.917   2.643   6.477 -0.1993  0.3511  0.0563
 5016SOL    HW126507   2.879   2.718   6.523  1.0756  0.9104  0.1765
 5016SOL    HW226508   2.985   2.620   6.540  1.2940  0.1429 -1.6335
 5017SOL     OW26509   1.392   1.445   9.196  0.1361 -0.2535  0.3351
 5017SOL    HW126510   1.485   1.434   9.217  0.5192  1.2314 -0.5859
 5017SOL    HW226511   1.367   1.417   9.284 -0.1722 -1.4941 -0.1490
 5018SOL     OW26512   1.187   2.923   6.635 -0.4391 -0.5843  0.3396
 5018SOL    HW126513   1.162   2.841   6.593  0.6396  0.2234 -1.9245
 5018SOL    HW226514   1.146   2.917   6.721  3.0836 -1.0253  1.9665
 5019SOL     OW26515   1.710   3.561   6.402  0.0055 -0.1149 -0.0604
 5019SOL    HW126516   1.642   3.625   6.424 -0.6333 -0.7656 -0.1415
 5019SOL    HW226517   1.732   3.591   6.314 -0.4613 -0.6407 -0.3473
 5020SOL     OW26518   2.938   2.725   6.203 -0.1367 -0.3604 -0.3994
 5020SOL    HW126519   2.970   2.812   6.177  0.0360  0.3555  2.1737
 5020SOL    HW226520   2.937   2.734   6.298 -0.8052  2.7257 -0.6908
 5021SOL     OW26521   0.004   3.824   7.687 -0.4178 -0.6435  0.2547
 5021SOL    HW126522   4.699   3.860   7.604 -0.8559  2.4868  1.7663
 5021SOL    HW226523   4.677   3.875   7.749 -1.4002  0.1208 -1.2027
 5022SOL     OW26524   0.653   2.318   2.028 -0.0130  0.2908 -0.3885
 5022SOL    HW126525   0.689   2.255   1.965 -0.9074 -0.6244  0.0175
 5022SOL    HW226526   0.562   2.337   2.005 -0.6028 -1.3937  0.5314
 5023SOL     OW26527   2.349   0.320   6.006 -0.3519  0.1563 -0.1397
 5023SOL    HW126528   2.424   0.260   5.998 -0.5521  0.1148 -1.7142
 5023SOL    HW226529   2.286   0.257   6.041  1.5679 -1.3851  0.5519
 5024SOL     OW26530   0.728   4.111   6.795  0.4740 -0.0871 -0.0553
 5024SOL    HW126531   0.683   4.138   6.875 -0.2812 -2.2198  0.2360
 5024SOL    HW226532   0.778   4.041   6.835 -1.3276 -0.5037  1.5042
 5025SOL     OW26533   0.956   0.747   8.554  0.5740 -0.2451 -0.0872
 5025SOL    HW126534   0.980   0.833   8.587  0.2640 -1.2571  2.7970
 5025SOL    HW226535   0.926   0.766   8.465 -0.1709  1.5770  0.5526
 5026SOL     OW26536   0.151   1.987   5.607 -0.7129  0.4452 -0.8148
 5026SOL    HW126537   0.144   1.896   5.580  1.0339 -0.1188  0.5988
 5026SOL    HW226538   0.095   1.990   5.685  1.1027 -0.9733  0.5458
 5027SOL     OW26539   0.563   2.591   4.468  0.2202 -0.0422  0.0845
 5027SOL    HW126540   0.606   2.578   4.553 -0.9896 -0.1096  0.6864
 5027SOL    HW226541   0.550   2.686   4.462 -0.3468 -0.1281 -0.0419
 5028SOL     OW26542   2.844   1.282   3.208  0.0507  0.0636 -0.1129
 5028SOL    HW126543   2.807   1.318   3.288 -2.0456 -1.7632 -0.2682
 5028SOL    HW226544   2.817   1.352   3.149  0.7846  1.3681  1.1213
 5029SOL     OW26545   3.668   0.687   9.760 -0.1050  0.1597  0.0538
 5029SOL    HW126546   3.585   0.668   9.805  0.3746 -0.7548  0.5590
 5029SOL    HW226547   3.694   0.599   9.733 -0.4223 -0.6852  2.4349
 5030SOL     OW26548   3.452   0.140   8.119 -0.1944 -0.5343 -0.2327
 5030SOL    HW126549   3.387   0.080   8.084 -1.7878  1.6453 -0.9792
 5030SOL    HW226550   3.446   0.116   8.211 -1.7080  1.4743  0.2009
 5031SOL     OW26551   3.884   2.595   0.847  0.7819 -0.7708 -0.2920
 5031SOL    HW126552   3.957   2.604   0.908  0.3030  0.6588  0.0649
 5031SOL    HW226553   3.917   2.631   0.765  1.8157 -1.1254 -0.0291
 5032SOL     OW26554   3.756   2.476   2.974  0.2079  0.4697 -0.2488
 5032SOL    HW126555   3.718   2.422   3.043 -0.9940  0.7134 -0.7250
 5032SOL    HW226556   3.843   2.437   2.965  0.2071  0.8095 -1.6842
 5033SOL     OW26557   0.595   1.083   4.185 -0.0813 -0.5669  0.1950
 5033SOL    HW126558   0.504   1.058   4.201 -0.2543  0.8031  1.3434
 5033SOL    HW226559   0.570   1.168   4.150  1.7222  0.5154  1.5632
 5034SOL     OW26560   4.106   1.889   8.671  0.8716  0.2988  0.5039
 5034SOL    HW126561   4.115   1.815   8.731 -2.7286 -1.1924 -0.7151
 5034SOL    HW226562   4.177   1.876   8.608 -0.3917  0.9225 -1.0442
 5035SOL     OW26563   4.422   0.174   3.246 -0.0336 -0.3064  0.0087
 5035SOL    HW126564   4.373   0.237   3.299 -0.9943 -0.2925 -0.8939
 5035SOL    HW226565   4.409   0.205   3.156 -0.3092  0.6208  0.3668
 5036SOL     OW26566   4.202   4.024   2.105 -0.3053  0.0361  0.3913
 5036SOL    HW126567   4.204   3.939   2.150 -0.4063 -0.8462 -1.2777
 5036SOL    HW226568   4.120   4.030   2.057 -0.4646  0.3060  0.6957
 5037SOL     OW26569   4.494   1.491   7.883 -0.0802  0.1154  0.3765
 5037SOL    HW126570   4.455   1.470   7.799 -2.3494 -1.0845  1.7148
 5037SOL    HW226571   4.454   1.577   7.894 -0.2823  0.2173 -1.2505
 5038SOL     OW26572   3.877   3.591  10.233  0.3362  0.4300  0.2418
 5038SOL    HW126573   3.879   3.643  10.314 -0.3827  2.1540 -0.8580
 5038SOL    HW226574   3.972   3.582  10.227  0.0671 -1.5886 -0.8165
 5039SOL     OW26575   1.474   1.675   8.797 -0.1321 -0.3050 -0.1353
 5039SOL    HW126576   1.484   1.767   8.775 -2.0783 -0.3736 -1.3051
 5039SOL    HW226577   1.461   1.684   8.892  0.3354 -1.4784  0.0435
 5040SOL     OW26578   3.086   4.468  13.721  0.4903  0.2334  0.2435
 5040SOL    HW126579   3.008   4.525  13.720 -0.6151 -1.2838 -0.5775
 5040SOL    HW226580   3.063   4.413  13.795  1.2484  0.1181  0.3868
 5041SOL     OW26581   0.176   1.064   3.004  0.2320  0.5478  0.4870
 5041SOL    HW126582   0.120   0.990   3.028 -2.1862  1.8646 -1.1325
 5041SOL    HW226583   0.251   1.032   2.953 -1.8366 -1.5177 -1.2213
 5042SOL     OW26584   1.443   3.657   9.880  0.0084 -0.0209 -0.5680
 5042SOL    HW126585   1.494   3.603   9.820 -0.6792 -0.1195 -1.0590
 5042SOL    HW226586   1.370   3.595   9.880 -0.4210  0.4830  0.8413
 5043SOL     OW26587   2.898   1.527   8.185  0.2188 -0.0394 -0.1946
 5043SOL    HW126588   2.860   1.497   8.103 -0.5744  0.5335 -0.0313
 5043SOL    HW226589   2.991   1.514   8.165  0.1592 -0.8673  0.0816
 5044SOL     OW26590   0.938   4.133  15.504 -0.1951 -0.0820  0.4763
 5044SOL    HW126591   0.851   4.099  15.523  0.4833 -1.1026  1.7016
 5044SOL    HW226592   0.922   4.227  15.492  3.0748  0.4334 -0.0459
 5045SOL     OW26593   0.723   4.030   7.988 -0.2484 -0.1546 -0.4817
 5045SOL    HW126594   0.730   4.006   7.895 -0.9448  2.5715 -1.2407
 5045SOL    HW226595   0.630   4.045   8.005 -0.9687 -1.7943 -2.9510
 5046SOL     OW26596   3.489   0.249   3.660 -0.5288 -0.1700  0.2031
 5046SOL    HW126597   3.466   0.227   3.570  0.4102  0.9615 -0.3213
 5046SOL    HW226598   3.584   0.258   3.664 -0.5458  0.3900 -0.6752
 5047SOL     OW26599   2.859   4.410   8.863  0.1257  0.2223  0.0594
 5047SOL    HW126600   2.766   4.406   8.882  0.3471 -3.0201  0.3488
 5047SOL    HW226601   2.859   4.435   8.770 -1.1488 -1.4509 -0.3828
 5048SOL     OW26602   4.622   1.001  13.717  0.1559 -0.2643 -0.2688
 5048SOL    HW126603   4.655   1.081  13.676 -1.7328  0.3038 -0.6704
 5048SOL    HW226604   4.687   0.941  13.681  0.5064 -0.3817  0.5499
 5049SOL     OW26605   3.787   2.305  12.562 -0.3009 -0.2521  0.2207
 5049SOL    HW126606   3.737   2.335  12.486 -1.7403  1.6918  1.9449
 5049SOL    HW226607   3.875   2.341  12.553 -0.4025 -0.2071 -0.5989
 5050SOL     OW26608   3.782   2.040   0.025 -0.6900 -0.0871 -0.1532
 5050SOL    HW126609   3.769   1.955   0.067 -2.3257  0.0177 -0.4359
 5050SOL    HW226610   3.700   2.081   0.053  0.2057  2.2631 -0.9940
 5051SOL     OW26611   2.329   4.262   8.924 -0.7285 -0.0288 -0.3607
 5051SOL    HW126612   2.371   4.177   8.910  1.3355  0.7875  0.8293
 5051SOL    HW226613   2.240   4.236   8.899  0.7664 -2.6227 -3.0261
 5052SOL     OW26614   0.528   3.429   2.012  0.0411 -0.9240 -0.0898
 5052SOL    HW126615   0.587   3.455   1.941 -1.2175 -0.1120 -0.8408
 5052SOL    HW226616   0.487   3.514   2.025  0.8890 -0.5635  0.2417
 5053SOL     OW26617   4.622   3.203  14.146 -0.4329 -0.8506 -0.1882
 5053SOL    HW126618   4.527   3.202  14.152 -0.3084  0.0809  1.7491
 5053SOL    HW226619   4.623   3.291  14.185  1.6151 -1.6969  1.6376
 5054SOL     OW26620   3.861   1.802   6.693 -0.4602 -0.1302 -0.0239
 5054SOL    HW126621   3.821   1.794   6.780 -0.3046 -3.6451 -0.2620
 5054SOL    HW226622   3.863   1.894   6.670 -1.8390  0.0329  0.4911
 5055SOL     OW26623   2.712   1.415   0.852  0.0087 -0.3239  0.3387
 5055SOL    HW126624   2.692   1.321   0.845 -1.5436  0.0473 -0.2838
 5055SOL    HW226625   2.803   1.417   0.879  0.3488 -0.1134 -0.8253
 5056SOL     OW26626   2.628   3.781   7.393 -0.4316  0.2690 -0.8968
 5056SOL    HW126627   2.574   3.830   7.456  2.9473 -0.9007  2.8860
 5056SOL    HW226628   2.593   3.692   7.400  1.3630 -0.4714 -1.4402
 5057SOL     OW26629   2.041   0.800  16.396  0.2655  0.2959 -0.6722
 5057SOL    HW126630   2.081   0.859  16.332 -0.4315  1.3731 -0.1218
 5057SOL    HW226631   2.110   0.808  16.461  0.1271 -0.0428 -0.4894
 5058SOL     OW26632   0.636   4.048   5.326 -0.3033 -0.7031  0.0809
 5058SOL    HW126633   0.626   4.061   5.420  0.5575 -0.4462  0.1353
 5058SOL    HW226634   0.646   4.137   5.294  0.1825 -0.6616  0.3615
 5059SOL     OW26635   3.809   3.819  15.871 -0.5006 -0.2460  0.3943
 5059SOL    HW126636   3.809   3.896  15.928 -0.9303  0.1414 -0.1202
 5059SOL    HW226637   3.776   3.741  15.915 -0.1262 -0.3347  0.5148
 5060SOL     OW26638   4.125   3.938  12.258  0.7025 -0.3031  0.4982
 5060SOL    HW126639   4.187   3.961  12.326  0.1233 -0.9143  1.2340
 5060SOL    HW226640   4.109   4.017  12.206 -1.4091 -0.9482  0.1360
 5061SOL     OW26641   1.159   3.579   6.657  0.5748  0.4436  0.4308
 5061SOL    HW126642   1.131   3.576   6.565 -0.6198  0.1645  0.8144
 5061SOL    HW226643   1.185   3.487   6.668 -0.8935 -0.1361 -1.0506
 5062SOL     OW26644   4.253   2.488  15.886  0.0071 -0.2593  0.2711
 5062SOL    HW126645   4.348   2.484  15.884  0.0682  1.6465 -0.0367
 5062SOL    HW226646   4.226   2.496  15.795 -1.4210  1.0252  0.8107
 5063SOL     OW26647   0.174   3.947   1.383 -0.1652  0.5654  0.1647
 5063SOL    HW126648   0.208   3.883   1.446  1.3725  2.6148  1.3891
 5063SOL    HW226649   0.230   3.937   1.307  0.3718  0.8793  0.5190
 5064SOL     OW26650   4.185   4.700  10.064 -0.3104 -0.2144  0.1738
 5064SOL    HW126651   4.277   4.713  10.043 -0.1535 -1.0386  0.3564
 5064SOL    HW226652   4.178   4.636  10.135 -0.2589  0.3877  0.7196
 5065SOL     OW26653   0.695   0.738   8.617 -0.2678 -0.0376  0.2809
 5065SOL    HW126654   0.618   0.693   8.651  1.0362 -1.2847  1.5701
 5065SOL    HW226655   0.754   0.667   8.591  0.6883  1.5728 -1.8931
 5066SOL     OW26656   2.462   0.060  16.930  0.5536  0.1411  0.9794
 5066SOL    HW126657   2.548   0.064  16.889  0.3818 -0.9414  0.5104
 5066SOL    HW226658   2.397   0.078  16.862  0.1232 -1.4574  0.9742
 5067SOL     OW26659   1.138   2.069   3.501 -0.3846  0.1392 -0.7874
 5067SOL    HW126660   1.154   1.986   3.457 -0.1441 -0.2826  0.1100
 5067SOL    HW226661   1.090   2.121   3.436  0.6139  1.0350 -0.8089
 5068SOL     OW26662   2.884   2.151   2.180 -0.2597  0.3705 -0.0389
 5068SOL    HW126663   2.852   2.065   2.155 -1.1470  0.4806  0.7348
 5068SOL    HW226664   2.964   2.139   2.128  0.9199  0.9517  1.6422
 5069SOL     OW26665   1.326   2.898  16.064  0.2122 -0.2451 -0.3310
 5069SOL    HW126666   1.267   2.925  15.994 -1.2807  1.4233  1.5459
 5069SOL    HW226667   1.404   2.899  16.009  2.5215  2.7059  2.9704
 5070SOL     OW26668   1.836   1.022   8.528 -0.2795 -0.0809 -0.2461
 5070SOL    HW126669   1.776   0.955   8.496 -0.5579  1.1095 -2.1866
 5070SOL    HW226670   1.848   0.997   8.620  1.2345  1.0907 -0.1192
 5071SOL     OW26671   3.700   4.124   7.670 -0.3640 -0.2377  0.2741
 5071SOL    HW126672   3.731   4.164   7.751 -0.5567 -1.3875  0.9152
 5071SOL    HW226673   3.716   4.193   7.606 -2.7819  1.3538  1.3891
 5072SOL     OW26674   3.555   0.486   7.242  0.0754 -0.3664 -0.1869
 5072SOL    HW126675   3.475   0.435   7.236 -0.1983  0.2817 -2.1846
 5072SOL    HW226676   3.553   0.534   7.159  1.8803 -0.0278 -0.0547
 5073SOL     OW26677   2.185   4.085   0.734  0.0480  0.3023 -0.2323
 5073SOL    HW126678   2.114   4.064   0.796 -1.5606  0.9582 -1.8585
 5073SOL    HW226679   2.145   4.140   0.667 -0.0614 -0.4190 -0.7631
 5074SOL     OW26680   1.856   2.726   2.796  0.5751 -0.0313 -0.0329
 5074SOL    HW126681   1.908   2.804   2.775 -2.3373  1.7796 -0.5780
 5074SOL    HW226682   1.880   2.668   2.724 -0.1302 -1.0634  0.5669
 5075SOL     OW26683   0.246   1.716   1.232  0.3129  0.0264  0.1688
 5075SOL    HW126684   0.234   1.632   1.276  2.3568  0.0841  0.8060
 5075SOL    HW226685   0.155   1.746   1.235  0.5745  0.8740 -0.2041
 5076SOL     OW26686   0.692   2.163   1.594  0.4368  0.0268 -0.1656
 5076SOL    HW126687   0.660   2.087   1.546  2.6961 -1.1858  0.2474
 5076SOL    HW226688   0.618   2.181   1.652  0.4439  0.9857 -0.4413
 5077SOL     OW26689   3.275   3.843   9.264 -0.5704 -0.1404 -0.3355
 5077SOL    HW126690   3.258   3.798   9.347 -0.8794  0.0593 -0.2914
 5077SOL    HW226691   3.368   3.863   9.277 -0.1867 -1.6380 -0.7531
 5078SOL     OW26692   2.721   0.733   5.944 -0.7236  0.2639 -0.4627
 5078SOL    HW126693   2.800   0.781   5.918  0.2184  0.0297  1.9687
 5078SOL    HW226694   2.660   0.806   5.951  0.8919  1.4477  1.0907
 5079SOL     OW26695   4.467   1.885  15.663  0.1598  0.2211  0.1990
 5079SOL    HW126696   4.535   1.952  15.654  0.9628 -0.5552  0.3986
 5079SOL    HW226697   4.421   1.886  15.580 -1.5939  1.7560  1.2100
 5080SOL     OW26698   1.644   0.039  15.006 -0.0003  0.0428 -0.1695
 5080SOL    HW126699   1.703   0.002  15.072 -1.7649  1.0258  1.9532
 5080SOL    HW226700   1.651   0.133  15.022 -1.1747  0.4008 -1.7537
 5081SOL     OW26701   4.605   2.715   3.283  0.7514 -0.0482 -0.1276
 5081SOL    HW126702   4.598   2.727   3.377 -0.4872  2.3099 -0.5305
 5081SOL    HW226703   4.672   2.646   3.277  0.9620  0.2426 -1.2316
 5082SOL     OW26704   2.781   1.998   3.031 -0.0587 -0.2443 -0.7666
 5082SOL    HW126705   2.757   2.050   2.955 -1.1678  0.3632 -0.0016
 5082SOL    HW226706   2.766   2.052   3.109 -2.4426 -0.9802 -0.7273
 5083SOL     OW26707   3.463   0.787   4.768  0.3671  0.0856  0.1954
 5083SOL    HW126708   3.420   0.721   4.823  0.8966 -0.2347  0.2305
 5083SOL    HW226709   3.515   0.844   4.824  0.3400 -0.0371  0.3469
 5084SOL     OW26710   0.209   1.162   9.762  1.1249 -0.1301 -0.0102
 5084SOL    HW126711   0.137   1.155   9.824  1.3247  0.4110  0.2837
 5084SOL    HW226712   0.244   1.242   9.800 -1.5855  1.5058 -0.9546
 5085SOL     OW26713   4.585   3.838   9.181 -0.3508 -0.2585 -0.2278
 5085SOL    HW126714   4.587   3.758   9.233  3.2755 -0.0038  0.0103
 5085SOL    HW226715   4.491   3.853   9.186 -0.5230 -0.3125 -3.0051
 5086SOL     OW26716   4.253   0.161  15.150  0.3017 -0.4399 -0.1048
 5086SOL    HW126717   4.297   0.180  15.067 -0.1128  0.4517 -0.1229
 5086SOL    HW226718   4.245   0.066  15.146 -1.0675 -0.3866  1.4587
 5087SOL     OW26719   3.075   0.161   1.720  0.3322  0.6157  0.2245
 5087SOL    HW126720   3.105   0.132   1.634 -2.2149  3.7348 -1.7291
 5087SOL    HW226721   2.994   0.110   1.728  0.6462  0.4350  2.3887
 5088SOL     OW26722   0.784   3.336   6.267 -0.0469  0.2671 -0.0662
 5088SOL    HW126723   0.809   3.426   6.291 -2.3678  0.4617  1.5920
 5088SOL    HW226724   0.801   3.333   6.173 -0.3502  0.7103 -0.1345
 5089SOL     OW26725   3.606   3.443   8.365  0.0909 -0.1796 -0.3248
 5089SOL    HW126726   3.572   3.465   8.278 -0.6048  0.3546  0.0917
 5089SOL    HW226727   3.583   3.352   8.386  0.8205 -0.3198 -0.1366
 5090SOL     OW26728   1.624   2.080   5.589 -0.2050 -0.1840 -0.3420
 5090SOL    HW126729   1.628   1.990   5.622  1.0429 -0.6312 -1.7244
 5090SOL    HW226730   1.536   2.083   5.553  0.8471  3.6435 -2.5897
 5091SOL     OW26731   1.809   3.443   6.668 -0.0568 -0.1998  0.2003
 5091SOL    HW126732   1.777   3.438   6.758 -1.2206 -0.4848 -0.2292
 5091SOL    HW226733   1.734   3.485   6.625 -0.9638 -2.1621 -0.1232
 5092SOL     OW26734   1.077   2.685   3.386 -0.4672  0.0522 -0.0788
 5092SOL    HW126735   1.071   2.765   3.438 -1.1328 -1.3597  2.0353
 5092SOL    HW226736   1.004   2.639   3.427 -0.3119 -1.1531 -1.1421
 5093SOL     OW26737   1.609   4.111   6.767  0.3000 -0.2092  0.3934
 5093SOL    HW126738   1.694   4.148   6.743  0.8544 -1.7486 -0.0470
 5093SOL    HW226739   1.620   4.026   6.725  0.2168  0.4884 -1.0121
 5094SOL     OW26740   2.451   1.832  10.968 -0.6896 -0.0602 -0.0300
 5094SOL    HW126741   2.522   1.771  10.949  1.9428  2.7528  0.8190
 5094SOL    HW226742   2.498   1.901  10.920  1.4749 -1.6811 -0.2320
 5095SOL     OW26743   1.450   3.851   8.575  0.7205 -0.1135  0.7592
 5095SOL    HW126744   1.356   3.854   8.592  0.5997  0.8611 -0.1189
 5095SOL    HW226745   1.475   3.774   8.626 -1.2868 -1.3198 -0.0845
 5096SOL     OW26746   2.911   1.430   7.751  0.4187 -0.4371  0.0133
 5096SOL    HW126747   2.951   1.517   7.757 -0.8133  0.1619 -0.5648
 5096SOL    HW226748   2.841   1.443   7.815  0.0317 -1.7174 -0.1466
 5097SOL     OW26749   1.664   1.990   2.773  0.5017 -0.5160  0.2458
 5097SOL    HW126750   1.733   2.009   2.709 -0.9703 -1.7063 -1.6986
 5097SOL    HW226751   1.724   1.974   2.846  0.9989  0.8349  0.1366
 5098SOL     OW26752   1.351   3.669   4.855  0.1484 -0.3716 -0.1739
 5098SOL    HW126753   1.364   3.615   4.933  0.2196 -0.1367 -0.0230
 5098SOL    HW226754   1.344   3.600   4.788  1.7106 -0.1020 -0.6152
 5099SOL     OW26755   1.036   0.155   1.072  0.1638  0.1268  0.6181
 5099SOL    HW126756   1.018   0.231   1.016  2.3162  1.2078  1.3832
 5099SOL    HW226757   0.967   0.164   1.138 -0.0791  0.3170  0.3421
 5100SOL     OW26758   0.260   1.469   1.350  0.1906  0.7653 -0.3055
 5100SOL    HW126759   0.251   1.416   1.271  0.4068  0.8445 -0.3854
 5100SOL    HW226760   0.268   1.401   1.417 -1.8782  0.3926 -0.4567
 5101SOL     OW26761   2.599   2.665  16.176 -0.3900 -0.2155  0.0959
 5101SOL    HW126762   2.545   2.712  16.113  1.5907  2.0375  0.0299
 5101SOL    HW226763   2.538   2.605  16.219  0.0550 -0.5581  0.2452
 5102SOL     OW26764   2.620   3.570   5.673 -0.2138 -0.0529 -0.0951
 5102SOL    HW126765   2.650   3.484   5.643  2.4311  0.9769 -0.4800
 5102SOL    HW226766   2.529   3.556   5.697  1.1683 -1.7550  4.1364
 5103SOL     OW26767   3.797   3.348  10.151  0.1334 -0.9897  0.1583
 5103SOL    HW126768   3.766   3.316  10.236  2.4775 -2.2069  0.5705
 5103SOL    HW226769   3.824   3.437  10.175  2.2874 -1.2237 -1.3963
 5104SOL     OW26770   4.426   2.824   6.958 -0.3318 -0.6198 -0.5599
 5104SOL    HW126771   4.442   2.796   6.869 -3.6253 -2.9239 -0.4286
 5104SOL    HW226772   4.380   2.908   6.945 -1.0885 -1.1172 -1.0768
 5105SOL     OW26773   1.912   3.067   2.706  0.5573  0.2624 -0.3466
 5105SOL    HW126774   1.819   3.056   2.729  0.4977  0.1880 -0.6218
 5105SOL    HW226775   1.910   3.159   2.679 -0.1123  0.4536  0.3234
 5106SOL     OW26776   2.613   1.778   2.721 -0.7649  0.0187 -0.2593
 5106SOL    HW126777   2.569   1.804   2.802  2.9227 -0.0683  1.7765
 5106SOL    HW226778   2.589   1.851   2.663  1.5573  1.3083  0.4211
 5107SOL     OW26779   1.320   0.113  14.733 -0.2589 -0.3595 -0.0111
 5107SOL    HW126780   1.288   0.192  14.689  0.3961  0.1545  0.4299
 5107SOL    HW226781   1.409   0.122  14.697 -0.5116 -0.0989 -0.5651
 5108SOL     OW26782   1.445   4.628   6.752  0.0292  0.5640  0.6436
 5108SOL    HW126783   1.393   4.695   6.707  1.0865  1.5090  0.8602
 5108SOL    HW226784   1.510   4.595   6.690 -0.6998 -2.8461  1.6425
 5109SOL     OW26785   1.852   1.063   3.712 -1.2700  0.1820 -0.0245
 5109SOL    HW126786   1.803   1.143   3.729 -1.1728  0.1360  0.4872
 5109SOL    HW226787   1.803   1.035   3.635 -0.2839 -0.9692 -0.2444
 5110SOL     OW26788   2.633   1.644  10.879  0.3652 -0.3213 -0.0426
 5110SOL    HW126789   2.629   1.604  10.792 -1.3332  1.2055 -0.6753
 5110SOL    HW226790   2.723   1.624  10.904  0.1789 -0.6524  0.3555
 5111SOL     OW26791   4.652   0.036  11.914  0.5985 -0.3105  0.4213
 5111SOL    HW126792   4.630   0.006  12.002 -1.8746  3.9569  1.2266
 5111SOL    HW226793   0.018   0.052  11.938  0.0591  0.3093  2.0859
 5112SOL     OW26794   1.817   0.163   2.692  0.0902 -0.2735  0.7658
 5112SOL    HW126795   1.894   0.138   2.642 -0.7985 -0.6269 -0.4084
 5112SOL    HW226796   1.822   0.106   2.769 -0.0723 -0.6550  0.4902
 5113SOL     OW26797   0.169   3.865   8.334 -0.4523 -0.1647 -0.0354
 5113SOL    HW126798   0.255   3.822   8.334 -0.4246 -0.1142  0.2992
 5113SOL    HW226799   0.204   3.954   8.341  2.3043 -1.2694  0.2054
 5114SOL     OW26800   1.305   1.724   9.412 -0.2298 -0.4235 -0.3330
 5114SOL    HW126801   1.329   1.692   9.326 -1.2300  1.6577 -1.3892
 5114SOL    HW226802   1.391   1.746   9.449 -2.0344 -0.4917  3.9802
 5115SOL     OW26803   3.462   0.783   6.691 -0.0460  0.5110  0.1247
 5115SOL    HW126804   3.443   0.702   6.738  1.7352 -0.3578 -0.6448
 5115SOL    HW226805   3.517   0.760   6.616 -0.7798 -1.0704  0.0888
 5116SOL     OW26806   2.580   1.096   4.865  0.4865 -0.1173  0.3373
 5116SOL    HW126807   2.663   1.132   4.835  0.7593 -2.0543 -1.2975
 5116SOL    HW226808   2.617   1.022   4.913 -0.4102  0.4685  1.9505
 5117SOL     OW26809   1.118   0.630   2.645  0.1415  0.5597  0.0034
 5117SOL    HW126810   1.107   0.581   2.564  2.7288  0.3803 -0.2504
 5117SOL    HW226811   1.213   0.623   2.654 -0.2703 -0.4323  3.7327
 5118SOL     OW26812   0.920   2.075   6.397 -0.1915  0.1540 -0.6296
 5118SOL    HW126813   0.896   2.031   6.479  4.5913 -0.0876  0.6249
 5118SOL    HW226814   0.836   2.081   6.352 -1.4569 -1.3223  1.5235
 5119SOL     OW26815   0.328   4.209   4.268  0.4205  0.2964  0.5910
 5119SOL    HW126816   0.250   4.263   4.257  1.1946  1.3513  0.2830
 5119SOL    HW226817   0.388   4.272   4.309  0.2773  0.1672  1.0036
 5120SOL     OW26818   3.023   4.396  10.041 -0.4532  0.0187 -0.0736
 5120SOL    HW126819   3.062   4.414  10.126 -0.3617 -0.3361 -0.0414
 5120SOL    HW226820   2.965   4.471  10.024  0.7178  1.1555  0.9522
 5121SOL     OW26821   2.245   0.663   0.317  0.1970  0.7340 -0.2788
 5121SOL    HW126822   2.228   0.605   0.243  0.1377  0.6542 -0.2018
 5121SOL    HW226823   2.244   0.751   0.278  2.9613  1.4378  1.2540
 5122SOL     OW26824   4.104   3.965  14.021 -0.3624 -0.2515  0.9095
 5122SOL    HW126825   4.010   3.972  14.004 -0.4465 -0.7665  1.1717
 5122SOL    HW226826   4.116   3.870  14.029  1.9958 -0.0645 -0.4168
 5123SOL     OW26827   2.698   2.436   6.551 -0.0637 -0.0572 -0.1783
 5123SOL    HW126828   2.662   2.450   6.463  1.5756 -1.7047 -1.1025
 5123SOL    HW226829   2.790   2.458   6.541 -0.3877  1.0435 -0.8597
 5124SOL     OW26830   2.800   0.840   3.981 -0.1341  0.2818 -0.3348
 5124SOL    HW126831   2.884   0.795   3.977  0.6918  1.7915  0.2155
 5124SOL    HW226832   2.828   0.932   3.982  0.4213  0.0924  1.5758
 5125SOL     OW26833   0.410   0.350   5.019  0.4384  0.0050  0.2739
 5125SOL    HW126834   0.420   0.260   5.050  1.2530 -0.4609 -1.3029
 5125SOL    HW226835   0.318   0.342   4.994  0.9223 -0.1677 -1.4689
 5126SOL     OW26836   1.287   4.302  10.718 -0.0975 -0.1169 -1.1870
 5126SOL    HW126837   1.303   4.226  10.774  5.3146  2.1090  0.2837
 5126SOL    HW226838   1.376   4.329  10.695  0.2545 -0.3949 -0.1843
 5127SOL     OW26839   1.568   4.462   1.071 -0.1075 -0.0348 -0.2958
 5127SOL    HW126840   1.635   4.497   1.012  0.2265 -0.4622 -0.1754
 5127SOL    HW226841   1.522   4.546   1.066  0.1171  0.0836 -0.4019
 5128SOL     OW26842   1.708   2.387   8.931 -0.0860  0.9020 -0.3988
 5128SOL    HW126843   1.751   2.381   8.845  0.8071  0.3313  0.0950
 5128SOL    HW226844   1.735   2.475   8.957  1.3963 -0.0719  1.3104
 5129SOL     OW26845   4.704   1.767  14.530  0.1331 -0.2364  0.0832
 5129SOL    HW126846   4.690   1.860  14.510  0.4157 -0.4900 -1.3026
 5129SOL    HW226847   4.646   1.724  14.468 -1.0361  0.9694  0.3440
 5130SOL     OW26848   2.153   0.429   9.423 -0.1163  0.1505 -0.2490
 5130SOL    HW126849   2.131   0.518   9.449 -0.0771 -0.0439  0.4498
 5130SOL    HW226850   2.175   0.391   9.507 -1.8710  0.1845  0.2281
 5131SOL     OW26851   3.584   4.689  12.160  0.1721  0.1119  0.5662
 5131SOL    HW126852   3.490   4.672  12.150  0.2156 -0.4556  1.1148
 5131SOL    HW226853   3.597   0.042  12.107  1.3371 -0.7109 -0.3850
 5132SOL     OW26854   2.276   1.801   2.524  0.4000  0.3257  0.0895
 5132SOL    HW126855   2.234   1.810   2.438 -1.0729  2.6902  1.0729
 5132SOL    HW226856   2.317   1.717   2.501  0.9574  0.2783  1.2615
 5133SOL     OW26857   1.047   3.689  14.420 -0.3167 -0.2115 -0.3029
 5133SOL    HW126858   1.040   3.605  14.466 -1.2302 -0.1714 -0.3748
 5133SOL    HW226859   1.017   3.752  14.487 -2.8060 -1.5470 -0.1695
 5134SOL     OW26860   1.425   0.322   6.305 -0.4724 -0.5717  0.0986
 5134SOL    HW126861   1.489   0.331   6.375 -0.5805 -0.5441  0.1939
 5134SOL    HW226862   1.426   0.226   6.301  0.4863 -0.5384 -0.3949
 5135SOL     OW26863   2.668   4.391   3.450  0.0530 -0.4836 -0.5087
 5135SOL    HW126864   2.718   4.310   3.462 -0.5224 -1.2035 -3.0580
 5135SOL    HW226865   2.641   4.379   3.360 -0.7737 -0.3451 -0.2791
 5136SOL     OW26866   0.443   0.893   4.658  0.1827  0.3959  0.0889
 5136SOL    HW126867   0.385   0.831   4.613 -0.2507  0.4247  0.6065
 5136SOL    HW226868   0.375   0.950   4.693 -1.3972 -1.8907  0.7878
 5137SOL     OW26869   3.622   1.404   4.017  0.2875 -0.0619  0.1312
 5137SOL    HW126870   3.674   1.324   4.006  0.8336  0.2760  0.2667
 5137SOL    HW226871   3.572   1.380   4.095 -1.0414 -1.3132 -1.0995
 5138SOL     OW26872   1.506   2.645   6.191 -0.3909  0.6231 -0.0625
 5138SOL    HW126873   1.506   2.551   6.169  0.0522  0.0566  2.3327
 5138SOL    HW226874   1.600   2.661   6.191 -0.0513 -1.3624  1.3701
 5139SOL     OW26875   4.021   3.149   5.242  0.1471  0.1488 -0.7909
 5139SOL    HW126876   4.031   3.208   5.317  0.3854 -2.3591  1.1231
 5139SOL    HW226877   4.092   3.190   5.192  0.8404  0.3594  0.3793
 5140SOL     OW26878   2.048   3.680   0.275 -0.1499  0.5217  0.3603
 5140SOL    HW126879   2.057   3.712   0.185 -0.9811 -1.0221 -0.2691
 5140SOL    HW226880   1.965   3.726   0.292 -0.8889 -0.7298  0.0993
 5141SOL     OW26881   3.656   4.312  16.691 -0.3274 -0.1877 -0.1041
 5141SOL    HW126882   3.741   4.354  16.674  0.6931 -2.2650 -0.1878
 5141SOL    HW226883   3.607   4.319  16.609  1.5411 -0.4309 -1.2618
 5142SOL     OW26884   2.677   3.283  10.076 -0.2998 -0.2162 -0.2202
 5142SOL    HW126885   2.669   3.219  10.146 -1.7261  1.0155  0.7274
 5142SOL    HW226886   2.764   3.323  10.078 -1.0579  1.5715 -3.1370
 5143SOL     OW26887   0.266   1.959   8.714 -0.2954  0.2392  0.4856
 5143SOL    HW126888   0.321   1.995   8.783  0.8218  1.4183 -1.0318
 5143SOL    HW226889   0.179   1.991   8.738  1.3031  2.3450  3.4698
 5144SOL     OW26890   1.213   0.818  10.228 -0.0503  0.4166 -0.0720
 5144SOL    HW126891   1.144   0.854  10.284 -1.9768 -1.8222 -1.0615
 5144SOL    HW226892   1.173   0.741  10.189 -2.5971  0.2797  2.8149
 5145SOL     OW26893   3.773   2.163   3.884  0.8540 -0.3334 -0.1353
 5145SOL    HW126894   3.804   2.236   3.830 -1.7570 -0.8269 -2.3041
 5145SOL    HW226895   3.849   2.146   3.939  1.1928  1.4132 -0.0593
 5146SOL     OW26896   3.929   1.587   7.671  0.1699 -0.4110  0.2855
 5146SOL    HW126897   3.980   1.635   7.736  1.3764 -1.6182  0.2331
 5146SOL    HW226898   3.844   1.627   7.687 -0.7292 -1.6855 -1.2466
 5147SOL     OW26899   3.320   4.523  13.860 -0.3230 -0.2343  0.4093
 5147SOL    HW126900   3.239   4.518  13.809 -0.1453 -0.5303  0.1585
 5147SOL    HW226901   3.314   4.616  13.882 -0.8898 -0.1210 -0.2152
 5148SOL     OW26902   1.045   1.973   5.956 -0.2966  0.1273 -0.2877
 5148SOL    HW126903   0.981   2.043   5.944 -0.6793 -0.4921 -1.7717
 5148SOL    HW226904   1.019   1.913   5.886  1.5362  0.6531 -1.4155
 5149SOL     OW26905   3.613   2.364   7.993 -0.2751 -0.2760  0.2407
 5149SOL    HW126906   3.565   2.445   8.007  0.9170  0.6377 -0.9642
 5149SOL    HW226907   3.616   2.332   8.083  0.0802 -0.9825 -0.0143
 5150SOL     OW26908   2.462   1.184   2.319 -0.2884  0.1939  0.0815
 5150SOL    HW126909   2.377   1.142   2.303  0.1285 -0.9276  0.8259
 5150SOL    HW226910   2.462   1.196   2.414 -0.7369  0.3170  0.0663
 5151SOL     OW26911   0.051   2.493  15.585 -0.4422 -0.4480  0.2690
 5151SOL    HW126912   0.054   2.562  15.651 -0.7176  0.4010 -0.6099
 5151SOL    HW226913   0.049   2.420  15.648  0.7202  0.9407  1.9182
 5152SOL     OW26914   2.772   4.174  12.750 -0.3589 -0.1226  0.2176
 5152SOL    HW126915   2.795   4.090  12.791 -2.0962  0.4336  2.3350
 5152SOL    HW226916   2.839   4.180  12.682 -0.6339 -0.0458 -0.0470
 5153SOL     OW26917   2.006   4.111   3.398  0.5895  0.7918 -0.2308
 5153SOL    HW126918   1.981   4.037   3.455 -2.5468  1.8349 -0.2296
 5153SOL    HW226919   1.933   4.113   3.336  0.4361 -0.4064 -0.1044
 5154SOL     OW26920   2.491   4.095  13.168 -0.2422  0.4298  0.1881
 5154SOL    HW126921   2.500   4.048  13.085  0.7759 -1.0944  1.1634
 5154SOL    HW226922   2.470   4.032  13.237 -1.2518  0.7862  0.2104
 5155SOL     OW26923   0.808   2.041   1.323 -0.0697  0.5036  0.3574
 5155SOL    HW126924   0.739   2.068   1.262  1.5772 -1.0110 -2.1807
 5155SOL    HW226925   0.846   2.127   1.338 -0.5879  1.2457 -2.5192
 5156SOL     OW26926   3.097   2.084   6.358 -0.3709 -0.1643  0.0219
 5156SOL    HW126927   3.123   2.051   6.272 -1.0760  3.0175 -1.4071
 5156SOL    HW226928   3.029   2.021   6.382  1.2542 -1.8375  0.2832
 5157SOL     OW26929   2.712   3.142   8.876 -0.0788  0.4733 -0.2853
 5157SOL    HW126930   2.786   3.164   8.933  0.5280 -1.6620 -0.2226
 5157SOL    HW226931   2.667   3.091   8.944 -4.7805 -0.0492 -3.8265
 5158SOL     OW26932   0.813   2.011   7.413  0.0053 -0.2281  0.1941
 5158SOL    HW126933   0.782   1.941   7.355 -0.9995  0.8449 -0.5555
 5158SOL    HW226934   0.748   2.081   7.405  1.0095  0.7766  0.7766
 5159SOL     OW26935   0.409   2.953  11.381 -0.6938  0.1425 -0.2498
 5159SOL    HW126936   0.359   2.872  11.389  2.5201 -1.7155  0.9688
 5159SOL    HW226937   0.488   2.914  11.343  0.1012  2.0242 -0.5064
 5160SOL     OW26938   0.534   0.583   2.398  0.8096  0.3553 -0.2012
 5160SOL    HW126939   0.582   0.528   2.461  1.4658  1.0763 -0.0707
 5160SOL    HW226940   0.568   0.533   2.324  1.5767  3.2417 -1.7960
 5161SOL     OW26941   1.316   4.448   5.042 -0.4875 -0.0427 -0.3879
 5161SOL    HW126942   1.295   4.512   5.110  0.4508  2.3082 -2.3091
 5161SOL    HW226943   1.294   4.367   5.088 -3.2822  0.7961 -0.1917
 5162SOL     OW26944   1.703   2.585   8.071  1.0877 -0.0841  0.0678
 5162SOL    HW126945   1.676   2.493   8.070  1.9449 -0.3136 -2.3719
 5162SOL    HW226946   1.661   2.612   8.152 -0.3675 -1.2805 -0.2810
 5163SOL     OW26947   1.884   3.613   4.725  0.2741 -0.0830 -0.4765
 5163SOL    HW126948   1.828   3.690   4.732  2.9471  1.9461 -1.4497
 5163SOL    HW226949   1.942   3.617   4.801  1.4815  0.4523 -1.4269
 5164SOL     OW26950   1.176   2.384   6.301 -0.1272 -0.0217  0.4953
 5164SOL    HW126951   1.223   2.321   6.356  0.8619  1.2767  1.1628
 5164SOL    HW226952   1.159   2.333   6.222 -2.0073  0.8432  0.3468
 5165SOL     OW26953   0.749   2.997   4.119 -0.3495 -0.0886 -0.3961
 5165SOL    HW126954   0.697   2.933   4.168 -2.2117  0.3825 -1.7237
 5165SOL    HW226955   0.827   3.004   4.173 -0.2993  0.8554 -0.5896
 5166SOL     OW26956   2.312   3.419   1.042 -0.4067 -0.2977 -0.3495
 5166SOL    HW126957   2.279   3.334   1.013 -0.4953 -0.3780 -0.0041
 5166SOL    HW226958   2.369   3.444   0.969  0.1106 -1.5298 -0.3728
 5167SOL     OW26959   2.515   4.372  10.929 -0.1714 -0.7357  0.3409
 5167SOL    HW126960   2.443   4.388  10.869  0.9030  2.2740 -0.1486
 5167SOL    HW226961   2.528   4.460  10.965  2.6756  0.2960 -3.1971
 5168SOL     OW26962   0.285   0.990   0.207 -0.1271  0.2259 -0.1919
 5168SOL    HW126963   0.231   0.914   0.189 -1.0321  1.3642 -2.3872
 5168SOL    HW226964   0.275   1.002   0.301 -1.2653 -0.2696 -0.2517
 5169SOL     OW26965   3.108   3.294   5.695  0.1542  0.6680 -0.0707
 5169SOL    HW126966   3.045   3.337   5.638  2.1987 -1.8714 -4.2529
 5169SOL    HW226967   3.158   3.372   5.720  0.3432  0.0214  1.5199
 5170SOL     OW26968   1.650   4.667   6.133 -0.2257 -0.5036  0.1963
 5170SOL    HW126969   1.709   4.697   6.203 -0.2502  0.6186 -0.2664
 5170SOL    HW226970   1.695   4.591   6.096 -0.3297 -1.4229  1.9073
 5171SOL     OW26971   3.716   3.984   4.942 -0.1843  0.4895 -0.5340
 5171SOL    HW126972   3.787   4.044   4.965  0.6091 -0.1970 -1.1995
 5171SOL    HW226973   3.754   3.939   4.866  0.9017  2.6471 -1.2767
 5172SOL     OW26974   3.702   2.563   3.413  0.1916  0.9083  0.1737
 5172SOL    HW126975   3.619   2.595   3.378 -0.7516 -1.2241  0.4546
 5172SOL    HW226976   3.665   2.502   3.477 -1.0178 -0.6511 -1.9691
 5173SOL     OW26977   4.451   2.657  16.195 -0.1716  0.2225  0.0586
 5173SOL    HW126978   4.434   2.618  16.109  0.9946 -0.0750 -0.0391
 5173SOL    HW226979   4.457   2.584  16.258 -2.0657 -0.6090 -0.7335
 5174SOL     OW26980   2.378   4.695  12.310 -0.0745  0.1153 -0.2854
 5174SOL    HW126981   2.342   4.636  12.244 -0.3626 -0.8486  0.7434
 5174SOL    HW226982   2.470   4.689  12.285  0.2644  2.2093  0.4450
 5175SOL     OW26983   0.417   2.355   6.375  0.1023 -0.3598  0.3757
 5175SOL    HW126984   0.475   2.428   6.400  0.8532 -0.2419 -1.7473
 5175SOL    HW226985   0.352   2.402   6.322 -1.0662 -1.9908  0.3705
 5176SOL     OW26986   1.732   2.724  13.127 -0.0542 -0.2879 -0.0899
 5176SOL    HW126987   1.786   2.698  13.052 -0.8607  1.3964 -1.2765
 5176SOL    HW226988   1.782   2.801  13.153  1.6941 -0.5442 -2.6573
 5177SOL     OW26989   2.941   3.221  14.413  0.2872 -0.1283  0.4422
 5177SOL    HW126990   3.033   3.242  14.395  0.2486  0.2724  0.6946
 5177SOL    HW226991   2.920   3.310  14.441  0.9592  0.3095 -0.4529
 5178SOL     OW26992   2.315   2.599  16.828 -0.6801 -0.3209  0.6925
 5178SOL    HW126993   2.307   2.694  16.817 -0.4525 -0.4580 -0.6648
 5178SOL    HW226994   2.259   2.576  16.755 -0.8207  1.2590  0.3017
 5179SOL     OW26995   2.101   4.595  12.892  0.1306  0.1454  0.1585
 5179SOL    HW126996   2.135   4.606  12.803 -1.6283 -2.5312 -0.8595
 5179SOL    HW226997   2.153   4.516  12.908 -2.0395 -1.1109  0.9922
 5180SOL     OW26998   2.654   3.881  17.471 -0.0616  0.2642  0.7810
 5180SOL    HW126999   2.599   3.854  17.544 -0.3799  1.2097  0.8887
 5180SOL    HW227000   2.737   3.872  17.518 -0.2898 -0.9536  0.9602
 5181SOL     OW27001   0.009   4.387   9.086  0.3181 -0.2597  0.2936
 5181SOL    HW127002   0.021   4.429   9.171 -0.2070  0.4126  0.0411
 5181SOL    HW227003   4.718   4.297   9.114 -1.4847  0.3966  1.3482
 5182SOL     OW27004   3.180   3.245  10.611 -0.7064 -0.2338 -0.0144
 5182SOL    HW127005   3.252   3.215  10.555  1.6346  1.4524  2.1143
 5182SOL    HW227006   3.141   3.307  10.550 -2.5492 -0.6147  0.7593
 5183SOL     OW27007   4.246   2.747   6.266 -0.4703 -0.2257  0.5361
 5183SOL    HW127008   4.178   2.709   6.321 -0.7675  1.0943  1.0800
 5183SOL    HW227009   4.275   2.818   6.323  2.2519 -1.2418  0.4035
 5184SOL     OW27010   0.719   0.497   7.565 -0.0593 -0.0600  0.3048
 5184SOL    HW127011   0.662   0.502   7.642 -1.4722 -0.7827 -0.6896
 5184SOL    HW227012   0.702   0.404   7.550 -0.8426  0.2463 -0.6670
 5185SOL     OW27013   2.656   3.392   0.924  0.0108  1.0238 -0.1536
 5185SOL    HW127014   2.714   3.324   0.892  0.5180  1.3095  0.1704
 5185SOL    HW227015   2.590   3.397   0.855 -1.4396 -1.0915  1.0620
 5186SOL     OW27016   1.550   3.511   3.256  0.2452  0.9189  0.2458
 5186SOL    HW127017   1.627   3.491   3.203 -0.6470 -0.2094 -0.6259
 5186SOL    HW227018   1.578   3.581   3.314  1.2697 -0.4454  1.4135
 5187SOL     OW27019   1.965   2.434  12.515 -0.2457  0.5376  0.7895
 5187SOL    HW127020   1.963   2.521  12.475 -2.1590  1.5436  3.1057
 5187SOL    HW227021   2.052   2.397  12.498 -0.1988  0.8213  0.3978
 5188SOL     OW27022   0.948   3.299   8.346 -0.3051 -0.3158  0.3638
 5188SOL    HW127023   0.918   3.222   8.296 -0.3697 -0.4011  0.5346
 5188SOL    HW227024   0.908   3.272   8.429  1.1600  0.4693  1.3179
 5189SOL     OW27025   3.268   3.879   5.144  0.2269 -0.4000 -0.1879
 5189SOL    HW127026   3.178   3.886   5.175  0.5125  1.2370  0.2240
 5189SOL    HW227027   3.262   3.792   5.104  0.2505 -0.6005  0.2446
 5190SOL     OW27028   4.111   0.005   0.616  0.9474  0.1638  0.0748
 5190SOL    HW127029   4.031   4.693   0.580  0.6049 -1.3043  2.3866
 5190SOL    HW227030   4.080   0.083   0.662  0.9237  1.0475 -1.4632
 5191SOL     OW27031   3.226   0.454  13.222 -0.4055  0.2506 -0.4322
 5191SOL    HW127032   3.229   0.376  13.278 -2.4747 -0.4068 -1.2297
 5191SOL    HW227033   3.263   0.518  13.282  3.5810 -2.5918  0.1359
 5192SOL     OW27034   3.445   3.028   3.835  0.2207 -0.0023  0.2105
 5192SOL    HW127035   3.498   2.982   3.900 -1.5537 -0.5504  1.2687
 5192SOL    HW227036   3.412   3.098   3.892 -0.7493 -0.6344  0.4158
 5193SOL     OW27037   2.859   3.938   4.397  0.3292 -0.3918 -0.1291
 5193SOL    HW127038   2.886   4.029   4.412  1.1571 -1.0503  2.4587
 5193SOL    HW227039   2.765   3.946   4.410  0.3086  1.0798 -1.2494
 5194SOL     OW27040   1.415   4.578  16.138  0.3926  0.2420  0.3158
 5194SOL    HW127041   1.339   4.588  16.196  0.4213  0.2326  0.3558
 5194SOL    HW227042   1.388   4.501  16.089 -1.5971  1.8175 -1.0577
 5195SOL     OW27043   3.355   0.938   1.844  0.0451  0.0225  0.2894
 5195SOL    HW127044   3.437   0.898   1.871 -0.3463 -1.0929 -0.1657
 5195SOL    HW227045   3.342   0.921   1.751  1.1531 -0.5201  0.2452
 5196SOL     OW27046   0.521   0.469   8.990  0.0839  0.2257  0.1645
 5196SOL    HW127047   0.443   0.423   9.020  0.5611  1.1549  2.8670
 5196SOL    HW227048   0.524   0.556   9.029 -0.0045 -0.0526  0.7911
 5197SOL     OW27049   2.597   1.224   1.924  0.0338 -0.0974  0.5025
 5197SOL    HW127050   2.522   1.255   1.976  0.7632  1.2036  0.7901
 5197SOL    HW227051   2.657   1.205   1.997 -1.2910  1.0643  1.9031
 5198SOL     OW27052   4.219   1.275  10.419 -0.1947 -0.2849 -0.3845
 5198SOL    HW127053   4.236   1.306  10.508  0.0811 -0.8428 -0.2450
 5198SOL    HW227054   4.305   1.294  10.382 -0.6526  1.1991 -0.7096
 5199SOL     OW27055   2.753   3.223   1.881  0.1512 -0.3415  0.1969
 5199SOL    HW127056   2.849   3.225   1.881  0.1543 -0.1320 -0.8806
 5199SOL    HW227057   2.723   3.300   1.833 -0.5280 -0.4764  0.4172
 5200SOL     OW27058   1.410   0.733   1.560  0.4899  0.1768 -0.0771
 5200SOL    HW127059   1.427   0.676   1.635  1.2698  1.7211  0.9103
 5200SOL    HW227060   1.321   0.764   1.581 -0.4552 -2.8394  0.3605
 5201SOL     OW27061   3.942   3.125  16.551  0.1679 -0.3073  0.3661
 5201SOL    HW127062   4.029   3.144  16.588  0.1725 -0.2535  0.3283
 5201SOL    HW227063   3.966   3.133  16.459  2.4605 -0.8155  0.9192
 5202SOL     OW27064   4.582   2.565   4.373  0.1712 -0.0338 -0.4527
 5202SOL    HW127065   4.622   2.488   4.413  1.3472 -0.2948 -2.1175
 5202SOL    HW227066   4.492   2.556   4.404  0.1206 -0.0004 -0.5890
 5203SOL     OW27067   4.295   1.745   6.828 -0.2529  0.7177  0.7212
 5203SOL    HW127068   4.312   1.722   6.737 -1.4804 -1.6475  1.0816
 5203SOL    HW227069   4.201   1.726   6.838  0.2542 -0.9751  2.3102
 5204SOL     OW27070   0.898   3.263   2.370 -0.3067  0.6911 -0.3066
 5204SOL    HW127071   0.883   3.350   2.333  0.6430  0.5918 -0.9118
 5204SOL    HW227072   0.979   3.243   2.323 -0.0584 -0.4411  0.6124
 5205SOL     OW27073   0.669   2.457   5.583  0.3047  0.2247 -0.2831
 5205SOL    HW127074   0.754   2.498   5.564  0.6793 -0.7943 -0.8340
 5205SOL    HW227075   0.643   2.439   5.493 -0.8250 -1.8079  0.4685
 5206SOL     OW27076   2.198   2.223   5.210  0.5612  0.8440  0.2483
 5206SOL    HW127077   2.209   2.318   5.210  2.9760  0.5469 -1.0106
 5206SOL    HW227078   2.124   2.224   5.271 -0.0126 -0.4052 -0.4033
 5207SOL     OW27079   1.347   1.556   3.700 -0.3967  0.3102  0.1953
 5207SOL    HW127080   1.433   1.523   3.674 -1.5703 -1.8688 -0.9112
 5207SOL    HW227081   1.306   1.597   3.624 -0.6906  0.9494  0.7033
 5208SOL     OW27082   2.472   2.884   2.869  0.4233 -0.5325 -0.6052
 5208SOL    HW127083   2.539   2.869   2.803 -0.6491 -0.7582 -1.6504
 5208SOL    HW227084   2.421   2.959   2.837 -1.0595 -1.8230 -1.3055
 5209SOL     OW27085   3.837   4.500  17.020  0.0606  0.3711  0.2779
 5209SOL    HW127086   3.881   4.585  17.011 -1.2380  0.8435 -1.6809
 5209SOL    HW227087   3.892   4.446  16.963 -0.3834 -0.9395  1.1029
 5210SOL     OW27088   1.207   4.263  16.254 -0.2492 -0.3731 -0.2003
 5210SOL    HW127089   1.193   4.352  16.221 -0.5806  0.5860  2.5470
 5210SOL    HW227090   1.201   4.208  16.176 -0.3130 -0.0753 -0.4079
 5211SOL     OW27091   1.207   0.890   2.558 -0.3595 -0.2440 -0.4993
 5211SOL    HW127092   1.177   0.809   2.599 -0.9082  2.1348  3.7529
 5211SOL    HW227093   1.128   0.906   2.507  0.5169  0.0337 -1.7698
 5212SOL     OW27094   3.987   3.690   8.779  0.3379 -0.0163 -0.3467
 5212SOL    HW127095   3.973   3.629   8.707  2.3521  1.3989 -1.9333
 5212SOL    HW227096   4.078   3.721   8.770  0.0339  0.9794 -0.0077
 5213SOL     OW27097   2.172   2.643   6.953 -0.1928 -0.2093  0.2559
 5213SOL    HW127098   2.183   2.562   6.902 -0.2659 -0.1200  0.0995
 5213SOL    HW227099   2.088   2.615   6.991 -1.3368  2.3424 -0.4126
 5214SOL     OW27100   3.410   4.557   7.340  0.3039 -0.2609  0.4052
 5214SOL    HW127101   3.468   4.595   7.274 -3.5130  1.0826 -2.2085
 5214SOL    HW227102   3.324   4.567   7.298  0.2848  0.1239  0.5311
 5215SOL     OW27103   1.301   4.335   6.854  0.0218 -0.6311  0.1782
 5215SOL    HW127104   1.340   4.413   6.816 -3.5639  0.2991 -1.6076
 5215SOL    HW227105   1.209   4.362   6.861  0.0861 -0.1609 -0.8085
 5216SOL     OW27106   0.483   1.461   8.462  0.4107 -0.2429 -0.1282
 5216SOL    HW127107   0.470   1.550   8.428  2.3039  0.8971  2.1446
 5216SOL    HW227108   0.408   1.442   8.518 -0.2195  1.7833 -0.2939
 5217SOL     OW27109   3.902   0.028  13.757  0.3699  0.6663 -0.1765
 5217SOL    HW127110   3.978   0.058  13.808  0.1745  0.7726  0.0517
 5217SOL    HW227111   3.940   4.673  13.723 -1.3857 -0.0654 -0.4126
 5218SOL     OW27112   3.348   3.705   3.721  0.0838 -0.0779  0.3476
 5218SOL    HW127113   3.317   3.705   3.812  0.2090  1.6304  0.3866
 5218SOL    HW227114   3.425   3.652   3.738  0.6532 -0.2723 -2.8745
 5219SOL     OW27115   1.138   3.191   4.645 -0.1286 -0.4084 -0.8495
 5219SOL    HW127116   1.193   3.199   4.567  0.3034  2.6262 -0.2100
 5219SOL    HW227117   1.124   3.097   4.630 -1.1832 -0.3890  0.0368
 5220SOL     OW27118   3.702   4.169  17.636 -0.6057 -0.6917  0.0450
 5220SOL    HW127119   3.679   4.244  17.581  0.9481 -0.5316 -0.3850
 5220SOL    HW227120   3.782   4.205  17.674 -0.8687 -1.8520  1.7096
 5221SOL     OW27121   4.328   2.300   2.197 -1.0208  0.3546  0.3510
 5221SOL    HW127122   4.335   2.279   2.104  1.1766 -0.4171  0.7061
 5221SOL    HW227123   4.377   2.382   2.201 -1.3749  0.6857 -2.1645
 5222SOL     OW27124   3.609   2.102   9.410  0.4993 -0.0509  0.2834
 5222SOL    HW127125   3.638   2.041   9.477  0.2016  1.4451  1.7776
 5222SOL    HW227126   3.686   2.159   9.417 -1.4745  2.7469 -0.6964
 5223SOL     OW27127   4.359   1.779   0.779 -0.1159 -0.6234 -0.0296
 5223SOL    HW127128   4.440   1.828   0.761 -1.0755  1.7162  2.0088
 5223SOL    HW227129   4.376   1.723   0.855 -1.4697 -0.9961  0.0008
 5224SOL     OW27130   1.864   3.103   2.393  0.4039  0.0686 -0.0445
 5224SOL    HW127131   1.860   3.010   2.414 -1.0174 -0.1390 -1.2709
 5224SOL    HW227132   1.952   3.114   2.356 -0.2905  1.9882 -1.1636
 5225SOL     OW27133   0.204   1.905   1.580 -0.5511 -0.2138  0.0926
 5225SOL    HW127134   0.218   1.996   1.553 -0.4588 -0.3603 -0.3666
 5225SOL    HW227135   0.139   1.871   1.518 -0.6541 -2.1687  1.2876
 5226SOL     OW27136   0.313   4.109   3.422  0.3346 -0.0147  0.0169
 5226SOL    HW127137   0.264   4.078   3.499 -0.3413 -0.0546 -0.4294
 5226SOL    HW227138   0.246   4.148   3.366 -0.8412 -3.8911 -1.2330
 5227SOL     OW27139   3.472   4.100   6.884  0.1934  0.0126 -0.2598
 5227SOL    HW127140   3.383   4.079   6.914 -0.2770  2.7127  0.2142
 5227SOL    HW227141   3.496   4.154   6.959  0.6802 -0.5298 -0.0320
 5228SOL     OW27142   3.315   1.663   7.182 -0.6578 -0.1922  0.0678
 5228SOL    HW127143   3.301   1.571   7.202  0.4292 -0.3375  0.1196
 5228SOL    HW227144   3.388   1.674   7.121  1.9336  0.0854  3.2764
 5229SOL     OW27145   3.571   0.476   4.497  0.0799 -0.1861 -0.6437
 5229SOL    HW127146   3.526   0.510   4.420 -2.3052 -0.6291  0.5805
 5229SOL    HW227147   3.500   0.464   4.560 -0.0960  0.9943 -0.6340
 5230SOL     OW27148   1.597   3.380  10.240 -0.4003 -0.0922  0.4948
 5230SOL    HW127149   1.691   3.392  10.229 -0.3127 -0.7960  0.4515
 5230SOL    HW227150   1.570   3.339  10.157 -0.6398 -1.8131  1.4156
 5231SOL     OW27151   1.797   2.767  16.045  0.2419 -0.2179 -0.2254
 5231SOL    HW127152   1.856   2.804  16.110 -0.7325 -0.9224  1.0795
 5231SOL    HW227153   1.853   2.774  15.968 -0.9494 -0.7947 -1.1447
 5232SOL     OW27154   3.778   4.302   0.214 -0.1749 -0.1059 -0.4305
 5232SOL    HW127155   3.852   4.274   0.267  0.1732  0.2589 -0.7259
 5232SOL    HW227156   3.783   4.398   0.210  1.1335 -0.1600 -0.0400
 5233SOL     OW27157   2.804   4.214  16.642 -0.1823 -0.5271  0.2836
 5233SOL    HW127158   2.884   4.242  16.687  1.4072 -2.0671 -1.5599
 5233SOL    HW227159   2.748   4.290  16.652  1.5986  1.1779 -2.5337
 5234SOL     OW27160   3.699   0.447   3.778  0.4584  0.2094  0.2921
 5234SOL    HW127161   3.688   0.416   3.868 -0.5048  4.2266  1.5760
 5234SOL    HW227162   3.761   0.379   3.750  0.9993  0.8696 -0.1119
 5235SOL     OW27163   2.889   4.256   5.278  0.2593  0.1065 -0.4495
 5235SOL    HW127164   2.936   4.282   5.358  0.5494 -1.8632  0.0208
 5235SOL    HW227165   2.820   4.322   5.276 -0.4632 -0.6868 -1.5300
 5236SOL     OW27166   2.103   0.515   5.193 -0.6719  0.3013 -0.5748
 5236SOL    HW127167   2.096   0.528   5.098  1.6235  0.3091 -0.7363
 5236SOL    HW227168   2.008   0.519   5.209 -0.3620  3.4657  0.4989
 5237SOL     OW27169   4.611   1.240   2.886 -0.5108 -0.4529 -0.3039
 5237SOL    HW127170   4.695   1.205   2.917 -0.2237 -0.5934 -1.2559
 5237SOL    HW227171   4.633   1.306   2.820  1.7284 -0.7674  0.1025
 5238SOL     OW27172   3.643   2.432   4.649 -0.1417  0.3113 -0.0698
 5238SOL    HW127173   3.580   2.501   4.627  0.3811  0.6854 -0.3995
 5238SOL    HW227174   3.594   2.351   4.664  0.0917  0.0119 -0.9014
 5239SOL     OW27175   4.725   4.660   2.615  0.5755  0.1905 -0.0206
 5239SOL    HW127176   4.723   4.603   2.692  1.5390 -2.7334 -2.1691
 5239SOL    HW227177   0.062   4.612   2.562 -1.4879  0.3555 -2.6109
 5240SOL     OW27178   1.903   0.501  14.179  0.0335 -0.5845  0.5789
 5240SOL    HW127179   1.915   0.595  14.162 -0.3348 -0.7705 -0.7898
 5240SOL    HW227180   1.912   0.501  14.274  2.4293  0.8678  0.3606
 5241SOL     OW27181   3.468   1.795   5.673 -0.0678 -0.5145 -0.0104
 5241SOL    HW127182   3.534   1.730   5.695 -0.1100 -0.0984  1.3143
 5241SOL    HW227183   3.472   1.782   5.578 -0.4903 -2.4280  0.2310
 5242SOL     OW27184   3.735   0.922  16.986  0.2189 -0.0765  0.0448
 5242SOL    HW127185   3.789   0.846  17.007 -0.8427  0.2048  3.8077
 5242SOL    HW227186   3.692   0.930  17.071 -1.2088  0.2605 -0.7007
 5243SOL     OW27187   1.108   0.798   9.403 -0.4525  0.0588  0.5685
 5243SOL    HW127188   1.090   0.872   9.461  1.8906 -0.1260  1.5102
 5243SOL    HW227189   1.172   0.843   9.347 -1.1960 -1.2677 -1.3393
 5244SOL     OW27190   4.659   0.674   3.421 -0.2770  0.5230  0.0244
 5244SOL    HW127191   4.670   0.624   3.501 -1.2759  0.7497  0.3041
 5244SOL    HW227192   0.012   0.644   3.376 -0.2910  2.3835 -1.2714
 5245SOL     OW27193   0.083   4.645  15.531 -0.3215  0.6146  0.4121
 5245SOL    HW127194   0.092   0.015  15.538 -0.1811  0.8221 -2.6420
 5245SOL    HW227195   4.715   4.644  15.514 -0.3620 -0.1494  0.7108
 5246SOL     OW27196   0.075   1.454  16.798  0.3336  0.1304 -0.4873
 5246SOL    HW127197   4.723   1.485  16.845  0.0056 -1.1037 -0.2057
 5246SOL    HW227198   0.042   1.458  16.708  1.0545 -1.4022 -0.8086
 5247SOL     OW27199   3.351   0.875   7.000  0.2762  0.2510  0.4042
 5247SOL    HW127200   3.347   0.929   7.079  1.4125 -1.0086  1.3146
 5247SOL    HW227201   3.438   0.900   6.971  0.2782 -2.0562 -1.5780
 5248SOL     OW27202   3.952   0.112   2.294  0.4268  0.3686  0.0272
 5248SOL    HW127203   4.045   0.096   2.305  0.0576 -2.3820 -0.9824
 5248SOL    HW227204   3.960   0.173   2.220  1.1432  0.8925  0.5345
 5249SOL     OW27205   0.664   0.651   9.278 -0.3161 -0.1346  0.1122
 5249SOL    HW127206   0.597   0.709   9.316  1.4567  0.9390  1.6021
 5249SOL    HW227207   0.660   0.678   9.186  2.2297 -1.5722 -0.4197
 5250SOL     OW27208   2.553   3.927   6.594  0.0766  0.0641 -0.4675
 5250SOL    HW127209   2.576   3.877   6.672  0.3353  0.9645  0.0326
 5250SOL    HW227210   2.641   3.944   6.561  0.4105 -0.7719 -0.0077
 5251SOL     OW27211   0.264   4.643   5.754  0.0890  0.0659  0.2786
 5251SOL    HW127212   0.284   4.674   5.665  1.2291  0.5415  0.7038
 5251SOL    HW227213   0.282   4.549   5.759  0.5477  0.2202  1.5592
 5252SOL     OW27214   4.076   1.960   2.064  0.0341  0.4151  0.1043
 5252SOL    HW127215   3.994   2.008   2.077  0.6655  1.5187  0.0033
 5252SOL    HW227216   4.055   1.881   2.114 -0.8337  0.2722 -0.4756
 5253SOL     OW27217   2.125   3.282   4.020 -0.0352  0.0711  0.0757
 5253SOL    HW127218   2.092   3.223   3.952 -0.9090 -0.3681  0.8695
 5253SOL    HW227219   2.214   3.251   4.034  0.6585  1.6117 -1.0057
 5254SOL     OW27220   0.296   2.174   2.591 -0.5651  0.1433 -0.0064
 5254SOL    HW127221   0.284   2.110   2.660 -1.0119  0.2326  0.0012
 5254SOL    HW227222   0.219   2.155   2.537 -0.6579 -0.3895  0.3182
 5255SOL     OW27223   4.476   1.339  14.664  0.6699 -0.2050  0.0742
 5255SOL    HW127224   4.512   1.425  14.685 -1.7630  1.0518 -0.9389
 5255SOL    HW227225   4.403   1.336  14.726 -1.5893  1.0113 -2.5497
 5256SOL     OW27226   3.161   2.421   4.828  0.2585 -0.0896 -0.4167
 5256SOL    HW127227   3.145   2.451   4.739  2.7160  0.0287 -0.8295
 5256SOL    HW227228   3.119   2.335   4.827  0.6373 -0.2744 -0.4785
 5257SOL     OW27229   0.032   0.461   3.876 -0.1318 -0.1133  0.0925
 5257SOL    HW127230   4.683   0.448   3.933 -0.9578 -1.0946 -1.2112
 5257SOL    HW227231   4.709   0.451   3.794 -0.5032  1.2174  0.1614
 5258SOL     OW27232   3.763   4.571  13.399  0.2185 -0.3988 -0.5019
 5258SOL    HW127233   3.677   4.533  13.383  0.1650 -0.3867 -0.2345
 5258SOL    HW227234   3.782   4.520  13.477  2.7646 -0.1643 -0.9671
 5259SOL     OW27235   1.004   0.507   6.226 -0.1903  0.0177 -0.0522
 5259SOL    HW127236   1.045   0.588   6.254 -0.8620 -0.7667  3.2066
 5259SOL    HW227237   0.991   0.460   6.309 -0.4969 -3.0067 -1.8140
 5260SOL     OW27238   1.241   4.015   2.867  0.9798 -0.0285  0.1707
 5260SOL    HW127239   1.336   4.021   2.870  0.9740  0.1024  0.1011
 5260SOL    HW227240   1.239   3.961   2.946  1.6736 -0.5127 -0.1443
 5261SOL     OW27241   2.795   2.329   9.486  0.2300 -0.5876 -0.0894
 5261SOL    HW127242   2.882   2.325   9.525  0.8990 -1.9271 -1.7220
 5261SOL    HW227243   2.741   2.359   9.560  0.0387  0.0225 -0.4773
 5262SOL     OW27244   3.665   0.757   1.005  0.4090 -0.4703  0.1477
 5262SOL    HW127245   3.652   0.774   1.099  0.8134 -0.8470  0.2736
 5262SOL    HW227246   3.680   0.842   0.965  2.0197 -0.0846  1.5883
 5263SOL     OW27247   3.326   3.622   0.241  0.0637  0.3908  0.4145
 5263SOL    HW127248   3.342   3.711   0.272  3.6699 -0.1275  0.0319
 5263SOL    HW227249   3.272   3.639   0.163  0.6510  0.8179  0.1040
 5264SOL     OW27250   0.510   3.216   8.441  0.0049 -0.4672 -0.1561
 5264SOL    HW127251   0.558   3.295   8.468  0.4238  0.1655 -2.7624
 5264SOL    HW227252   0.433   3.231   8.496  0.0677 -0.7257  0.0004
 5265SOL     OW27253   3.445   3.132   1.871  0.0163 -0.0480  0.0637
 5265SOL    HW127254   3.500   3.184   1.930 -1.6901  0.3484  1.3167
 5265SOL    HW227255   3.518   3.086   1.830 -2.1985 -2.4866 -1.1552
 5266SOL     OW27256   3.929   0.719   3.968 -0.3814 -0.1667 -0.3865
 5266SOL    HW127257   3.870   0.794   3.964  1.3344  1.0538 -2.9549
 5266SOL    HW227258   3.867   0.646   3.972 -0.0418 -0.4631 -0.5226
 5267SOL     OW27259   2.046   2.047   5.600  0.1766 -0.7779 -0.8221
 5267SOL    HW127260   2.060   2.085   5.513  2.0257  2.2099  0.7787
 5267SOL    HW227261   1.965   1.996   5.597  0.0807 -0.6925  0.6694
 5268SOL     OW27262   0.347   2.249   5.605 -0.4415 -0.1578 -0.0391
 5268SOL    HW127263   0.290   2.172   5.612 -0.9982  0.3757  1.3125
 5268SOL    HW227264   0.289   2.321   5.578  0.3234  0.0329 -1.1969
 5269SOL     OW27265   2.860   4.181   7.388  0.2711  0.1408  0.1883
 5269SOL    HW127266   2.943   4.177   7.434  0.4444 -0.6623 -0.1921
 5269SOL    HW227267   2.798   4.176   7.460  0.9430  2.0959  0.9143
 5270SOL     OW27268   0.357   4.051   7.550 -0.7740  0.4255 -0.8058
 5270SOL    HW127269   0.320   3.968   7.581  1.3701  0.3575  1.5188
 5270SOL    HW227270   0.357   4.030   7.456 -1.4942 -0.2649 -0.6541
 5271SOL     OW27271   2.435   1.556  13.975 -0.0358 -0.0571  0.6291
 5271SOL    HW127272   2.350   1.543  14.016 -0.4567 -0.5458 -0.3942
 5271SOL    HW227273   2.481   1.628  14.018  1.1888  0.6016 -1.7751
 5272SOL     OW27274   1.414   0.319  14.168  0.3960  0.4752  0.4970
 5272SOL    HW127275   1.400   0.224  14.158  0.8204  0.2979  1.5785
 5272SOL    HW227276   1.392   0.323  14.261  0.3574 -2.1441  0.6204
 5273SOL     OW27277   3.356   4.118   0.316  0.4433  0.0291 -0.1875
 5273SOL    HW127278   3.441   4.075   0.309  0.7489  0.4336  0.8865
 5273SOL    HW227279   3.379   4.168   0.395  1.4220 -1.4462  0.4475
 5274SOL     OW27280   3.903   3.562   5.922 -0.0434 -0.3772 -0.3948
 5274SOL    HW127281   3.814   3.527   5.918  0.3075 -1.6567  2.6246
 5274SOL    HW227282   3.924   3.570   5.829 -0.5204  0.1120 -0.4613
 5275SOL     OW27283   3.390   0.365   4.655  0.1557  0.0048  0.0389
 5275SOL    HW127284   3.354   0.423   4.722  0.9650 -1.8647  2.0961
 5275SOL    HW227285   3.306   0.343   4.614  1.2133 -1.2552 -1.4731
 5276SOL     OW27286   4.160   3.672   4.740 -0.0900  0.6722  0.1020
 5276SOL    HW127287   4.144   3.733   4.812 -2.2925  0.8663 -0.5418
 5276SOL    HW227288   4.223   3.731   4.699  1.3241 -2.2527 -1.9310
 5277SOL     OW27289   0.065   2.270   1.145  0.5297 -0.2753  0.0680
 5277SOL    HW127290   0.117   2.196   1.116 -0.7608 -1.0237 -0.3434
 5277SOL    HW227291   0.091   2.337   1.082 -0.8096  1.2941  1.1675
 5278SOL     OW27292   0.893   0.268   0.841  0.1866 -0.4148  0.0423
 5278SOL    HW127293   0.828   0.282   0.773  0.7611 -0.9084 -0.6143
 5278SOL    HW227294   0.936   0.191   0.804  3.3434  0.9433  0.8798
 5279SOL     OW27295   4.656   2.067  15.607 -0.2452  0.0383 -0.4302
 5279SOL    HW127296   4.704   1.989  15.578  0.5732  1.0201 -1.7047
 5279SOL    HW227297   4.694   2.137  15.555  0.5869  1.0393  1.5216
 5280SOL     OW27298   3.380   3.679  11.574  0.5369 -0.2325 -0.0015
 5280SOL    HW127299   3.414   3.712  11.658  0.2219  0.3045 -0.0855
 5280SOL    HW227300   3.352   3.589  11.591 -1.1561  0.4665  0.8904
 5281SOL     OW27301   4.572   4.488   3.533  0.4651  0.4111  0.6755
 5281SOL    HW127302   4.505   4.432   3.496  0.0344  0.5476  1.2531
 5281SOL    HW227303   4.580   4.542   3.454  0.7930 -1.3576 -0.4896
 5282SOL     OW27304   3.947   3.478   2.150 -0.1340 -0.2215 -0.2557
 5282SOL    HW127305   3.992   3.474   2.065  0.4866 -2.8296  0.1952
 5282SOL    HW227306   3.858   3.463   2.121  1.0466 -0.3383 -3.8266
 5283SOL     OW27307   2.928   0.249   3.766 -0.0930 -0.0069  0.7896
 5283SOL    HW127308   3.012   0.290   3.743 -0.1129  0.7238  1.9965
 5283SOL    HW227309   2.872   0.301   3.708  1.3844 -0.7447 -1.2866
 5284SOL     OW27310   1.100   0.469   6.953  0.2546  0.1565 -0.1115
 5284SOL    HW127311   1.011   0.501   6.936  0.5570  1.4109  0.6892
 5284SOL    HW227312   1.162   0.501   6.887  1.1036  0.6581  0.9277
 5285SOL     OW27313   0.143   4.181   1.562  0.0650 -0.3168  0.0932
 5285SOL    HW127314   0.052   4.166   1.589 -0.5058 -1.6997 -2.6595
 5285SOL    HW227315   0.132   4.144   1.474 -0.7491 -1.9819  0.8810
 5286SOL     OW27316   1.800   0.297  13.496  0.3903  0.3594  0.3177
 5286SOL    HW127317   1.790   0.277  13.589  0.5137 -2.0172 -0.1650
 5286SOL    HW227318   1.729   0.240  13.464  0.4715  0.1413  0.5250
 5287SOL     OW27319   4.427   2.175   1.952 -0.3984 -0.1335  1.0339
 5287SOL    HW127320   4.471   2.210   1.874 -0.6225 -1.2742  0.3926
 5287SOL    HW227321   4.498   2.161   2.014 -0.2619 -0.9880  0.6868
 5288SOL     OW27322   1.208   0.011   2.132 -0.6022 -0.5537 -0.1932
 5288SOL    HW127323   1.224   0.056   2.215  1.5969  0.1161 -0.9521
 5288SOL    HW227324   1.168   4.656   2.162 -0.7359 -0.1308  0.7556
 5289SOL     OW27325   2.461   1.368   5.187 -0.4829 -0.1408 -0.5819
 5289SOL    HW127326   2.444   1.276   5.209  0.3506 -0.0350  0.5234
 5289SOL    HW227327   2.401   1.420   5.239  0.8205  0.3866  0.3846
 5290SOL     OW27328   2.585   0.655   2.419 -0.2458  0.2835 -0.4180
 5290SOL    HW127329   2.505   0.694   2.383 -0.4659  0.4326  0.2337
 5290SOL    HW227330   2.596   0.575   2.367  0.6241  0.3454 -0.3285
 5291SOL     OW27331   2.532   0.024   7.996 -0.0512 -0.6137 -0.1364
 5291SOL    HW127332   2.474   4.719   7.927  1.0391 -0.9693 -0.8975
 5291SOL    HW227333   2.575   0.100   7.957 -0.4166  0.3158  1.2541
 5292SOL     OW27334   4.432   2.872   7.960 -0.2647 -0.4407 -0.5945
 5292SOL    HW127335   4.472   2.831   7.883 -1.1551  0.2846 -1.4373
 5292SOL    HW227336   4.501   2.860   8.026  1.3886  1.1185 -2.0608
 5293SOL     OW27337   1.859   2.011   6.110  0.0860  0.2266  0.0558
 5293SOL    HW127338   1.813   2.054   6.182  1.2289  2.6166 -0.6451
 5293SOL    HW227339   1.800   1.937   6.093  0.7521  0.2394 -2.1867
 5294SOL     OW27340   2.334   1.899   3.879  0.1500 -0.1147  0.2913
 5294SOL    HW127341   2.334   1.973   3.819  1.2961  0.7956  1.3915
 5294SOL    HW227342   2.241   1.889   3.897 -0.0452 -0.1836 -0.7739
 5295SOL     OW27343   4.104   2.020   6.324  0.7315  0.5210  0.0022
 5295SOL    HW127344   4.148   2.011   6.408  0.0647  0.9880  0.4006
 5295SOL    HW227345   4.181   2.018   6.268 -0.7875  0.9944 -2.1309
 5296SOL     OW27346   0.589   2.265   6.022  0.7904 -0.4340 -0.0075
 5296SOL    HW127347   0.571   2.283   5.929  0.9461 -2.3872 -0.4040
 5296SOL    HW227348   0.591   2.352   6.062 -3.8568 -0.5492  0.4455
 5297SOL     OW27349   0.686   1.282   7.368  0.4279 -0.2723 -0.8871
 5297SOL    HW127350   0.676   1.230   7.447 -0.4136 -0.3323 -1.0335
 5297SOL    HW227351   0.759   1.336   7.399 -0.1518  0.1180 -0.1904
 5298SOL     OW27352   0.996   4.104   3.101  0.2730 -0.0503 -0.4048
 5298SOL    HW127353   1.023   4.177   3.046  0.1845  1.5033  1.6115
 5298SOL    HW227354   1.047   4.026   3.078  1.6444  1.1903 -1.5625
 5299SOL     OW27355   3.167   0.327   6.549 -0.2359  0.5179  0.3913
 5299SOL    HW127356   3.200   0.343   6.638 -0.3017  0.4538  0.4270
 5299SOL    HW227357   3.179   0.412   6.505 -0.0765 -1.0964 -2.6584
 5300SOL     OW27358   2.502   4.334   7.922 -0.5485 -0.2485 -0.0306
 5300SOL    HW127359   2.424   4.279   7.926  0.9701 -2.4574 -0.9128
 5300SOL    HW227360   2.565   4.265   7.901  0.1361  0.6062 -0.7699
 5301SOL     OW27361   0.771   2.631   3.788 -0.3300  0.2587  0.7543
 5301SOL    HW127362   0.676   2.640   3.794 -0.3614  1.0110 -0.8339
 5301SOL    HW227363   0.801   2.695   3.853 -0.8162  1.2002  0.0470
 5302SOL     OW27364   3.815   1.647  12.414 -0.2409 -0.7514  0.0124
 5302SOL    HW127365   3.848   1.732  12.443 -0.9288  0.1115 -1.7198
 5302SOL    HW227366   3.724   1.672  12.430 -0.0003  0.4912 -0.5170
 5303SOL     OW27367   3.341   3.463   9.784  0.0435 -0.7320  0.4249
 5303SOL    HW127368   3.363   3.369   9.785 -0.8053 -0.9330 -0.1880
 5303SOL    HW227369   3.276   3.460   9.714 -0.5443  0.9028  0.9226
 5304SOL     OW27370   0.008   2.772   7.270 -0.4809  0.4379 -0.6268
 5304SOL    HW127371   4.670   2.842   7.282 -0.8828  0.0483 -0.5296
 5304SOL    HW227372   0.048   2.768   7.357  3.5202 -0.4746 -2.4773
 5305SOL     OW27373   0.864   4.329  17.095  0.0979 -0.5510 -0.1154
 5305SOL    HW127374   0.816   4.325  17.178 -1.7667 -0.2009 -1.1743
 5305SOL    HW227375   0.821   4.265  17.040  0.8686 -1.2205  0.0615
 5306SOL     OW27376   1.095   0.879   3.107 -0.3293 -0.1169 -0.3622
 5306SOL    HW127377   1.169   0.818   3.106 -0.0459  0.1874  1.8336
 5306SOL    HW227378   1.068   0.864   3.016 -0.3042 -1.0285 -0.2198
 5307SOL     OW27379   2.126   0.620  13.973  0.2905 -0.1905 -0.0945
 5307SOL    HW127380   2.121   0.525  13.973  0.8539 -0.2243 -2.0908
 5307SOL    HW227381   2.055   0.636  13.910  0.1005 -0.3718  0.0710
 5308SOL     OW27382   0.402   3.946   4.313  0.0688  0.1425 -0.7687
 5308SOL    HW127383   0.397   3.906   4.226 -2.4202  1.0416 -1.0278
 5308SOL    HW227384   0.382   4.036   4.287  0.3760  0.3368 -0.3338
 5309SOL     OW27385   3.619   1.571   7.345 -0.1377  0.3179 -0.3805
 5309SOL    HW127386   3.713   1.551   7.347 -0.3280 -0.3753  1.5981
 5309SOL    HW227387   3.599   1.590   7.253  4.0438 -1.8481 -1.7546
 5310SOL     OW27388   2.864   4.449  15.247  0.1955  0.0148  0.7673
 5310SOL    HW127389   2.778   4.407  15.252 -0.8883  2.4953  3.1714
 5310SOL    HW227390   2.909   4.404  15.318 -0.5391 -0.6221  0.8336
 5311SOL     OW27391   1.958   1.370   2.722 -0.2955 -0.3779  0.0757
 5311SOL    HW127392   1.871   1.329   2.714 -0.2261 -0.5253  0.0660
 5311SOL    HW227393   1.952   1.448   2.668 -0.2846 -0.2613  0.2439
 5312SOL     OW27394   4.251   0.928   6.826  0.2875 -0.0931  0.4664
 5312SOL    HW127395   4.340   0.901   6.846 -0.2287 -1.5695  0.7416
 5312SOL    HW227396   4.217   0.954   6.912 -1.2759 -0.6807  0.0310
 5313SOL     OW27397   2.062   3.254   5.119 -0.1435 -0.1317 -1.2384
 5313SOL    HW127398   2.022   3.205   5.191 -0.1612  1.2811 -0.2849
 5313SOL    HW227399   2.135   3.192   5.115  0.8055  0.8776  0.2000
 5314SOL     OW27400   4.264   4.465   7.591 -0.3193 -0.1107 -0.3754
 5314SOL    HW127401   4.331   4.437   7.529  0.3964 -0.4592  0.5510
 5314SOL    HW227402   4.297   4.553   7.609  1.3057 -0.4431 -1.7154
 5315SOL     OW27403   3.176   0.920   7.414 -0.2303  0.3180 -0.4842
 5315SOL    HW127404   3.165   0.853   7.483  0.4917  1.9333  1.2016
 5315SOL    HW227405   3.208   0.995   7.464 -1.1136  0.2721  0.1502
 5316SOL     OW27406   3.838   1.069  13.305 -0.5419  0.3285 -0.2117
 5316SOL    HW127407   3.889   1.135  13.259 -0.8220 -0.7874 -2.1403
 5316SOL    HW227408   3.905   1.047  13.370 -1.7849  0.3710  1.0850
 5317SOL     OW27409   1.337   1.916   2.763 -0.6047 -0.0237  0.9903
 5317SOL    HW127410   1.261   1.873   2.725  0.0012  1.2124 -1.6482
 5317SOL    HW227411   1.369   1.848   2.823 -0.9361 -0.3349  0.8091
 5318SOL     OW27412   0.600   1.719   5.713  0.2337 -0.3563 -0.1863
 5318SOL    HW127413   0.529   1.670   5.672  0.4730 -1.7924  1.1146
 5318SOL    HW227414   0.555   1.745   5.794  1.0741 -0.3990  0.2997
 5319SOL     OW27415   2.291   3.670   4.276  0.4194  0.0998  0.3285
 5319SOL    HW127416   2.260   3.609   4.209  0.5299  0.8352 -0.3956
 5319SOL    HW227417   2.342   3.732   4.224  1.9769  0.3628  2.1584
 5320SOL     OW27418   3.422   2.923  14.071  0.0111  0.0799  0.2418
 5320SOL    HW127419   3.505   2.877  14.070 -0.1325 -0.1700  0.0399
 5320SOL    HW227420   3.361   2.867  14.023  0.1711  0.2455 -0.1515
 5321SOL     OW27421   2.639   4.180   9.266 -0.0942 -0.6898  0.1121
 5321SOL    HW127422   2.731   4.200   9.248 -0.4966  0.1348 -0.9998
 5321SOL    HW227423   2.620   4.266   9.302  0.9668  0.2531 -1.5785
 5322SOL     OW27424   1.778   4.052  17.697 -0.2701  0.3883  0.6634
 5322SOL    HW127425   1.696   4.045  17.647  1.0260 -3.3802 -0.9275
 5322SOL    HW227426   1.831   3.988  17.649 -1.2316  0.3245 -0.3340
 5323SOL     OW27427   0.909   2.094   3.640  0.1243 -0.2143  0.0365
 5323SOL    HW127428   0.927   2.061   3.728  1.9832  1.3034  0.2457
 5323SOL    HW227429   0.999   2.088   3.606 -0.9548 -1.7458 -2.5233
 5324SOL     OW27430   0.068   1.201   7.685 -0.3513 -0.0503 -0.6296
 5324SOL    HW127431   0.012   1.148   7.742  0.1659 -0.5980 -0.6231
 5324SOL    HW227432   0.155   1.167   7.705 -0.4217  0.7490  0.9751
 5325SOL     OW27433   4.224   3.783   2.248 -0.5674 -0.2175 -0.4487
 5325SOL    HW127434   4.312   3.754   2.225  0.0495 -0.0619  1.6592
 5325SOL    HW227435   4.182   3.702   2.276 -1.5624  0.5889  0.3911
 5326SOL     OW27436   4.227   1.110   2.893  0.4119 -0.1345  0.7578
 5326SOL    HW127437   4.199   1.073   2.810  0.6605  2.3107 -0.4244
 5326SOL    HW227438   4.222   1.205   2.878 -2.5463 -0.0779  2.1663
 5327SOL     OW27439   3.201   0.503  16.920  0.6626  0.3067  0.0894
 5327SOL    HW127440   3.222   0.440  16.852 -0.5569  1.4524 -1.3444
 5327SOL    HW227441   3.223   0.583  16.871  0.9868 -0.7928 -1.5281
 5328SOL     OW27442   0.161   4.533   2.436 -0.4192  0.2839  0.1612
 5328SOL    HW127443   0.094   4.471   2.405 -2.1425  0.2541  3.9080
 5328SOL    HW227444   0.236   4.473   2.431 -0.2295  0.6355 -1.2790
 5329SOL     OW27445   1.086   2.200   1.143  0.0871 -0.5139  0.1708
 5329SOL    HW127446   1.010   2.242   1.184  0.0202 -4.1726  3.7488
 5329SOL    HW227447   1.148   2.271   1.161 -1.7128  0.4132  2.7724
 5330SOL     OW27448   2.467   4.509   5.416 -0.3671 -0.1341 -0.1473
 5330SOL    HW127449   2.390   4.467   5.378 -1.8499  2.8907 -0.4444
 5330SOL    HW227450   2.454   4.601   5.392 -0.1233 -0.2249 -0.6310
 5331SOL     OW27451   3.252   3.874  11.442  0.5991  0.3779  0.1363
 5331SOL    HW127452   3.299   3.795  11.468 -1.1253  0.2254  2.7942
 5331SOL    HW227453   3.300   3.935  11.499 -0.2054  0.5740  0.5977
 5332SOL     OW27454   0.686   3.638  16.367 -0.2615 -0.3745  0.3459
 5332SOL    HW127455   0.752   3.568  16.368 -0.0348 -0.1236  2.2031
 5332SOL    HW227456   0.607   3.583  16.372 -0.7741  0.0578 -3.2695
 5333SOL     OW27457   3.215   1.340  14.828 -0.4827 -0.0079  0.7174
 5333SOL    HW127458   3.249   1.409  14.770 -0.3504  0.5184  1.4205
 5333SOL    HW227459   3.126   1.347  14.796  0.2263 -0.0514 -1.2707
 5334SOL     OW27460   1.897   3.305  17.303  0.3288 -0.4171  0.0193
 5334SOL    HW127461   1.992   3.302  17.308  0.3815  0.0677 -0.6829
 5334SOL    HW227462   1.873   3.394  17.329  0.5675 -1.0582  2.4026
 5335SOL     OW27463   0.173   0.011   5.235 -0.1669 -0.3396 -0.3466
 5335SOL    HW127464   0.180   4.719   5.329  2.0653 -2.2791 -0.8880
 5335SOL    HW227465   0.143   4.651   5.206 -1.6091 -0.5525  1.8545
 5336SOL     OW27466   4.691   3.640   9.373  0.2341  0.3298  0.0833
 5336SOL    HW127467   0.014   3.630   9.292  0.1524  1.5430 -0.1100
 5336SOL    HW227468   4.683   3.547   9.397 -1.7394  0.5250  0.1539
 5337SOL     OW27469   0.435   2.128   3.493 -0.9576 -0.0952 -0.1396
 5337SOL    HW127470   0.370   2.199   3.487 -0.6351  0.2162  0.0500
 5337SOL    HW227471   0.426   2.100   3.402 -2.0443 -3.9296  1.1248
 5338SOL     OW27472   2.287   3.457   5.837  0.0678 -0.4832  0.4367
 5338SOL    HW127473   2.298   3.398   5.912  1.3220 -1.1233 -0.2546
 5338SOL    HW227474   2.214   3.409   5.797  0.0633 -1.8723  2.0500
 5339SOL     OW27475   4.227   2.734   5.998 -0.0848 -0.4131 -0.4466
 5339SOL    HW127476   4.202   2.729   6.091  1.8915  0.3309  0.1111
 5339SOL    HW227477   4.235   2.828   5.985  1.3953 -0.5561 -0.5217
 5340SOL     OW27478   2.046   2.854  16.184  0.1632 -0.2871  0.1496
 5340SOL    HW127479   2.117   2.862  16.247  1.5116 -0.1113 -1.3847
 5340SOL    HW227480   2.042   2.759  16.169  0.7113 -0.3706  0.5451
 5341SOL     OW27481   3.891   0.186  10.496  0.0956 -0.0478 -0.3141
 5341SOL    HW127482   3.943   0.267  10.488  0.2791 -0.1330 -0.0146
 5341SOL    HW227483   3.930   0.139  10.423  2.0979 -1.7279  1.8305
 5342SOL     OW27484   2.145   4.603   1.094 -0.1535 -0.3600  0.0037
 5342SOL    HW127485   2.158   4.630   1.185  3.9910 -1.7365 -0.1532
 5342SOL    HW227486   2.106   4.687   1.068 -0.0060 -0.4464 -0.4954
 5343SOL     OW27487   3.207   3.527   2.747  0.3694  0.4388  0.9022
 5343SOL    HW127488   3.286   3.572   2.719  0.1137  0.0353 -0.4626
 5343SOL    HW227489   3.160   3.604   2.780  0.2152  1.1777 -1.0135
 5344SOL     OW27490   0.520   4.499   3.387 -0.4844 -0.2296 -0.2251
 5344SOL    HW127491   0.594   4.449   3.353 -2.5017 -2.7612 -0.9456
 5344SOL    HW227492   0.486   4.432   3.447  3.5910 -1.6478  0.5202
 5345SOL     OW27493   3.580   3.947   0.717  0.0809  0.2622 -0.1574
 5345SOL    HW127494   3.528   3.918   0.792  1.3334 -0.0286  0.5911
 5345SOL    HW227495   3.535   3.903   0.644 -0.8768  2.2930 -0.7740
 5346SOL     OW27496   1.802   4.207   1.198 -0.1076  0.5558 -0.4624
 5346SOL    HW127497   1.864   4.134   1.198 -0.3610  0.3400  1.2163
 5346SOL    HW227498   1.858   4.268   1.151 -0.9684 -1.5095 -4.1143
 5347SOL     OW27499   3.060   3.917   8.982  0.6911  0.0591  0.3757
 5347SOL    HW127500   3.043   4.009   8.963 -1.6924 -0.7838 -1.5404
 5347SOL    HW227501   3.110   3.889   8.906 -1.3739 -1.0915 -0.5637
 5348SOL     OW27502   0.800   2.413  12.652  0.3424  0.7308 -0.5932
 5348SOL    HW127503   0.859   2.457  12.712 -0.7308  2.6212 -0.9446
 5348SOL    HW227504   0.791   2.477  12.582  2.4704  1.3853 -0.2697
 5349SOL     OW27505   0.780   1.116   6.384  0.6005 -0.3296  0.2415
 5349SOL    HW127506   0.734   1.049   6.435 -0.4674  0.0914 -0.1802
 5349SOL    HW227507   0.837   1.053   6.340  1.5701  0.0596  0.9242
 5350SOL     OW27508   2.320   2.611   8.078  0.2389  0.1849 -0.5702
 5350SOL    HW127509   2.380   2.600   8.004  0.5010  3.3629 -0.8059
 5350SOL    HW227510   2.264   2.534   8.067 -0.2348  0.6031 -1.0638
 5351SOL     OW27511   1.134   2.608   6.161 -0.1184  0.0713 -0.1103
 5351SOL    HW127512   1.155   2.534   6.218 -0.8833  0.0524  0.1582
 5351SOL    HW227513   1.215   2.658   6.157  0.6027 -0.9112  2.2600
 5352SOL     OW27514   2.945   1.852  13.379  0.3668  0.4695  0.7026
 5352SOL    HW127515   2.904   1.844  13.465 -2.5878  0.3013 -0.7402
 5352SOL    HW227516   2.980   1.941  13.389  0.9341  0.3428 -0.1403
 5353SOL     OW27517   0.308   1.683   3.557  0.2052  0.4080 -0.4296
 5353SOL    HW127518   0.371   1.755   3.547 -0.6340  1.3613  1.1257
 5353SOL    HW227519   0.299   1.675   3.652  0.5595 -1.1775 -0.5248
 5354SOL     OW27520   4.118   0.801   2.032 -0.0941 -0.2885 -0.1589
 5354SOL    HW127521   4.201   0.771   2.068  0.2383  2.1220  1.0693
 5354SOL    HW227522   4.135   0.894   2.020  0.4651 -0.4857 -0.9301
 5355SOL     OW27523   2.544   3.144   3.307 -0.5801  0.1182 -0.7461
 5355SOL    HW127524   2.576   3.234   3.300  0.7232 -0.0611  2.6932
 5355SOL    HW227525   2.455   3.152   3.273 -1.2299  2.4387  1.4584
 5356SOL     OW27526   0.281   4.107   5.223 -0.8202  0.6605  0.0628
 5356SOL    HW127527   0.327   4.066   5.297 -0.2090 -1.5588 -1.5622
 5356SOL    HW227528   0.322   4.067   5.146 -0.9094 -0.6038  0.6690
 5357SOL     OW27529   3.474   1.917   2.313 -0.2364  0.3795  0.2641
 5357SOL    HW127530   3.431   1.953   2.390  1.1866 -1.7048  2.0606
 5357SOL    HW227531   3.483   1.825   2.339  2.1656 -0.1045 -2.2174
 5358SOL     OW27532   3.931   0.975   4.857  0.2297 -0.6192  0.3554
 5358SOL    HW127533   3.962   0.885   4.853  1.4625 -0.1551 -0.4512
 5358SOL    HW227534   3.880   0.980   4.776  0.6591  1.2360  0.1977
 5359SOL     OW27535   2.299   1.408   7.045 -0.5027 -0.6125  0.3716
 5359SOL    HW127536   2.245   1.485   7.062  0.8058  0.5447 -0.7862
 5359SOL    HW227537   2.310   1.419   6.951 -0.9831 -2.0765  0.1469
 5360SOL     OW27538   0.998   2.063   3.900  0.2096 -0.7367 -0.6185
 5360SOL    HW127539   1.042   2.126   3.958  0.1778  1.2111 -2.7073
 5360SOL    HW227540   1.019   1.984   3.950 -3.1787 -0.0402  1.9228
 5361SOL     OW27541   2.922   1.710   9.494  0.0124  0.1141 -0.7572
 5361SOL    HW127542   2.915   1.639   9.430 -1.1899 -2.0800  1.8186
 5361SOL    HW227543   2.921   1.666   9.579 -4.1365  0.7872 -0.4622
 5362SOL     OW27544   4.244   0.147   5.621 -0.0972  0.1400 -0.3182
 5362SOL    HW127545   4.290   0.101   5.550 -1.4309 -2.1163  0.2531
 5362SOL    HW227546   4.159   0.111   5.595  0.0952 -1.0416  0.6847
 5363SOL     OW27547   3.271   0.482  14.167 -0.2130  0.8763 -0.0785
 5363SOL    HW127548   3.199   0.468  14.228  0.3523  0.4121  0.4771
 5363SOL    HW227549   3.238   0.551  14.109  0.0637  0.3498 -0.8719
 5364SOL     OW27550   4.493   4.298  16.374  0.2725  0.8303 -0.2353
 5364SOL    HW127551   4.413   4.283  16.424  0.9348 -0.5659  0.4236
 5364SOL    HW227552   4.488   4.215  16.326 -3.4715  0.6094  0.5366
 5365SOL     OW27553   0.531   2.819   7.819 -0.4448 -0.3175  0.4512
 5365SOL    HW127554   0.623   2.807   7.841  0.2214  1.9061 -1.0796
 5365SOL    HW227555   0.530   2.733   7.777 -3.0993 -0.5404  0.9347
 5366SOL     OW27556   3.057   3.225   6.753  0.0970  0.7813 -0.0377
 5366SOL    HW127557   3.073   3.228   6.847 -1.8762 -1.1379  0.3419
 5366SOL    HW227558   3.043   3.131   6.742  1.4125  0.2808  2.4242
 5367SOL     OW27559   3.084   0.599   2.803  0.9825 -0.1632 -0.6901
 5367SOL    HW127560   3.079   0.607   2.708  0.9322  3.5278 -0.3487
 5367SOL    HW227561   3.048   0.685   2.824 -1.9565 -1.2354 -1.3523
 5368SOL     OW27562   4.224   0.793  12.422 -0.3489  0.0833 -0.0601
 5368SOL    HW127563   4.252   0.706  12.392 -0.1696 -0.3535  1.3831
 5368SOL    HW227564   4.309   0.835  12.410 -0.0698 -0.0804  1.3869
 5369SOL     OW27565   4.223   2.047   3.397  0.2482 -0.1063 -0.7257
 5369SOL    HW127566   4.231   2.016   3.307 -3.0595 -1.6662 -0.4831
 5369SOL    HW227567   4.312   2.044   3.432  0.4563 -0.2873 -1.2812
 5370SOL     OW27568   2.122   0.637   2.337 -0.4520 -0.0855 -0.0625
 5370SOL    HW127569   2.053   0.703   2.335  0.3526  0.8495  2.1581
 5370SOL    HW227570   2.070   0.558   2.349 -0.4045 -0.4334 -2.1384
 5371SOL     OW27571   1.278   2.285   3.592  0.0610 -0.0619  0.0407
 5371SOL    HW127572   1.246   2.196   3.610  0.0015  0.4226  2.3681
 5371SOL    HW227573   1.325   2.263   3.512  0.7200  1.3069  0.0576
 5372SOL     OW27574   3.196   3.159  14.846 -0.0168 -0.6504  0.0326
 5372SOL    HW127575   3.130   3.089  14.843  0.0074 -0.6315 -0.8139
 5372SOL    HW227576   3.193   3.196  14.934  1.6385 -1.6255  0.4956
 5373SOL     OW27577   1.085   1.959   7.275 -0.0979 -0.4516 -0.4614
 5373SOL    HW127578   1.039   1.991   7.197  0.1632  0.0290 -0.4104
 5373SOL    HW227579   1.019   1.960   7.344 -1.4321 -0.5679 -1.7343
 5374SOL     OW27580   1.221   2.111  14.472  0.5430 -0.0258 -0.0561
 5374SOL    HW127581   1.272   2.145  14.545 -0.7984  1.7177  0.0717
 5374SOL    HW227582   1.187   2.033  14.515  1.8785 -0.6169 -0.0753
 5375SOL     OW27583   2.376   2.693   7.107  0.0795 -0.1656 -0.2578
 5375SOL    HW127584   2.300   2.677   7.052 -1.1229 -0.2929  1.4548
 5375SOL    HW227585   2.340   2.725   7.190  0.4235 -1.2834  0.3224
 5376SOL     OW27586   3.985   0.398   6.620 -0.0497 -0.1661  0.2995
 5376SOL    HW127587   3.901   0.427   6.657 -0.3488 -1.0119  0.2671
 5376SOL    HW227588   3.990   0.304   6.633 -1.0025 -0.6608 -3.1075
 5377SOL     OW27589   3.289   4.694   3.300  0.1834 -0.7564  0.4692
 5377SOL    HW127590   3.305   0.042   3.242  2.4256 -1.0886  0.6378
 5377SOL    HW227591   3.380   4.676   3.325  0.2321  1.0410  1.5851
 5378SOL     OW27592   3.615   0.331   4.877 -0.4735  0.0517  0.4755
 5378SOL    HW127593   3.550   0.339   4.947  2.2830 -1.1443  3.1839
 5378SOL    HW227594   3.567   0.276   4.816 -1.4362 -0.4382  1.6712
 5379SOL     OW27595   4.226   0.672   4.193  0.2551 -0.6254 -0.0069
 5379SOL    HW127596   4.135   0.644   4.187  0.1352  0.0720 -1.3907
 5379SOL    HW227597   4.260   0.584   4.210 -0.8202 -0.6796  1.8782
 5380SOL     OW27598   2.573   3.243   1.617 -0.4649  0.0705  0.8728
 5380SOL    HW127599   2.617   3.325   1.638  1.3162  0.2449 -3.6860
 5380SOL    HW227600   2.651   3.189   1.632 -0.0746  0.9310  1.9619
 5381SOL     OW27601   0.084   4.430   1.747  0.3211 -0.2660 -0.2695
 5381SOL    HW127602   0.091   4.360   1.682  0.5299  0.2974 -0.8554
 5381SOL    HW227603   0.166   4.477   1.726 -0.1947  0.1185 -1.4655
 5382SOL     OW27604   4.446   1.979  12.326  0.2931  0.5698  0.3543
 5382SOL    HW127605   4.476   1.935  12.406  2.1519  0.6036 -0.3347
 5382SOL    HW227606   4.481   2.066  12.344 -4.1758  2.2252  0.9711
 5383SOL     OW27607   4.137   4.326   5.573 -0.7360 -0.8085 -0.3006
 5383SOL    HW127608   4.187   4.400   5.608 -1.6171 -0.0865 -0.5760
 5383SOL    HW227609   4.061   4.371   5.536  0.8548  1.8878 -0.2794
 5384SOL     OW27610   0.699   0.272   1.037 -0.5504 -0.1988  0.0746
 5384SOL    HW127611   0.765   0.265   0.969 -0.7908  2.1679 -0.3937
 5384SOL    HW227612   0.731   0.214   1.106  2.0728 -0.9179 -1.7683
 5385SOL     OW27613   3.455   2.057   3.441 -0.1336 -0.4076  0.3260
 5385SOL    HW127614   3.440   2.037   3.349  3.9049 -1.5259 -0.0850
 5385SOL    HW227615   3.397   2.125   3.477  0.5327 -0.2501  1.1034
 5386SOL     OW27616   1.563   1.718   3.557 -0.3885 -0.5255 -0.0023
 5386SOL    HW127617   1.617   1.793   3.533  0.5412 -1.7486 -1.7296
 5386SOL    HW227618   1.476   1.749   3.532 -0.0291  0.3136 -0.2106
 5387SOL     OW27619   2.305   3.707   1.506  0.2951 -0.1152  0.5478
 5387SOL    HW127620   2.329   3.646   1.437 -1.1807  0.6265 -0.6123
 5387SOL    HW227621   2.215   3.718   1.476  0.5393  0.7217  0.1424
 5388SOL     OW27622   3.525   0.181   8.737  0.2711 -0.2382 -0.0356
 5388SOL    HW127623   3.431   0.163   8.741 -0.2266  1.9157 -1.7287
 5388SOL    HW227624   3.530   0.255   8.799 -1.0059 -0.0096 -0.2104
 5389SOL     OW27625   2.764   0.252  17.063 -0.5094  0.4787 -0.2912
 5389SOL    HW127626   2.842   0.287  17.107 -1.1736 -0.5561  1.7023
 5389SOL    HW227627   2.722   0.321  17.012 -1.6791 -1.6948 -2.2256
 5390SOL     OW27628   3.947   1.527   3.317 -0.0297 -0.1613  0.1192
 5390SOL    HW127629   3.923   1.445   3.361 -0.8836  1.1391  2.1128
 5390SOL    HW227630   3.905   1.516   3.231 -0.0751  1.8920 -0.1109
 5391SOL     OW27631   0.923   0.811   1.290  0.1847 -0.5021  0.2754
 5391SOL    HW127632   0.895   0.796   1.380 -0.5904 -1.1733 -0.0819
 5391SOL    HW227633   0.954   0.901   1.295  1.2351 -0.9508  1.8025
 5392SOL     OW27634   2.688   4.072  16.426  0.2256  1.0846 -0.2084
 5392SOL    HW127635   2.719   4.117  16.504 -0.8326  1.9767 -0.3036
 5392SOL    HW227636   2.769   4.073  16.374 -0.1432 -1.5945 -0.8582
 5393SOL     OW27637   0.220   3.768  12.998  0.0046  0.6899  0.3437
 5393SOL    HW127638   0.260   3.833  13.055 -1.0160 -0.0733  1.9415
 5393SOL    HW227639   0.257   3.785  12.911  0.1946 -0.0011  0.2848
 5394SOL     OW27640   4.656   1.081   4.763 -0.0320 -0.1958  0.0418
 5394SOL    HW127641   4.586   1.121   4.815 -1.0179  0.0003 -1.4262
 5394SOL    HW227642   4.643   1.128   4.681 -2.6179  0.9700  1.1285
 5395SOL     OW27643   3.210   2.923   6.876  0.2220  0.1152 -0.0328
 5395SOL    HW127644   3.151   2.895   6.806  0.9276  0.7204 -0.8680
 5395SOL    HW227645   3.296   2.939   6.838  0.4860 -0.5042  0.3108
 5396SOL     OW27646   3.706   1.739  16.904 -0.5914 -0.5234 -0.1693
 5396SOL    HW127647   3.787   1.695  16.930 -0.0151  0.3289 -0.5090
 5396SOL    HW227648   3.668   1.674  16.845  2.2554  0.5107 -3.1743
 5397SOL     OW27649   3.340   4.539   0.567 -0.3456 -0.5650  0.1281
 5397SOL    HW127650   3.383   4.601   0.626  2.4354 -1.2306 -1.2147
 5397SOL    HW227651   3.418   4.493   0.536 -0.7579 -0.6785 -0.7208
 5398SOL     OW27652   2.803   0.300   3.514 -0.0994 -0.1991 -0.0719
 5398SOL    HW127653   2.780   0.392   3.520  0.8469 -0.1158  2.0396
 5398SOL    HW227654   2.875   0.304   3.451 -1.2182  2.6153 -1.1482
 5399SOL     OW27655   4.015   0.764  12.228  0.1239 -0.4903 -0.4858
 5399SOL    HW127656   3.979   0.840  12.274  0.8889  0.2992 -1.1934
 5399SOL    HW227657   4.065   0.733  12.304  1.5744  2.8024 -0.0848
 5400SOL     OW27658   1.448   4.289  17.433  0.0575  0.2512 -0.3223
 5400SOL    HW127659   1.395   4.249  17.502  0.1763  1.1763  0.3105
 5400SOL    HW227660   1.517   4.313  17.496  0.0276  1.4954 -0.7642
 5401SOL     OW27661   3.826   4.490  16.319 -0.2167 -0.1456  0.4733
 5401SOL    HW127662   3.846   4.424  16.253 -2.0296  1.4841 -1.6832
 5401SOL    HW227663   3.910   4.535  16.311  0.7165 -1.8887  0.4427
 5402SOL     OW27664   3.741   2.556  15.547  0.5805 -0.2382 -0.4666
 5402SOL    HW127665   3.802   2.492  15.586 -0.0927  0.3129  1.4906
 5402SOL    HW227666   3.679   2.503  15.498 -0.7076 -1.6374  2.6592
 5403SOL     OW27667   1.777   0.012   7.614 -0.0123  0.2401  0.0859
 5403SOL    HW127668   1.758   4.656   7.567  2.9532  0.5495 -1.6761
 5403SOL    HW227669   1.726   0.000   7.694  0.7206 -0.9890  0.3797
 5404SOL     OW27670   2.691   0.994  15.785  0.8182 -0.4334 -0.6392
 5404SOL    HW127671   2.709   1.066  15.725  0.9304 -0.4720 -0.6520
 5404SOL    HW227672   2.604   0.966  15.755  1.0272 -2.3546  0.5684
 5405SOL     OW27673   2.387   2.025  17.041 -0.3224 -0.2308  0.0897
 5405SOL    HW127674   2.318   2.050  17.102 -0.1326  0.4190  0.0334
 5405SOL    HW227675   2.351   2.017  16.953 -0.5441  0.2535  0.1393
 5406SOL     OW27676   3.120   2.238   2.504 -0.0611  0.4743 -0.0393
 5406SOL    HW127677   3.146   2.286   2.583 -1.4772 -0.4971  1.0216
 5406SOL    HW227678   3.205   2.196   2.492 -0.9417 -2.1346  2.6403
 5407SOL     OW27679   4.176   2.023   5.961 -0.0809 -0.1949  0.3575
 5407SOL    HW127680   4.211   2.039   6.049  0.1702 -0.5149  0.3181
 5407SOL    HW227681   4.148   1.932   5.970 -1.4094  0.2269  0.4201
 5408SOL     OW27682   4.282   0.599   3.201  0.4861 -1.0551 -0.3819
 5408SOL    HW127683   4.250   0.535   3.265 -0.3620 -1.8496 -1.6057
 5408SOL    HW227684   4.202   0.626   3.155 -0.1492  0.0045  1.3109
 5409SOL     OW27685   3.229   2.836   8.533 -0.7015 -0.2915 -0.2336
 5409SOL    HW127686   3.141   2.847   8.570  0.0510 -0.9423  1.7687
 5409SOL    HW227687   3.274   2.877   8.607  2.4250 -3.3179 -0.4896
 5410SOL     OW27688   4.078   2.367   8.925 -0.1431  0.6773 -0.6885
 5410SOL    HW127689   4.024   2.292   8.951  0.3606 -0.0219 -1.6535
 5410SOL    HW227690   4.087   2.411   9.009 -0.0976 -0.6729  0.0015
 5411SOL     OW27691   2.840   1.534  15.589  0.6443  0.3303  0.6244
 5411SOL    HW127692   2.754   1.576  15.592  0.1308 -0.7636  1.3358
 5411SOL    HW227693   2.835   1.499  15.500  0.3139 -2.6004  1.8073
 5412SOL     OW27694   1.042   3.455   3.666  0.7110  0.0061  0.2670
 5412SOL    HW127695   1.072   3.443   3.756  2.6381 -2.2160 -0.6936
 5412SOL    HW227696   1.129   3.458   3.627  0.8753  0.2952  0.6450
 5413SOL     OW27697   1.689   2.595  10.180  0.0719 -0.0254 -0.2900
 5413SOL    HW127698   1.736   2.670  10.142 -1.2469  1.5217  1.0949
 5413SOL    HW227699   1.596   2.615  10.175  0.2168  0.6356 -0.4014
 5414SOL     OW27700   2.259   4.452   4.408 -0.0435 -0.1218  0.0236
 5414SOL    HW127701   2.225   4.533   4.447  0.0239  2.0032 -4.3691
 5414SOL    HW227702   2.173   4.412   4.402  1.9095 -4.1557 -1.1243
 5415SOL     OW27703   1.852   0.701   5.326  0.0731 -0.2919  0.3499
 5415SOL    HW127704   1.933   0.717   5.374  0.1075  0.2556  0.1144
 5415SOL    HW227705   1.886   0.715   5.237  0.3069 -1.3115  0.2799
 5416SOL     OW27706   0.384   0.143   4.444 -0.4078  0.1165  0.2118
 5416SOL    HW127707   0.411   0.204   4.376 -1.8820 -0.3312 -0.7816
 5416SOL    HW227708   0.297   0.111   4.418 -1.2066  0.0964  2.9334
 5417SOL     OW27709   2.678   3.304   5.196 -0.4149 -0.0995  0.2629
 5417SOL    HW127710   2.772   3.299   5.178 -1.0480 -1.3174 -2.5930
 5417SOL    HW227711   2.652   3.387   5.154 -1.0476 -1.0156 -1.1496
 5418SOL     OW27712   1.904   3.277   3.681  0.0479  0.0731 -0.4620
 5418SOL    HW127713   1.881   3.207   3.620 -1.7248  0.0268  0.2569
 5418SOL    HW227714   1.826   3.331   3.695 -0.6854 -0.9783 -0.4817
 5419SOL     OW27715   2.574   1.207  14.147  0.5222 -0.3232 -0.0984
 5419SOL    HW127716   2.506   1.151  14.109  0.9480 -1.4652  0.8294
 5419SOL    HW227717   2.509   1.265  14.186  1.7554  0.4776  0.7852
 5420SOL     OW27718   3.078   2.289   8.838  0.4471 -0.0834  0.3307
 5420SOL    HW127719   3.053   2.357   8.774  0.6439  0.8305  1.2300
 5420SOL    HW227720   3.032   2.211   8.807  1.0877 -0.2716 -0.1286
 5421SOL     OW27721   4.070   4.054  14.816 -0.1787  0.0656 -0.0662
 5421SOL    HW127722   4.118   4.100  14.884 -0.4149 -0.9188  0.7554
 5421SOL    HW227723   4.143   4.038  14.756  2.0409 -1.2782  3.0345
 5422SOL     OW27724   2.155   4.652   8.651  0.5894 -0.1900 -0.1588
 5422SOL    HW127725   2.104   4.589   8.703  1.2668  1.9552  3.1415
 5422SOL    HW227726   2.085   4.692   8.600  1.7451 -0.6063 -2.0409
 5423SOL     OW27727   2.602   2.715   7.599 -1.1168 -0.2698 -0.4304
 5423SOL    HW127728   2.535   2.670   7.548  0.4723 -0.1731 -2.5692
 5423SOL    HW227729   2.670   2.725   7.532  0.7193 -1.8617  1.1847
 5424SOL     OW27730   2.568   2.500   5.870 -0.0704  0.2210  0.5178
 5424SOL    HW127731   2.479   2.517   5.901 -0.2267 -0.6450  0.5481
 5424SOL    HW227732   2.621   2.547   5.934  0.5543  2.5734 -1.7434
 5425SOL     OW27733   4.308   3.187   3.183 -0.0556  0.2561  0.0904
 5425SOL    HW127734   4.352   3.129   3.121 -2.1023  0.4661 -1.5712
 5425SOL    HW227735   4.383   3.196   3.242 -1.5164 -0.3044  2.0311
 5426SOL     OW27736   2.342   2.369  11.931 -0.1244 -0.4097  0.2793
 5426SOL    HW127737   2.380   2.423  11.862  0.3470 -1.6024 -0.3881
 5426SOL    HW227738   2.305   2.438  11.987  2.8365  0.6534  0.9258
 5427SOL     OW27739   2.566   4.329   3.872  0.3280  0.2352 -0.2437
 5427SOL    HW127740   2.572   4.423   3.858  1.5388  0.5941  2.5919
 5427SOL    HW227741   2.471   4.318   3.877  0.3817 -0.1023  0.0836
 5428SOL     OW27742   4.595   1.354   5.505 -0.3832 -0.0665  0.2298
 5428SOL    HW127743   4.560   1.321   5.587  0.8120 -1.1433  0.3037
 5428SOL    HW227744   4.549   1.437   5.495  0.8421  0.5278 -0.4836
 5429SOL     OW27745   4.404   0.104  13.677 -0.3996  0.3471 -0.1420
 5429SOL    HW127746   4.464   0.127  13.748 -0.4237  0.2563 -0.0926
 5429SOL    HW227747   4.438   0.164  13.611  0.1878 -0.6990 -0.7762
 5430SOL     OW27748   4.039   0.520  15.061  0.3979 -0.0714 -0.1780
 5430SOL    HW127749   4.051   0.497  14.969 -1.9714 -2.0380  0.0033
 5430SOL    HW227750   4.005   0.609  15.062  0.0179 -0.2105 -0.5595
 5431SOL     OW27751   3.079   0.546   4.826  0.3596 -0.0942  0.1235
 5431SOL    HW127752   3.016   0.618   4.819 -0.8546 -1.0380  1.2486
 5431SOL    HW227753   3.031   0.474   4.786  2.0844 -1.4585  0.4880
 5432SOL     OW27754   1.936   1.163   3.310  0.6695 -0.5634 -0.3212
 5432SOL    HW127755   2.018   1.127   3.343  1.0327 -0.3377 -0.9669
 5432SOL    HW227756   1.979   1.215   3.242  0.3515 -0.0190 -0.1092
 5433SOL     OW27757   0.077   3.736   2.128  0.2330 -0.4190  0.5544
 5433SOL    HW127758   0.087   3.761   2.220 -0.7126  0.7921  0.3366
 5433SOL    HW227759   0.161   3.699   2.102  0.2245 -1.3877  1.8830
 5434SOL     OW27760   0.333   0.078   8.536 -0.4038 -0.0434 -0.2499
 5434SOL    HW127761   0.350   0.114   8.623 -0.7117 -0.0189 -0.1999
 5434SOL    HW227762   0.237   0.074   8.529 -0.1622  0.6002 -4.0204
 5435SOL     OW27763   0.584   3.536   6.059  0.1391  0.0790 -0.1153
 5435SOL    HW127764   0.647   3.577   6.119  0.5976 -0.1201 -0.4616
 5435SOL    HW227765   0.611   3.547   5.968  1.8432  1.6815  0.5797
 5436SOL     OW27766   1.513   3.298   5.694 -0.1238 -0.1531 -0.1636
 5436SOL    HW127767   1.549   3.254   5.771  1.8095  1.3636 -0.2103
 5436SOL    HW227768   1.446   3.348   5.742  0.7380  1.2547 -0.4328
 5437SOL     OW27769   0.442   3.230   8.161 -0.7978 -0.3989 -0.2124
 5437SOL    HW127770   0.474   3.231   8.251 -1.6916  1.8381  0.0707
 5437SOL    HW227771   0.473   3.143   8.136  2.1149  0.6242 -0.1555
 5438SOL     OW27772   0.197   0.512   8.752 -0.1688 -0.3309  0.3060
 5438SOL    HW127773   0.110   0.551   8.743  1.0211  2.1149 -0.6846
 5438SOL    HW227774   0.169   0.424   8.776  1.0997 -0.4017  1.5248
 5439SOL     OW27775   0.827   2.020   3.167  0.0009  0.0653 -0.4091
 5439SOL    HW127776   0.782   2.083   3.222  0.8128 -1.1955  1.6990
 5439SOL    HW227777   0.749   1.994   3.118 -1.5408  1.6971  1.2100
 5440SOL     OW27778   2.160   4.524   0.223 -0.1767  0.3826  0.2130
 5440SOL    HW127779   2.156   4.430   0.208  1.0789  0.0592  1.9766
 5440SOL    HW227780   2.081   4.551   0.174 -0.2512 -0.0828  0.0734
 5441SOL     OW27781   0.875   0.619   6.968 -0.0154  1.3606 -0.3942
 5441SOL    HW127782   0.886   0.647   7.060 -1.0251 -1.1879  0.4950
 5441SOL    HW227783   0.844   0.702   6.932  1.0193  0.8968 -2.3128
 5442SOL     OW27784   2.322   4.035   8.561 -0.1488  0.3022 -0.4795
 5442SOL    HW127785   2.248   4.095   8.563  0.2893  0.8278  0.1070
 5442SOL    HW227786   2.394   4.098   8.556 -0.1305  0.7062  4.8652
 5443SOL     OW27787   3.125   3.593   6.851 -0.1526 -0.0558  0.2650
 5443SOL    HW127788   3.030   3.577   6.850 -0.1562  0.0082 -0.9896
 5443SOL    HW227789   3.125   3.647   6.771  0.6261  0.1519  0.4075
 5444SOL     OW27790   3.647   0.880   1.247 -0.5758  0.0835  0.3565
 5444SOL    HW127791   3.727   0.933   1.254 -0.5137 -0.0919  1.0253
 5444SOL    HW227792   3.588   0.935   1.300  0.3851  1.4779 -0.0064
 5445SOL     OW27793   1.460   1.217   2.956 -0.0778 -0.4095 -0.1309
 5445SOL    HW127794   1.428   1.297   2.997  0.8600  0.2866 -0.7728
 5445SOL    HW227795   1.455   1.253   2.868  4.1797  1.4426  0.4003
 5446SOL     OW27796   3.522   3.154   5.514 -0.1074 -0.0788 -0.0610
 5446SOL    HW127797   3.459   3.172   5.444 -0.1425  1.1844  0.2829
 5446SOL    HW227798   3.569   3.238   5.517  0.7507 -0.4869 -2.1061
 5447SOL     OW27799   1.707   3.543  15.504 -0.3423  0.1998 -0.8535
 5447SOL    HW127800   1.659   3.492  15.568 -0.6369  1.3447 -0.1596
 5447SOL    HW227801   1.648   3.612  15.471  0.1651  0.8103 -0.4778
 5448SOL     OW27802   0.607   1.284   9.147  0.2647  0.1516  0.3409
 5448SOL    HW127803   0.675   1.262   9.084 -0.2480  0.6691 -0.3952
 5448SOL    HW227804   0.661   1.318   9.218 -0.9311 -0.2928  1.4669
 5449SOL     OW27805   2.794   2.694   7.406  0.4121 -0.7096  0.7021
 5449SOL    HW127806   2.875   2.744   7.416  0.8253 -1.7050  2.4861
 5449SOL    HW227807   2.754   2.743   7.335 -1.1472 -1.7157  0.8875
 5450SOL     OW27808   0.297   2.249   6.068  0.0342  0.1424  0.0753
 5450SOL    HW127809   0.384   2.219   6.044  0.1704  0.1028  0.6275
 5450SOL    HW227810   0.296   2.190   6.143 -1.8071  1.1350  0.8281
 5451SOL     OW27811   2.380   2.220   9.482  0.0391 -0.7033  0.4489
 5451SOL    HW127812   2.349   2.282   9.548 -0.3501  0.1071 -0.5041
 5451SOL    HW227813   2.329   2.139   9.482 -0.1515 -0.5857  2.0261
 5452SOL     OW27814   4.097   0.399  10.538 -0.1137  0.4675 -0.6489
 5452SOL    HW127815   4.158   0.414  10.466 -2.0666  0.3858 -2.3018
 5452SOL    HW227816   4.029   0.461  10.512  1.5496  2.6331  0.0560
 5453SOL     OW27817   3.062   4.356   1.236 -0.0950 -0.1641 -0.2685
 5453SOL    HW127818   3.095   4.277   1.279 -2.2481 -2.1222 -2.1458
 5453SOL    HW227819   3.080   4.335   1.144  0.3373  2.4941 -0.7877
 5454SOL     OW27820   4.579   0.436   1.614 -0.0733  0.9522 -0.2889
 5454SOL    HW127821   4.615   0.354   1.581  1.9819  1.9948 -0.6907
 5454SOL    HW227822   4.580   0.418   1.707  0.1578  1.0421 -0.2733
 5455SOL     OW27823   0.162   0.428   0.265  0.1917 -0.0436  0.1337
 5455SOL    HW127824   0.117   0.512   0.262  1.5958  0.6833 -0.8298
 5455SOL    HW227825   0.239   0.453   0.316 -1.6495  0.3392  2.7244
 5456SOL     OW27826   2.442   1.122   8.354 -0.2722 -0.0042 -0.6172
 5456SOL    HW127827   2.373   1.142   8.418  0.4185  1.9931 -0.5225
 5456SOL    HW227828   2.511   1.132   8.420  1.3496 -2.4315 -1.9373
 5457SOL     OW27829   3.546   3.582   8.591  0.6230  0.1733 -0.2782
 5457SOL    HW127830   3.627   3.616   8.629  0.5452  1.5205 -1.3527
 5457SOL    HW227831   3.591   3.533   8.522 -1.2935 -1.0139 -0.6954
 5458SOL     OW27832   0.095   3.542  16.516 -0.1330 -0.1573  0.4173
 5458SOL    HW127833   0.076   3.465  16.464 -1.5704 -0.6267  1.6355
 5458SOL    HW227834   0.169   3.510  16.569  0.5206 -1.0838 -1.0419
 5459SOL     OW27835   2.342   2.178   8.434 -0.5034  0.5506  0.2377
 5459SOL    HW127836   2.388   2.164   8.517  0.4170  0.6773 -0.2650
 5459SOL    HW227837   2.397   2.125   8.377  0.2563  0.1691  1.3171
 5460SOL     OW27838   1.855   1.719  12.463 -0.1078  0.1330 -0.1787
 5460SOL    HW127839   1.816   1.706  12.550 -0.5690 -0.0006 -0.4091
 5460SOL    HW227840   1.944   1.687  12.476 -0.3112 -0.9948 -1.6222
 5461SOL     OW27841   0.044   1.038   7.165  0.2510  0.5839 -0.2323
 5461SOL    HW127842   0.029   1.023   7.259 -1.6825  1.6766 -0.3644
 5461SOL    HW227843   0.005   0.966   7.116  0.8515  0.8087 -1.0390
 5462SOL     OW27844   1.091   1.890   6.288  0.2401  0.4524  0.2483
 5462SOL    HW127845   1.095   1.892   6.192 -0.3908 -1.2000  0.1845
 5462SOL    HW227846   1.036   1.968   6.300 -1.7843 -1.1042  1.1391
 5463SOL     OW27847   2.263   0.571   2.585 -0.3267  0.4764  0.5170
 5463SOL    HW127848   2.303   0.658   2.586 -0.7753  0.6838  0.5044
 5463SOL    HW227849   2.203   0.568   2.510  0.5645  0.4001 -0.1896
 5464SOL     OW27850   0.849   3.207  12.443 -0.1727 -0.1867 -0.1043
 5464SOL    HW127851   0.781   3.223  12.508 -0.2803 -2.3132  0.2996
 5464SOL    HW227852   0.816   3.144  12.379  0.1376 -2.3400  1.8917
 5465SOL     OW27853   2.478   0.575   5.576 -0.1904 -0.4884  0.0928
 5465SOL    HW127854   2.429   0.510   5.526  0.6148  0.8572 -2.4399
 5465SOL    HW227855   2.428   0.571   5.657 -1.9386  0.1633 -0.9680
 5466SOL     OW27856   4.247   2.251  14.628  0.2087  0.0745 -0.1956
 5466SOL    HW127857   4.260   2.344  14.613 -3.4524  0.7212  0.9073
 5466SOL    HW227858   4.208   2.227  14.544 -2.7614  1.2921  0.8400
 5467SOL     OW27859   4.233   3.151   8.166  0.6618 -0.2966 -0.4281
 5467SOL    HW127860   4.212   3.060   8.146 -0.4341  0.1458 -1.3064
 5467SOL    HW227861   4.199   3.153   8.255  4.2709  1.0216  0.9226
 5468SOL     OW27862   0.948   0.214  12.329 -0.4454 -0.2703 -0.2167
 5468SOL    HW127863   0.880   0.175  12.275  1.6387 -1.6058 -1.9124
 5468SOL    HW227864   0.896   0.253  12.399  0.2740 -0.8096  0.6159
 5469SOL     OW27865   1.344   2.475   5.882  0.2868  0.1379 -0.3915
 5469SOL    HW127866   1.319   2.485   5.790  0.2994  1.3609 -0.2711
 5469SOL    HW227867   1.305   2.555   5.918 -0.6266 -0.3335 -0.3279
 5470SOL     OW27868   3.467   0.993   1.438  0.4316  0.5781 -0.5087
 5470SOL    HW127869   3.441   0.934   1.509  0.7016 -1.2779 -1.9668
 5470SOL    HW227870   3.382   0.992   1.393  0.0068  2.5896  0.2367
 5471SOL     OW27871   3.315   0.441   4.271 -0.0707 -0.2360 -0.1756
 5471SOL    HW127872   3.323   0.357   4.227  1.6001 -0.6421  0.9174
 5471SOL    HW227873   3.258   0.425   4.347  0.3616 -0.0309  0.1952
 5472SOL     OW27874   3.137   1.250   3.121 -0.4440  0.7498  0.1742
 5472SOL    HW127875   3.106   1.194   3.193  1.9076  1.3106  1.6335
 5472SOL    HW227876   3.100   1.333   3.152  0.8507  0.9313  1.2227
 5473SOL     OW27877   0.677   3.617   2.615 -0.1595  0.0405 -0.1894
 5473SOL    HW127878   0.610   3.655   2.673  0.8398 -0.9196  1.6014
 5473SOL    HW227879   0.652   3.658   2.532 -0.3893  2.1275  0.8975
 5474SOL     OW27880   0.498   2.205   8.688 -0.0539  0.2252  0.5884
 5474SOL    HW127881   0.468   2.165   8.769 -1.0103  0.3419  0.2876
 5474SOL    HW227882   0.410   2.227   8.659 -0.8572 -1.8304  1.4699
 5475SOL     OW27883   4.492   1.187  12.545 -0.0100  0.0221 -0.0610
 5475SOL    HW127884   4.533   1.272  12.565 -2.9676  1.3568  0.2981
 5475SOL    HW227885   4.404   1.208  12.577  0.2068  2.6070 -1.1682
 5476SOL     OW27886   0.671   0.440   2.631  0.3160  0.3237 -0.3032
 5476SOL    HW127887   0.697   0.397   2.549  1.8704 -1.2293  1.0060
 5476SOL    HW227888   0.748   0.420   2.684  0.6707 -0.1377 -0.9851
 5477SOL     OW27889   4.432   0.020   5.809  0.0122 -0.1284 -0.1186
 5477SOL    HW127890   4.360   0.062   5.761 -2.3890  0.2213  3.8228
 5477SOL    HW227891   4.509   0.059   5.768 -0.2187  0.2239 -0.2174
 5478SOL     OW27892   4.618   1.512  13.247 -0.1751 -0.3794 -0.2637
 5478SOL    HW127893   4.614   1.417  13.241 -0.7310 -0.3970  0.3674
 5478SOL    HW227894   4.566   1.529  13.326  1.7089  1.1234  0.6653
 5479SOL     OW27895   4.204   1.992  13.650  0.3770 -0.1998  0.3526
 5479SOL    HW127896   4.212   1.951  13.564 -2.7536  0.2936 -0.1916
 5479SOL    HW227897   4.163   1.920  13.698  0.4776 -1.1798 -1.0475
 5480SOL     OW27898   2.616   0.611   5.349  0.2204 -0.4772 -0.5122
 5480SOL    HW127899   2.598   0.618   5.443 -2.6722 -1.9783 -0.9582
 5480SOL    HW227900   2.536   0.636   5.305  0.0745 -0.0823 -0.0272
 5481SOL     OW27901   1.795   4.642   3.133 -0.0131  0.0080  0.8384
 5481SOL    HW127902   1.807   4.598   3.049  2.6661  0.9522  0.7208
 5481SOL    HW227903   1.701   4.656   3.129 -0.1257 -0.5019  1.9246
 5482SOL     OW27904   1.690   0.572   2.113  0.7027 -0.5510 -0.1190
 5482SOL    HW127905   1.650   0.496   2.072 -0.5781 -0.9730  1.9318
 5482SOL    HW227906   1.706   0.539   2.202  0.1718  0.4682  0.3533
 5483SOL     OW27907   3.283   3.193   3.657  0.0810 -0.0793  0.1543
 5483SOL    HW127908   3.261   3.126   3.592 -0.9058  0.5585 -0.1738
 5483SOL    HW227909   3.375   3.174   3.674 -0.4559 -1.7932  1.1272
 5484SOL     OW27910   0.648   1.729   8.481  0.0069 -0.1103 -0.0340
 5484SOL    HW127911   0.583   1.714   8.549  0.3667  0.4380  0.4279
 5484SOL    HW227912   0.698   1.802   8.517 -0.4392 -0.0633  0.4845
 5485SOL     OW27913   3.628   4.198   7.089 -0.0894  0.4406  0.1155
 5485SOL    HW127914   3.699   4.139   7.113  0.7423  1.4005  0.0552
 5485SOL    HW227915   3.685   4.275   7.098  2.5713 -1.5597  0.1691
 5486SOL     OW27916   4.020   3.368   2.912  0.0436  0.4516 -0.0259
 5486SOL    HW127917   3.968   3.384   2.991  2.1829  1.0576  1.2584
 5486SOL    HW227918   3.970   3.293   2.881  0.8035 -0.7413  1.6554
 5487SOL     OW27919   3.366   3.736  15.092 -0.1409  0.1724 -0.4729
 5487SOL    HW127920   3.448   3.784  15.079  0.5210 -0.7386  0.3357
 5487SOL    HW227921   3.404   3.677  15.157 -0.1424  1.2048  0.4636
 5488SOL     OW27922   1.832   3.106   6.760 -0.1881 -0.1870 -0.1682
 5488SOL    HW127923   1.805   3.089   6.850 -1.5787  0.6053 -0.4377
 5488SOL    HW227924   1.874   3.023   6.739  2.3793  0.4189  2.4249
 5489SOL     OW27925   2.189   2.833   8.560 -0.1421 -0.0692  0.4553
 5489SOL    HW127926   2.236   2.769   8.613 -3.4154 -0.2726  3.1296
 5489SOL    HW227927   2.224   2.818   8.472 -0.2221 -2.2595  0.8023
 5490SOL     OW27928   1.800   1.289   6.232  0.2385 -0.1791  0.9093
 5490SOL    HW127929   1.859   1.266   6.160 -1.6506 -3.1287  0.3349
 5490SOL    HW227930   1.733   1.342   6.190  1.9635  1.8687  0.7070
 5491SOL     OW27931   3.316   4.620   6.659  0.3071  0.0650 -0.2211
 5491SOL    HW127932   3.403   4.643   6.627 -0.6834  3.0044 -0.9155
 5491SOL    HW227933   3.323   4.525   6.658 -0.5335  0.0032 -0.7900
 5492SOL     OW27934   2.570   0.053   7.007 -0.3307  0.0294  0.1927
 5492SOL    HW127935   2.589   4.700   6.957 -0.9285  0.6409 -1.0051
 5492SOL    HW227936   2.548   0.015   7.092 -0.4147 -0.4400 -0.0440
 5493SOL     OW27937   1.846   3.012   5.705  0.6361 -0.2232  0.0214
 5493SOL    HW127938   1.781   2.942   5.697  0.3005 -0.1644  2.0071
 5493SOL    HW227939   1.879   3.001   5.795  3.1567  1.0020 -0.7700
 5494SOL     OW27940   0.919   4.370   3.248  0.1566  0.3482  0.2606
 5494SOL    HW127941   0.901   4.276   3.247 -2.0686  0.7581  1.1606
 5494SOL    HW227942   0.918   4.393   3.341 -1.5445  0.2258  0.2710
 5495SOL     OW27943   0.310   1.176  14.170 -0.4966 -0.2934 -0.3951
 5495SOL    HW127944   0.252   1.238  14.214 -1.9221 -1.5158 -0.5186
 5495SOL    HW227945   0.379   1.239  14.154 -0.5902  0.1158  0.8130
 5496SOL     OW27946   4.542   4.368   3.910  0.5471  0.0737  0.5442
 5496SOL    HW127947   4.610   4.429   3.881 -0.1611  0.7118  0.2462
 5496SOL    HW227948   4.586   4.313   3.974 -0.1920 -1.1486  0.0006
 5497SOL     OW27949   1.814   3.494   0.988  0.2929  0.4357 -0.3760
 5497SOL    HW127950   1.876   3.566   0.975 -1.7016  2.3159  0.3658
 5497SOL    HW227951   1.812   3.486   1.083 -0.1007  2.1995 -0.2199
 5498SOL     OW27952   1.388   3.493   4.661  0.0596 -0.6584 -0.1798
 5498SOL    HW127953   1.481   3.473   4.672 -0.2556 -2.7116 -1.3054
 5498SOL    HW227954   1.379   3.462   4.571 -3.0559  1.2543 -0.5344
 5499SOL     OW27955   1.507   4.685  12.365  0.3408  0.1103 -0.6417
 5499SOL    HW127956   1.510   0.045  12.324 -1.3119  0.5874  0.2110
 5499SOL    HW227957   1.463   4.628  12.302 -0.1071 -2.1811  1.7276
 5500SOL     OW27958   4.089   1.948  17.280  0.4782  0.1004  0.6464
 5500SOL    HW127959   4.009   1.967  17.231  1.0269 -0.9795 -0.6664
 5500SOL    HW227960   4.059   1.872  17.329  1.2635 -1.0072 -0.5717
 5501SOL     OW27961   3.445   0.769  12.581 -0.0343  0.2668 -0.3269
 5501SOL    HW127962   3.451   0.859  12.550 -0.2265  0.2583 -0.3874
 5501SOL    HW227963   3.494   0.771  12.664 -0.4539  0.2682 -0.0804
 5502SOL     OW27964   3.590   2.757   0.885 -0.2377  0.0002  0.1664
 5502SOL    HW127965   3.614   2.765   0.977 -1.7036  0.4918  0.5104
 5502SOL    HW227966   3.592   2.662   0.872 -1.0083  0.1113 -0.7673
 5503SOL     OW27967   4.486   3.337   3.565 -0.3126 -0.4705 -0.5441
 5503SOL    HW127968   4.564   3.377   3.527 -1.2195  0.6709 -1.1984
 5503SOL    HW227969   4.490   3.253   3.519  0.3592 -1.2202  0.8512
 5504SOL     OW27970   3.296   2.185   0.061  0.2352 -0.4769  0.1716
 5504SOL    HW127971   3.314   2.245   0.133 -1.9435  1.4242 -0.8354
 5504SOL    HW227972   3.377   2.135   0.065 -0.1992 -1.1748  0.2698
 5505SOL     OW27973   3.883   2.656   5.373  0.4876 -0.0087  0.8876
 5505SOL    HW127974   3.913   2.739   5.335 -1.2095 -0.4197 -1.3661
 5505SOL    HW227975   3.811   2.677   5.432 -2.3567 -2.2298 -1.7935
 5506SOL     OW27976   3.416   0.207   3.392  0.5007  0.2811 -0.1605
 5506SOL    HW127977   3.494   0.237   3.344  1.2321  1.2542  1.6312
 5506SOL    HW227978   3.453   0.128   3.433 -1.9918  0.1074  1.7729
 5507SOL     OW27979   1.161   3.085   9.799 -0.0512 -0.0263  0.6369
 5507SOL    HW127980   1.217   3.035   9.740 -2.1814 -0.4604 -1.0020
 5507SOL    HW227981   1.098   3.023   9.836  0.7223 -1.1045  0.1266
 5508SOL     OW27982   4.043   3.098   4.372  0.3829  0.3446 -0.3883
 5508SOL    HW127983   4.020   3.186   4.342 -2.2935  0.7712  2.9204
 5508SOL    HW227984   4.130   3.091   4.332 -0.0362 -1.3993 -0.9935
 5509SOL     OW27985   0.035   0.281  16.662  1.2030  0.0182  0.6390
 5509SOL    HW127986   0.105   0.319  16.715  0.0513 -0.0913  2.2196
 5509SOL    HW227987   0.079   0.215  16.608 -1.4909 -0.2671 -1.2218
 5510SOL     OW27988   4.132   3.864   5.636 -0.3407  0.3741  0.3852
 5510SOL    HW127989   4.185   3.791   5.668 -0.9608 -1.0229 -1.7399
 5510SOL    HW227990   4.124   3.831   5.546 -0.7293  3.2612 -0.6379
 5511SOL     OW27991   4.395   2.546   7.663 -0.4956  0.3153  0.3373
 5511SOL    HW127992   4.373   2.501   7.581  0.4583  1.4859 -0.5570
 5511SOL    HW227993   4.427   2.476   7.721 -0.9947 -0.9736 -0.9535
 5512SOL     OW27994   4.035   4.121   5.990 -0.2366  0.4165  0.4376
 5512SOL    HW127995   4.039   4.213   6.016 -0.0757  0.0489  1.7388
 5512SOL    HW227996   4.120   4.117   5.947  0.7739  0.8474  2.4033
 5513SOL     OW27997   3.994   1.276   5.886 -0.5017  0.6909 -0.0167
 5513SOL    HW127998   3.975   1.187   5.914  2.1394  0.5797  1.4315
 5513SOL    HW227999   4.015   1.277   5.792 -0.7313 -2.6031 -0.1001
 5514SOL     OW28000   1.250   3.851   6.591  0.2187  0.8097  0.5339
 5514SOL    HW128001   1.208   3.774   6.630  2.6313 -1.3082 -1.0517
 5514SOL    HW228002   1.235   3.919   6.657 -1.9904  1.3541 -0.5514
 5515SOL     OW28003   0.825   1.770  17.119 -0.4243 -0.3420 -0.3549
 5515SOL    HW128004   0.734   1.788  17.095 -0.2828 -1.1532 -1.5329
 5515SOL    HW228005   0.880   1.803  17.048  0.5644 -2.9530 -0.8001
 5516SOL     OW28006   0.381   1.075   5.304  1.0491  0.2220 -0.9331
 5516SOL    HW128007   0.436   1.001   5.277 -0.0436 -1.0430  0.2422
 5516SOL    HW228008   0.292   1.041   5.296  0.4001  1.7787 -0.1989
 5517SOL     OW28009   4.422   3.208  16.168  0.0339  0.4413 -0.4729
 5517SOL    HW128010   4.365   3.219  16.245 -0.5623 -0.8603 -0.7269
 5517SOL    HW228011   4.476   3.286  16.164  0.8015 -0.1751 -2.0318
 5518SOL     OW28012   2.951   4.175   9.881 -0.2682 -0.6599 -0.3083
 5518SOL    HW128013   2.869   4.212   9.847 -0.2713 -1.4676 -1.1527
 5518SOL    HW228014   2.969   4.234   9.955  1.3341  0.9533 -1.9770
 5519SOL     OW28015   4.364   0.679   3.571 -0.1358  0.0918 -0.0212
 5519SOL    HW128016   4.373   0.767   3.534  0.8391  0.8293  1.9992
 5519SOL    HW228017   4.283   0.693   3.621  0.1942  0.1107  0.4986
 5520SOL     OW28018   1.906   1.017  11.410 -0.1333 -0.6940 -0.5936
 5520SOL    HW128019   1.889   1.025  11.316 -0.8753 -1.4654 -0.5238
 5520SOL    HW228020   1.862   1.095  11.442  0.8978 -1.1814  1.9830
 5521SOL     OW28021   2.543   4.060   4.956  0.2134  0.1294  0.1113
 5521SOL    HW128022   2.492   4.102   4.887 -0.1206  0.3641  0.4992
 5521SOL    HW228023   2.515   4.109   5.033 -1.2118 -0.6049  0.0582
 5522SOL     OW28024   4.287   2.246   7.847  0.9186  0.1829 -0.8698
 5522SOL    HW128025   4.363   2.260   7.791  0.0245  3.2741 -1.3238
 5522SOL    HW228026   4.216   2.217   7.790 -0.1938 -1.8241  1.5011
 5523SOL     OW28027   2.351   3.892   4.543 -0.1345 -0.1479  0.1461
 5523SOL    HW128028   2.309   3.949   4.608 -1.0963 -1.6548  0.8506
 5523SOL    HW228029   2.432   3.876   4.591 -0.0899 -0.7272 -0.1254
 5524SOL     OW28030   3.903   4.383   6.897  0.1713 -1.0951 -0.0431
 5524SOL    HW128031   3.882   4.379   6.990 -1.3271 -0.9018 -0.3805
 5524SOL    HW228032   3.895   4.292   6.869  1.2914 -1.3035  0.2805
 5525SOL     OW28033   1.031   1.483   7.750  0.4642  0.1236  0.5695
 5525SOL    HW128034   0.961   1.544   7.774 -1.2628 -1.8345  0.5313
 5525SOL    HW228035   1.099   1.538   7.712  0.5918 -0.4117  0.0258
 5526SOL     OW28036   4.476   0.960  12.377 -0.0199  0.6309  0.3827
 5526SOL    HW128037   4.556   0.911  12.396 -1.1315 -0.7453  1.5585
 5526SOL    HW228038   4.497   1.042  12.422 -1.0106  1.4422 -0.6310
 5527SOL     OW28039   2.712   1.237  11.617 -0.4782  0.0655  0.0934
 5527SOL    HW128040   2.688   1.318  11.573 -0.2725 -0.6771 -1.3701
 5527SOL    HW228041   2.788   1.216  11.562 -0.7604 -0.8962  0.0615
 5528SOL     OW28042   0.128   2.680  17.657 -0.0710  0.1226  0.5154
 5528SOL    HW128043   0.082   2.742  17.600 -0.2616  0.7989  1.4195
 5528SOL    HW228044   0.121   2.604  17.599  1.9567 -1.3836  2.2698
 5529SOL     OW28045   3.684   3.330   8.885 -0.5240  0.4342  0.4037
 5529SOL    HW128046   3.705   3.359   8.974  2.9704 -3.4770  0.8741
 5529SOL    HW228047   3.770   3.300   8.854 -1.5580 -1.0244 -1.0334
 5530SOL     OW28048   4.222   3.485   3.023 -0.4717 -0.2543  0.2244
 5530SOL    HW128049   4.155   3.457   2.960  0.9765 -1.1289 -0.9360
 5530SOL    HW228050   4.188   3.448   3.105 -0.8890 -2.9712 -1.1534
 5531SOL     OW28051   2.489   2.783   6.422 -0.0539  0.0829  0.3176
 5531SOL    HW128052   2.417   2.729   6.389 -0.6915  0.4678  1.0710
 5531SOL    HW228053   2.490   2.849   6.352 -1.4477  1.2661  1.4015
 5532SOL     OW28054   0.512   1.561   1.537 -0.0225  0.1859  0.1341
 5532SOL    HW128055   0.551   1.478   1.509  0.8484  1.0692 -1.2662
 5532SOL    HW228056   0.420   1.544   1.514  0.3869 -1.3520 -0.3855
 5533SOL     OW28057   3.404   0.768   6.238 -0.3456 -0.4239 -0.2257
 5533SOL    HW128058   3.476   0.816   6.279 -2.0535  2.2954 -0.3926
 5533SOL    HW228059   3.362   0.841   6.191  1.4881  0.1499 -0.9415
 5534SOL     OW28060   1.402   0.534   5.343  0.2463  0.3903  0.0979
 5534SOL    HW128061   1.455   0.478   5.286  0.5249 -0.0318  0.7746
 5534SOL    HW228062   1.459   0.540   5.420  2.6154  0.5356 -1.6669
 5535SOL     OW28063   2.386   2.739   5.032  0.0403 -0.1617 -0.0818
 5535SOL    HW128064   2.401   2.827   4.997  0.4862 -0.6947 -1.2493
 5535SOL    HW228065   2.461   2.727   5.090  1.4440 -1.6499 -2.2216
 5536SOL     OW28066   1.871   3.288   3.150  0.2192 -0.3313 -0.5891
 5536SOL    HW128067   1.935   3.334   3.203 -3.1974  1.6733  1.8303
 5536SOL    HW228068   1.815   3.353   3.107 -1.4730 -1.0388  0.5400
 5537SOL     OW28069   3.577   2.724   5.587  0.0449 -0.4879  0.2450
 5537SOL    HW128070   3.592   2.796   5.525 -1.1995 -1.1457 -0.8156
 5537SOL    HW228071   3.516   2.769   5.646  1.0731  2.9317 -1.2691
 5538SOL     OW28072   3.914   3.997   0.158 -0.2094 -0.1997  0.3394
 5538SOL    HW128073   3.983   3.934   0.177  0.3603  0.8853  1.8616
 5538SOL    HW228074   3.940   4.066   0.219  0.6292 -0.7205  0.5643
 5539SOL     OW28075   0.840   1.197   5.415  0.2355  0.2732  0.1274
 5539SOL    HW128076   0.851   1.241   5.500  0.3298  0.5343 -0.0205
 5539SOL    HW228077   0.861   1.264   5.351  0.6671  2.4070  2.4988
 5540SOL     OW28078   1.683   0.138   6.901  0.7886  0.1163 -0.5845
 5540SOL    HW128079   1.748   0.068   6.895 -1.6183 -1.8256 -3.6796
 5540SOL    HW228080   1.705   0.173   6.988  0.4524 -0.2954 -0.3357
 5541SOL     OW28081   3.970   2.412   8.157 -0.2372 -0.1944 -0.2300
 5541SOL    HW128082   4.014   2.414   8.072 -1.9872 -0.3079 -1.1380
 5541SOL    HW228083   4.041   2.423   8.220 -1.9052  2.1167  1.2563
 5542SOL     OW28084   3.275   4.119  15.729  0.2204 -0.0864 -0.1770
 5542SOL    HW128085   3.334   4.172  15.784  1.1582 -1.5494  0.2219
 5542SOL    HW228086   3.345   4.067  15.690 -1.7221 -2.1516 -0.8819
 5543SOL     OW28087   3.613   3.065  15.546  0.3288 -0.3600 -0.3535
 5543SOL    HW128088   3.656   3.062  15.631 -0.1990 -0.6049 -0.0912
 5543SOL    HW228089   3.657   2.983  15.521  0.4394 -0.1313 -0.9085
 5544SOL     OW28090   4.167   3.426   2.691  0.1306 -0.3147  0.0534
 5544SOL    HW128091   4.131   3.350   2.644  0.3750  0.0502 -0.7214
 5544SOL    HW228092   4.117   3.413   2.772 -1.1505  1.3435 -0.4566
 5545SOL     OW28093   1.428   3.269  17.100  0.0302  0.2638 -0.1639
 5545SOL    HW128094   1.400   3.183  17.132 -0.1181  0.4772  0.2723
 5545SOL    HW228095   1.475   3.309  17.173 -1.6669  3.0114 -0.5917
 5546SOL     OW28096   4.566   4.177   6.855  0.8593  0.0411 -0.5148
 5546SOL    HW128097   4.518   4.105   6.894 -0.7271  1.3004 -0.1574
 5546SOL    HW228098   4.528   4.181   6.767 -0.9705 -2.4703  0.1667
 5547SOL     OW28099   4.234   0.169   2.794  0.8539 -0.4640  0.1758
 5547SOL    HW128100   4.186   0.239   2.749  2.2907  1.5893  1.8070
 5547SOL    HW228101   4.299   0.143   2.728  0.3585 -1.9419  0.2768
 5548SOL     OW28102   4.033   2.774   2.230 -0.6156 -0.3233  0.0903
 5548SOL    HW128103   4.071   2.725   2.303 -1.2083  0.6656  1.0650
 5548SOL    HW228104   4.105   2.758   2.169 -1.3098 -2.5591 -0.1367
 5549SOL     OW28105   2.729   0.860  12.601 -0.3992 -0.0249  0.1929
 5549SOL    HW128106   2.737   0.939  12.548  0.7335  0.3507  0.9361
 5549SOL    HW228107   2.706   0.895  12.688 -0.7207  1.3515 -0.4484
 5550SOL     OW28108   1.136   1.613   8.978 -0.0694  0.6215  0.9674
 5550SOL    HW128109   1.188   1.658   9.044  1.7525 -0.6833  0.4270
 5550SOL    HW228110   1.202   1.599   8.909 -0.8655  1.2976  0.0612
 5551SOL     OW28111   3.110   3.359  15.719  0.6020 -0.3286  0.1746
 5551SOL    HW128112   3.150   3.326  15.638 -1.2411  1.0081 -1.2968
 5551SOL    HW228113   3.025   3.389  15.686  0.5787 -0.4841  0.0912
 5552SOL     OW28114   2.183   2.498   0.389  0.3264 -0.2070  0.2163
 5552SOL    HW128115   2.210   2.582   0.350 -3.0224  0.1998 -1.2373
 5552SOL    HW228116   2.236   2.484   0.467  0.8096  0.9567  0.0932
 5553SOL     OW28117   3.452   2.958   5.688  0.4743  0.1683 -0.7078
 5553SOL    HW128118   3.539   2.943   5.726 -0.4254 -0.9505  0.9115
 5553SOL    HW228119   3.474   3.023   5.622  0.8763 -0.2705 -1.0057
 5554SOL     OW28120   0.193   1.509  10.708 -0.2672 -0.4035 -0.2585
 5554SOL    HW128121   0.143   1.516  10.789  0.8164 -2.7148  0.5964
 5554SOL    HW228122   0.278   1.512  10.751 -1.1221  2.3188  1.2528
 5555SOL     OW28123   1.830   2.371  16.586  0.1078  0.0453  0.0498
 5555SOL    HW128124   1.876   2.408  16.661 -1.6778  0.0181  1.1313
 5555SOL    HW228125   1.852   2.278  16.587  0.4002  0.0873 -1.4873
 5556SOL     OW28126   2.524   2.257  17.030 -0.0485 -0.4281 -0.6797
 5556SOL    HW128127   2.564   2.243  16.944  1.4984  0.5538 -0.1192
 5556SOL    HW228128   2.474   2.176  17.019 -2.1301  0.7125  0.3537
 5557SOL     OW28129   3.404   0.684   4.373  0.1814 -0.4633  0.3234
 5557SOL    HW128130   3.400   0.743   4.297 -0.4736 -2.8933 -1.5391
 5557SOL    HW228131   3.366   0.610   4.326 -0.9869  0.5019 -0.2615
 5558SOL     OW28132   4.377   3.845   7.754 -0.2624 -0.0136  0.5929
 5558SOL    HW128133   4.428   3.789   7.814  0.1246 -0.8445 -0.5201
 5558SOL    HW228134   4.299   3.859   7.807 -0.4399  1.0634  0.0386
 5559SOL     OW28135   1.035   2.102   5.294 -0.0387 -0.0164 -0.2284
 5559SOL    HW128136   1.019   2.040   5.223 -2.5237 -0.3088  0.6171
 5559SOL    HW228137   1.037   2.187   5.251  2.1581  1.1578  2.1591
 5560SOL     OW28138   2.101   3.737   5.798  0.4970 -0.2478  0.6739
 5560SOL    HW128139   2.138   3.807   5.744  1.0068 -1.6109 -0.7722
 5560SOL    HW228140   2.180   3.706   5.842  0.3092 -2.8554 -0.8162
 5561SOL     OW28141   0.362   4.441   3.635  0.0009 -0.2308  0.0101
 5561SOL    HW128142   0.407   4.482   3.709  0.0692 -0.1828 -0.0584
 5561SOL    HW228143   0.359   4.350   3.664  0.3495 -0.3415 -0.3065
 5562SOL     OW28144   4.596   0.372   9.150 -0.2939  0.2949 -0.4065
 5562SOL    HW128145   4.590   0.278   9.137  0.7234  0.1488  0.1096
 5562SOL    HW228146   4.645   0.375   9.233 -0.0982 -0.9010 -0.4794
 5563SOL     OW28147   4.084   2.247  16.378 -0.2785  0.3001  0.0053
 5563SOL    HW128148   4.094   2.176  16.316  2.9909  1.5565 -0.8930
 5563SOL    HW228149   3.989   2.259  16.376 -0.7959 -3.2251  2.9721
 5564SOL     OW28150   4.006   4.554   5.832 -0.1554  0.6998  0.0604
 5564SOL    HW128151   3.945   4.610   5.878 -0.5894 -0.0363  0.3834
 5564SOL    HW228152   3.983   4.464   5.857  0.1319  0.6905  0.2992
 5565SOL     OW28153   2.616   0.127  14.611 -0.2117 -0.3238 -0.1416
 5565SOL    HW128154   2.530   0.116  14.652 -0.0352 -0.3264  0.2270
 5565SOL    HW228155   2.614   0.218  14.582  2.5442  0.2938  1.6101
 5566SOL     OW28156   4.509   0.858  11.934  0.2717  0.2160 -0.3301
 5566SOL    HW128157   4.532   0.871  11.842  0.4832  2.3495  0.0448
 5566SOL    HW228158   4.507   0.762  11.938 -0.7883  0.0704 -4.1305
 5567SOL     OW28159   4.164   0.652   9.644 -0.3740  0.0831 -0.3468
 5567SOL    HW128160   4.251   0.632   9.609  1.2328  2.5669  2.1957
 5567SOL    HW228161   4.140   0.565   9.676 -0.5660  0.1194 -0.3962
 5568SOL     OW28162   3.040   2.502   3.343  0.0830  0.6926 -0.1605
 5568SOL    HW128163   3.053   2.450   3.263 -2.6587  1.2579 -0.9830
 5568SOL    HW228164   2.986   2.430   3.378  0.6805  0.4045  0.1658
 5569SOL     OW28165   3.694   3.736   2.745 -0.2766  0.0302  0.3096
 5569SOL    HW128166   3.754   3.697   2.809  0.1436 -0.8487 -0.6036
 5569SOL    HW228167   3.613   3.685   2.751 -0.0147 -0.5190 -0.8393
 5570SOL     OW28168   0.143   1.866  16.820  0.1856 -0.0113  1.0291
 5570SOL    HW128169   0.184   1.794  16.868  1.7919  1.5784  2.0508
 5570SOL    HW228170   0.119   1.833  16.734  1.3355  1.8388  0.0023
 5571SOL     OW28171   4.095   2.156   3.102  0.5478  0.2158  0.4220
 5571SOL    HW128172   4.110   2.087   3.167  1.1233 -1.8619 -1.9194
 5571SOL    HW228173   4.078   2.118   3.016 -0.0815 -0.0043  0.6428
 5572SOL     OW28174   2.060   4.282   0.567  0.0875 -0.1812  0.1025
 5572SOL    HW128175   2.060   4.221   0.493 -1.1718 -0.0726  0.0140
 5572SOL    HW228176   2.034   4.366   0.531 -1.1912 -0.6300 -0.0356
 5573SOL     OW28177   4.111   2.424   0.684  0.1275  0.2415  0.1248
 5573SOL    HW128178   4.058   2.349   0.712  2.2380  0.1629  3.9328
 5573SOL    HW228179   4.171   2.438   0.757 -1.1139  1.3041  0.9342
 5574SOL     OW28180   0.663   4.007   7.671 -0.4947 -0.2979 -0.3029
 5574SOL    HW128181   0.643   3.913   7.665 -0.3819 -0.4140  1.2994
 5574SOL    HW228182   0.735   4.018   7.608 -2.2309 -0.0171 -2.2628
 5575SOL     OW28183   4.592   2.534   9.800  0.1534  0.0530 -0.1656
 5575SOL    HW128184   4.573   2.591   9.875 -1.4287 -2.2542  1.1960
 5575SOL    HW228185   4.518   2.473   9.809  0.4161  0.0878  2.1221
 5576SOL     OW28186   2.829   1.234   6.948 -0.5075 -0.1067 -0.0051
 5576SOL    HW128187   2.782   1.169   7.001 -1.7396  1.0322  0.2824
 5576SOL    HW228188   2.861   1.176   6.879  1.6384 -1.0550  1.7663
 5577SOL     OW28189   3.678   0.104  10.628  0.3074 -0.0240  0.0463
 5577SOL    HW128190   3.758   0.133  10.585  0.7739  0.6825  1.3802
 5577SOL    HW228191   3.659   0.174  10.691  0.4883 -0.4669  0.6004
 5578SOL     OW28192   3.376   0.228  16.945  0.0026  0.1747  0.0841
 5578SOL    HW128193   3.462   0.209  16.909 -0.1105 -0.2007  0.0060
 5578SOL    HW228194   3.328   0.264  16.871  0.4028 -0.3134 -0.4108
 5579SOL     OW28195   3.121   3.473  17.346  0.0724 -0.5318 -0.2180
 5579SOL    HW128196   3.181   3.407  17.313  1.0754  0.2633  0.0061
 5579SOL    HW228197   3.154   3.484  17.435  0.5212  2.1731 -0.7133
 5580SOL     OW28198   1.411   4.356   1.254  0.2809  0.7574 -0.4775
 5580SOL    HW128199   1.353   4.432   1.256  0.8911  1.2265 -0.6465
 5580SOL    HW228200   1.464   4.371   1.175 -0.7965 -0.9941 -1.5142
 5581SOL     OW28201   1.067   1.185   3.061 -0.1822 -0.0958  0.3363
 5581SOL    HW128202   1.034   1.270   3.031 -0.2692  0.2102  1.2862
 5581SOL    HW228203   1.127   1.156   2.993 -1.1889 -0.6491 -0.3115
 5582SOL     OW28204   0.486   4.065   8.585  0.3586  0.0100 -0.5415
 5582SOL    HW128205   0.397   4.072   8.620  0.2621  1.9729 -1.2029
 5582SOL    HW228206   0.526   4.141   8.627  0.4439 -0.0214 -0.5649
 5583SOL     OW28207   2.026   3.549   1.372 -0.6960  0.7739  0.1376
 5583SOL    HW128208   2.074   3.480   1.419 -1.7540 -0.5815 -0.7630
 5583SOL    HW228209   2.050   3.546   1.279 -0.7890 -1.5036  0.1856
 5584SOL     OW28210   1.852   0.005   6.611 -0.0279  0.4742  0.2676
 5584SOL    HW128211   1.759   4.708   6.610  1.0787 -3.9413 -0.5774
 5584SOL    HW228212   1.861   0.096   6.582 -1.5696  0.7778  0.7367
 5585SOL     OW28213   0.303   1.491   5.413  0.0077  0.6592 -0.2757
 5585SOL    HW128214   0.369   1.556   5.387  0.8954 -0.5934 -1.1258
 5585SOL    HW228215   0.224   1.540   5.392  0.6675  0.8850 -2.2875
 5586SOL     OW28216   4.186   2.890  13.026  0.1289  0.4438  0.4296
 5586SOL    HW128217   4.266   2.915  12.981 -0.2514 -0.0902 -0.5454
 5586SOL    HW228218   4.172   2.975  13.067 -1.2437 -1.1318  3.2984
 5587SOL     OW28219   4.687   0.936   7.857  0.0040 -0.2182 -0.4868
 5587SOL    HW128220   4.660   0.981   7.937 -0.2377  0.0585 -0.7260
 5587SOL    HW228221   4.679   0.843   7.876  1.0292 -0.0761  0.6787
 5588SOL     OW28222   3.087   0.941   1.918  0.0058 -0.2596 -0.7163
 5588SOL    HW128223   3.172   0.963   1.882  1.0155 -0.5729  1.4603
 5588SOL    HW228224   3.028   0.996   1.866 -1.3295 -0.4019  0.6220
 5589SOL     OW28225   2.001   4.499  14.366 -0.1039  0.3880  0.0420
 5589SOL    HW128226   1.918   4.521  14.323 -0.8940 -0.5739  1.0865
 5589SOL    HW228227   1.963   4.435  14.426 -0.0039 -1.2804 -1.6727
 5590SOL     OW28228   0.087   4.485  11.730  0.0676 -0.1664  0.0976
 5590SOL    HW128229   0.100   4.580  11.734  2.3343 -0.4947  0.0715
 5590SOL    HW228230   0.046   4.471  11.816  0.0533  1.9012  0.4339
 5591SOL     OW28231   2.935   4.283   2.777  0.0727 -0.0490 -0.2864
 5591SOL    HW128232   2.896   4.267   2.691  3.2393 -0.1940 -1.7192
 5591SOL    HW228233   2.860   4.257   2.830 -1.4450  1.6541 -1.5982
 5592SOL     OW28234   4.358   1.743   7.935  1.2323 -0.3103 -0.4316
 5592SOL    HW128235   4.297   1.782   7.873  0.1714 -2.2761 -0.6258
 5592SOL    HW228236   4.431   1.802   7.916  0.8703 -0.5641 -2.5893
 5593SOL     OW28237   2.735   1.206   2.219  0.5486 -0.0794 -0.5900
 5593SOL    HW128238   2.788   1.133   2.251  1.3169 -0.1723 -2.0535
 5593SOL    HW228239   2.654   1.199   2.269  0.5913  4.3068  0.1168
 5594SOL     OW28240   0.070   2.857  16.169  0.8126 -0.2650  0.2626
 5594SOL    HW128241   0.026   2.802  16.105 -2.2611  2.3424  0.0994
 5594SOL    HW228242   4.719   2.874  16.225  0.9129 -0.2997  0.4100
 5595SOL     OW28243   0.256   3.915   7.307  0.6442 -0.1456  0.2318
 5595SOL    HW128244   0.179   3.893   7.254 -1.0150  2.2590  1.6779
 5595SOL    HW228245   0.252   3.852   7.379 -0.8166  1.7887  1.8559
 5596SOL     OW28246   3.024   3.196   8.695 -0.0840 -0.0718 -0.4364
 5596SOL    HW128247   3.009   3.209   8.601 -0.8079  0.8291 -0.1841
 5596SOL    HW228248   3.044   3.287   8.715 -1.4091  0.0241  0.4254
 5597SOL     OW28249   2.636   3.721  10.733  0.1109 -0.4710  0.2342
 5597SOL    HW128250   2.649   3.628  10.751  0.9551 -0.6784 -1.4540
 5597SOL    HW228251   2.689   3.761  10.802 -0.6061 -0.5680  0.8392
 5598SOL     OW28252   4.247   2.471  15.272 -0.2127  0.0388  0.2723
 5598SOL    HW128253   4.227   2.391  15.224 -0.2379 -0.9985  2.0168
 5598SOL    HW228254   4.325   2.505  15.227 -0.9023  0.0133 -0.9376
 5599SOL     OW28255   4.021   1.792  17.515  0.2758  0.5500 -0.0254
 5599SOL    HW128256   4.006   1.795  17.610 -0.8996  2.6532 -0.2828
 5599SOL    HW228257   3.934   1.765  17.486 -0.4490  1.9247  0.8722
 5600SOL     OW28258   0.609   3.225  11.122  0.3773 -0.2101 -0.3399
 5600SOL    HW128259   0.653   3.212  11.206 -0.4319 -0.8392 -0.0091
 5600SOL    HW228260   0.630   3.315  11.095  5.6446 -1.1571  0.6995
 5601SOL     OW28261   0.632   0.125   6.853  0.3982 -0.1743 -0.1302
 5601SOL    HW128262   0.557   0.080   6.893  0.7894 -0.8603 -0.1695
 5601SOL    HW228263   0.684   0.052   6.820  0.0399 -0.7367  0.5631
 5602SOL     OW28264   4.550   1.195   7.367  0.0225  0.0033 -0.2214
 5602SOL    HW128265   4.611   1.269   7.368 -0.5589  0.4882 -0.7809
 5602SOL    HW228266   4.464   1.223   7.400 -0.3285  0.3131 -1.4156
 5603SOL     OW28267   2.986   1.607  11.100 -0.5189 -0.1396 -0.3055
 5603SOL    HW128268   2.942   1.663  11.036 -2.5720 -1.7384 -0.3009
 5603SOL    HW228269   2.947   1.521  11.085  1.5727 -1.1142 -0.1026
 5604SOL     OW28270   2.827   3.794   0.363 -0.1228 -0.5473 -0.0443
 5604SOL    HW128271   2.808   3.882   0.331 -0.0792 -0.8931 -1.0132
 5604SOL    HW228272   2.886   3.812   0.436 -0.1383 -0.3601 -0.0770
 5605SOL     OW28273   0.345   2.229   5.155  0.1563 -0.0456  0.8182
 5605SOL    HW128274   0.369   2.202   5.243  0.7226 -0.6501  0.4769
 5605SOL    HW228275   0.314   2.148   5.115 -0.9017  1.3516 -1.2278
 5606SOL     OW28276   3.340   4.183  12.456  0.1359  0.0539  0.4102
 5606SOL    HW128277   3.424   4.213  12.422 -0.3828  0.5340 -0.4285
 5606SOL    HW228278   3.277   4.251  12.434 -0.2939 -0.8083 -1.0143
 5607SOL     OW28279   2.845   0.026   1.759  0.3274 -0.3135  0.5195
 5607SOL    HW128280   2.807   4.695   1.692  0.6810 -1.1027  0.9849
 5607SOL    HW228281   2.783   0.015   1.831  1.9909 -3.0884  1.5521
 5608SOL     OW28282   3.556   2.595   5.288 -0.1234  0.0146 -0.2260
 5608SOL    HW128283   3.583   2.678   5.247  1.2169  0.2311  1.0797
 5608SOL    HW228284   3.471   2.616   5.327  1.4521  2.5406  1.8424
 5609SOL     OW28285   3.189   0.941   7.945 -0.2314  0.1713  0.3126
 5609SOL    HW128286   3.235   0.932   8.028 -1.4724 -1.4662  0.8348
 5609SOL    HW228287   3.255   0.989   7.896 -0.7898  0.2267 -0.3819
 5610SOL     OW28288   2.814   2.377   6.050 -0.1369  0.2901  0.0916
 5610SOL    HW128289   2.894   2.377   6.103  0.1386  1.5920 -0.3236
 5610SOL    HW228290   2.802   2.472   6.046 -0.0788  0.3316  0.8512
 5611SOL     OW28291   0.758   4.429   3.023 -0.5982  0.0006 -0.2556
 5611SOL    HW128292   0.825   4.461   2.963 -0.3883 -0.2246 -0.1412
 5611SOL    HW228293   0.801   4.429   3.109 -2.7497 -0.8427  0.8345
 5612SOL     OW28294   4.200   0.298  14.516  0.1701 -0.4361  0.0361
 5612SOL    HW128295   4.133   0.253  14.464  0.0158  1.3740 -1.3272
 5612SOL    HW228296   4.232   0.359  14.450 -2.6691  1.2176  0.1850
 5613SOL     OW28297   1.548   4.496   8.556 -0.1394 -0.0381 -0.1913
 5613SOL    HW128298   1.494   4.495   8.635 -0.9561  1.0761 -0.7315
 5613SOL    HW228299   1.617   4.432   8.574  0.6091  0.5031 -1.1147
 5614SOL     OW28300   0.581   0.067   3.872  0.6156 -0.4026  0.2803
 5614SOL    HW128301   0.652   0.074   3.808 -0.0756 -0.6615 -0.5191
 5614SOL    HW228302   0.579   0.156   3.908  0.1535  0.0255 -0.8098
 5615SOL     OW28303   3.239   0.149   0.731 -0.1098 -0.1044 -0.6385
 5615SOL    HW128304   3.177   0.078   0.752 -0.1304  0.2286  0.4343
 5615SOL    HW228305   3.201   0.223   0.778  0.9182  0.9163 -1.4462
 5616SOL     OW28306   2.468   4.358  13.287  0.1746 -0.5072  0.3190
 5616SOL    HW128307   2.469   4.279  13.233 -0.5985  0.2366 -0.7767
 5616SOL    HW228308   2.490   4.319  13.372  0.3990 -1.0965 -0.0118
 5617SOL     OW28309   1.146   0.057   3.863 -0.1144 -0.3436  0.2271
 5617SOL    HW128310   1.064   0.017   3.891  0.3555 -1.5956 -0.2074
 5617SOL    HW228311   1.141   0.139   3.912 -1.4012  0.4296 -1.2173
 5618SOL     OW28312   3.252   0.564   6.364 -0.1414 -0.6025  0.0184
 5618SOL    HW128313   3.303   0.643   6.350  0.4681 -1.1042 -0.5762
 5618SOL    HW228314   3.171   0.579   6.316  0.9584 -0.8295 -1.9012
 5619SOL     OW28315   3.095   4.353   7.799  0.0283  0.1452  0.3189
 5619SOL    HW128316   3.065   4.411   7.869 -0.6957  2.1581 -1.6850
 5619SOL    HW228317   3.188   4.352   7.823  0.0797  1.0662  0.1609
 5620SOL     OW28318   4.674   3.394   3.197 -0.1639  0.2333 -0.3034
 5620SOL    HW128319   4.615   3.396   3.121  1.0768  0.8659 -1.2465
 5620SOL    HW228320   0.023   3.441   3.162  0.5249  1.0591  2.3359
 5621SOL     OW28321   4.045   1.119   7.744  0.1936 -0.1477 -0.5242
 5621SOL    HW128322   4.005   1.046   7.791  1.9852  1.3229  3.2071
 5621SOL    HW228323   4.127   1.144   7.786 -0.2727 -0.1313  0.3683
 5622SOL     OW28324   0.612   3.056   3.198  0.0721 -0.2816 -0.2730
 5622SOL    HW128325   0.688   3.103   3.232 -1.1912  2.3001 -1.0344
 5622SOL    HW228326   0.654   2.999   3.133  0.1505  1.3972 -1.6791
 5623SOL     OW28327   3.518   2.605  10.303  0.3250  0.5819 -0.3582
 5623SOL    HW128328   3.551   2.516  10.291 -0.5911  0.3839 -1.3432
 5623SOL    HW228329   3.499   2.594  10.396 -1.8058  0.6533 -0.7877
 5624SOL     OW28330   0.935   0.270  17.464  0.3746  0.8929  0.5691
 5624SOL    HW128331   1.000   0.300  17.528  0.2872 -0.9632  1.5344
 5624SOL    HW228332   0.914   0.350  17.415 -1.2420  0.6101  0.8030
 5625SOL     OW28333   4.001   2.579   5.806  0.7580  0.2224  0.5461
 5625SOL    HW128334   4.053   2.603   5.729 -1.4674  0.5543 -0.8452
 5625SOL    HW228335   4.055   2.503   5.830  1.7922  0.9499  0.5213
 5626SOL     OW28336   3.594   2.556  11.417  0.3106  0.2030  0.0255
 5626SOL    HW128337   3.572   2.649  11.412  1.2355  0.2994 -2.5347
 5626SOL    HW228338   3.588   2.536  11.324  1.6222 -2.4900  0.5150
 5627SOL     OW28339   2.452   1.743  17.081  0.5779  0.4906  0.2861
 5627SOL    HW128340   2.438   1.838  17.082  2.0166  0.7017  1.6613
 5627SOL    HW228341   2.541   1.722  17.053  0.2705  0.2641 -0.5168
 5628SOL     OW28342   0.018   1.980   9.454  0.3979  0.4477  0.0066
 5628SOL    HW128343   0.077   1.906   9.438  0.1015  0.4450 -1.0766
 5628SOL    HW228344   4.688   1.947   9.524 -1.2107  0.3221 -1.3432
 5629SOL     OW28345   2.920   4.109  16.309 -0.0351  0.5868 -0.9872
 5629SOL    HW128346   2.923   4.193  16.355 -0.8097 -0.3036  0.6697
 5629SOL    HW228347   2.935   4.151  16.224  0.1724  0.5046 -0.9899
 5630SOL     OW28348   4.121   4.234  13.952 -0.1068  0.1018  0.2904
 5630SOL    HW128349   4.082   4.172  14.014  0.5140  0.3291  0.8918
 5630SOL    HW228350   4.088   4.315  13.989 -2.3117 -1.3070  1.4419
 5631SOL     OW28351   1.309   0.770  16.022 -0.7899 -0.3465 -0.3142
 5631SOL    HW128352   1.312   0.712  16.099 -0.5686 -0.1472 -0.1724
 5631SOL    HW228353   1.229   0.820  16.040  0.1075  0.8209  0.4720
 5632SOL     OW28354   3.538   0.158   4.482 -0.4887 -0.5556 -0.8654
 5632SOL    HW128355   3.510   0.237   4.528 -1.1144 -1.7859  0.8804
 5632SOL    HW228356   3.458   0.106   4.476  2.0587 -4.6854  0.5111
 5633SOL     OW28357   1.784   2.288   5.585  0.2604  0.3272 -0.6437
 5633SOL    HW128358   1.727   2.213   5.603  2.3719 -0.5867  2.3189
 5633SOL    HW228359   1.731   2.367   5.591  0.4650  0.3803  0.5757
 5634SOL     OW28360   0.755   4.371   8.911  0.1086 -0.1782 -0.2205
 5634SOL    HW128361   0.691   4.360   8.841  0.8862  2.6527 -1.4154
 5634SOL    HW228362   0.717   4.425   8.980 -1.8828 -1.2419 -0.5118
 5635SOL     OW28363   1.594   4.257   3.518  0.1705 -0.1795  0.1902
 5635SOL    HW128364   1.657   4.312   3.564 -0.6706  0.9165  0.0389
 5635SOL    HW228365   1.527   4.324   3.500 -1.0084 -1.1705  0.8869
 5636SOL     OW28366   4.475   0.994   8.536 -0.4219  0.0726  0.2857
 5636SOL    HW128367   4.446   1.055   8.469 -0.6792 -3.6194 -3.0054
 5636SOL    HW228368   4.396   0.942   8.551  0.0156 -1.0209 -1.1335
 5637SOL     OW28369   2.899   4.354   1.979  0.2679 -0.2672  0.3259
 5637SOL    HW128370   2.914   4.286   1.913  2.1821  1.7988 -1.3584
 5637SOL    HW228371   2.814   4.387   1.950  0.6960 -0.7016 -1.4045
 5638SOL     OW28372   0.828   4.152  16.799  0.5443  0.5793  0.8511
 5638SOL    HW128373   0.859   4.086  16.737 -0.4050  1.7531 -0.8726
 5638SOL    HW228374   0.797   4.116  16.882 -2.3493  0.3549 -0.3013
 5639SOL     OW28375   0.095   3.218   8.979  0.7148 -0.0649 -0.4370
 5639SOL    HW128376   0.020   3.187   8.927  1.0237 -0.1295 -0.8427
 5639SOL    HW228377   0.092   3.311   8.957  2.2513  0.1627  0.3664
 5640SOL     OW28378   1.382   0.175   1.615 -0.4864  0.4278  0.6735
 5640SOL    HW128379   1.408   0.116   1.544  2.4190  1.0213  1.2890
 5640SOL    HW228380   1.380   0.257   1.566 -2.0054 -0.4756 -0.8183
 5641SOL     OW28381   2.043   0.380   3.747 -0.0301 -0.0890 -0.0394
 5641SOL    HW128382   2.129   0.345   3.721 -0.8464 -0.9767 -1.5531
 5641SOL    HW228383   1.987   0.303   3.737  0.4797 -0.7245  1.9368
 5642SOL     OW28384   0.886   0.428   8.055 -1.0647 -0.1619 -0.8535
 5642SOL    HW128385   0.833   0.390   8.125 -1.2618 -0.5555 -1.2126
 5642SOL    HW228386   0.943   0.494   8.093  2.1898 -2.5138 -1.6750
 5643SOL     OW28387   3.995   3.466   7.103  0.0379 -0.0963 -0.4125
 5643SOL    HW128388   4.090   3.479   7.103  0.4857 -3.2965 -1.6703
 5643SOL    HW228389   3.968   3.473   7.012  0.6692 -0.0985 -0.5962
 5644SOL     OW28390   1.285   4.650   5.666 -0.2571 -0.2771 -0.0849
 5644SOL    HW128391   1.292   4.611   5.753 -0.1792  0.6769  0.3388
 5644SOL    HW228392   1.267   0.015   5.690 -1.4282 -1.1467  2.3480
 5645SOL     OW28393   3.879   3.104   0.425 -0.2009  0.7033  0.4687
 5645SOL    HW128394   3.942   3.139   0.362 -0.1509  0.0259  0.1384
 5645SOL    HW228395   3.821   3.179   0.438 -0.1063  0.9516 -0.5463
 5646SOL     OW28396   3.182   4.254  16.637 -0.1690 -0.5398  0.3103
 5646SOL    HW128397   3.096   4.297  16.633  0.1119 -0.0477 -0.4072
 5646SOL    HW228398   3.240   4.327  16.659 -0.4333 -0.3003  0.2200
 5647SOL     OW28399   1.182   3.682   7.993  0.8539  0.5053 -0.6569
 5647SOL    HW128400   1.207   3.773   7.978  0.9784  0.6477  0.4553
 5647SOL    HW228401   1.099   3.671   7.946 -0.3052  2.1241  0.9750
 5648SOL     OW28402   0.179   0.965   4.744  0.0049  0.8055 -0.8485
 5648SOL    HW128403   0.152   1.010   4.663  0.9379  0.0112 -1.6009
 5648SOL    HW228404   0.125   1.015   4.805  0.2403 -1.1567  0.9514
 5649SOL     OW28405   0.296   4.555   9.107  0.0410  0.3097  0.4167
 5649SOL    HW128406   0.247   4.492   9.160  0.0790  0.3892  0.5458
 5649SOL    HW228407   0.236   4.562   9.033 -0.6813  0.3480  1.0072
 5650SOL     OW28408   1.543   2.478   0.920 -0.6231 -0.3440  0.1536
 5650SOL    HW128409   1.528   2.394   0.875 -0.4553 -0.9150  1.1487
 5650SOL    HW228410   1.554   2.543   0.850  3.1046 -1.3178 -0.1569
 5651SOL     OW28411   1.671   1.447   3.202  0.5105 -0.4323  0.0831
 5651SOL    HW128412   1.684   1.431   3.108 -2.3008  0.1999 -0.4151
 5651SOL    HW228413   1.731   1.516   3.231  1.1909 -0.6707 -0.7408
 5652SOL     OW28414   1.172   4.627  13.696  0.0520  0.0531  0.3009
 5652SOL    HW128415   1.193   4.606  13.787  2.2685  0.4888 -0.1196
 5652SOL    HW228416   1.160   4.543  13.651  3.9171 -0.3839  0.0658
 5653SOL     OW28417   3.153   2.555   6.576 -0.1051  0.4232  0.1529
 5653SOL    HW128418   3.150   2.461   6.561 -0.4334  0.4276  0.1850
 5653SOL    HW228419   3.222   2.573   6.512 -1.8841 -2.1174 -2.4518
 5654SOL     OW28420   3.276   2.903   7.854 -0.3312  0.5746  0.4561
 5654SOL    HW128421   3.357   2.858   7.875  0.1325  0.5158 -1.4941
 5654SOL    HW228422   3.237   2.902   7.942  0.4447 -2.3999  0.7455
 5655SOL     OW28423   0.309   2.731   8.512 -0.6627 -0.1783 -0.2490
 5655SOL    HW128424   0.362   2.698   8.585 -1.4534  0.0266  0.4152
 5655SOL    HW228425   0.244   2.788   8.553 -0.3216 -0.3768  0.5541
 5656SOL     OW28426   1.186   0.937   4.130  0.2599 -0.0382  0.2483
 5656SOL    HW128427   1.259   0.896   4.176 -0.1766  2.5157  3.2875
 5656SOL    HW228428   1.194   1.032   4.139  1.9899 -0.1390 -0.2401
 5657SOL     OW28429   1.098   0.004   6.707  0.1786 -0.3962  0.5168
 5657SOL    HW128430   1.112   0.074   6.771 -0.4229  0.4357 -0.2630
 5657SOL    HW228431   1.115   0.042   6.621  0.6183  2.7796  2.0104
 5658SOL     OW28432   1.270   0.499   6.713 -0.1336  0.3049 -0.4627
 5658SOL    HW128433   1.290   0.501   6.619 -2.3429  1.1341 -0.9010
 5658SOL    HW228434   1.340   0.441   6.743  1.1367  1.5812 -0.9267
 5659SOL     OW28435   3.598   3.459   5.518  0.1986 -0.0667 -0.5986
 5659SOL    HW128436   3.503   3.448   5.530  0.1392 -0.6226 -1.5840
 5659SOL    HW228437   3.598   3.525   5.449  1.2485  0.1490 -0.3955
 5660SOL     OW28438   3.889   3.813   9.004 -0.6332  0.1647 -0.1706
 5660SOL    HW128439   3.849   3.885   8.956 -1.8531 -0.7881 -0.5813
 5660SOL    HW228440   3.923   3.763   8.930 -1.2620 -0.1255 -0.2634
 5661SOL     OW28441   2.654   2.202   7.894  0.0288  0.4407 -0.1681
 5661SOL    HW128442   2.638   2.244   7.810 -2.2000  1.1241  0.6064
 5661SOL    HW228443   2.749   2.212   7.899  0.3824 -1.3184 -3.2537
 5662SOL     OW28444   4.402   1.029  14.842 -0.4599 -0.1252  0.0803
 5662SOL    HW128445   4.351   1.100  14.881  0.4152  1.1360 -1.0804
 5662SOL    HW228446   4.492   1.040  14.874 -0.9215  2.0423  0.6568
 5663SOL     OW28447   0.233   2.837  13.535  0.2861 -0.1318  0.0142
 5663SOL    HW128448   0.206   2.745  13.537  1.0419 -0.3250  1.0334
 5663SOL    HW228449   0.278   2.832  13.450  1.6292  0.4386  0.6968
 5664SOL     OW28450   3.361   2.743  10.123  0.4610 -0.4212 -0.3510
 5664SOL    HW128451   3.398   2.679  10.182  3.5475 -0.0273 -1.8455
 5664SOL    HW228452   3.293   2.776  10.182  0.4096  0.3168 -0.8223
 5665SOL     OW28453   0.598   3.653   3.147 -0.1101 -0.2704  0.4641
 5665SOL    HW128454   0.564   3.724   3.094  1.2884  0.3767  0.4203
 5665SOL    HW228455   0.671   3.704   3.182 -0.5975  0.2136  0.7718
 5666SOL     OW28456   1.319   1.997   3.735 -0.6824  0.2634  0.1047
 5666SOL    HW128457   1.402   1.968   3.773 -1.2046 -1.0349  0.2574
 5666SOL    HW228458   1.256   2.011   3.806  1.4859 -2.2950  2.5017
 5667SOL     OW28459   3.568   4.561   3.239  0.5293 -0.4192 -0.3243
 5667SOL    HW128460   3.536   4.546   3.150 -1.2634 -2.4481  0.6488
 5667SOL    HW228461   3.572   4.472   3.274  1.1863  0.2147  1.1910
 5668SOL     OW28462   3.131   4.627  15.677  0.1650  0.1683  0.7421
 5668SOL    HW128463   3.207   4.633  15.619  1.0068  0.7424  1.8973
 5668SOL    HW228464   3.159   4.561  15.740 -0.7352  1.8814  2.9314
 5669SOL     OW28465   0.760   3.036   4.444 -0.0943  0.2868 -0.5841
 5669SOL    HW128466   0.837   2.986   4.416  1.2811  1.3141  1.4133
 5669SOL    HW228467   0.796   3.124   4.456  2.9115 -1.1966  1.5562
 5670SOL     OW28468   3.628   0.175  16.800 -0.1064 -0.2145  0.0430
 5670SOL    HW128469   3.676   0.256  16.778 -1.8294  0.6604 -0.5146
 5670SOL    HW228470   3.551   0.183  16.743 -0.3904 -1.5412  0.2437
 5671SOL     OW28471   4.112   4.655   7.725  0.6966  0.5679  0.4134
 5671SOL    HW128472   4.173   4.718   7.685  1.9330 -1.3416 -0.6925
 5671SOL    HW228473   4.164   4.575   7.729  0.7837  0.6579  1.0633
 5672SOL     OW28474   4.182   0.298   8.382 -0.4435  0.5744 -0.0667
 5672SOL    HW128475   4.160   0.209   8.353  1.5889  0.6695 -1.8730
 5672SOL    HW228476   4.178   0.346   8.299 -1.5090 -0.1127 -0.4263
 5673SOL     OW28477   0.070   4.495   3.310  0.5849  0.0464  0.2381
 5673SOL    HW128478   0.008   4.566   3.296  0.7089 -0.0772 -0.9698
 5673SOL    HW228479   0.092   4.484   3.218 -1.4333 -2.1721  0.0170
 5674SOL     OW28480   1.700   2.937  12.041 -0.0963 -0.0700  0.6178
 5674SOL    HW128481   1.764   2.998  12.076 -0.8548  0.8022  0.4689
 5674SOL    HW228482   1.644   3.007  12.008  1.0116  0.3723 -0.2927
 5675SOL     OW28483   1.402   3.487   5.835  0.7017 -0.2580 -0.1651
 5675SOL    HW128484   1.375   3.571   5.798  1.0729 -0.0024  0.1420
 5675SOL    HW228485   1.438   3.512   5.920 -1.4734  1.1305  0.3246
 5676SOL     OW28486   1.703   1.565   2.135  0.2725  0.6391  0.1304
 5676SOL    HW128487   1.727   1.506   2.064  3.6070 -0.7476  2.4155
 5676SOL    HW228488   1.615   1.535   2.159  0.5970  1.0067  1.7736
 5677SOL     OW28489   0.929   3.167   7.054  0.1910 -0.3716 -0.0861
 5677SOL    HW128490   0.959   3.146   7.143  2.0241  0.8296 -0.4222
 5677SOL    HW228491   0.836   3.179   7.071  0.7132 -0.3345  2.7395
 5678SOL     OW28492   1.395   4.058   7.670  0.5064  0.0531  0.1264
 5678SOL    HW128493   1.404   4.149   7.639 -0.7830 -0.1849 -0.9219
 5678SOL    HW228494   1.434   4.009   7.598 -2.6961  1.5547 -2.6219
 5679SOL     OW28495   3.641   2.865  11.522 -0.9242  0.3591  0.5966
 5679SOL    HW128496   3.550   2.858  11.551 -1.2639 -2.7969 -1.2626
 5679SOL    HW228497   3.688   2.896  11.599  0.6285 -1.0188  0.1980
 5680SOL     OW28498   2.402   4.367   9.160  0.1936  0.2316  0.3134
 5680SOL    HW128499   2.445   4.285   9.186  0.1367 -0.1861 -0.8810
 5680SOL    HW228500   2.370   4.336   9.075 -0.6892 -2.9389  1.7886
 5681SOL     OW28501   1.148   3.913   6.350 -0.5550  0.0980  0.6822
 5681SOL    HW128502   1.203   3.989   6.370  0.2406 -0.1360 -0.6224
 5681SOL    HW228503   1.155   3.866   6.433 -0.6342  2.2164  1.8969
 5682SOL     OW28504   1.468   0.097   4.356 -0.2964  0.2561  0.2151
 5682SOL    HW128505   1.467   0.057   4.269  2.3652  1.7710 -0.5205
 5682SOL    HW228506   1.501   0.181   4.325 -1.9924  0.5937 -0.6337
 5683SOL     OW28507   3.029   3.913  15.407 -0.0537  0.0535  0.3290
 5683SOL    HW128508   3.008   3.840  15.465 -1.1738  1.1754  1.3246
 5683SOL    HW228509   3.050   3.981  15.470  0.9161 -0.7023  0.8335
 5684SOL     OW28510   0.853   4.518   8.503  0.3236  0.8071 -0.1633
 5684SOL    HW128511   0.936   4.493   8.545 -0.2087  0.4284  0.6491
 5684SOL    HW228512   0.794   4.523   8.577  0.4293 -2.0652  0.1330
 5685SOL     OW28513   0.136   2.452   5.678  0.4106 -0.4499  0.2614
 5685SOL    HW128514   0.161   2.531   5.631 -0.5509  0.5138  1.3727
 5685SOL    HW228515   0.146   2.480   5.769 -0.2748 -0.6439  0.3994
 5686SOL     OW28516   1.609   2.985  12.553  0.1338 -0.5544 -0.2458
 5686SOL    HW128517   1.530   2.932  12.563  1.0019 -1.5302  1.3969
 5686SOL    HW228518   1.575   3.073  12.569  2.4378 -0.0797  2.1019
 5687SOL     OW28519   3.402   3.323   2.421 -0.7009  0.5169  0.1830
 5687SOL    HW128520   3.497   3.309   2.416 -0.9276 -0.8874 -0.1401
 5687SOL    HW228521   3.385   3.351   2.511  1.1846  1.1801  0.3305
 5688SOL     OW28522   1.580   3.895  13.737  0.0019 -0.3130 -0.2846
 5688SOL    HW128523   1.582   3.965  13.802 -0.1089 -0.1495 -0.4580
 5688SOL    HW228524   1.673   3.873  13.730 -0.1848 -1.1826 -0.0296
 5689SOL     OW28525   0.971   1.480   4.160  0.0100 -0.2169 -0.4120
 5689SOL    HW128526   1.056   1.485   4.204 -0.5805  0.9228  0.5993
 5689SOL    HW228527   0.970   1.387   4.138  0.7844  0.4565 -3.3689
 5690SOL     OW28528   4.686   4.376   2.358 -0.6029  0.0485 -0.3939
 5690SOL    HW128529   4.593   4.367   2.378 -0.5940 -1.6793 -1.1103
 5690SOL    HW228530   4.696   4.328   2.276 -2.0308  0.3322 -0.7422
 5691SOL     OW28531   2.047   4.692   5.049 -0.0088 -0.0977  0.2030
 5691SOL    HW128532   2.137   4.711   5.074  0.6335 -0.6184 -1.6953
 5691SOL    HW228533   2.058   4.671   4.956 -2.7955 -2.3799  0.3853
 5692SOL     OW28534   2.227   2.754  12.918  0.5364  0.6215  0.1048
 5692SOL    HW128535   2.179   2.732  12.838  0.9880  0.7493 -0.2023
 5692SOL    HW228536   2.311   2.771  12.874 -0.4690  1.6696 -1.4087
 5693SOL     OW28537   1.499   4.307   7.621 -0.1348 -0.2335  0.1910
 5693SOL    HW128538   1.590   4.277   7.620  0.2795  1.0061  0.3381
 5693SOL    HW228539   1.490   4.312   7.717 -0.9807  0.7108  0.0730
 5694SOL     OW28540   1.254   2.955  10.801 -0.3197  0.0640 -0.6782
 5694SOL    HW128541   1.209   2.972  10.884  0.5617 -2.3789  0.2946
 5694SOL    HW228542   1.345   2.975  10.819 -1.3952  2.3332  2.1942
 5695SOL     OW28543   2.618   3.575   5.133 -0.1093 -0.3373  0.1737
 5695SOL    HW128544   2.566   3.588   5.213 -0.7109 -0.1753 -0.2431
 5695SOL    HW228545   2.607   3.661   5.092  0.7918 -0.5170 -0.4346
 5696SOL     OW28546   2.914   2.789   2.027 -0.6151 -0.0968 -0.1904
 5696SOL    HW128547   2.989   2.836   2.061  0.6260 -0.1268 -2.8291
 5696SOL    HW228548   2.902   2.833   1.943  1.8553 -0.4192 -0.7241
 5697SOL     OW28549   4.536   4.599   9.551  0.1569 -0.0540  1.1626
 5697SOL    HW128550   4.450   4.573   9.582 -0.3973 -0.0588 -0.3712
 5697SOL    HW228551   4.533   4.687   9.590  2.0064  0.9831 -1.0701
 5698SOL     OW28552   2.131   2.452  17.264 -0.0984  0.1685 -0.2539
 5698SOL    HW128553   2.070   2.520  17.236 -1.3263 -1.2442 -1.0468
 5698SOL    HW228554   2.176   2.434  17.181  1.3546  1.3661  0.2928
 5699SOL     OW28555   4.242   1.754   4.627 -0.0918  0.3538 -0.6250
 5699SOL    HW128556   4.165   1.698   4.619 -1.3655  2.2947 -1.8486
 5699SOL    HW228557   4.222   1.808   4.704  2.1652 -0.1210  0.2845
 5700SOL     OW28558   2.429   2.122   2.848  0.1123  0.1195  0.2906
 5700SOL    HW128559   2.417   2.095   2.757  1.0419  0.7275 -0.0088
 5700SOL    HW228560   2.349   2.098   2.896 -0.9583 -0.8671 -1.9939
 5701SOL     OW28561   3.314   3.297   2.759 -0.0270 -0.7448 -0.4748
 5701SOL    HW128562   3.273   3.382   2.774 -1.7648 -1.7593  0.4898
 5701SOL    HW228563   3.354   3.289   2.846 -0.8094 -1.5763 -0.1838
 5702SOL     OW28564   1.032   2.063  12.264  0.0300 -0.1256 -0.4859
 5702SOL    HW128565   1.012   1.996  12.198 -0.3291  0.7614 -1.2825
 5702SOL    HW228566   1.001   2.142  12.219  1.3781  2.1068  2.4866
 5703SOL     OW28567   3.019   2.396   6.218  0.0793  0.2520 -0.3847
 5703SOL    HW128568   3.011   2.482   6.259 -0.0669 -0.5467  1.2587
 5703SOL    HW228569   2.982   2.333   6.281  1.2894  0.4642  0.5343
 5704SOL     OW28570   3.638   4.648  12.988 -0.7654 -0.6399  0.8945
 5704SOL    HW128571   3.652   0.005  12.941 -0.7425 -0.1585  1.7395
 5704SOL    HW228572   3.606   4.594  12.916 -0.8056  1.1496 -0.4256
 5705SOL     OW28573   3.571   3.649   5.295 -0.2508  0.7114  0.0062
 5705SOL    HW128574   3.549   3.712   5.227 -1.5647 -1.7589 -1.8466
 5705SOL    HW228575   3.552   3.572   5.241  0.7391  1.4667 -1.3848
 5706SOL     OW28576   2.983   1.231  11.506 -0.9405  0.3801  0.3218
 5706SOL    HW128577   3.038   1.213  11.582  1.6608 -2.9135 -2.3585
 5706SOL    HW228578   2.978   1.326  11.510  0.7188  0.4455  0.9156
 5707SOL     OW28579   3.224   1.347  16.729  0.6965 -0.0139 -0.9994
 5707SOL    HW128580   3.234   1.441  16.740  2.0712 -0.2932  0.2086
 5707SOL    HW228581   3.301   1.315  16.776  0.5079 -1.3970 -1.6176
 5708SOL     OW28582   0.663   2.093   4.131 -0.4823  0.2508 -0.0121
 5708SOL    HW128583   0.585   2.094   4.075  0.5406  1.0193 -1.4375
 5708SOL    HW228584   0.714   2.021   4.094 -0.9439  0.7300 -1.6029
 5709SOL     OW28585   1.641   0.960   7.656  0.1068  0.1925  0.0238
 5709SOL    HW128586   1.672   0.926   7.572  1.5006 -0.3222  0.7471
 5709SOL    HW228587   1.567   1.017   7.633 -0.7982 -1.1970 -0.4984
 5710SOL     OW28588   1.320   2.329   9.902 -0.1229 -0.5209  0.1236
 5710SOL    HW128589   1.332   2.332   9.997  0.9716  0.0636 -0.0275
 5710SOL    HW228590   1.358   2.243   9.883 -1.1374 -0.7973 -0.6979
 5711SOL     OW28591   2.332   1.878   4.584  0.0513 -0.0337 -0.0252
 5711SOL    HW128592   2.336   1.885   4.679  0.6206 -1.6375  0.0786
 5711SOL    HW228593   2.252   1.825   4.580 -0.2457  0.5737 -2.1061
 5712SOL     OW28594   3.748   2.809   6.136 -0.1128 -0.3351 -0.3457
 5712SOL    HW128595   3.749   2.737   6.199 -2.7334 -1.1810 -1.2605
 5712SOL    HW228596   3.708   2.879   6.189  2.8980  0.9499  0.2690
 5713SOL     OW28597   4.387   1.416   3.997  0.9562  0.2396  0.3643
 5713SOL    HW128598   4.301   1.417   3.957  1.1715  1.7216 -0.0674
 5713SOL    HW228599   4.382   1.323   4.021 -0.3463  0.4487  0.8963
 5714SOL     OW28600   1.534   2.768   8.211 -0.1020  0.0377  0.0074
 5714SOL    HW128601   1.599   2.801   8.274 -2.0550  1.5878  1.2227
 5714SOL    HW228602   1.460   2.746   8.267 -0.0296  1.6591  0.7668
 5715SOL     OW28603   3.657   0.979  13.655  0.2107 -0.1035 -0.0475
 5715SOL    HW128604   3.600   1.044  13.696  2.3134  1.4034  0.4917
 5715SOL    HW228605   3.595   0.921  13.610  0.3390 -0.2880  0.0136
 5716SOL     OW28606   2.777   2.023   9.352 -0.5778  0.9064 -0.3901
 5716SOL    HW128607   2.830   2.080   9.295  1.2969 -0.0884  0.3442
 5716SOL    HW228608   2.758   2.078   9.428 -1.4841 -0.5572  0.4379
 5717SOL     OW28609   0.885   0.421  11.382  0.2052 -0.1663  0.3409
 5717SOL    HW128610   0.976   0.411  11.354  0.3559  0.1334  0.7194
 5717SOL    HW228611   0.896   0.515  11.392 -0.6315 -0.1622  1.2370
 5718SOL     OW28612   1.172   0.217   6.858 -0.5373  0.0833 -0.2249
 5718SOL    HW128613   1.229   0.252   6.926 -2.1653 -0.4598  1.4160
 5718SOL    HW228614   1.104   0.284   6.866  0.2578  0.8125  0.3617
 5719SOL     OW28615   1.347   0.204   3.692 -0.0786 -0.0770 -0.3295
 5719SOL    HW128616   1.272   0.154   3.724 -0.1616  1.1368  1.3383
 5719SOL    HW228617   1.415   0.138   3.679 -1.6796 -1.4180 -1.9184
 5720SOL     OW28618   3.105   1.165   5.215 -0.0395  0.7052  0.6502
 5720SOL    HW128619   3.069   1.254   5.222 -0.7002  0.6712 -2.1143
 5720SOL    HW228620   3.198   1.184   5.202 -0.5217  0.8688 -2.6179
 5721SOL     OW28621   3.374   0.365   8.371  0.4872  0.5451  0.0991
 5721SOL    HW128622   3.321   0.303   8.319  1.3401 -0.9591  1.0224
 5721SOL    HW228623   3.396   0.436   8.312  1.1943 -1.5322 -2.1404
 5722SOL     OW28624   1.502   3.254   9.561 -0.5975  0.1511 -0.3326
 5722SOL    HW128625   1.418   3.296   9.545 -1.8495 -2.5133 -0.6428
 5722SOL    HW228626   1.561   3.272   9.487  1.2385 -2.4431  0.5034
 5723SOL     OW28627   0.045   1.522   7.794  0.0680  0.0349 -0.0322
 5723SOL    HW128628   0.114   1.484   7.848 -0.2446  0.4373  0.6434
 5723SOL    HW228629   4.693   1.510   7.848 -0.1387 -1.5402 -0.6599
 5724SOL     OW28630   3.370   2.087   5.140  0.2880  0.5519  0.0968
 5724SOL    HW128631   3.312   2.146   5.092 -0.7097 -1.9948 -1.8218
 5724SOL    HW228632   3.414   2.041   5.068  0.3057 -0.5976  0.8433
 5725SOL     OW28633   0.428   1.489   3.416  0.3889 -0.3134 -0.8744
 5725SOL    HW128634   0.382   1.541   3.482  0.0320 -2.2741  0.4311
 5725SOL    HW228635   0.445   1.565   3.361 -3.7516  1.4206  0.2335
 5726SOL     OW28636   4.683   3.626  15.913  0.3594 -0.3020  0.1287
 5726SOL    HW128637   4.642   3.544  15.887 -0.2274 -0.5064  1.7217
 5726SOL    HW228638   4.634   3.692  15.862  0.6900 -0.7508 -0.7784
 5727SOL     OW28639   0.305   3.699   3.852 -0.3060 -0.1411  0.5015
 5727SOL    HW128640   0.345   3.634   3.793 -2.1451 -1.4116  0.6539
 5727SOL    HW228641   0.248   3.630   3.887 -0.1041 -0.8856 -0.6363
 5728SOL     OW28642   4.149   0.479   0.939 -0.4537  0.1284 -0.2031
 5728SOL    HW128643   4.118   0.396   0.976 -0.3554 -0.6314 -1.8380
 5728SOL    HW228644   4.077   0.540   0.952 -2.1586 -1.7264 -0.9558
 5729SOL     OW28645   4.439   4.200   6.587  0.5228  0.2233 -0.1567
 5729SOL    HW128646   4.442   4.104   6.594  0.7330  0.1337 -1.3987
 5729SOL    HW228647   4.438   4.212   6.492 -1.0564 -1.2297 -0.3188
 5730SOL     OW28648   1.553   3.407  16.061 -0.5059 -0.3250 -0.1739
 5730SOL    HW128649   1.574   3.353  16.137 -0.2471  0.4741  0.3207
 5730SOL    HW228650   1.609   3.483  16.074 -1.0556  0.3072 -1.5078
 5731SOL     OW28651   4.575   2.793   1.532  0.5839  0.2241  0.4065
 5731SOL    HW128652   4.544   2.853   1.599 -0.1407  0.6200 -0.2829
 5731SOL    HW228653   4.493   2.792   1.482  1.8018 -0.1668 -1.6057
 5732SOL     OW28654   1.916   3.339   5.893  0.0586 -0.3867 -0.5182
 5732SOL    HW128655   1.941   3.356   5.802  1.9309  1.3528  0.3213
 5732SOL    HW228656   1.941   3.248   5.907  0.0818 -0.3427 -0.2865
 5733SOL     OW28657   1.670   1.198   9.504  0.4358 -0.3169 -0.4840
 5733SOL    HW128658   1.699   1.282   9.538 -1.7465  0.7980 -1.3810
 5733SOL    HW228659   1.700   1.193   9.414  0.7598 -1.4319 -0.3150
 5734SOL     OW28660   2.807   1.713   4.741 -0.4824 -0.0161  0.2157
 5734SOL    HW128661   2.863   1.747   4.672 -1.3163 -2.3470 -1.6006
 5734SOL    HW228662   2.854   1.745   4.818  1.0583 -1.1150 -0.2811
 5735SOL     OW28663   2.959   0.928  16.661 -0.6472 -0.3734  0.0434
 5735SOL    HW128664   2.965   0.845  16.613  0.2934  0.2288 -0.8844
 5735SOL    HW228665   2.944   0.884  16.744  0.8134  0.5863  0.8191
 5736SOL     OW28666   2.962   4.356   6.166 -0.3137 -0.1955  0.0377
 5736SOL    HW128667   3.047   4.379   6.128 -0.5276  0.3238 -0.1287
 5736SOL    HW228668   2.918   4.304   6.099  0.8640 -1.4890  0.2688
 5737SOL     OW28669   2.530   2.546   6.746  0.4844  0.0429 -0.4705
 5737SOL    HW128670   2.580   2.537   6.827 -0.8102  0.9361  0.4260
 5737SOL    HW228671   2.593   2.497   6.693 -0.3691  0.9315 -2.3285
 5738SOL     OW28672   0.398   4.332   8.369 -0.1184  0.1185  0.2482
 5738SOL    HW128673   0.479   4.281   8.374 -0.8060 -0.9153  0.8294
 5738SOL    HW228674   0.395   4.369   8.458  0.0928 -0.8899  0.6703
 5739SOL     OW28675   3.111   0.182   8.264 -0.1013 -0.3731 -0.0667
 5739SOL    HW128676   3.054   0.255   8.241  0.1232 -0.9698 -2.5277
 5739SOL    HW228677   3.055   0.110   8.236 -2.1821  0.6931  1.3213
 5740SOL     OW28678   2.816   0.015   5.779  0.4322 -0.1370  0.3488
 5740SOL    HW128679   2.733   0.040   5.821  0.8039  1.6779  0.0237
 5740SOL    HW228680   2.883   0.054   5.835  0.7191  0.1190 -0.1705
 5741SOL     OW28681   1.554   2.455   7.686 -0.1723  0.6275  0.0409
 5741SOL    HW128682   1.530   2.536   7.641 -1.6955  0.9776  1.4806
 5741SOL    HW228683   1.566   2.409   7.603 -2.1117 -0.5226  0.3814
 5742SOL     OW28684   1.595   0.175   3.517 -0.1887 -0.3194  0.2886
 5742SOL    HW128685   1.593   0.232   3.440 -0.5009  0.5882  0.9712
 5742SOL    HW228686   1.665   0.210   3.572 -1.0090  1.8244 -0.0464
 5743SOL     OW28687   1.415   1.676   6.316  0.3758 -0.2421  0.0108
 5743SOL    HW128688   1.378   1.610   6.374 -1.3949  1.9202  1.3290
 5743SOL    HW228689   1.479   1.624   6.266 -1.8095 -1.8797 -1.1080
 5744SOL     OW28690   2.527   3.357   6.966 -0.4264 -0.3734 -0.5651
 5744SOL    HW128691   2.523   3.289   7.033  1.4268 -0.1947 -0.2911
 5744SOL    HW228692   2.432   3.360   6.949 -1.0429 -0.8416  2.8070
 5745SOL     OW28693   3.749   2.809   0.661 -0.1309 -0.1589  0.3015
 5745SOL    HW128694   3.755   2.726   0.612  1.1207 -0.2580  0.6423
 5745SOL    HW228695   3.702   2.783   0.740 -0.1781 -0.6876  0.0999
 5746SOL     OW28696   4.236   0.610   2.879  0.2254 -0.3495 -0.2139
 5746SOL    HW128697   4.270   0.555   2.809 -1.0480  0.7196 -1.6610
 5746SOL    HW228698   4.281   0.690   2.853 -1.6725  1.9477  3.4726
 5747SOL     OW28699   1.015   2.695   6.423 -0.2710  0.6322  0.1253
 5747SOL    HW128700   1.039   2.679   6.332  1.2762 -0.5534  0.7447
 5747SOL    HW228701   1.032   2.609   6.461  2.3289  1.4547  0.8263
 5748SOL     OW28702   1.263   4.545   4.139 -1.0604  0.3999 -0.8801
 5748SOL    HW128703   1.354   4.547   4.169 -1.1930  1.8935 -0.6010
 5748SOL    HW228704   1.279   4.517   4.049  0.3720  1.6669 -1.0191
 5749SOL     OW28705   1.865   0.795   3.319 -0.3514 -0.5234 -0.3541
 5749SOL    HW128706   1.907   0.714   3.347  0.8386 -0.2909 -1.4403
 5749SOL    HW228707   1.821   0.828   3.397  0.3055  0.6355 -0.4792
 5750SOL     OW28708   1.159   3.660   5.701  0.7507  0.2557 -0.0174
 5750SOL    HW128709   1.201   3.744   5.718  0.8181  0.3130 -0.4590
 5750SOL    HW228710   1.180   3.645   5.609 -0.6672 -1.0626 -0.1326
 5751SOL     OW28711   2.719   4.223   2.930 -0.1244  0.3653 -0.2950
 5751SOL    HW128712   2.755   4.188   3.011 -2.7026 -0.2077  0.6141
 5751SOL    HW228713   2.705   4.142   2.881  0.9931 -0.5297  0.8877
 5752SOL     OW28714   0.594   3.779   1.744  0.7812 -0.3472  0.1861
 5752SOL    HW128715   0.531   3.722   1.789 -0.5123  0.1230 -0.9927
 5752SOL    HW228716   0.529   3.841   1.711 -0.3283 -1.2781  0.5868
 5753SOL     OW28717   4.021   2.939   0.592  0.4151  0.5760 -0.0071
 5753SOL    HW128718   3.991   3.005   0.529  0.2737 -0.1008 -0.6502
 5753SOL    HW228719   3.944   2.920   0.646  0.5782 -1.7633 -0.5880
 5754SOL     OW28720   3.041   4.644  13.985  0.2500  0.0343  0.6769
 5754SOL    HW128721   3.110   4.675  14.044  1.7261  1.1968 -1.6372
 5754SOL    HW228722   3.065   4.689  13.904 -0.8125 -2.1181 -0.8461
 5755SOL     OW28723   2.684   3.642  14.205 -0.0844  0.5315 -0.1397
 5755SOL    HW128724   2.777   3.623  14.223 -0.3507 -0.2659  0.4100
 5755SOL    HW228725   2.695   3.658  14.111 -1.1978 -0.4550 -0.4374
 5756SOL     OW28726   0.889   1.643   6.836 -0.0828  0.4044  0.1460
 5756SOL    HW128727   0.834   1.721   6.840 -0.4005  0.2277 -0.6637
 5756SOL    HW228728   0.974   1.666   6.874 -0.5750 -0.8829  2.0408
 5757SOL     OW28729   4.659   1.253   3.444  0.4201 -0.2282 -0.0886
 5757SOL    HW128730   4.644   1.158   3.440  0.6915 -0.3282  1.0765
 5757SOL    HW228731   4.572   1.279   3.416 -0.4404 -0.5160  2.2761
 5758SOL     OW28732   2.595   0.465   4.437  0.0938 -0.5935 -0.2135
 5758SOL    HW128733   2.513   0.422   4.461  0.1001 -0.7042 -0.3907
 5758SOL    HW228734   2.567   0.547   4.398 -1.2841 -1.2212 -0.5228
 5759SOL     OW28735   4.113   2.089  11.242 -0.5069 -0.1359  0.2358
 5759SOL    HW128736   4.177   2.159  11.233  0.4465 -0.8850  1.0909
 5759SOL    HW228737   4.077   2.086  11.153  2.0399  1.0777 -0.8343
 5760SOL     OW28738   1.782   4.661   9.499 -0.1335 -0.1956  0.2168
 5760SOL    HW128739   1.787   4.633   9.590 -0.1129  0.7258  0.4977
 5760SOL    HW228740   1.870   4.648   9.465 -0.3293  1.8959 -1.0995
 5761SOL     OW28741   3.307   3.696   7.514 -0.3606  0.0361  0.6608
 5761SOL    HW128742   3.318   3.788   7.538 -0.3777  0.2809 -0.2722
 5761SOL    HW228743   3.308   3.710   7.420 -1.9878 -2.2310  0.3119
 5762SOL     OW28744   4.369   3.998   4.112  0.0943  0.4830  0.3827
 5762SOL    HW128745   4.381   3.973   4.021  2.2743  0.6811  0.5977
 5762SOL    HW228746   4.284   4.042   4.104 -1.5062 -2.7982 -0.4644
 5763SOL     OW28747   3.913   2.786   5.018  0.2738  0.5672  0.6737
 5763SOL    HW128748   3.953   2.826   4.941  1.2911 -3.5993 -0.9378
 5763SOL    HW228749   3.858   2.730   4.963 -0.4171 -0.1862  2.1286
 5764SOL     OW28750   2.185   3.336  10.925  0.8604 -0.3132  0.9195
 5764SOL    HW128751   2.189   3.306  11.016  1.7879  0.5846  1.1740
 5764SOL    HW228752   2.232   3.419  10.927 -0.4927  0.5169 -1.0214
 5765SOL     OW28753   0.229   4.540   6.316  0.2706  0.1511 -0.6237
 5765SOL    HW128754   0.274   4.620   6.341  0.0021  0.3277 -0.7103
 5765SOL    HW228755   0.290   4.490   6.262 -1.1403 -1.4488 -0.7532
 5766SOL     OW28756   2.442   3.907  13.368  0.3181 -0.5808  0.1427
 5766SOL    HW128757   2.377   3.839  13.351  0.6976 -0.9878  0.3269
 5766SOL    HW228758   2.472   3.853  13.441 -0.6291 -0.4461  0.6447
 5767SOL     OW28759   4.069   1.594   8.462  0.1664  0.3627 -0.0405
 5767SOL    HW128760   4.034   1.607   8.550 -2.8497 -1.2807 -0.9838
 5767SOL    HW228761   4.130   1.664   8.441  1.6607 -0.5863  1.0893
 5768SOL     OW28762   2.634   1.524   0.597  0.2589  0.0521  0.0771
 5768SOL    HW128763   2.661   1.484   0.680 -0.3220  0.0578  0.2630
 5768SOL    HW228764   2.589   1.449   0.558 -0.5018  0.9160 -0.7067
 5769SOL     OW28765   3.810   3.870   4.731 -0.0225 -0.1404 -0.4631
 5769SOL    HW128766   3.856   3.795   4.691  3.3154  1.8642 -0.3904
 5769SOL    HW228767   3.841   3.936   4.669 -2.5861  0.0999 -1.4846
 5770SOL     OW28768   3.767   2.750   2.158  0.2837 -0.0250  0.1209
 5770SOL    HW128769   3.856   2.748   2.195 -1.0797  1.7006  3.4773
 5770SOL    HW228770   3.785   2.805   2.081  3.3308 -2.2972 -0.8129
 5771SOL     OW28771   4.590   4.262   7.830 -0.2117 -0.2096  0.3405
 5771SOL    HW128772   4.674   4.302   7.854  0.1124 -0.5658 -0.1897
 5771SOL    HW228773   4.610   4.255   7.737 -1.4220  2.4290 -0.1435
 5772SOL     OW28774   3.919   3.502   8.561  0.0129 -0.0049  0.2814
 5772SOL    HW128775   3.988   3.477   8.499 -0.1130 -1.0164  0.5592
 5772SOL    HW228776   3.908   3.412   8.590  1.3266 -0.1883  0.2334
 5773SOL     OW28777   0.527   3.249   6.154  0.1139 -0.3807  0.2259
 5773SOL    HW128778   0.530   3.329   6.102  1.0592  0.8657  2.2244
 5773SOL    HW228779   0.620   3.241   6.174  0.0060  2.3358  1.7384
 5774SOL     OW28780   4.204   2.736   6.760  0.0269  0.3159 -0.1768
 5774SOL    HW128781   4.159   2.655   6.780  2.0511 -0.6733  0.4207
 5774SOL    HW228782   4.137   2.800   6.735 -1.0474 -1.1900 -1.1721
 5775SOL     OW28783   0.895   0.587  11.130  0.1073 -0.8219  0.4854
 5775SOL    HW128784   0.875   0.521  11.063 -2.8468 -1.0877  1.6400
 5775SOL    HW228785   0.814   0.636  11.136  0.3557 -0.5376  1.4277
 5776SOL     OW28786   0.355   4.374   4.924 -0.3822  0.0059 -0.3969
 5776SOL    HW128787   0.331   4.393   5.015 -0.8206  1.9991 -0.9443
 5776SOL    HW228788   0.365   4.279   4.932 -1.0003 -0.2754 -2.9225
 5777SOL     OW28789   4.024   1.027   3.644  0.1238  0.0697  0.2776
 5777SOL    HW128790   4.012   0.998   3.734  0.7986 -0.0729  0.3266
 5777SOL    HW228791   3.988   1.115   3.652 -0.0833 -0.1111  1.2424
 5778SOL     OW28792   4.189   0.300   6.101 -0.4354  0.1337 -0.0378
 5778SOL    HW128793   4.103   0.295   6.143 -0.1654  0.3847  0.5434
 5778SOL    HW228794   4.239   0.249   6.164 -1.9114  0.4239  1.3486
 5779SOL     OW28795   2.259   0.558   9.211  0.2782  0.4541  0.1310
 5779SOL    HW128796   2.256   0.509   9.293  1.9521 -1.9862 -1.2521
 5779SOL    HW228797   2.352   0.547   9.188  0.2755  0.2641  0.2039
 5780SOL     OW28798   0.166   4.539   4.498  0.2033 -0.4613  0.7518
 5780SOL    HW128799   0.178   4.562   4.590  1.3609 -1.9738  0.9901
 5780SOL    HW228800   0.253   4.502   4.481 -0.3949 -0.8066 -1.5053
 5781SOL     OW28801   3.872   1.012   5.925 -0.4446 -0.5150 -0.1153
 5781SOL    HW128802   3.924   0.934   5.906  0.5338 -0.0530  0.6455
 5781SOL    HW228803   3.843   1.004   6.016  0.1058 -1.2966 -0.0150
 5782SOL     OW28804   2.005   0.608   9.156  0.0345  0.3220 -0.3705
 5782SOL    HW128805   2.097   0.596   9.181 -1.4864 -1.2420  4.3862
 5782SOL    HW228806   1.987   0.515   9.160  0.4658  0.3073  1.3424
 5783SOL     OW28807   4.475   2.249   4.079 -0.5078 -0.6029  0.1671
 5783SOL    HW128808   4.467   2.225   3.987  1.6716  2.2325 -0.7474
 5783SOL    HW228809   4.393   2.213   4.112 -1.0478  0.5879  0.1269
 5784SOL     OW28810   1.424   4.042   2.408  0.1663  0.6391 -0.4960
 5784SOL    HW128811   1.383   3.971   2.359  1.1635  0.6740 -1.4015
 5784SOL    HW228812   1.512   4.007   2.426 -1.3457 -2.0794  1.5962
 5785SOL     OW28813   3.975   0.612   4.269  0.6878  0.0096 -0.1655
 5785SOL    HW128814   3.902   0.670   4.246 -1.3620 -0.9688  3.8061
 5785SOL    HW228815   3.936   0.562   4.340  0.4142  0.4255 -0.0239
 5786SOL     OW28816   2.664   1.422   7.892 -0.0756 -0.1661  0.0541
 5786SOL    HW128817   2.578   1.434   7.931  0.1121 -1.7256  0.9264
 5786SOL    HW228818   2.664   1.329   7.871  0.2022 -0.5568  1.7781
 5787SOL     OW28819   0.482   2.404   6.673  0.5995  0.0933 -0.1196
 5787SOL    HW128820   0.501   2.404   6.766 -0.5012 -0.9958  0.1043
 5787SOL    HW228821   0.511   2.482   6.625  0.6736 -0.4564 -0.9787
 5788SOL     OW28822   2.976   3.119  15.362 -0.0619  0.0690  0.3735
 5788SOL    HW128823   3.057   3.103  15.409  0.4896 -2.7771 -1.5027
 5788SOL    HW228824   2.924   3.038  15.367 -1.4145  0.8763 -0.5645
 5789SOL     OW28825   3.303   1.763   4.426 -0.4351  0.7816 -0.9296
 5789SOL    HW128826   3.388   1.724   4.447 -0.5850  1.9579  1.8210
 5789SOL    HW228827   3.312   1.846   4.473 -1.2466  0.7724 -0.7617
 5790SOL     OW28828   3.065   1.504   3.261 -0.8554 -0.3777 -0.0355
 5790SOL    HW128829   2.980   1.495   3.304 -0.0675 -1.9392  1.1792
 5790SOL    HW228830   3.131   1.511   3.331  0.6238 -1.3790 -1.3422
 5791SOL     OW28831   3.911   2.699  16.928 -0.3959 -0.2449  0.8653
 5791SOL    HW128832   3.917   2.610  16.895 -0.2739  0.2103 -0.3454
 5791SOL    HW228833   3.995   2.744  16.928 -0.6083  0.1375 -4.3107
 5792SOL     OW28834   1.708   3.707   3.746 -0.4523  0.0208  0.2910
 5792SOL    HW128835   1.769   3.774   3.775  1.0669 -1.2395  0.0131
 5792SOL    HW228836   1.730   3.628   3.796  1.6014  0.5107  0.1562
 5793SOL     OW28837   2.037   2.398   5.715 -0.0801 -0.4360 -0.0461
 5793SOL    HW128838   1.992   2.335   5.772  0.2133 -1.6891 -1.2114
 5793SOL    HW228839   1.973   2.393   5.645 -0.7850  1.3250  0.4609
 5794SOL     OW28840   2.607   2.282   1.794 -0.2944 -0.0190 -0.3582
 5794SOL    HW128841   2.659   2.300   1.715 -2.8112  0.1770 -1.9759
 5794SOL    HW228842   2.661   2.330   1.857  0.6277  0.3876 -1.4501
 5795SOL     OW28843   0.743   4.682   4.782 -0.0314 -0.2258 -0.0542
 5795SOL    HW128844   0.814   4.674   4.846  1.3610 -0.1026 -1.5842
 5795SOL    HW228845   0.791   4.689   4.699 -0.8244 -0.6601 -0.5420
 5796SOL     OW28846   4.581   0.587   6.052  0.1122  0.2144  0.0180
 5796SOL    HW128847   4.497   0.564   6.093  0.7925 -0.4392  1.0712
 5796SOL    HW228848   4.557   0.635   5.973  1.1199 -0.2738 -0.5882
 5797SOL     OW28849   3.655   1.080   8.818  0.5084  0.1607  0.0093
 5797SOL    HW128850   3.675   1.033   8.898  1.4292 -1.4992 -1.1881
 5797SOL    HW228851   3.741   1.078   8.776 -0.6519 -2.0205 -2.2997
 5798SOL     OW28852   4.027   1.559   5.728  0.2153 -0.3935  0.2914
 5798SOL    HW128853   4.025   1.626   5.660  2.0817 -0.0973  0.5268
 5798SOL    HW228854   4.096   1.596   5.783  3.0614 -3.5882 -1.1096
 5799SOL     OW28855   3.452   0.135  13.629 -0.0964  0.1148 -0.4283
 5799SOL    HW128856   3.526   0.085  13.592 -0.2062 -1.0268  0.9078
 5799SOL    HW228857   3.387   0.067  13.612 -0.8346  1.0332 -1.2645
 5800SOL     OW28858   2.860   2.859  15.422 -0.1481 -0.3712 -0.6962
 5800SOL    HW128859   2.782   2.849  15.367 -1.5795  0.2004  1.2672
 5800SOL    HW228860   2.893   2.770  15.409 -1.0846 -0.4134 -2.8311
 5801SOL     OW28861   4.590   3.685   5.669 -0.0545  0.1186  0.5764
 5801SOL    HW128862   4.664   3.696   5.729 -1.9844  3.0896  2.4141
 5801SOL    HW228863   4.518   3.729   5.714 -0.0156  0.1160  0.6417
 5802SOL     OW28864   4.695   1.495  11.740  0.2139 -0.0872 -0.1605
 5802SOL    HW128865   4.723   1.508  11.831 -0.9625  0.5559  0.0998
 5802SOL    HW228866   0.038   1.538  11.689  1.7714 -0.0343  1.9710
 5803SOL     OW28867   4.447   3.476   6.428  0.4409  0.2695 -0.2921
 5803SOL    HW128868   4.381   3.423   6.384  0.3344 -0.6502  0.9598
 5803SOL    HW228869   4.411   3.504   6.512 -1.5265  0.0682 -1.0903
 5804SOL     OW28870   3.745   1.119   4.564  0.0912  0.2676 -0.7419
 5804SOL    HW128871   3.702   1.039   4.533  0.8724  0.0781 -1.3250
 5804SOL    HW228872   3.731   1.175   4.487 -0.1715 -1.9327 -2.2852
 5805SOL     OW28873   4.488   0.288   7.191  0.1593 -0.2396  0.0224
 5805SOL    HW128874   4.416   0.337   7.151  2.0888  3.4703  1.1233
 5805SOL    HW228875   4.558   0.318   7.132 -1.0051  2.5050  0.0262
 5806SOL     OW28876   0.226   4.078   7.817 -0.9769 -0.3030  0.2643
 5806SOL    HW128877   0.144   4.121   7.790  0.5141  0.9619 -2.2031
 5806SOL    HW228878   0.283   4.133   7.764 -1.2899 -0.2370 -0.0090
 5807SOL     OW28879   1.103   1.946   3.219  0.3183 -1.1931 -0.2134
 5807SOL    HW128880   1.042   2.010   3.182  1.1432  0.1085  0.6774
 5807SOL    HW228881   1.179   2.003   3.207  1.3278 -2.8068 -1.4887
 5808SOL     OW28882   3.534   0.856  14.663 -0.4079 -0.0765  0.3263
 5808SOL    HW128883   3.441   0.841  14.680 -0.7167  2.5866  1.0057
 5808SOL    HW228884   3.585   0.775  14.663 -1.4466 -0.7352 -0.9032
 5809SOL     OW28885   2.977   2.174  11.700 -0.1894 -0.1068 -0.0621
 5809SOL    HW128886   2.926   2.197  11.778 -0.2837  0.1566 -0.2020
 5809SOL    HW228887   3.020   2.093  11.728 -2.0428 -1.1828 -0.3053
 5810SOL     OW28888   1.203   3.496   7.456  0.5097  0.2356  0.2915
 5810SOL    HW128889   1.293   3.525   7.439 -0.3018  0.1688 -4.1731
 5810SOL    HW228890   1.160   3.570   7.497  1.2353 -0.1389  1.7318
 5811SOL     OW28891   4.002   2.040   8.264  0.5472 -0.4036 -0.5870
 5811SOL    HW128892   3.936   2.110   8.270  1.4213  0.3846 -0.1991
 5811SOL    HW228893   4.045   2.041   8.178  0.4511 -1.8215 -0.6547
 5812SOL     OW28894   2.168   2.020   6.333 -0.1217 -0.7007 -0.6904
 5812SOL    HW128895   2.172   2.036   6.239 -0.7200  0.2784 -0.5496
 5812SOL    HW228896   2.243   1.968   6.362  1.6270  0.9481 -2.2542
 5813SOL     OW28897   2.319   0.107   4.223 -0.1343  0.3436 -0.7308
 5813SOL    HW128898   2.272   0.179   4.263  0.2960  0.6373 -0.7531
 5813SOL    HW228899   2.326   0.121   4.129 -1.0420 -2.0910 -1.1566
 5814SOL     OW28900   1.042   3.743   5.157  0.0086  0.0659  0.4261
 5814SOL    HW128901   1.130   3.781   5.156  0.1931 -0.4470 -1.6941
 5814SOL    HW228902   1.065   3.650   5.154 -0.6414 -0.0555 -0.6858
 5815SOL     OW28903   2.187   4.664   7.255 -0.4597  0.5016  0.1475
 5815SOL    HW128904   2.154   4.579   7.225  0.8529 -0.2218  0.7432
 5815SOL    HW228905   2.118   4.684   7.319  0.2643  1.1734  0.7237
 5816SOL     OW28906   0.184   2.209   6.882  0.2225  0.3327  0.8690
 5816SOL    HW128907   0.136   2.127   6.876  0.0869  0.4658  0.0136
 5816SOL    HW228908   0.133   2.254   6.950 -1.1482  1.0196 -0.5981
 5817SOL     OW28909   2.695   2.307   9.228 -0.1791 -0.2748 -0.2112
 5817SOL    HW128910   2.737   2.349   9.153 -0.2274  0.2064  0.0301
 5817SOL    HW228911   2.761   2.299   9.297  2.0357 -0.5704 -2.3597
 5818SOL     OW28912   3.412   0.925   3.765  0.7932  0.6756 -0.0146
 5818SOL    HW128913   3.499   0.885   3.756  0.5138  0.1528 -0.3248
 5818SOL    HW228914   3.350   0.886   3.703  0.5184  2.1631 -0.6786
 5819SOL     OW28915   1.095   1.801   2.654  0.2986 -0.2540  0.1306
 5819SOL    HW128916   1.062   1.871   2.711 -1.5580 -0.4543 -0.6903
 5819SOL    HW228917   1.068   1.833   2.568 -0.5368 -0.7081  0.2169
 5820SOL     OW28918   3.693   2.717  10.514  0.0278  0.1896  0.3236
 5820SOL    HW128919   3.755   2.787  10.497 -1.6984  2.0166  1.6099
 5820SOL    HW228920   3.657   2.709  10.425  1.0951 -2.4011  0.1209
 5821SOL     OW28921   3.090   0.387   9.831 -0.2486  0.3275  0.7640
 5821SOL    HW128922   3.075   0.301   9.793  1.8473  0.8004 -1.1534
 5821SOL    HW228923   3.182   0.379   9.857 -0.1436  0.4605  0.4361
 5822SOL     OW28924   0.396   2.840   3.150  0.0684  0.0009  0.2455
 5822SOL    HW128925   0.462   2.886   3.202  1.1791 -1.4682  0.1444
 5822SOL    HW228926   0.407   2.894   3.072 -1.4329  0.4411  0.3405
 5823SOL     OW28927   2.833   4.221  13.296  0.0923 -0.5529 -1.1033
 5823SOL    HW128928   2.802   4.229  13.205 -0.0407 -2.6541 -1.2397
 5823SOL    HW228929   2.788   4.138  13.311 -1.1058 -0.2003 -2.6602
 5824SOL     OW28930   4.601   4.540   0.574  0.2273 -0.2904 -0.3641
 5824SOL    HW128931   4.646   4.602   0.517  1.5691 -0.7307  0.2159
 5824SOL    HW228932   4.510   4.553   0.546 -0.0357  0.7845  0.9938
 5825SOL     OW28933   3.281   2.889   2.317 -0.7935  0.5795 -0.6031
 5825SOL    HW128934   3.287   2.929   2.403 -0.4212 -1.5288  0.3480
 5825SOL    HW228935   3.371   2.862   2.299 -1.6426 -2.8829  0.3206
 5826SOL     OW28936   3.523   0.407   2.772 -0.6811  0.7272 -0.2599
 5826SOL    HW128937   3.512   0.499   2.795 -1.6321  0.8767 -1.2929
 5826SOL    HW228938   3.616   0.412   2.749 -0.6761 -1.7402 -0.7914
 5827SOL     OW28939   4.720   0.877   3.734 -0.2945 -0.1758  0.4775
 5827SOL    HW128940   4.656   0.813   3.766 -1.6235  0.7403 -0.3801
 5827SOL    HW228941   4.718   0.943   3.804  1.0411  2.3117 -1.8169
 5828SOL     OW28942   3.253   2.510   2.978 -0.1997 -0.2661  0.0925
 5828SOL    HW128943   3.286   2.592   3.012 -0.8715 -0.5858  1.5012
 5828SOL    HW228944   3.284   2.450   3.046  1.1832  1.9936  1.4282
 5829SOL     OW28945   0.998   0.241   2.527 -0.0330  0.2505 -0.5664
 5829SOL    HW128946   1.045   0.298   2.466  0.7587 -0.1101 -0.2964
 5829SOL    HW228947   0.909   0.253   2.493  0.2188 -0.7004 -1.5724
 5830SOL     OW28948   0.428   1.083   9.220  0.4012 -0.7462 -0.2197
 5830SOL    HW128949   0.456   1.175   9.214  1.6150 -1.2414 -2.0743
 5830SOL    HW228950   0.510   1.045   9.190  1.0367 -1.0407  1.9002
 5831SOL     OW28951   0.593   3.631  15.457 -0.1964 -0.1730  0.6758
 5831SOL    HW128952   0.579   3.539  15.435  1.9320 -0.0742 -1.1284
 5831SOL    HW228953   0.648   3.603  15.531  0.2197 -3.4852 -0.8875
 5832SOL     OW28954   2.131   0.327  13.926 -0.0084 -0.0935 -0.3083
 5832SOL    HW128955   2.089   0.350  13.844 -1.2114 -0.2747  0.2637
 5832SOL    HW228956   2.165   0.237  13.919  0.4223  0.0520 -0.1264
 5833SOL     OW28957   0.615   3.771   6.892  0.4951  0.2648  0.8518
 5833SOL    HW128958   0.643   3.681   6.909  2.6164  0.6173 -0.7862
 5833SOL    HW228959   0.704   3.806   6.889  0.9366 -1.2382 -3.3535
 5834SOL     OW28960   4.723   1.975   5.176  0.7993 -0.1861 -0.6834
 5834SOL    HW128961   0.082   1.980   5.220  0.1008 -1.6520  0.7785
 5834SOL    HW228962   4.662   1.950   5.245  1.2530  0.2936 -0.1088
 5835SOL     OW28963   4.182   4.382  10.994  0.1502 -0.2141  0.2556
 5835SOL    HW128964   4.227   4.438  10.931 -0.1237 -0.5336 -0.2226
 5835SOL    HW228965   4.252   4.327  11.029 -0.3644 -1.5810 -0.8655
 5836SOL     OW28966   0.860   0.918  16.092 -0.4087  0.8846  0.1184
 5836SOL    HW128967   0.946   0.948  16.120 -1.0214  0.5938  2.2741
 5836SOL    HW228968   0.882   0.884  16.005  0.3160  1.0055  0.2551
 5837SOL     OW28969   3.937   3.647   6.166  0.1532 -0.4746  0.2610
 5837SOL    HW128970   3.998   3.721   6.159 -3.0785  2.0659 -0.9093
 5837SOL    HW228971   3.927   3.625   6.073  2.1393  0.1879 -0.1249
 5838SOL     OW28972   2.473   0.347   7.522 -0.0317 -0.4480  0.2695
 5838SOL    HW128973   2.402   0.334   7.458 -0.5975 -1.2345  1.0506
 5838SOL    HW228974   2.428   0.370   7.603  2.7301 -0.4477  1.7945
 5839SOL     OW28975   2.547   0.529   0.576 -0.2761  0.1986  0.2381
 5839SOL    HW128976   2.545   0.541   0.481  0.8556  2.0983  0.4507
 5839SOL    HW228977   2.514   0.616   0.598 -0.4587 -0.0360  0.8893
 5840SOL     OW28978   1.823   3.955   3.601  0.4693  0.4962 -0.2551
 5840SOL    HW128979   1.839   3.954   3.695 -0.6013  0.7028 -0.0751
 5840SOL    HW228980   1.728   3.968   3.602  0.3370 -0.4483 -1.1318
 5841SOL     OW28981   3.324   3.662   9.001  0.1054 -0.7868  0.2406
 5841SOL    HW128982   3.341   3.717   9.077  2.3433 -0.1709 -0.6900
 5841SOL    HW228983   3.265   3.594   9.034  0.0302 -0.1231  1.4751
 5842SOL     OW28984   0.579   3.428   1.702  0.4987  0.1719 -0.1629
 5842SOL    HW128985   0.582   3.335   1.722  0.4506  0.4010  0.9141
 5842SOL    HW228986   0.548   3.431   1.612  2.4351 -0.1409 -0.8356
 5843SOL     OW28987   0.727   1.764   5.342  0.0550  0.0863 -0.0332
 5843SOL    HW128988   0.715   1.785   5.249  0.1881  1.7779  0.3363
 5843SOL    HW228989   0.649   1.712   5.361 -0.3898  1.1334  1.0146
 5844SOL     OW28990   3.779   3.687   8.404 -0.6329 -0.9684 -0.0569
 5844SOL    HW128991   3.802   3.637   8.483 -0.0094  0.0753  0.4210
 5844SOL    HW228992   3.728   3.622   8.356 -0.1097 -0.7507 -0.9069
 5845SOL     OW28993   0.902   3.436  16.355  0.1803 -0.0990 -0.4898
 5845SOL    HW128994   0.942   3.424  16.269  0.4058  3.2733 -0.8598
 5845SOL    HW228995   0.965   3.492  16.401 -0.2093  0.0820 -0.1821
 5846SOL     OW28996   3.598   4.274  15.375  0.4154  0.3456  0.2178
 5846SOL    HW128997   3.688   4.268  15.341  0.6888 -1.6951  1.2923
 5846SOL    HW228998   3.573   4.184  15.396  1.3534 -0.0275 -0.2244
 5847SOL     OW28999   1.946   4.146   2.930  0.0229  0.1056 -0.2825
 5847SOL    HW129000   2.023   4.174   2.881  0.1177 -1.0441 -0.8005
 5847SOL    HW229001   1.875   4.145   2.867 -0.9062 -0.3709  0.7630
 5848SOL     OW29002   0.744   0.240   7.745  0.3500  0.0472  0.4049
 5848SOL    HW129003   0.816   0.216   7.687 -0.4607 -3.2030  0.7474
 5848SOL    HW229004   0.722   0.153   7.777 -2.5099  0.0963 -1.3836
 5849SOL     OW29005   1.756   2.066   6.590  0.0116  0.2844  0.0107
 5849SOL    HW129006   1.766   1.971   6.582  0.8005  0.4283 -0.6405
 5849SOL    HW229007   1.830   2.099   6.541 -0.2339  1.7526  0.6390
 5850SOL     OW29008   0.533   4.025   0.190  0.8275  0.0814  0.2201
 5850SOL    HW129009   0.462   4.074   0.232 -0.1508 -0.9892 -0.1771
 5850SOL    HW229010   0.531   4.083   0.114 -0.6183 -0.2296  0.0201
 5851SOL     OW29011   2.097   1.701   9.689 -0.0827  0.0063  0.4499
 5851SOL    HW129012   2.094   1.717   9.594  0.3806 -3.6777 -0.1697
 5851SOL    HW229013   2.188   1.723   9.708  0.0491  1.6327 -2.0215
 5852SOL     OW29014   2.972   0.429  17.089 -0.1213 -0.6478 -0.2056
 5852SOL    HW129015   2.999   0.468  17.006  2.1868  0.0518  0.8493
 5852SOL    HW229016   3.053   0.387  17.120  1.3116  1.8922 -0.5715
 5853SOL     OW29017   4.125   2.437  11.430 -0.2346 -0.1701  0.7409
 5853SOL    HW129018   4.151   2.369  11.367  1.3360  0.8101  0.3155
 5853SOL    HW229019   4.146   2.387  11.509  0.9906 -1.5923 -0.4783
 5854SOL     OW29020   1.695   0.361  10.238  0.4722 -0.0385  0.3168
 5854SOL    HW129021   1.719   0.436  10.293 -1.0120  0.4037  0.3386
 5854SOL    HW229022   1.721   0.394  10.152 -3.4223 -1.3854 -1.3560
 5855SOL     OW29023   4.014   3.047   5.729 -0.4299  0.1738  0.1662
 5855SOL    HW129024   3.988   2.972   5.782  0.7665 -0.6861 -0.4543
 5855SOL    HW229025   4.055   3.001   5.656  0.1746  0.8929  0.0499
 5856SOL     OW29026   1.424   1.711   2.926  0.0575 -0.2800  0.2644
 5856SOL    HW129027   1.415   1.619   2.952 -0.0965  0.1245  1.6221
 5856SOL    HW229028   1.517   1.719   2.944 -0.2909  2.1384  0.9261
 5857SOL     OW29029   4.622   3.791  16.369 -0.6183 -0.2926 -0.0804
 5857SOL    HW129030   4.575   3.823  16.291  1.2872  1.1920 -0.6166
 5857SOL    HW229031   4.680   3.725  16.330 -1.0801  0.8500 -2.7401
 5858SOL     OW29032   0.513   0.011   8.321  0.5777 -0.3528 -0.1319
 5858SOL    HW129033   0.468   0.028   8.404  1.3727 -0.6357  0.3573
 5858SOL    HW229034   0.471   0.075   8.264 -1.0308 -1.7937 -0.5424
 5859SOL     OW29035   2.677   4.661  15.222 -0.0804  0.1627  0.2973
 5859SOL    HW129036   2.670   4.704  15.137 -0.2127  3.0337  1.7284
 5859SOL    HW229037   2.757   4.611  15.214 -0.2491 -0.1192  0.3727
 5860SOL     OW29038   3.001   3.452   8.735  0.1517  0.1930  0.0173
 5860SOL    HW129039   3.026   3.519   8.671  0.0622  0.9662  0.7962
 5860SOL    HW229040   2.952   3.503   8.800  1.9522  1.4252  0.4125
 5861SOL     OW29041   4.474   4.000   9.525 -0.2196  0.2590 -0.2813
 5861SOL    HW129042   4.469   4.078   9.470 -0.9924  0.3400 -0.0989
 5861SOL    HW229043   4.454   3.933   9.460  1.1070 -0.1889 -0.2353
 5862SOL     OW29044   1.752   2.227   0.484 -0.4166 -0.2864 -0.4025
 5862SOL    HW129045   1.780   2.307   0.529 -0.6320 -0.0623 -0.6698
 5862SOL    HW229046   1.754   2.170   0.561  0.8003  1.2674  0.7251
 5863SOL     OW29047   3.232   2.535  13.778 -0.9046  0.0140 -0.5018
 5863SOL    HW129048   3.266   2.472  13.840  0.5367  0.8558 -0.4409
 5863SOL    HW229049   3.138   2.516  13.788 -1.1073  1.4361  0.3297
 5864SOL     OW29050   3.432   3.286   2.992  0.0743  0.0697  0.2318
 5864SOL    HW129051   3.354   3.258   3.039 -0.2266  0.6064  0.0555
 5864SOL    HW229052   3.450   3.363   3.046  0.2963  1.5752 -2.0087
 5865SOL     OW29053   4.419   2.320   6.439 -0.0425  0.5930  0.2718
 5865SOL    HW129054   4.502   2.357   6.470  0.3102  1.3295 -1.5783
 5865SOL    HW229055   4.434   2.227   6.456  1.4097  0.7545 -0.0961
 5866SOL     OW29056   4.140   2.269   6.942 -0.1291 -0.4864 -0.5705
 5866SOL    HW129057   4.164   2.229   7.025  2.2596  1.8117 -0.1512
 5866SOL    HW229058   4.063   2.325   6.953  0.4341  0.2907 -0.5597
 5867SOL     OW29059   1.421   0.815   4.243  0.0322  0.2699 -0.0899
 5867SOL    HW129060   1.501   0.866   4.229  1.1089 -1.4742 -0.3350
 5867SOL    HW229061   1.413   0.833   4.336  1.0782  0.9074 -0.1250
 5868SOL     OW29062   4.373   0.348   7.809  0.5168 -0.2077 -0.6535
 5868SOL    HW129063   4.329   0.339   7.893 -0.7412 -0.3713 -1.3311
 5868SOL    HW229064   4.305   0.398   7.764 -0.4964 -0.9575  0.0383
 5869SOL     OW29065   0.806   1.807   3.526  0.2998  0.8189  0.3801
 5869SOL    HW129066   0.801   1.781   3.434 -1.7544 -1.7718  1.2124
 5869SOL    HW229067   0.885   1.860   3.533 -0.3931  1.8952  0.0904
 5870SOL     OW29068   0.804   3.083  11.824  0.0186 -0.6797 -0.1576
 5870SOL    HW129069   0.825   3.051  11.736 -1.0710 -0.8797 -0.3469
 5870SOL    HW229070   0.771   3.171  11.804  2.1248 -0.1238 -1.1376
 5871SOL     OW29071   3.605   3.247   3.723  0.1561 -0.0367  0.0256
 5871SOL    HW129072   3.593   3.170   3.779  0.2310 -0.1395 -0.1005
 5871SOL    HW229073   3.698   3.246   3.701  0.1319  0.9458 -0.1313
 5872SOL     OW29074   0.644   0.282  16.461 -0.4805 -0.2504 -0.4168
 5872SOL    HW129075   0.668   0.369  16.429 -3.3302  1.3935  1.9378
 5872SOL    HW229076   0.681   0.290  16.549 -1.2260 -0.0006 -0.1274
 5873SOL     OW29077   3.398   1.634   3.421 -0.6348  0.3068  0.4632
 5873SOL    HW129078   3.320   1.587   3.452 -0.6031 -0.9570 -1.4070
 5873SOL    HW229079   3.461   1.562   3.430 -2.4833 -1.3368  0.3839
 5874SOL     OW29080   4.270   4.222   7.102  0.0987 -0.2115 -0.0848
 5874SOL    HW129081   4.309   4.309   7.088  0.3254 -0.0882  1.3408
 5874SOL    HW229082   4.178   4.247   7.112  0.2327  0.7439 -1.1425
 5875SOL     OW29083   0.490   3.081   5.564  0.0162 -0.2361  0.2387
 5875SOL    HW129084   0.435   3.008   5.593  0.5834 -0.4234  0.8472
 5875SOL    HW229085   0.452   3.083   5.477  0.1856  0.9430  0.1963
 5876SOL     OW29086   3.447   3.828   5.478 -0.1127  0.0577  0.5525
 5876SOL    HW129087   3.495   3.811   5.560  2.1892 -0.4417 -0.9038
 5876SOL    HW229088   3.479   3.761   5.417 -1.9410 -0.3904  0.0923
 5877SOL     OW29089   1.942   2.581  17.534  0.1311  0.0691  0.1934
 5877SOL    HW129090   1.858   2.615  17.504  1.5541  0.5773 -3.1725
 5877SOL    HW229091   1.996   2.589  17.456 -0.8491  0.2914 -0.4493
 5878SOL     OW29092   3.255   0.721  13.354 -0.0272  0.3610  0.2749
 5878SOL    HW129093   3.275   0.801  13.306 -1.8342 -0.6415 -2.1430
 5878SOL    HW229094   3.159   0.716  13.347  0.2895 -3.2201 -1.3703
 5879SOL     OW29095   2.544   2.035  15.120 -0.3614  0.2236 -0.1712
 5879SOL    HW129096   2.633   2.066  15.106  0.2791 -0.6423  1.8691
 5879SOL    HW229097   2.522   1.988  15.040 -0.5296  1.7359 -1.0020
 5880SOL     OW29098   0.394   1.033   5.873 -0.0216 -0.5821  0.2505
 5880SOL    HW129099   0.463   1.086   5.834  0.2093  1.4433  3.3758
 5880SOL    HW229100   0.330   1.042   5.803 -0.1401  1.8896  0.6659
 5881SOL     OW29101   1.777   3.838   8.077  0.3618  0.2389 -0.0967
 5881SOL    HW129102   1.714   3.868   8.011  2.0174  1.8390 -0.9699
 5881SOL    HW229103   1.854   3.888   8.049  0.4578  0.6060  0.8318
 5882SOL     OW29104   3.193   3.756   5.415  0.2328 -0.6362  0.4388
 5882SOL    HW129105   3.279   3.773   5.453 -0.0765 -1.8917  1.6835
 5882SOL    HW229106   3.174   3.839   5.371  0.9580 -0.3041  0.7442
 5883SOL     OW29107   1.398   0.828   9.912 -0.1507  0.7533 -0.3891
 5883SOL    HW129108   1.466   0.769   9.878 -2.1816 -2.3037  0.8752
 5883SOL    HW229109   1.450   0.907   9.898  1.9209 -0.4467  0.5044
 5884SOL     OW29110   0.100   1.311   3.651 -0.3085 -0.2138 -0.3705
 5884SOL    HW129111   0.027   1.280   3.598 -1.5355 -0.9352  1.7239
 5884SOL    HW229112   0.131   1.388   3.604 -1.4640 -0.0291 -0.8137
 5885SOL     OW29113   0.593   1.580   6.662 -0.2059  0.0077 -0.6529
 5885SOL    HW129114   0.530   1.647   6.689 -2.8151 -2.1294 -1.3667
 5885SOL    HW229115   0.536   1.520   6.615 -0.3369 -0.4816  0.1248
 5886SOL     OW29116   1.019   0.570   1.502  0.1788 -0.0146  0.2356
 5886SOL    HW129117   0.964   0.647   1.518 -0.7070 -0.4701 -0.6195
 5886SOL    HW229118   0.964   0.503   1.461  1.7624 -1.9620  1.2932
 5887SOL     OW29119   1.554   1.677   6.773 -0.7835 -0.3342 -0.1266
 5887SOL    HW129120   1.611   1.659   6.699  0.9392 -1.3869  1.4687
 5887SOL    HW229121   1.547   1.772   6.764  0.8399 -0.1502  0.6625
 5888SOL     OW29122   2.262   0.266   3.668  0.2460  0.5917 -0.6339
 5888SOL    HW129123   2.257   0.183   3.620  3.4784  1.5277 -2.6303
 5888SOL    HW229124   2.311   0.318   3.604  0.6926  0.8975 -0.0408
 5889SOL     OW29125   1.098   4.711   5.883  0.4620  0.0846 -0.1531
 5889SOL    HW129126   1.076   4.726   5.975  1.7724 -0.1191  0.1876
 5889SOL    HW229127   1.026   4.654   5.857  0.2539 -0.0384  0.6764
 5890SOL     OW29128   1.247   2.061   4.355 -0.1051 -0.1889  0.5079
 5890SOL    HW129129   1.197   2.069   4.274  0.5162 -1.9478 -0.0532
 5890SOL    HW229130   1.332   2.091   4.323  0.0679  1.3779  2.4682
 5891SOL     OW29131   2.887   4.612  14.894 -0.0567  0.0288  0.5209
 5891SOL    HW129132   2.853   4.701  14.908 -0.1110  0.5114 -2.5206
 5891SOL    HW229133   2.831   4.587  14.821 -0.1099 -0.0830  0.6010
 5892SOL     OW29134   3.979   1.415  12.246  0.5371  0.0028  0.1798
 5892SOL    HW129135   3.937   1.415  12.160  0.2848 -0.3513  0.3031
 5892SOL    HW229136   3.918   1.476  12.287 -0.2204  0.8069 -2.1418
 5893SOL     OW29137   2.204   1.439   8.324  0.2764  0.0080  0.4693
 5893SOL    HW129138   2.240   1.351   8.335 -2.1738 -1.1622 -0.9171
 5893SOL    HW229139   2.124   1.413   8.279  0.1737 -0.6214  1.0028
 5894SOL     OW29140   1.988   4.299   1.973 -0.0667  0.5650 -0.0448
 5894SOL    HW129141   2.075   4.292   1.934 -0.7915 -3.3755 -0.9712
 5894SOL    HW229142   1.977   4.208   2.001  0.4591  0.2615 -0.8172
 5895SOL     OW29143   2.948   3.435   5.550  0.0232 -0.5312 -0.1134
 5895SOL    HW129144   2.856   3.415   5.530  0.9078 -2.4460 -2.4027
 5895SOL    HW229145   2.940   3.527   5.574  0.4857 -1.3154  2.9979
 5896SOL     OW29146   1.520   4.722   5.552  0.2625  0.1108 -0.0610
 5896SOL    HW129147   1.457   4.668   5.600 -0.5164 -0.1208 -1.3590
 5896SOL    HW229148   1.469   0.068   5.514  0.2919  0.1362 -0.0533
 5897SOL     OW29149   2.388   0.138   9.574 -0.4693  0.2626  0.0057
 5897SOL    HW129150   2.323   0.208   9.574 -2.4998 -1.6087 -0.7361
 5897SOL    HW229151   2.418   0.137   9.483  1.0879  0.8552  0.5041
 5898SOL     OW29152   2.566   3.299  17.179 -0.5122  0.1935 -0.2380
 5898SOL    HW129153   2.603   3.227  17.230  0.6614  1.8496  1.2354
 5898SOL    HW229154   2.484   3.313  17.227 -1.2635 -0.6250 -1.2869
 5899SOL     OW29155   1.454   1.716   0.028  0.2800  0.1136 -0.4898
 5899SOL    HW129156   1.515   1.713  17.659  1.0374  0.5638  0.1243
 5899SOL    HW229157   1.377   1.743  17.681  0.2186  1.9032  0.5574
 5900SOL     OW29158   1.084   1.673  10.434 -0.1026  0.2725 -0.4905
 5900SOL    HW129159   1.084   1.623  10.353 -3.6983  0.7377 -0.7973
 5900SOL    HW229160   1.155   1.730  10.406  2.1086 -1.8357  0.8246
 5901SOL     OW29161   1.055   0.053   6.133  0.3411 -0.5800  0.0252
 5901SOL    HW129162   1.013   0.038   6.218 -0.2320 -1.4194 -0.4097
 5901SOL    HW229163   1.043   0.148   6.123 -2.4761 -0.7453  1.8557
 5902SOL     OW29164   3.075   2.738   9.972 -0.4067 -0.1537  0.6285
 5902SOL    HW129165   3.083   2.643   9.971  1.6021 -0.0153  2.3228
 5902SOL    HW229166   2.982   2.758   9.969  0.1562  2.3277 -0.6289
 5903SOL     OW29167   2.022   3.673   7.960 -0.4093 -0.2358 -0.7632
 5903SOL    HW129168   2.117   3.679   7.949 -0.1410 -0.9963  1.2863
 5903SOL    HW229169   2.001   3.581   7.971  0.6740 -0.3995 -0.0947
 5904SOL     OW29170   3.281   4.662   4.708 -0.0896  0.0787  0.2848
 5904SOL    HW129171   3.269   4.679   4.615  1.5286  1.3521  0.3062
 5904SOL    HW229172   3.358   4.716   4.723 -0.4376  0.5900  0.2606
 5905SOL     OW29173   2.204   1.169   0.658  0.1338  0.0179 -0.5764
 5905SOL    HW129174   2.239   1.084   0.684  0.3923  0.5885  0.9250
 5905SOL    HW229175   2.155   1.147   0.579 -0.0717 -1.6755  0.0127
 5906SOL     OW29176   2.204   2.716   2.293  0.6173  0.3341 -0.0520
 5906SOL    HW129177   2.130   2.744   2.348  0.5597 -0.1146  0.1008
 5906SOL    HW229178   2.220   2.799   2.248 -1.9733  1.1585  0.5484
 5907SOL     OW29179   2.308   1.107   4.767 -0.4090  0.5465 -0.0994
 5907SOL    HW129180   2.310   1.203   4.769 -0.9230  0.5663 -0.3722
 5907SOL    HW229181   2.396   1.094   4.802 -0.2784  0.8176 -0.3267
 5908SOL     OW29182   3.460   2.921   6.727 -0.5496 -0.8757 -0.4763
 5908SOL    HW129183   3.535   2.938   6.784 -0.7696 -3.8869  0.7077
 5908SOL    HW229184   3.491   2.851   6.670  1.0254  0.7618 -1.6159
 5909SOL     OW29185   2.546   2.541   8.276  0.1260  0.4317 -0.5402
 5909SOL    HW129186   2.571   2.611   8.335  3.6082 -2.7693  1.8460
 5909SOL    HW229187   2.454   2.563   8.264 -0.4038 -0.8167  1.2118
 5910SOL     OW29188   2.037   1.002  17.658 -0.1217  1.1874 -0.5631
 5910SOL    HW129189   2.107   0.950  17.619  0.8735 -0.6728  3.7246
 5910SOL    HW229190   1.965   0.964  17.608 -1.2691 -0.9199  2.6800
 5911SOL     OW29191   4.169   2.342  10.789  0.3741 -0.6441  0.3613
 5911SOL    HW129192   4.123   2.386  10.861 -1.7743  0.9438 -1.9617
 5911SOL    HW229193   4.099   2.327  10.726 -1.4871 -2.3351  2.8608
 5912SOL     OW29194   2.482   3.710   8.172 -0.1896 -0.3382  0.0889
 5912SOL    HW129195   2.395   3.726   8.135 -0.2747  0.6621  0.7141
 5912SOL    HW229196   2.487   3.773   8.244  0.1599  0.0108 -0.2472
 5913SOL     OW29197   2.881   1.830   1.142 -0.7883  0.0845 -0.2830
 5913SOL    HW129198   2.825   1.767   1.189  0.4605  0.5045  1.7516
 5913SOL    HW229199   2.814   1.868   1.085 -0.8332 -0.4309 -0.5776
 5914SOL     OW29200   1.531   2.267  16.513  0.0336  0.6036  0.7202
 5914SOL    HW129201   1.572   2.352  16.525  1.4137  0.3925 -2.4958
 5914SOL    HW229202   1.604   2.205  16.513  0.2248  0.8220 -1.5335
 5915SOL     OW29203   0.935   2.521   8.802  0.0006 -0.5589  0.3000
 5915SOL    HW129204   0.939   2.585   8.731 -2.1884 -0.0042  0.6915
 5915SOL    HW229205   0.901   2.568   8.878 -1.4658  2.1837 -2.0965
 5916SOL     OW29206   0.180   0.540   6.585  0.0186 -0.3279 -1.0796
 5916SOL    HW129207   0.248   0.486   6.546  2.0316 -0.7678  3.0867
 5916SOL    HW229208   0.192   0.618   6.531  1.4011  0.7056  0.7311
 5917SOL     OW29209   4.591   0.984  17.552  0.1152  0.2447  0.5195
 5917SOL    HW129210   4.600   1.030  17.636  5.8910 -1.2776  0.7415
 5917SOL    HW229211   4.546   1.055  17.505 -0.4443  1.0241  2.2249
 5918SOL     OW29212   0.737   1.598  10.003  0.3510  0.8822 -0.3008
 5918SOL    HW129213   0.653   1.623  10.041  0.7932  0.7569  0.7508
 5918SOL    HW229214   0.771   1.538  10.069 -2.5234  1.3961  1.6780
 5919SOL     OW29215   1.599   4.420   4.969  0.8959  0.3011  0.6139
 5919SOL    HW129216   1.657   4.367   5.024  1.4996 -1.2307 -1.5290
 5919SOL    HW229217   1.522   4.422   5.026  0.6849  1.3699  0.3007
 5920SOL     OW29218   0.330   4.484   7.768  0.2568  0.1523  0.1285
 5920SOL    HW129219   0.388   4.434   7.826 -0.4995 -2.1755 -1.1493
 5920SOL    HW229220   0.349   4.463   7.677  0.0609 -1.6112  0.4962
 5921SOL     OW29221   3.245   3.276   7.511  0.3819 -0.1840 -0.1748
 5921SOL    HW129222   3.316   3.332   7.478 -0.5829  0.5882 -0.9649
 5921SOL    HW229223   3.304   3.220   7.561  0.0673  0.3618  0.8087
 5922SOL     OW29224   4.521   0.385   7.574 -0.5672 -0.3084  0.3303
 5922SOL    HW129225   4.472   0.344   7.645 -1.8291  1.2280  0.3447
 5922SOL    HW229226   4.556   0.311   7.524  0.3139  0.4984 -0.2461
 5923SOL     OW29227   3.388   1.400   5.824  0.0284 -0.2277  0.1639
 5923SOL    HW129228   3.430   1.316   5.802 -0.3076 -1.3461  3.8328
 5923SOL    HW229229   3.393   1.399   5.919  4.2949  2.2650 -0.0099
 5924SOL     OW29230   1.978   3.519   8.839  0.0522  0.0828  0.3359
 5924SOL    HW129231   1.933   3.447   8.793 -0.5497  1.0383 -0.5659
 5924SOL    HW229232   1.959   3.502   8.931  0.2810 -0.7624  0.2364
 5925SOL     OW29233   3.598   1.753  12.584 -0.1598  0.3305 -0.4980
 5925SOL    HW129234   3.631   1.842  12.594 -0.0155  0.1402  0.8197
 5925SOL    HW229235   3.503   1.763  12.582 -0.1546  0.2906 -0.8874
 5926SOL     OW29236   0.170   3.469   3.989 -0.0765 -0.2267  0.4588
 5926SOL    HW129237   0.231   3.426   4.050  0.7443 -0.0898 -0.2669
 5926SOL    HW229238   0.183   3.412   3.914 -0.8430  1.5790 -1.0376
 5927SOL     OW29239   2.554   0.228   5.657 -0.3023 -0.0773  0.5607
 5927SOL    HW129240   2.613   0.293   5.696  0.9783  0.2785 -1.9471
 5927SOL    HW229241   2.613   0.156   5.635 -0.5366 -0.7875  2.3003
 5928SOL     OW29242   3.988   1.833   4.943  0.0409 -0.0307  0.1744
 5928SOL    HW129243   4.029   1.860   4.860 -0.1879 -1.6792 -0.4770
 5928SOL    HW229244   4.014   1.905   4.999  2.1588  0.8011 -1.8676
 5929SOL     OW29245   2.731   4.456   7.317  0.2456  0.2399 -0.0158
 5929SOL    HW129246   2.710   4.449   7.224 -0.7954  2.3109  0.0716
 5929SOL    HW229247   2.788   4.380   7.312 -0.9392 -0.7428  1.3785
 5930SOL     OW29248   3.928   3.492   8.145  0.5393 -0.0601  0.0965
 5930SOL    HW129249   3.882   3.426   8.093 -2.8869  3.5653 -1.4781
 5930SOL    HW229250   3.938   3.449   8.230  1.3362  0.7249  0.4014
 5931SOL     OW29251   2.971   4.221  14.133 -0.4530  0.0141  0.1057
 5931SOL    HW129252   3.048   4.261  14.174 -0.3289 -1.0493  0.8870
 5931SOL    HW229253   2.918   4.204  14.210  1.7860 -0.8631  1.4508
 5932SOL     OW29254   2.696   4.118   3.746 -0.1093 -0.0092 -0.3197
 5932SOL    HW129255   2.647   4.196   3.773 -0.1435 -0.2399  0.2928
 5932SOL    HW229256   2.754   4.093   3.818 -0.1447  0.6212 -0.0740
 5933SOL     OW29257   0.204   2.279   4.623 -0.0801 -0.0211  0.4804
 5933SOL    HW129258   0.281   2.285   4.679 -0.1071  1.2632  0.3807
 5933SOL    HW229259   0.234   2.329   4.547  0.8038 -0.0596  0.8113
 5934SOL     OW29260   0.868   0.047   4.519  0.2096  0.3213  0.5353
 5934SOL    HW129261   0.815   0.121   4.550 -0.1227  1.0399 -1.7144
 5934SOL    HW229262   0.798   0.003   4.470  1.0339 -1.3264  0.8446
 5935SOL     OW29263   0.507   2.907   3.918 -0.5519 -0.0837  0.2589
 5935SOL    HW129264   0.554   2.956   3.851 -1.9531 -0.3840 -0.9429
 5935SOL    HW229265   0.574   2.918   3.986 -0.7969  3.0890  0.0089
 5936SOL     OW29266   1.377   3.109   6.687  0.2893  0.0480 -0.1860
 5936SOL    HW129267   1.312   3.039   6.680 -0.3891  0.8046 -1.4679
 5936SOL    HW229268   1.459   3.062   6.672 -0.7392 -1.9004  0.2688
 5937SOL     OW29269   0.653   4.302   2.450  0.0199  0.0428 -0.4853
 5937SOL    HW129270   0.626   4.213   2.475 -0.8093  0.6732  0.8800
 5937SOL    HW229271   0.696   4.278   2.368  1.8243 -1.8523  1.0366
 5938SOL     OW29272   0.338   3.306   6.360 -0.3104 -0.2704 -0.5613
 5938SOL    HW129273   0.378   3.303   6.273  0.2226 -0.4152 -0.3100
 5938SOL    HW229274   0.380   3.383   6.398 -0.8517 -1.1935  1.9214
 5939SOL     OW29275   3.193   3.325   6.011 -0.2337  0.2329  0.1491
 5939SOL    HW129276   3.241   3.299   6.089  2.7892  1.3491 -1.3363
 5939SOL    HW229277   3.179   3.241   5.967  1.8981 -0.7878  1.4521
 5940SOL     OW29278   2.325   3.674   8.561  0.0523  0.2192 -0.1805
 5940SOL    HW129279   2.282   3.615   8.499 -0.9269  0.4391  0.2961
 5940SOL    HW229280   2.254   3.728   8.595  0.6670  3.4302 -4.0914
 5941SOL     OW29281   0.086   0.769   8.587 -0.4114 -0.1570  0.0615
 5941SOL    HW129282   0.071   0.713   8.663  2.0782 -3.9384 -2.1743
 5941SOL    HW229283   0.009   0.733   8.542 -1.1592  0.7284  0.6441
 5942SOL     OW29284   3.924   0.776   9.710 -0.4300 -0.3540  0.1547
 5942SOL    HW129285   3.834   0.744   9.717 -0.0393 -1.0911  1.6272
 5942SOL    HW229286   3.967   0.709   9.657 -2.2491 -0.2408 -1.4651
 5943SOL     OW29287   0.441   4.152   3.714  0.1755 -0.0860  0.3522
 5943SOL    HW129288   0.399   4.079   3.668 -2.2685  0.5964  1.5530
 5943SOL    HW229289   0.510   4.110   3.766  1.5684  0.0982 -1.3044
 5944SOL     OW29290   2.480   2.699   1.326  0.5322  0.6085 -0.0396
 5944SOL    HW129291   2.560   2.725   1.280 -0.9582  0.9621 -2.4469
 5944SOL    HW229292   2.497   2.609   1.353  1.1937  0.8346  0.2867
 5945SOL     OW29293   0.948   2.294   7.731 -0.2154 -0.4267  0.0006
 5945SOL    HW129294   0.894   2.216   7.724 -1.8757  0.6256  1.2616
 5945SOL    HW229295   1.038   2.264   7.715 -0.3107 -1.7657  1.9819
 5946SOL     OW29296   0.737   2.328   8.638 -0.2127 -0.0970  0.4600
 5946SOL    HW129297   0.750   2.284   8.553 -2.5495 -1.1712  0.6387
 5946SOL    HW229298   0.648   2.294   8.649  0.0856 -1.1006 -0.1855
 5947SOL     OW29299   2.681   4.529   8.051 -0.2568 -0.2736  0.1144
 5947SOL    HW129300   2.616   4.598   8.039  0.0028  0.1756  1.1816
 5947SOL    HW229301   2.631   4.450   8.034 -0.2271  0.5873 -3.9738
 5948SOL     OW29302   1.613   1.807  16.482  0.0422 -0.8989  0.3996
 5948SOL    HW129303   1.530   1.778  16.518 -0.8702  1.5309  0.2695
 5948SOL    HW229304   1.680   1.749  16.517 -0.0416 -0.6836  0.9097
 5949SOL     OW29305   0.087   0.269   8.878 -0.7630  0.0304 -0.1548
 5949SOL    HW129306   0.056   0.210   8.809  0.2062 -0.3741 -0.2478
 5949SOL    HW229307   0.014   0.261   8.940 -0.2801  0.5733  0.4837
 5950SOL     OW29308   2.606   0.009   2.991 -0.2565 -0.2890  0.1053
 5950SOL    HW129309   2.699   0.030   2.991 -0.2233 -0.4213 -0.6086
 5950SOL    HW229310   2.584   0.046   2.905 -0.9161 -0.3879  0.2293
 5951SOL     OW29311   4.091   1.158  12.032 -0.2632  0.5894 -0.4594
 5951SOL    HW129312   4.182   1.145  12.056 -0.3102 -1.4238 -1.3525
 5951SOL    HW229313   4.063   1.171  12.122  1.5263  0.1474  0.1600
 5952SOL     OW29314   0.359   3.847   1.189 -0.3591 -0.5764  0.0485
 5952SOL    HW129315   0.437   3.816   1.235  0.6798 -0.3576 -1.5750
 5952SOL    HW229316   0.306   3.769   1.198  0.1957 -0.9131  0.4320
 5953SOL     OW29317   4.045   2.880   4.785 -0.1360 -0.4199  0.7196
 5953SOL    HW129318   4.007   2.907   4.702 -0.2267  0.5263  1.0769
 5953SOL    HW229319   4.078   2.958   4.829  0.4372 -0.0034 -0.4618
 5954SOL     OW29320   1.983   1.158   7.669 -0.0208  0.2622 -0.4855
 5954SOL    HW129321   2.068   1.115   7.673 -0.1320  0.1488  0.6058
 5954SOL    HW229322   2.002   1.233   7.725  0.3916 -0.1394 -0.0979
 5955SOL     OW29323   2.237   1.040   2.707  0.7203 -0.2609 -0.0092
 5955SOL    HW129324   2.244   1.050   2.612  1.5362  3.2292  0.4114
 5955SOL    HW229325   2.156   0.991   2.719  0.5891 -0.4969 -1.8630
 5956SOL     OW29326   3.305   1.278  15.301 -0.1617  0.1786 -0.1749
 5956SOL    HW129327   3.366   1.221  15.348  0.9561 -1.0671 -3.1631
 5956SOL    HW229328   3.319   1.358  15.351  1.0525  0.4916 -1.0031
 5957SOL     OW29329   3.543   2.799  15.749 -0.4500 -0.4950 -0.1986
 5957SOL    HW129330   3.561   2.790  15.655  3.5468  1.2985  0.4166
 5957SOL    HW229331   3.606   2.868  15.772  0.8860 -1.6975 -0.2839
 5958SOL     OW29332   1.659   1.864  11.993 -0.0794  0.0650 -0.4654
 5958SOL    HW129333   1.730   1.893  11.936 -1.0493  0.4159 -1.5001
 5958SOL    HW229334   1.704   1.853  12.076 -0.2184  2.4607 -0.0759
 5959SOL     OW29335   3.131   4.229   3.242 -0.2534  0.2497 -0.0559
 5959SOL    HW129336   3.192   4.209   3.313 -0.2296  0.4578 -0.0189
 5959SOL    HW229337   3.189   4.291   3.198 -0.7078  0.3793 -0.4692
 5960SOL     OW29338   3.508   3.112   8.863 -0.2636  0.7909  0.3470
 5960SOL    HW129339   3.574   3.179   8.848  0.3923  0.2495  0.7747
 5960SOL    HW229340   3.514   3.123   8.958  3.1097  1.1852  0.0541
 5961SOL     OW29341   2.877   3.734   9.441  0.3751 -0.2729  0.0945
 5961SOL    HW129342   2.794   3.727   9.394  0.9503  0.2339 -0.9985
 5961SOL    HW229343   2.946   3.727   9.376 -0.8036  1.8308 -1.3759
 5962SOL     OW29344   3.551   2.372   5.125 -0.2393 -0.3062 -0.0920
 5962SOL    HW129345   3.589   2.289   5.151  0.2501  0.1911  0.7858
 5962SOL    HW229346   3.597   2.439   5.176 -0.1224  0.5116 -1.2595
 5963SOL     OW29347   2.232   3.029  16.927 -0.2478 -0.2649  0.1070
 5963SOL    HW129348   2.184   3.061  17.004  2.9839 -1.0705  2.4814
 5963SOL    HW229349   2.305   3.092  16.919  0.4619 -1.1417 -0.3427
 5964SOL     OW29350   0.881   4.573  11.998 -0.6111 -0.0084 -1.1805
 5964SOL    HW129351   0.958   4.537  12.042 -1.6276 -0.2109  0.4266
 5964SOL    HW229352   0.900   4.561  11.905 -2.0452  0.8510 -1.5967
 5965SOL     OW29353   4.219   2.267   4.678 -0.0448 -0.3813 -0.2984
 5965SOL    HW129354   4.295   2.323   4.696 -1.5528  0.7854  2.4775
 5965SOL    HW229355   4.151   2.324   4.715  0.7238  0.9180 -0.8722
 5966SOL     OW29356   0.624   4.270   8.673  0.3798 -0.5657  0.7536
 5966SOL    HW129357   0.647   4.355   8.636  1.6348 -1.9854 -1.7089
 5966SOL    HW229358   0.711   4.231   8.672 -0.7727 -3.1120 -0.0877
 5967SOL     OW29359   2.636   4.674   4.739 -0.1424 -0.3261  0.1028
 5967SOL    HW129360   2.670   0.036   4.759 -1.2209 -0.0549  0.7377
 5967SOL    HW229361   2.642   4.678   4.643 -4.3053  1.5475 -0.0712
 5968SOL     OW29362   1.512   3.095  15.750 -0.0599 -0.0111 -0.0274
 5968SOL    HW129363   1.437   3.046  15.783  0.8833 -0.3566  1.6273
 5968SOL    HW229364   1.590   3.041  15.763 -0.1469  0.0954  0.9436
 5969SOL     OW29365   1.901   1.598   7.834  0.4492  0.2154  1.0757
 5969SOL    HW129366   1.846   1.646   7.773 -0.4241 -1.7769  0.2898
 5969SOL    HW229367   1.960   1.664   7.869  0.0866  0.5803  1.0007
 5970SOL     OW29368   2.950   2.614   5.537 -0.3719  0.2461  0.6073
 5970SOL    HW129369   2.932   2.695   5.488 -3.4554  0.2737  1.7777
 5970SOL    HW229370   2.877   2.555   5.520 -1.1777  0.9029  1.7831
 5971SOL     OW29371   0.717   2.951   1.341  0.1756 -0.2402  0.4865
 5971SOL    HW129372   0.671   2.898   1.406 -1.0509 -1.2391 -1.1975
 5971SOL    HW229373   0.767   3.014   1.394 -0.7148 -0.4939  1.6080
 5972SOL     OW29374   0.772   1.816   1.132 -0.0614 -0.4891  0.0440
 5972SOL    HW129375   0.688   1.777   1.109 -0.4941  0.2999  0.2766
 5972SOL    HW229376   0.784   1.806   1.227  0.2246 -0.7655 -0.0203
 5973SOL     OW29377   1.395   1.930  11.849  0.3263 -0.5085  0.3036
 5973SOL    HW129378   1.457   1.898  11.914  1.2423  1.7559  0.5538
 5973SOL    HW229379   1.447   1.902  11.774  0.9579  1.3691  0.0485
 5974SOL     OW29380   4.255   3.887  12.804 -0.2092  0.1177 -0.2971
 5974SOL    HW129381   4.258   3.931  12.889 -0.9792 -0.7241  0.1579
 5974SOL    HW229382   4.161   3.898  12.793 -0.4007 -2.3057 -1.0140
 5975SOL     OW29383   2.276   2.056   4.175 -0.5451  0.2571  0.4874
 5975SOL    HW129384   2.269   2.105   4.094  1.4953 -1.6605 -0.8634
 5975SOL    HW229385   2.265   2.123   4.242 -1.7336  0.5158  0.0272
 5976SOL     OW29386   0.226   2.735  11.452 -0.4293  0.0304  0.1983
 5976SOL    HW129387   0.162   2.682  11.499 -1.9975 -0.0322 -2.0278
 5976SOL    HW229388   0.183   2.753  11.368 -0.2947  0.5285  0.2348
 5977SOL     OW29389   0.730   3.227  16.277  0.0100  0.0930 -0.3107
 5977SOL    HW129390   0.676   3.297  16.314  1.5224  0.4533  1.1925
 5977SOL    HW229391   0.816   3.248  16.314  0.4836 -0.2037 -1.2476
 5978SOL     OW29392   1.659   3.022   2.782  0.2442 -0.6291 -0.4884
 5978SOL    HW129393   1.604   2.953   2.745 -1.5422 -0.1078  1.1638
 5978SOL    HW229394   1.646   2.994   2.873  2.4278  3.0784  0.9532
 5979SOL     OW29395   1.597   3.581   0.803  0.2528  0.5077  0.1115
 5979SOL    HW129396   1.661   3.616   0.741  0.5734 -2.6651 -1.3515
 5979SOL    HW229397   1.661   3.535   0.857 -1.7076  1.2849  3.0360
 5980SOL     OW29398   0.485   4.163  16.189  0.0465  0.9301  0.7512
 5980SOL    HW129399   0.538   4.141  16.112 -0.8557  3.2547 -0.5433
 5980SOL    HW229400   0.539   4.227  16.234  0.5148 -0.6339  2.3980
 5981SOL     OW29401   0.672   3.554   7.210  1.0685  0.2059 -0.1402
 5981SOL    HW129402   0.675   3.510   7.124 -0.3610  1.8467 -1.0462
 5981SOL    HW229403   0.588   3.600   7.202  0.9292 -0.4344 -2.5116
 5982SOL     OW29404   4.141   2.492   2.779  0.6613  0.3618 -0.3421
 5982SOL    HW129405   4.112   2.446   2.857 -0.0552  0.8956 -0.2893
 5982SOL    HW229406   4.068   2.459   2.727  0.4057  0.2917  0.0644
 5983SOL     OW29407   0.544   4.269  11.895  0.3744 -0.0297  0.7330
 5983SOL    HW129408   0.588   4.263  11.810 -1.2003  1.5841 -0.2048
 5983SOL    HW229409   0.615   4.304  11.948  2.5426 -1.1381 -1.4157
 5984SOL     OW29410   2.308   2.104   3.693 -0.9560 -0.2109 -0.4937
 5984SOL    HW129411   2.361   2.184   3.687 -0.5179 -0.4889 -0.3444
 5984SOL    HW229412   2.222   2.136   3.666 -0.2881  1.0079 -1.1966
 5985SOL     OW29413   0.510   4.281   5.765 -0.2847 -0.4869 -0.3033
 5985SOL    HW129414   0.420   4.312   5.765 -0.7324 -1.7420  1.8822
 5985SOL    HW229415   0.552   4.357   5.726 -3.3561  1.6740  0.6162
 5986SOL     OW29416   3.424   3.216   5.778  0.7237  0.1351  0.2885
 5986SOL    HW129417   3.358   3.167   5.827  1.1495 -2.3256 -1.6345
 5986SOL    HW229418   3.387   3.228   5.691  2.2215  1.9517 -0.1024
 5987SOL     OW29419   2.865   3.560  17.156  0.5974 -0.1257  0.0342
 5987SOL    HW129420   2.927   3.622  17.116 -0.2627  0.8873  0.2552
 5987SOL    HW229421   2.831   3.509  17.083 -0.8077  2.1712 -0.9168
 5988SOL     OW29422   1.918   0.214   5.354  0.3545  0.1685 -1.0285
 5988SOL    HW129423   1.904   0.201   5.260  1.0042  0.9528 -1.2400
 5988SOL    HW229424   1.829   0.230   5.384 -0.3900 -1.3372 -2.4584
 5989SOL     OW29425   3.748   2.293  11.174 -0.7777 -0.3076  0.1718
 5989SOL    HW129426   3.802   2.337  11.240 -0.5675 -1.4337  0.7643
 5989SOL    HW229427   3.669   2.346  11.180 -0.2250  0.7111 -1.6544
 5990SOL     OW29428   2.464   0.678   4.296  0.3964  0.0983 -0.3757
 5990SOL    HW129429   2.512   0.728   4.230 -2.2131  0.4856 -1.9788
 5990SOL    HW229430   2.384   0.729   4.311  1.2301  0.9402  1.1309
 5991SOL     OW29431   1.802   1.636   4.248  0.0711  0.2823  0.4845
 5991SOL    HW129432   1.886   1.682   4.240 -0.0534  0.5740  0.8693
 5991SOL    HW229433   1.810   1.564   4.310  0.6271 -2.0787 -2.3193
 5992SOL     OW29434   2.658   4.157   4.408  0.5815 -0.6309  0.2829
 5992SOL    HW129435   2.730   4.214   4.432  0.9815 -1.0892  0.1787
 5992SOL    HW229436   2.624   4.206   4.333  0.2800 -1.6159 -0.2336
 5993SOL     OW29437   3.314   1.876  10.458  0.4720 -0.5018 -0.4104
 5993SOL    HW129438   3.288   1.865  10.367  0.0478 -0.0349 -0.3414
 5993SOL    HW229439   3.271   1.960  10.474 -0.9619 -1.0483 -1.4331
 5994SOL     OW29440   2.869   3.817  15.187  0.0303  0.4000  0.1986
 5994SOL    HW129441   2.913   3.856  15.263 -0.0388  0.7429  0.0606
 5994SOL    HW229442   2.940   3.757  15.163 -0.0061  0.1103  0.8213
 5995SOL     OW29443   0.373   1.370  14.923 -0.3978  0.3386 -0.5770
 5995SOL    HW129444   0.368   1.305  14.853 -0.6843 -0.1830 -0.0726
 5995SOL    HW229445   0.455   1.352  14.968 -0.9785 -0.6485  0.0713
 5996SOL     OW29446   3.553   1.969   7.971 -0.5869 -0.2762 -0.4080
 5996SOL    HW129447   3.627   1.915   7.998  0.8720  1.5766 -0.6960
 5996SOL    HW229448   3.560   2.037   8.039 -0.2789  0.0082 -0.7209
 5997SOL     OW29449   0.760   2.265   6.703  0.4370 -0.0128 -0.5922
 5997SOL    HW129450   0.698   2.196   6.678  1.0609 -0.7455 -0.1150
 5997SOL    HW229451   0.721   2.342   6.663  2.8489  1.2208 -0.5859
 5998SOL     OW29452   3.352   2.021  12.827  0.0386 -0.0920  0.6856
 5998SOL    HW129453   3.383   2.094  12.773  1.4371 -0.4307  1.0350
 5998SOL    HW229454   3.357   1.942  12.772 -1.2201  1.1346 -1.1755
 5999SOL     OW29455   1.238   2.631  17.402 -0.8434  1.1460 -0.2546
 5999SOL    HW129456   1.182   2.585  17.465 -1.0270  2.4186  0.5296
 5999SOL    HW229457   1.183   2.710  17.395  1.1900  2.7215  1.6212
 6000SOL     OW29458   3.414   1.975   7.284 -0.2648  0.3840  0.0734
 6000SOL    HW129459   3.366   1.898   7.312  0.4428  0.6335  2.0128
 6000SOL    HW229460   3.359   2.036   7.334 -0.1941  2.3167 -2.2284
 6001SOL     OW29461   1.282   1.601   2.536 -0.0345 -0.6388  0.2046
 6001SOL    HW129462   1.206   1.611   2.592 -0.0302  1.5198 -0.1843
 6001SOL    HW229463   1.297   1.694   2.517  0.7944 -1.0857 -1.3725
 6002SOL     OW29464   1.908   1.981   9.749  0.4342 -0.1945  0.1277
 6002SOL    HW129465   1.830   1.926   9.749  0.7694 -0.6727  0.8817
 6002SOL    HW229466   1.969   1.938   9.810  0.7341  0.7760  0.5144
 6003SOL     OW29467   0.014   1.611   3.986  0.0735  0.2358  0.0426
 6003SOL    HW129468   0.056   1.625   4.071  0.7396 -0.3218 -0.2064
 6003SOL    HW229469   4.724   1.704   3.968  0.8680  0.5122  0.7675
 6004SOL     OW29470   2.021   1.364   7.833  0.4484  0.1072  0.0008
 6004SOL    HW129471   1.973   1.444   7.814 -1.3508 -0.6381  1.3608
 6004SOL    HW229472   1.959   1.313   7.885 -1.5998  0.1652 -2.4311
 6005SOL     OW29473   0.927   3.568   5.853  0.3261 -0.3286  0.5637
 6005SOL    HW129474   0.997   3.630   5.872 -0.7888  0.5712  1.8207
 6005SOL    HW229475   0.950   3.542   5.764  1.3303 -1.8320  1.2680
 6006SOL     OW29476   1.608   0.452   7.267 -0.1896 -0.2966  0.4218
 6006SOL    HW129477   1.601   0.461   7.362 -1.2554  2.6424  0.0824
 6006SOL    HW229478   1.576   0.365   7.243  1.9869 -1.3152  1.2289
 6007SOL     OW29479   2.235   0.008   3.473 -0.3171  0.3026 -0.1864
 6007SOL    HW129480   2.156   4.683   3.452 -0.8525  1.7757 -1.7034
 6007SOL    HW229481   2.306   4.669   3.479 -3.3759 -3.1211 -0.5692
 6008SOL     OW29482   1.212   4.624   2.472  0.2716 -0.0307  0.8940
 6008SOL    HW129483   1.125   4.649   2.502 -0.6194 -3.7552  1.4036
 6008SOL    HW229484   1.271   4.665   2.536 -0.9959  0.2011  1.9126
 6009SOL     OW29485   3.006   2.791   4.006 -0.0863  0.0683  0.5097
 6009SOL    HW129486   2.996   2.752   4.093 -0.0543 -0.5086  0.2551
 6009SOL    HW229487   2.920   2.833   4.009 -0.0186  0.4323 -2.7788
 6010SOL     OW29488   1.707   1.967   5.065  0.3028  0.0329 -0.0852
 6010SOL    HW129489   1.640   1.903   5.088  0.2677  1.3524  3.5237
 6010SOL    HW229490   1.730   1.981   5.157  1.3361  0.1359 -0.3605
 6011SOL     OW29491   2.962   2.557  13.816  0.0210  0.0685 -0.0244
 6011SOL    HW129492   2.891   2.491  13.819  0.1878 -0.0818  0.5562
 6011SOL    HW229493   2.905   2.633  13.826  0.9904  0.7626  0.2071
 6012SOL     OW29494   3.445   3.956  12.070 -0.1796 -0.9003  0.3785
 6012SOL    HW129495   3.372   4.008  12.102 -0.8135 -0.5225 -1.6859
 6012SOL    HW229496   3.495   4.026  12.030 -0.3311 -1.0600 -0.0895
 6013SOL     OW29497   3.635   0.147  16.482 -0.5001  0.6309 -0.0697
 6013SOL    HW129498   3.567   0.189  16.536  0.4323  1.3986  0.4997
 6013SOL    HW229499   3.660   0.074  16.539  0.5052  0.8600 -0.2195
 6014SOL     OW29500   3.800   0.168   4.740 -0.1779  0.4429  0.5537
 6014SOL    HW129501   3.891   0.163   4.709 -0.8789 -0.8492 -1.2565
 6014SOL    HW229502   3.774   0.257   4.717  0.1341  0.1784 -0.8528
 6015SOL     OW29503   0.184   3.010  17.261  0.0813 -0.2011 -0.6218
 6015SOL    HW129504   0.145   2.967  17.184  0.1683 -2.1026  0.3950
 6015SOL    HW229505   0.149   2.943  17.320  0.0542  0.1634 -0.2324
 6016SOL     OW29506   2.686   3.553   8.179 -0.1923  0.0399 -0.5714
 6016SOL    HW129507   2.665   3.484   8.116  1.5621 -0.2034 -0.8937
 6016SOL    HW229508   2.596   3.585   8.183  0.7822  2.5694  0.8172
 6017SOL     OW29509   4.586   0.045   8.089 -0.1028  0.0086  0.0740
 6017SOL    HW129510   4.627   4.684   8.084  0.2962  0.1295  1.3023
 6017SOL    HW229511   4.535   0.035   8.170 -1.9191 -0.0069 -1.0818
 6018SOL     OW29512   3.983   0.407   8.677 -0.6297  0.8210  0.1341
 6018SOL    HW129513   3.927   0.410   8.754 -0.1630 -0.8865  0.5371
 6018SOL    HW229514   3.946   0.328   8.637  2.0953 -0.5079  0.1967
 6019SOL     OW29515   1.061   4.447   8.661  0.0120  0.3150 -0.0959
 6019SOL    HW129516   1.150   4.458   8.627 -0.1468  0.2699 -0.5286
 6019SOL    HW229517   1.064   4.355   8.685  1.3484  0.2491 -0.4902
 6020SOL     OW29518   1.269   2.610   3.015 -0.0877  0.4525  0.0014
 6020SOL    HW129519   1.240   2.583   2.928  0.3922 -0.1103  0.0115
 6020SOL    HW229520   1.328   2.677   2.981  2.2657 -0.5342  2.0621
 6021SOL     OW29521   4.446   1.552  11.128 -0.1394 -0.1088  0.6758
 6021SOL    HW129522   4.509   1.606  11.079 -3.1704  0.9826 -2.0598
 6021SOL    HW229523   4.477   1.573  11.216 -2.4492  0.8554  1.2672
 6022SOL     OW29524   1.838   4.519   1.936 -0.0342 -0.4755 -0.0234
 6022SOL    HW129525   1.876   4.431   1.938  2.8080  0.8114  1.8634
 6022SOL    HW229526   1.770   4.489   1.875 -0.4266  2.4407 -0.9949
 6023SOL     OW29527   2.524   3.031   4.484  0.0477 -0.3140 -0.5458
 6023SOL    HW129528   2.432   3.009   4.500 -0.2853  0.7601 -0.9845
 6023SOL    HW229529   2.521   3.113   4.435  0.9642 -0.4385 -0.8104
 6024SOL     OW29530   2.169   0.940  16.620  0.1404 -0.4798  0.0211
 6024SOL    HW129531   2.144   0.890  16.698  0.5426 -1.3817 -0.4271
 6024SOL    HW229532   2.264   0.929  16.626  0.3009  0.7831 -0.1659
 6025SOL     OW29533   3.415   4.247   7.554 -0.3056  0.6141 -0.3253
 6025SOL    HW129534   3.395   4.297   7.475  3.1180 -0.8484 -2.0741
 6025SOL    HW229535   3.491   4.198   7.524  1.1542  1.5012  1.9340
 6026SOL     OW29536   0.115   4.284  15.936 -0.1026 -0.0990 -0.2007
 6026SOL    HW129537   0.156   4.328  16.011 -1.1533  0.9833 -0.2426
 6026SOL    HW229538   0.119   4.350  15.867 -2.1639  0.9352  0.6423
 6027SOL     OW29539   3.632   0.963  14.962 -0.3886  0.2023  0.2291
 6027SOL    HW129540   3.555   0.929  14.915 -0.4241  0.0438  0.4010
 6027SOL    HW229541   3.601   1.005  15.042 -0.7358  0.9747 -0.3172
 6028SOL     OW29542   3.732   2.594   5.850 -0.2394 -0.2190 -0.9148
 6028SOL    HW129543   3.826   2.576   5.847 -0.4275 -1.4196  0.0305
 6028SOL    HW229544   3.719   2.599   5.755 -3.2351  0.3293 -0.4669
 6029SOL     OW29545   4.100   1.144   4.095 -0.6883 -0.1391  0.2275
 6029SOL    HW129546   4.079   1.100   4.177 -1.3534  0.5309  0.4169
 6029SOL    HW229547   4.194   1.130   4.086 -0.3187  1.7334  1.2247
 6030SOL     OW29548   1.077   0.223  10.640  0.2263 -0.1550  0.8441
 6030SOL    HW129549   1.128   0.256  10.566 -1.6874  0.9746  0.0271
 6030SOL    HW229550   1.141   0.181  10.698  0.5009 -2.3340 -0.9935
 6031SOL     OW29551   3.013   2.369  11.174  0.0370 -0.5215 -0.7137
 6031SOL    HW129552   3.017   2.283  11.133  0.7863 -0.1334 -1.4716
 6031SOL    HW229553   2.935   2.402  11.129 -0.1163 -0.3147 -0.2920
 6032SOL     OW29554   2.766   0.282   2.663  0.0971  0.0058  0.3650
 6032SOL    HW129555   2.860   0.265   2.674  0.0547  0.1873  0.9900
 6032SOL    HW229556   2.763   0.377   2.678  0.7182  0.1975 -0.6886
 6033SOL     OW29557   0.696   0.884   6.522 -0.4360 -0.7478 -0.0004
 6033SOL    HW129558   0.617   0.847   6.484 -0.5002 -0.0753 -0.5230
 6033SOL    HW229559   0.657   0.900   6.608 -2.1149 -0.1033 -0.8898
 6034SOL     OW29560   2.442   0.531   6.846 -0.0457  0.3236  0.3196
 6034SOL    HW129561   2.440   0.435   6.848 -0.9284  0.3118 -1.0472
 6034SOL    HW229562   2.492   0.561   6.921 -0.2054 -1.6287  1.2006
 6035SOL     OW29563   1.698   4.625  15.252  0.0941  0.0747  0.0290
 6035SOL    HW129564   1.701   4.593  15.342  3.9188 -1.0046 -0.4862
 6035SOL    HW229565   1.679   4.551  15.195  2.7077 -1.1751  0.7908
 6036SOL     OW29566   0.556   1.068   8.514 -0.1178  0.1440  0.2063
 6036SOL    HW129567   0.485   1.039   8.572 -0.0064 -0.2533  0.1485
 6036SOL    HW229568   0.562   1.158   8.545  3.4727 -0.7797  2.1633
 6037SOL     OW29569   0.704   0.336   8.792  0.0353 -0.0040  0.0414
 6037SOL    HW129570   0.772   0.349   8.859 -0.8813  0.8108  0.8021
 6037SOL    HW229571   0.625   0.369   8.834  0.9012  0.8574  0.9769
 6038SOL     OW29572   4.680   1.921   1.085 -0.1202  0.4548  0.1198
 6038SOL    HW129573   0.023   1.964   1.034 -0.5984 -0.5336 -1.3485
 6038SOL    HW229574   4.598   1.947   1.044 -0.7254  0.0392  1.0713
 6039SOL     OW29575   3.715   1.063  15.635  0.0671  0.2104 -0.7144
 6039SOL    HW129576   3.660   1.011  15.694  2.2713  0.5530  1.6216
 6039SOL    HW229577   3.779   0.997  15.610 -0.0713 -0.3935  0.5341
 6040SOL     OW29578   1.531   4.077   6.159 -0.2221 -0.8181  0.0595
 6040SOL    HW129579   1.590   4.145   6.192  0.2182 -0.5912 -1.1920
 6040SOL    HW229580   1.453   4.133   6.158 -0.4755 -1.1605  2.1050
 6041SOL     OW29581   3.888   3.800  11.922  0.4961  0.1905  0.6113
 6041SOL    HW129582   3.971   3.842  11.944 -0.3721  0.7998  2.7872
 6041SOL    HW229583   3.887   3.783  11.828  0.3558  0.9182  0.4826
 6042SOL     OW29584   3.306   2.682  12.943 -0.1688 -0.8489  0.2166
 6042SOL    HW129585   3.242   2.659  13.010  1.2958 -1.3852  1.4319
 6042SOL    HW229586   3.255   2.753  12.904  1.0488  0.5049  1.0865
 6043SOL     OW29587   1.608   2.385  15.294 -0.0474  0.1338 -0.3866
 6043SOL    HW129588   1.577   2.385  15.385 -1.3920 -0.0152 -0.8314
 6043SOL    HW229589   1.681   2.447  15.298  0.5827 -0.7379  1.4247
 6044SOL     OW29590   4.661   4.625   9.296 -0.0177  0.2210 -0.2742
 6044SOL    HW129591   4.603   4.610   9.371  0.8195 -2.6063 -0.1758
 6044SOL    HW229592   4.604   4.601   9.223 -0.1191  2.0226 -0.7672
 6045SOL     OW29593   3.581   1.661   5.141  0.3085  0.4118 -0.2504
 6045SOL    HW129594   3.640   1.726   5.181 -0.7130  1.0905  0.1519
 6045SOL    HW229595   3.633   1.652   5.061  0.4852  2.5756 -0.3817
 6046SOL     OW29596   1.911   4.270   3.845 -0.2309  0.3571  0.4284
 6046SOL    HW129597   1.967   4.314   3.909 -0.8661 -0.5631  1.6189
 6046SOL    HW229598   1.978   4.220   3.799 -0.1226  1.9195 -1.1232
 6047SOL     OW29599   1.261   0.225   4.825  0.4128 -0.0803 -0.0738
 6047SOL    HW129600   1.307   0.177   4.755  0.9985 -0.7434  0.7667
 6047SOL    HW229601   1.329   0.223   4.893 -1.2500  1.2204  1.5968
 6048SOL     OW29602   2.354   2.305   7.616  0.9847 -0.3176  0.0449
 6048SOL    HW129603   2.322   2.246   7.684 -3.7954  1.3872 -0.7405
 6048SOL    HW229604   2.449   2.305   7.625  1.1261  3.3054 -1.6220
 6049SOL     OW29605   1.316   1.078   5.663 -0.1758 -0.4541 -0.3977
 6049SOL    HW129606   1.222   1.061   5.667 -0.2220  0.3289  2.3281
 6049SOL    HW229607   1.318   1.147   5.597 -1.6612  1.9686  2.0508
 6050SOL     OW29608   1.130   1.089   3.688 -0.2675  0.5598 -0.1286
 6050SOL    HW129609   1.081   1.043   3.620 -1.0632  1.0353  0.1232
 6050SOL    HW229610   1.063   1.145   3.728  0.1183 -0.0629  1.4132
 6051SOL     OW29611   2.416   0.174   0.713  0.6541 -0.1289  0.2657
 6051SOL    HW129612   2.321   0.168   0.716  0.5563  2.5867  2.0549
 6051SOL    HW229613   2.423   0.149   0.805  0.0347 -1.2339  0.0195
 6052SOL     OW29614   3.897   4.389   9.871 -0.0655  0.3640  0.1347
 6052SOL    HW129615   3.843   4.369   9.794  1.2525 -1.6867 -0.2702
 6052SOL    HW229616   3.981   4.398   9.826  0.0733 -0.5187  0.2064
 6053SOL     OW29617   2.834   2.564   9.196  0.4337 -0.1285 -0.4822
 6053SOL    HW129618   2.747   2.583   9.162  0.0379  0.4550  0.8515
 6053SOL    HW229619   2.862   2.487   9.147  1.5649 -0.0605  0.0333
 6054SOL     OW29620   2.479   1.370  16.383  0.3091 -0.3529  0.3789
 6054SOL    HW129621   2.559   1.414  16.352  0.6685 -1.4795 -0.3067
 6054SOL    HW229622   2.417   1.442  16.381 -0.1055 -0.6896  1.6485
 6055SOL     OW29623   4.022   2.319  10.543  0.0078 -0.5549 -0.4499
 6055SOL    HW129624   4.021   2.415  10.550  0.1977 -0.4158 -2.3683
 6055SOL    HW229625   3.938   2.280  10.520 -1.2434  3.1280 -2.0840
 6056SOL     OW29626   3.278   4.002   2.852 -0.2137 -0.4180  0.1620
 6056SOL    HW129627   3.310   4.063   2.918 -1.2813 -1.4501  1.6105
 6056SOL    HW229628   3.306   4.044   2.770  1.0986 -0.9568  0.3490
 6057SOL     OW29629   1.038   0.621   3.589  0.1816 -0.1983 -0.6252
 6057SOL    HW129630   1.041   0.549   3.526 -1.0642 -0.9777  0.2039
 6057SOL    HW229631   0.949   0.649   3.608  0.3714  0.5379 -0.8072
 6058SOL     OW29632   4.251   3.715   9.107  0.1011 -1.0386 -0.1669
 6058SOL    HW129633   4.251   3.759   9.192 -0.8479  1.3769 -1.4144
 6058SOL    HW229634   4.175   3.661   9.127  0.2572 -0.9338  0.7275
 6059SOL     OW29635   0.613   1.751  13.242  0.4721 -0.4677  0.2210
 6059SOL    HW129636   0.618   1.772  13.148 -1.1528  0.6606  0.3900
 6059SOL    HW229637   0.581   1.661  13.242 -3.0015  0.7810  0.5045
 6060SOL     OW29638   4.235   1.345   0.857 -0.2516  0.1597 -0.0529
 6060SOL    HW129639   4.213   1.326   0.766 -0.3690  2.6305 -0.5455
 6060SOL    HW229640   4.167   1.410   0.877  1.0024  1.7171 -0.8625
 6061SOL     OW29641   2.287   2.719   0.261  0.3715  0.0332  0.6592
 6061SOL    HW129642   2.306   2.704   0.168 -0.1768 -1.6249  0.8228
 6061SOL    HW229643   2.367   2.759   0.296  1.8148 -1.5198 -0.8034
 6062SOL     OW29644   0.072   0.536  14.181 -0.1290  0.1029 -0.1998
 6062SOL    HW129645   0.142   0.595  14.153  1.0673 -0.5093  1.5272
 6062SOL    HW229646   4.726   0.599  14.176 -0.3511 -0.0549  0.9198
 6063SOL     OW29647   1.959   0.567  13.753  0.6188 -0.2185  0.4550
 6063SOL    HW129648   1.922   0.518  13.679  1.2004 -1.6463  1.0935
 6063SOL    HW229649   1.976   0.647  13.704  0.7033  0.6542  1.9185
 6064SOL     OW29650   3.420   1.263  16.079 -0.7523 -0.0181 -0.2009
 6064SOL    HW129651   3.444   1.239  16.168 -0.1593 -1.5770 -0.7582
 6064SOL    HW229652   3.365   1.341  16.084  0.0960  0.6433 -1.3024
 6065SOL     OW29653   3.715   3.871   2.518 -0.3854  0.0499  0.4793
 6065SOL    HW129654   3.798   3.919   2.523 -0.3690  0.1250 -0.3666
 6065SOL    HW229655   3.707   3.826   2.602 -2.4251  0.7076  0.6344
 6066SOL     OW29656   3.402   1.480   7.497  0.8134  0.0092  0.7601
 6066SOL    HW129657   3.480   1.506   7.449 -0.1446  0.8596 -0.3283
 6066SOL    HW229658   3.433   1.454   7.584 -0.4126 -3.1217  0.2705
 6067SOL     OW29659   0.068   1.402   6.640  0.1310  0.0490  0.6495
 6067SOL    HW129660   0.063   1.315   6.679  0.7423  0.3206  1.3268
 6067SOL    HW229661   0.162   1.418   6.642  0.0574  0.3791  1.5445
 6068SOL     OW29662   3.170   2.101   7.308 -0.4042 -0.1426  0.2709
 6068SOL    HW129663   3.136   2.187   7.284  0.5062 -0.5819 -2.5906
 6068SOL    HW229664   3.091   2.051   7.285  0.0904 -0.7833 -0.0198
 6069SOL     OW29665   3.128   3.482   5.325  0.4674  0.4659 -0.6830
 6069SOL    HW129666   3.123   3.577   5.341 -1.1276  0.0933  1.0420
 6069SOL    HW229667   3.045   3.452   5.361  0.6884 -1.3359 -1.6943
 6070SOL     OW29668   3.786   2.437  10.876 -0.2785 -0.3965 -0.4674
 6070SOL    HW129669   3.750   2.407  10.960  1.1865  1.8901  0.9763
 6070SOL    HW229670   3.860   2.482  10.917 -0.8787  0.4026 -0.2774
 6071SOL     OW29671   2.932   1.073   3.992 -0.6821  0.9565  0.0695
 6071SOL    HW129672   2.973   1.105   3.911  0.5892  0.4054  0.4815
 6071SOL    HW229673   2.885   1.149   4.023  1.0517  1.8394  0.5477
 6072SOL     OW29674   1.230   0.308   4.056  0.2394  0.0046  0.4285
 6072SOL    HW129675   1.160   0.324   3.992 -0.8716 -1.7220  1.2042
 6072SOL    HW229676   1.302   0.369   4.039 -0.9748  2.5659  4.4328
 6073SOL     OW29677   1.255   3.651   0.993  0.6036 -0.0038  0.2984
 6073SOL    HW129678   1.203   3.731   0.983 -0.4597 -0.8497 -1.0811
 6073SOL    HW229679   1.344   3.676   1.015 -0.0373  0.8993  1.8848
 6074SOL     OW29680   1.210   0.509   7.846 -0.3989  0.1562 -0.2821
 6074SOL    HW129681   1.150   0.435   7.854 -0.5083  0.3848  1.0984
 6074SOL    HW229682   1.278   0.460   7.800 -1.5776 -1.5760 -0.1510
 6075SOL     OW29683   1.596   1.927   7.160  0.0242 -0.8670 -0.4081
 6075SOL    HW129684   1.547   2.009   7.159 -2.1499 -2.1532 -0.9134
 6075SOL    HW229685   1.649   1.928   7.081  1.2094 -0.5650  0.3886
 6076SOL     OW29686   4.573   4.171  13.755  0.4515 -0.1823 -0.0462
 6076SOL    HW129687   4.621   4.158  13.672 -0.5320  1.5983 -0.8983
 6076SOL    HW229688   4.546   4.081  13.777 -4.1377  1.1968 -0.0619
 6077SOL     OW29689   2.425   1.215   4.437  0.2272 -0.2494 -0.3104
 6077SOL    HW129690   2.476   1.281   4.390  0.7892  1.7438  3.0648
 6077SOL    HW229691   2.410   1.146   4.373  1.2865  0.3276 -1.1790
 6078SOL     OW29692   2.248   2.825   5.448  0.0324  0.2985  0.7724
 6078SOL    HW129693   2.174   2.764   5.449 -1.6887  2.4118 -0.2264
 6078SOL    HW229694   2.324   2.768   5.466 -0.2277 -0.6599 -1.1649
 6079SOL     OW29695   3.533   4.231  15.895  0.5009 -0.0521 -0.2703
 6079SOL    HW129696   3.610   4.193  15.852 -1.0912 -2.5857 -0.8771
 6079SOL    HW229697   3.505   4.292  15.827 -1.1595  0.1732  0.6202
 6080SOL     OW29698   2.132   2.537   7.407 -0.0739  0.3409  0.2099
 6080SOL    HW129699   2.083   2.457   7.429  1.3130 -0.3709  0.6542
 6080SOL    HW229700   2.083   2.562   7.328 -0.9169  1.5188  1.0959
 6081SOL     OW29701   2.431   0.331   2.918 -0.3117 -0.0705 -0.6489
 6081SOL    HW129702   2.486   0.284   2.855  3.4695  0.8843  1.9886
 6081SOL    HW229703   2.491   0.403   2.934  2.2941 -3.0524  2.7537
 6082SOL     OW29704   2.860   3.153   5.862  0.2394 -0.0566 -0.2846
 6082SOL    HW129705   2.874   3.247   5.855 -1.7794  0.4313  2.1342
 6082SOL    HW229706   2.896   3.121   5.780 -1.0058 -0.5077 -0.6533
 6083SOL     OW29707   4.441   2.492  14.932 -0.3101 -0.5034  0.5285
 6083SOL    HW129708   4.429   2.558  14.864 -0.9675  2.4578  3.5065
 6083SOL    HW229709   4.504   2.533  14.991  0.0263  0.8902 -0.7815
 6084SOL     OW29710   2.446   2.207   8.063 -0.6468  0.0340  0.1094
 6084SOL    HW129711   2.408   2.165   7.986 -1.0866  2.0709 -0.7874
 6084SOL    HW229712   2.525   2.242   8.022  0.7839 -4.9250 -1.3449
 6085SOL     OW29713   3.615   4.374   6.227 -0.1171  0.1944  0.4335
 6085SOL    HW129714   3.531   4.420   6.239 -1.3640 -2.3121  1.2115
 6085SOL    HW229715   3.643   4.419   6.147 -1.6748 -1.2490 -0.9365
 6086SOL     OW29716   0.157   0.103   1.766  0.3608  0.6199  0.0263
 6086SOL    HW129717   0.239   0.073   1.804 -0.5743 -1.0642  0.7250
 6086SOL    HW229718   0.193   0.186   1.735 -2.9942  1.9759 -0.2506
 6087SOL     OW29719   1.377   0.097   4.622 -0.3845  0.0680  0.0641
 6087SOL    HW129720   1.414   0.074   4.537 -0.1642 -0.9196  0.4236
 6087SOL    HW229721   1.289   0.058   4.619  0.8272 -2.5818 -0.8405
 6088SOL     OW29722   4.722   4.720   0.049 -0.2396 -0.0072  0.0543
 6088SOL    HW129723   0.055   0.058   0.090  1.4737 -1.6274  0.1148
 6088SOL    HW229724   4.696   0.039  17.673  1.9752 -1.7705 -1.6632
 6089SOL     OW29725   0.989   0.400   7.303 -0.4530  0.4652  0.5713
 6089SOL    HW129726   1.053   0.430   7.238  0.2716  1.0727  1.5745
 6089SOL    HW229727   1.036   0.426   7.382  0.8008  0.8458 -0.2953
 6090SOL     OW29728   2.014   0.051   9.701 -0.6579 -0.1412 -0.4214
 6090SOL    HW129729   2.030   4.710   9.634  1.4384 -0.0109 -0.0486
 6090SOL    HW229730   1.924   0.033   9.727 -0.4518  0.4185  0.6872
 6091SOL     OW29731   3.228   3.123   5.083  0.5239 -0.0146  0.7280
 6091SOL    HW129732   3.284   3.045   5.082  1.0536  0.3580  1.6953
 6091SOL    HW229733   3.240   3.156   4.994  0.0722 -2.3302 -0.1933
 6092SOL     OW29734   2.022   1.930   9.089  0.0583 -0.6061  0.2245
 6092SOL    HW129735   2.075   1.957   9.014  1.3770 -1.2349  0.9307
 6092SOL    HW229736   2.088   1.880   9.137 -0.2664  1.0089  2.3947
 6093SOL     OW29737   2.637   2.053  13.602 -0.0763 -0.1182 -0.1012
 6093SOL    HW129738   2.731   2.071  13.605 -0.0077 -0.3121 -0.9888
 6093SOL    HW229739   2.621   1.977  13.658  2.9263 -1.0002 -0.4683
 6094SOL     OW29740   2.889   3.504  15.705 -0.0650 -0.0943  0.8150
 6094SOL    HW129741   2.897   3.508  15.800  0.4310  1.9337  0.6834
 6094SOL    HW229742   2.796   3.516  15.687 -0.0972  0.5211  1.4088
 6095SOL     OW29743   3.999   2.889   1.810  0.1841  0.3590 -0.2327
 6095SOL    HW129744   4.055   2.812   1.801 -0.4740 -0.1799  0.2924
 6095SOL    HW229745   3.913   2.847   1.805  0.9251 -0.9880 -1.5247
 6096SOL     OW29746   0.036   2.385   7.058  0.1012  1.1431  0.2987
 6096SOL    HW129747   0.033   2.337   7.141  0.4338  0.9589  0.2013
 6096SOL    HW229748   4.702   2.333   7.003  0.2398 -0.0340  1.2545
 6097SOL     OW29749   4.532   4.672   3.342  0.3735 -0.4349  0.0998
 6097SOL    HW129750   4.470   0.018   3.338  0.5477 -0.2778  0.2527
 6097SOL    HW229751   4.550   4.664   3.248  1.6577  1.5071  0.1685
 6098SOL     OW29752   3.083   0.673   5.394 -0.0137  0.5383 -0.0318
 6098SOL    HW129753   3.118   0.761   5.382  0.3243  0.3041 -0.7304
 6098SOL    HW229754   2.996   0.702   5.423 -0.2589  0.2135 -0.4400
 6099SOL     OW29755   3.849   4.030  14.052 -0.0291 -0.2274  0.0017
 6099SOL    HW129756   3.783   4.072  13.997 -1.4750 -2.5110  0.0321
 6099SOL    HW229757   3.824   4.083  14.128 -0.4128 -0.9555  0.3798
 6100SOL     OW29758   0.460   0.768   0.419  0.4861 -0.5184 -0.2168
 6100SOL    HW129759   0.371   0.802   0.411  0.9618  0.6542 -0.5266
 6100SOL    HW229760   0.514   0.841   0.386 -1.0065  0.5559 -0.2606
 6101SOL     OW29761   2.446   2.780   1.943  1.0203 -0.3386 -0.4642
 6101SOL    HW129762   2.479   2.722   1.874  0.4308 -2.1219  0.7611
 6101SOL    HW229763   2.502   2.742   2.011 -1.0113 -0.8796  0.8808
 6102SOL     OW29764   4.201   0.437  10.257 -0.1829 -0.6119  0.3062
 6102SOL    HW129765   4.226   0.444  10.164  1.1831  0.3360  0.7274
 6102SOL    HW229766   4.106   0.425  10.262 -0.1263  0.5842  4.2637
 6103SOL     OW29767   2.403   4.581   4.877 -0.7704  0.1999 -0.3700
 6103SOL    HW129768   2.475   4.597   4.816 -1.5679 -1.8885 -1.8655
 6103SOL    HW229769   2.446   4.527   4.944 -1.3559  1.8042  1.3118
 6104SOL     OW29770   0.290   1.188  10.576 -0.3194  0.2482 -0.3101
 6104SOL    HW129771   0.277   1.099  10.609  2.0886 -0.4588 -1.2466
 6104SOL    HW229772   0.376   1.170  10.538 -1.2897 -3.5340 -0.7595
 6105SOL     OW29773   0.682   2.491   9.413 -0.6397 -0.7466  1.0877
 6105SOL    HW129774   0.679   2.528   9.325 -1.8476 -2.0519  0.5790
 6105SOL    HW229775   0.755   2.548   9.439 -0.2264 -0.6760 -0.2506
 6106SOL     OW29776   4.396   0.424   8.943  0.2141 -0.1129 -0.1497
 6106SOL    HW129777   4.422   0.395   8.856  0.9204  0.7350 -0.2190
 6106SOL    HW229778   4.475   0.412   8.996 -0.1993 -0.0137  0.4857
 6107SOL     OW29779   0.734   1.913   2.822  0.2500  0.1180 -0.4273
 6107SOL    HW129780   0.705   2.004   2.818 -0.7429 -0.0998  2.1065
 6107SOL    HW229781   0.661   1.873   2.774  0.7231 -1.0389 -0.1776
 6108SOL     OW29782   4.291   2.100   2.594  0.1345  0.2395  0.7583
 6108SOL    HW129783   4.207   2.105   2.548  0.8378  2.0781 -0.3332
 6108SOL    HW229784   4.341   2.061   2.523 -2.9130 -0.5737 -0.9261
 6109SOL     OW29785   1.783   1.155   3.003  0.0943  0.3084  0.0909
 6109SOL    HW129786   1.688   1.160   2.995  0.4407  0.0633 -4.1048
 6109SOL    HW229787   1.807   1.248   3.007 -0.7407  0.5541 -0.4861
 6110SOL     OW29788   3.437   2.661   4.685  0.5168  0.4335  0.1864
 6110SOL    HW129789   3.399   2.739   4.725  3.3463  2.1271 -0.4469
 6110SOL    HW229790   3.361   2.615   4.650 -1.3337  1.1319  3.2940
 6111SOL     OW29791   0.085   0.853   3.249 -0.2288 -0.7159 -0.0930
 6111SOL    HW129792   0.084   0.764   3.284 -0.0021  0.5036  3.0632
 6111SOL    HW229793   0.023   0.834   3.179 -0.9556 -1.9174  0.8785
 6112SOL     OW29794   3.483   4.696   0.755  0.3194 -0.6473 -0.1119
 6112SOL    HW129795   3.566   4.649   0.755  1.5665  1.5625 -0.3524
 6112SOL    HW229796   3.430   4.652   0.822 -1.2553 -0.3605 -1.1606
 6113SOL     OW29797   3.259   4.051   5.739 -0.0426  0.8569 -0.3566
 6113SOL    HW129798   3.312   4.085   5.666 -0.8030  0.8441 -0.9076
 6113SOL    HW229799   3.248   4.130   5.791 -2.2699  0.8173 -0.7712
 6114SOL     OW29800   1.611   2.098  13.802  0.2294  0.7715 -0.2676
 6114SOL    HW129801   1.521   2.091  13.769  0.1231  0.6515  0.0422
 6114SOL    HW229802   1.595   2.154  13.878 -2.2280  0.3060 -0.4410
 6115SOL     OW29803   3.843   4.644   0.603 -0.4097 -0.4238 -0.3869
 6115SOL    HW129804   3.787   4.596   0.665 -0.4727 -1.0739 -0.9444
 6115SOL    HW229805   3.830   0.007   0.635 -0.9124 -1.0115  1.0493
 6116SOL     OW29806   3.417   1.346   2.522  1.1919 -0.6153  0.3417
 6116SOL    HW129807   3.371   1.383   2.446 -1.0668 -2.3164  0.8790
 6116SOL    HW229808   3.340   1.314   2.570  0.4706 -2.1872 -1.8384
 6117SOL     OW29809   3.176   0.639  13.961  0.5540 -0.0095  0.1586
 6117SOL    HW129810   3.224   0.614  13.882 -0.9478 -1.3617 -0.3265
 6117SOL    HW229811   3.085   0.623  13.937  0.4670  0.4757  0.1642
 6118SOL     OW29812   0.605   3.758  17.580  0.3035  0.5495  0.6364
 6118SOL    HW129813   0.552   3.679  17.570  1.5311 -0.0399 -1.1842
 6118SOL    HW229814   0.544   3.826  17.550  0.3849  0.2379 -0.2508
 6119SOL     OW29815   4.437   3.994   4.871  0.0201 -0.2418  0.0239
 6119SOL    HW129816   4.476   4.080   4.857  1.4064 -1.1239 -1.5422
 6119SOL    HW229817   4.449   3.951   4.786 -1.5972  0.3941 -0.5486
 6120SOL     OW29818   0.628   2.819   3.548  0.0662 -0.0259 -0.4089
 6120SOL    HW129819   0.710   2.773   3.526 -0.0588 -0.8077  0.7753
 6120SOL    HW229820   0.562   2.756   3.518  0.0600 -0.9306  1.5213
 6121SOL     OW29821   4.285   1.936   3.154 -0.5574  0.0939  0.1396
 6121SOL    HW129822   4.262   1.948   3.062  1.0339 -1.0384 -0.4241
 6121SOL    HW229823   4.379   1.916   3.153 -0.6298 -0.3065  1.3493
 6122SOL     OW29824   1.634   0.256   5.374 -0.2091 -0.4341  0.1606
 6122SOL    HW129825   1.619   0.308   5.295  2.3187 -0.2420 -0.1768
 6122SOL    HW229826   1.546   0.263   5.413 -0.1042 -2.4951  0.7382
 6123SOL     OW29827   2.175   4.206   8.320  0.4525  0.6608 -0.5348
 6123SOL    HW129828   2.175   4.197   8.224  0.2452  1.3883 -0.6059
 6123SOL    HW229829   2.129   4.288   8.338  1.2422  1.1502 -0.7382
 6124SOL     OW29830   1.233   4.522   0.516 -0.2554 -0.0479  0.0914
 6124SOL    HW129831   1.253   4.577   0.441  1.4756  0.7417  1.1126
 6124SOL    HW229832   1.266   4.435   0.491  0.8701 -0.0651  1.6243
 6125SOL     OW29833   1.786   2.707   6.294  0.0837 -0.1926 -0.1047
 6125SOL    HW129834   1.810   2.771   6.362 -0.4303 -0.4612  0.3317
 6125SOL    HW229835   1.869   2.667   6.270  0.0899 -1.2979  1.7320
 6126SOL     OW29836   1.217   1.144  15.379 -0.4666  0.1039  0.2137
 6126SOL    HW129837   1.258   1.174  15.460 -0.2059 -0.6220  0.3430
 6126SOL    HW229838   1.278   1.075  15.354 -1.9850 -1.9377  2.1995
 6127SOL     OW29839   4.091   3.865   6.123 -0.5218 -0.0928 -0.3505
 6127SOL    HW129840   4.184   3.880   6.108 -0.4613  1.0492  1.2411
 6127SOL    HW229841   4.061   3.955   6.107 -0.6295 -0.7462 -3.7235
 6128SOL     OW29842   4.571   0.168   5.241  0.1166 -0.1457 -0.2982
 6128SOL    HW129843   4.640   0.188   5.306  1.2939 -0.7103 -1.3774
 6128SOL    HW229844   4.595   0.230   5.173  0.4498 -3.3010 -3.0349
 6129SOL     OW29845   0.391   3.513   8.314  0.7774 -0.3777  0.2726
 6129SOL    HW129846   0.327   3.515   8.385 -1.8614 -0.5234 -2.1140
 6129SOL    HW229847   0.413   3.606   8.325  0.6573 -0.1595 -1.3791
 6130SOL     OW29848   3.642   0.383   7.678 -0.1274 -0.3502  0.8062
 6130SOL    HW129849   3.722   0.331   7.672  0.1386  0.1884 -0.2637
 6130SOL    HW229850   3.609   0.326   7.747 -1.5462 -2.3446 -1.5339
 6131SOL     OW29851   1.048   2.798  12.823 -0.3292  0.5796 -0.5326
 6131SOL    HW129852   1.048   2.703  12.824 -1.9770  0.5794 -0.4402
 6131SOL    HW229853   0.969   2.811  12.770  0.4077  0.3521 -1.6782
 6132SOL     OW29854   0.837   1.422   9.246 -0.0461 -0.0081 -0.0389
 6132SOL    HW129855   0.911   1.428   9.306  1.3709 -1.5927 -1.6461
 6132SOL    HW229856   0.835   1.508   9.205 -1.2111  0.7497  1.5935
 6133SOL     OW29857   2.561   1.952   7.775 -0.1035  0.0857 -0.1442
 6133SOL    HW129858   2.549   2.029   7.831  0.6085  0.3676 -0.3688
 6133SOL    HW229859   2.626   1.991   7.716 -0.0850 -1.5645 -1.2096
 6134SOL     OW29860   0.556   0.995   6.997 -0.2041 -0.0457  0.1706
 6134SOL    HW129861   0.502   0.993   7.076 -0.0738  0.8770  0.2774
 6134SOL    HW229862   0.590   1.084   7.008 -0.5950  0.2283 -0.8742
 6135SOL     OW29863   0.782   3.093   8.476 -0.3905 -0.1684 -0.6538
 6135SOL    HW129864   0.722   3.147   8.527 -0.1048 -2.0131  1.6482
 6135SOL    HW229865   0.735   3.009   8.478  1.7338 -1.3436 -0.5659
 6136SOL     OW29866   0.099   0.468   8.014  0.5727 -0.3182 -0.1049
 6136SOL    HW129867   0.128   0.386   7.972 -2.6427 -0.3810 -2.2186
 6136SOL    HW229868   0.004   0.470   7.998  0.6035  0.3602 -0.1755
 6137SOL     OW29869   2.786   3.370   7.033  0.1638 -0.1299 -0.4182
 6137SOL    HW129870   2.801   3.279   7.010  1.3057 -0.1389  0.3095
 6137SOL    HW229871   2.697   3.383   7.001 -0.1731  1.6780  1.2387
 6138SOL     OW29872   0.339   0.318  13.365 -0.4240  0.5510  0.2985
 6138SOL    HW129873   0.257   0.349  13.402  0.3159  1.0088  1.5806
 6138SOL    HW229874   0.361   0.388  13.303 -1.0311 -0.5658 -1.1767
 6139SOL     OW29875   2.974   3.059   5.166  0.1738 -0.0989 -0.2752
 6139SOL    HW129876   3.055   3.041   5.119  0.2985  0.4497 -0.2742
 6139SOL    HW229877   2.961   3.154   5.157 -1.4810 -0.2067  0.8699
 6140SOL     OW29878   3.568   4.633  13.835  0.1282 -0.0977  0.0429
 6140SOL    HW129879   3.636   4.573  13.867  2.0967  0.9904 -2.0421
 6140SOL    HW229880   3.486   4.584  13.838 -0.7010  1.2748 -0.0405
 6141SOL     OW29881   2.447   4.355   1.739  0.5962 -0.2823  0.0378
 6141SOL    HW129882   2.419   4.291   1.675  2.5650 -1.8223  0.7220
 6141SOL    HW229883   2.542   4.349   1.726  0.7887  1.0744  0.7384
 6142SOL     OW29884   3.479   0.596   8.231  0.8149 -0.3554  0.0162
 6142SOL    HW129885   3.423   0.672   8.218 -0.4204 -1.3204 -0.2012
 6142SOL    HW229886   3.571   0.624   8.227  1.5418 -2.3448  2.8418
 6143SOL     OW29887   1.132   3.782   4.527 -0.2334 -0.1308 -0.1244
 6143SOL    HW129888   1.061   3.846   4.520  0.7203  0.7438 -1.7597
 6143SOL    HW229889   1.166   3.781   4.437  1.4861  0.6676  0.5102
 6144SOL     OW29890   1.404   0.076   5.120 -0.3666 -0.5119  0.1344
 6144SOL    HW129891   1.322   0.029   5.131 -1.7598  1.7652 -0.4644
 6144SOL    HW229892   1.440   0.034   5.042 -1.4051 -1.4761  0.1881
 6145SOL     OW29893   0.861   0.085   5.207 -0.7690  0.3857  0.4520
 6145SOL    HW129894   0.935   0.120   5.257 -1.1353 -1.3217  2.2119
 6145SOL    HW229895   0.866   0.148   5.135  0.9226  0.2185  0.4127
 6146SOL     OW29896   2.730   0.037   5.537  0.4627 -0.0826 -0.3131
 6146SOL    HW129897   2.779   0.033   5.619  0.2621 -1.4897 -0.2671
 6146SOL    HW229898   2.788   0.067   5.467  0.2161  1.4839  0.1525
 6147SOL     OW29899   0.882   3.149   3.669 -0.0140  0.2549  0.1996
 6147SOL    HW129900   0.889   3.168   3.763  2.3700 -0.1738  0.1108
 6147SOL    HW229901   0.976   3.147   3.649  0.2868  2.4336  1.3269
 6148SOL     OW29902   3.651   1.455   2.686  0.3809  0.0397  0.1975
 6148SOL    HW129903   3.622   1.461   2.777  1.1550 -0.3154  0.4692
 6148SOL    HW229904   3.575   1.411   2.648  0.1989 -0.3351  0.9918
 6149SOL     OW29905   4.167   3.869  13.568 -0.1305 -0.0253  0.6232
 6149SOL    HW129906   4.082   3.829  13.587 -0.5264 -0.0246 -1.2082
 6149SOL    HW229907   4.186   3.921  13.646 -1.9832  1.4400  0.0881
 6150SOL     OW29908   4.289   3.071   7.812 -0.0080 -0.3938  0.3468
 6150SOL    HW129909   4.354   3.136   7.840  1.1957  0.0265 -3.4689
 6150SOL    HW229910   4.306   3.003   7.877  2.8750 -0.7324 -0.7642
 6151SOL     OW29911   0.508   3.175   2.973  0.1164  0.1738 -0.7464
 6151SOL    HW129912   0.564   3.126   2.912 -2.1874  0.1022 -2.7857
 6151SOL    HW229913   0.543   3.133   3.052 -1.7220  0.8709  0.4496
 6152SOL     OW29914   3.833   0.472   4.468 -0.3434 -0.0485  0.2732
 6152SOL    HW129915   3.743   0.495   4.491 -0.5262 -0.5122  0.0352
 6152SOL    HW229916   3.820   0.380   4.444 -1.3545  0.1693  0.0147
 6153SOL     OW29917   4.581   2.616   6.787 -0.1786  0.2807  0.3554
 6153SOL    HW129918   4.511   2.553   6.804  0.4214 -1.2193 -2.6975
 6153SOL    HW229919   4.629   2.621   6.869 -1.6638 -0.9462  1.2972
 6154SOL     OW29920   4.216   3.550  11.603 -0.2696 -0.3641  0.3420
 6154SOL    HW129921   4.208   3.468  11.553 -0.4092 -2.0337  3.0665
 6154SOL    HW229922   4.286   3.524  11.662  1.5647 -0.6539 -1.9383
 6155SOL     OW29923   3.997   3.469  17.627  0.4080  0.2955  0.1909
 6155SOL    HW129924   4.079   3.479  17.676  1.0965  3.0202 -1.5499
 6155SOL    HW229925   3.945   3.510  17.696 -0.7963  1.5305 -1.4512
 6156SOL     OW29926   0.325   3.001   6.034  0.3557 -0.0370  0.0401
 6156SOL    HW129927   0.344   2.913   5.999  2.9982 -0.6674  2.9906
 6156SOL    HW229928   0.350   3.058   5.961 -1.2630 -1.0108 -1.2703
 6157SOL     OW29929   0.856   0.804   2.218 -0.2914  0.2169 -0.6820
 6157SOL    HW129930   0.861   0.718   2.176  2.5635 -0.3389  0.8252
 6157SOL    HW229931   0.760   0.800   2.214 -0.2605 -0.7376 -0.4150
 6158SOL     OW29932   3.460   2.812  15.400 -0.7912  0.4112  0.3922
 6158SOL    HW129933   3.533   2.765  15.359  0.2671  1.1726  1.3866
 6158SOL    HW229934   3.493   2.894  15.438 -0.2311  0.9295 -1.2219
 6159SOL     OW29935   4.652   4.165   3.714  0.3948 -0.4644  0.8846
 6159SOL    HW129936   4.609   4.236   3.761  1.3135  0.4259  0.3756
 6159SOL    HW229937   4.691   4.220   3.646 -0.0295 -1.1645  0.0886
 6160SOL     OW29938   3.666   0.824   2.699  0.3685  0.4689  0.3963
 6160SOL    HW129939   3.724   0.842   2.774  2.5384 -1.1570 -0.8775
 6160SOL    HW229940   3.730   0.836   2.629  0.5791 -2.6961  0.0453
 6161SOL     OW29941   2.902   2.110   8.721 -0.5940  0.0081  0.1406
 6161SOL    HW129942   2.839   2.070   8.660 -1.5572  2.0358 -0.1873
 6161SOL    HW229943   2.914   2.038   8.783  0.6140 -0.6831 -0.8937
 6162SOL     OW29944   2.976   2.624   7.055  0.4774 -0.4906  0.3511
 6162SOL    HW129945   3.044   2.601   6.992  0.8294  1.2548  0.0722
 6162SOL    HW229946   2.912   2.555   7.038  3.1182 -2.8558  0.0709
 6163SOL     OW29947   2.467   1.614   6.802 -0.0549  0.2396 -0.5416
 6163SOL    HW129948   2.499   1.639   6.716  1.8988 -0.0348  0.1193
 6163SOL    HW229949   2.510   1.529   6.806 -2.5471 -0.9831  0.7926
 6164SOL     OW29950   1.313   4.664   8.676  0.0191 -0.4499 -0.8019
 6164SOL    HW129951   1.347   0.022   8.707 -0.1269  0.1825 -2.3573
 6164SOL    HW229952   1.303   4.693   8.586 -3.5741  0.3382 -0.1643
 6165SOL     OW29953   2.714   0.201   4.836  0.1839 -0.3039  0.1322
 6165SOL    HW129954   2.695   0.292   4.816  1.1332 -0.7180 -2.6709
 6165SOL    HW229955   2.809   0.199   4.849  0.5969 -0.5599 -2.8519
 6166SOL     OW29956   1.257   0.271   8.046  0.8298  0.1671 -0.6577
 6166SOL    HW129957   1.343   0.289   8.008  1.2749 -0.9672 -0.1896
 6166SOL    HW229958   1.254   0.335   8.117 -2.4681 -1.3058  0.5362
 6167SOL     OW29959   0.560   1.766   2.689 -0.3069  0.1592  0.2695
 6167SOL    HW129960   0.550   1.674   2.714 -1.2215  0.0024 -0.6503
 6167SOL    HW229961   0.470   1.798   2.694 -0.5336  0.0792 -3.7264
 6168SOL     OW29962   4.448   3.683   8.552 -0.0989 -0.1104 -0.1198
 6168SOL    HW129963   4.396   3.662   8.474  1.1083  1.3436 -1.3027
 6168SOL    HW229964   4.525   3.702   8.499 -0.7807  2.4925 -0.1390
 6169SOL     OW29965   1.608   0.529  14.148 -0.2545  0.1332  0.0619
 6169SOL    HW129966   1.553   0.458  14.183  0.8517 -0.9821 -0.4513
 6169SOL    HW229967   1.681   0.469  14.130  0.8197  1.4502  0.0340
 6170SOL     OW29968   0.738   1.542  12.068 -0.1997  0.3601  0.2549
 6170SOL    HW129969   0.755   1.634  12.047  1.4223  0.4320  1.8170
 6170SOL    HW229970   0.828   1.511  12.055  0.0635 -0.2829  3.6313
 6171SOL     OW29971   1.881   1.670   8.821 -0.2651 -0.0798  0.0275
 6171SOL    HW129972   1.827   1.674   8.742  0.2972  0.2584 -0.3399
 6171SOL    HW229973   1.970   1.672   8.787  0.7174  0.8568  2.6513
 6172SOL     OW29974   0.952   1.129  15.279  0.1137  0.2119 -0.5495
 6172SOL    HW129975   1.036   1.123  15.324 -0.3703  0.4730  0.3859
 6172SOL    HW229976   0.983   1.124  15.188  4.3466  1.0096  0.8575
 6173SOL     OW29977   2.770   1.749   3.141  0.1689  0.8040  0.0952
 6173SOL    HW129978   2.771   1.833   3.094  0.0330  0.9106  0.2824
 6173SOL    HW229979   2.756   1.795   3.224 -2.2504  1.5242 -0.7128
 6174SOL     OW29980   3.951   1.011   7.985  0.3310 -0.1712  0.1969
 6174SOL    HW129981   3.944   0.916   7.994 -0.0041 -0.1800 -0.1468
 6174SOL    HW229982   4.009   1.038   8.056 -1.1239 -0.5742  1.5613
 6175SOL     OW29983   0.056   4.544   3.989 -0.4137  0.1506 -0.6892
 6175SOL    HW129984   0.056   4.529   3.895  2.0379 -1.8211 -0.3789
 6175SOL    HW229985   0.124   4.610   3.996 -1.1078  0.7446  0.5158
 6176SOL     OW29986   3.241   0.187  11.822  0.0262  0.2029  0.0980
 6176SOL    HW129987   3.255   0.243  11.899 -0.8622  1.1451 -0.4265
 6176SOL    HW229988   3.187   0.238  11.762 -1.7660 -1.9100 -0.0974
 6177SOL     OW29989   3.765   2.003  11.298 -0.3119 -0.5929  0.9482
 6177SOL    HW129990   3.687   1.966  11.256 -1.2782  2.8954 -0.2801
 6177SOL    HW229991   3.813   2.007  11.216  2.4964 -1.3474  2.5758
 6178SOL     OW29992   3.619   2.064  17.504  0.6474  0.4120  0.4501
 6178SOL    HW129993   3.689   2.034  17.562 -0.4552  0.3281  1.7308
 6178SOL    HW229994   3.669   2.106  17.435  2.5248 -0.1904  1.4501
 6179SOL     OW29995   3.853   0.649   7.152  0.6696 -0.3229  0.4239
 6179SOL    HW129996   3.912   0.700   7.208 -0.6163  1.7495 -0.0757
 6179SOL    HW229997   3.904   0.647   7.071 -0.5049 -1.3322 -0.2865
 6180SOL     OW29998   4.198   0.045  17.060 -0.5790  0.3640  0.6566
 6180SOL    HW129999   4.140   0.021  17.131 -1.8109 -0.6949 -0.7077
 6180SOL    HW230000   4.218   4.684  17.024  0.1421  1.1027 -0.7575
 6181SOL     OW30001   3.765   1.822   8.051 -0.0924 -0.0246  0.4091
 6181SOL    HW130002   3.779   1.765   7.975  1.2542  1.1271 -0.2013
 6181SOL    HW230003   3.850   1.806   8.091 -0.0280 -1.1796 -0.1770
 6182SOL     OW30004   2.664   1.585  15.238  0.5857 -0.0431  0.4602
 6182SOL    HW130005   2.599   1.579  15.308 -1.2779  0.3963 -1.2113
 6182SOL    HW230006   2.740   1.535  15.267  0.7077 -0.3365 -0.3496
 6183SOL     OW30007   4.576   0.120   8.990 -0.0733 -0.0590  0.1473
 6183SOL    HW130008   4.543   0.053   9.049 -3.1938  3.6494  2.6320
 6183SOL    HW230009   4.510   0.127   8.920  0.3275  2.8242  0.0319
 6184SOL     OW30010   2.576   3.344  11.099 -0.2532 -0.6446  0.4146
 6184SOL    HW130011   2.583   3.373  11.008  1.4357 -0.3420  0.6512
 6184SOL    HW230012   2.487   3.371  11.122  0.1263  1.3128 -0.4362
 6185SOL     OW30013   4.469   3.134   2.797 -0.3113  0.2572 -0.0086
 6185SOL    HW130014   4.378   3.108   2.811 -0.3600  0.8914  0.9071
 6185SOL    HW230015   4.471   3.157   2.704  2.7286  2.2731  0.5588
 6186SOL     OW30016   2.014   3.110   7.217  0.6044  0.2582 -0.1826
 6186SOL    HW130017   2.109   3.097   7.210  0.7505  0.8259  0.7050
 6186SOL    HW230018   2.009   3.204   7.199  2.0956  0.8175  2.2850
 6187SOL     OW30019   1.960   1.379   8.213  0.0488  0.6502 -0.0861
 6187SOL    HW130020   1.899   1.333   8.270  0.6502  0.9496  0.7857
 6187SOL    HW230021   1.928   1.351   8.127  0.5510 -1.2070  0.3244
 6188SOL     OW30022   3.457   2.322   9.553  0.3662 -0.2016  0.4723
 6188SOL    HW130023   3.484   2.233   9.531 -0.6393 -0.3555 -0.1384
 6188SOL    HW230024   3.517   2.335   9.627  2.0442  0.4833 -1.0102
 6189SOL     OW30025   4.078   2.902   8.163  0.1140  0.4258 -0.0598
 6189SOL    HW130026   3.995   2.885   8.119  0.9677 -0.7240 -1.2231
 6189SOL    HW230027   4.134   2.826   8.143 -2.9699 -1.8342 -0.1147
 6190SOL     OW30028   3.345   2.953   8.308 -0.3210  0.5469  0.1851
 6190SOL    HW130029   3.407   2.882   8.320 -0.1782  0.8853  1.5431
 6190SOL    HW230030   3.281   2.933   8.377 -0.7865  2.1414  0.2304
 6191SOL     OW30031   1.840   0.794  13.848 -0.0590 -0.1564 -0.0237
 6191SOL    HW130032   1.832   0.701  13.827 -2.9119 -0.3293  1.8389
 6191SOL    HW230033   1.813   0.805  13.939  3.1391 -0.5127  0.9477
 6192SOL     OW30034   0.474   2.778   1.764 -0.5027  0.0740  0.4705
 6192SOL    HW130035   0.510   2.863   1.792  0.8304 -0.2867 -0.1658
 6192SOL    HW230036   0.517   2.721   1.828  0.7212 -0.3318 -0.7088
 6193SOL     OW30037   2.141   1.712   7.422  0.1051  0.0079 -0.0672
 6193SOL    HW130038   2.110   1.641   7.477 -2.0440  0.7387 -0.3461
 6193SOL    HW230039   2.219   1.723   7.476 -1.0452 -2.3395  2.0694
 6194SOL     OW30040   0.558   0.496   0.948  0.2698  0.2134 -0.2960
 6194SOL    HW130041   0.471   0.463   0.928  0.2176 -0.4098  0.9295
 6194SOL    HW230042   0.596   0.435   1.011 -0.3740  2.7575  2.5528
 6195SOL     OW30043   4.411   0.903   5.899  0.7300 -0.0029  0.5167
 6195SOL    HW130044   4.436   0.889   5.991  1.0917 -2.5147  0.0304
 6195SOL    HW230045   4.320   0.932   5.905  1.7007  2.5662  3.1522
 6196SOL     OW30046   4.567   1.872   4.845  0.4816  0.0385  0.2259
 6196SOL    HW130047   4.559   1.929   4.769 -1.0255 -1.5587 -0.8079
 6196SOL    HW230048   4.477   1.871   4.879 -0.7270 -0.0435 -3.0212
 6197SOL     OW30049   2.104   1.275   3.099 -0.1266  0.3137  0.5538
 6197SOL    HW130050   2.030   1.327   3.068  0.3656  0.4543 -0.3783
 6197SOL    HW230051   2.149   1.261   3.016 -0.1293  2.9617  0.1166
 6198SOL     OW30052   2.401   2.558   3.284  0.5672  0.3865  1.0634
 6198SOL    HW130053   2.432   2.638   3.240 -0.0529  0.0580  0.0265
 6198SOL    HW230054   2.334   2.527   3.223  1.1478  0.9743  0.1314
 6199SOL     OW30055   4.663   3.505   8.364  0.3762 -0.3916 -0.0080
 6199SOL    HW130056   4.709   3.435   8.409 -0.1295 -0.6249  0.1496
 6199SOL    HW230057   0.010   3.555   8.328  2.2059 -0.3532  3.8225
 6200SOL     OW30058   2.227   3.150  14.934 -0.1161 -0.2536 -0.2975
 6200SOL    HW130059   2.135   3.145  14.905 -0.5987 -0.4176  1.2461
 6200SOL    HW230060   2.275   3.205  14.872  2.9482 -1.5695  0.9663
 6201SOL     OW30061   2.484   1.848  14.934  0.2569 -0.6806 -0.3421
 6201SOL    HW130062   2.535   1.768  14.940 -0.5619 -1.3863 -2.7379
 6201SOL    HW230063   2.398   1.833  14.973  1.2321  1.0709  2.5019
 6202SOL     OW30064   0.627   0.395  12.144  0.3020  0.1118  0.3416
 6202SOL    HW130065   0.566   0.406  12.071 -1.3110 -0.3996  1.5878
 6202SOL    HW230066   0.711   0.394  12.098 -0.4671 -1.4176 -1.0200
 6203SOL     OW30067   1.361   1.876   3.467 -0.2218 -0.7572 -0.0725
 6203SOL    HW130068   1.299   1.908   3.533  0.2401  0.0294 -0.0257
 6203SOL    HW230069   1.429   1.942   3.480 -3.4988  2.8433 -1.2398
 6204SOL     OW30070   4.556   2.916   1.134 -0.3344  0.1207 -0.2858
 6204SOL    HW130071   4.536   3.007   1.157  1.5885  0.1441  1.3191
 6204SOL    HW230072   4.474   2.877   1.166 -0.4234 -0.8417 -1.7216
 6205SOL     OW30073   4.573   0.967   2.297 -0.3527  0.0765  0.0414
 6205SOL    HW130074   4.667   0.983   2.307 -0.4562 -0.6383  2.2235
 6205SOL    HW230075   4.557   1.028   2.226  0.3203  1.8627  1.4199
 6206SOL     OW30076   4.368   2.909   4.742 -0.7029 -0.4610  0.3214
 6206SOL    HW130077   4.347   2.899   4.649  2.1943 -0.8278 -0.2974
 6206SOL    HW230078   4.462   2.894   4.737 -1.2572 -3.8944  0.1167
 6207SOL     OW30079   1.638   0.944  13.532  0.0086  0.1864 -0.3747
 6207SOL    HW130080   1.624   0.963  13.439  0.5162 -0.6280 -0.6130
 6207SOL    HW230081   1.551   0.932  13.571  0.3365 -0.9464  0.0068
 6208SOL     OW30082   3.412   1.398   5.546 -0.5869 -0.0811 -0.0075
 6208SOL    HW130083   3.341   1.442   5.499 -2.3335  0.7203  3.3459
 6208SOL    HW230084   3.409   1.427   5.637  1.3094 -0.8016  0.2790
 6209SOL     OW30085   2.224   3.228  11.174  0.1399  0.5857  0.5172
 6209SOL    HW130086   2.285   3.293  11.210 -1.1067  0.0899  3.5355
 6209SOL    HW230087   2.181   3.209  11.257 -0.3046 -3.5681 -0.6477
 6210SOL     OW30088   4.618   0.608  16.004 -0.2604 -0.2929 -0.4353
 6210SOL    HW130089   4.523   0.616  16.002 -0.3072 -1.4609 -3.0257
 6210SOL    HW230090   4.631   0.541  16.070 -1.8855 -1.5444 -1.3795
 6211SOL     OW30091   1.897   4.009   0.231  0.6862 -0.3211  0.9723
 6211SOL    HW130092   1.862   4.031   0.144  1.4826 -1.6145  0.3224
 6211SOL    HW230093   1.875   3.917   0.218  0.1365 -0.1124  0.3641
 6212SOL     OW30094   0.960   3.661   7.838 -0.3318 -0.6974  0.2010
 6212SOL    HW130095   0.954   3.696   7.749 -0.9023 -1.3300 -0.0145
 6212SOL    HW230096   0.871   3.662   7.874 -0.3851  0.4713  0.0561
 6213SOL     OW30097   0.198   0.860   9.836  0.2876  0.5390  0.2044
 6213SOL    HW130098   0.174   0.807   9.912 -2.8409 -1.7020 -2.4040
 6213SOL    HW230099   0.271   0.914   9.867  1.1857  0.5165 -1.8746
 6214SOL     OW30100   1.342   0.265  13.281 -0.5424 -0.8011 -0.2509
 6214SOL    HW130101   1.358   0.341  13.337  0.5177 -2.0031  1.0630
 6214SOL    HW230102   1.303   0.212  13.350 -0.6384 -2.1884 -1.3772
 6215SOL     OW30103   1.884   1.966   8.558  0.1439  0.1876 -0.3917
 6215SOL    HW130104   1.944   2.022   8.608  0.0559  1.2352 -1.4575
 6215SOL    HW230105   1.867   2.007   8.473  1.3226  4.2219  1.2978
 6216SOL     OW30106   2.719   0.420  17.491  0.2420 -0.4399 -0.2203
 6216SOL    HW130107   2.794   0.374  17.529  0.7479  1.5393  1.1856
 6216SOL    HW230108   2.654   0.349  17.496 -2.2525  1.7249 -2.3114
 6217SOL     OW30109   2.720   4.612   1.582  0.1924  0.2498 -0.0689
 6217SOL    HW130110   2.729   4.517   1.575  2.1456  0.5172 -1.2149
 6217SOL    HW230111   2.642   4.629   1.529 -0.4123 -0.8691  0.4853
 6218SOL     OW30112   1.233   4.065   4.401 -0.1683 -1.0230  0.2392
 6218SOL    HW130113   1.259   4.081   4.492 -1.8000  0.8571  0.3801
 6218SOL    HW230114   1.143   4.099   4.394 -0.3366 -2.3212 -4.1161
 6219SOL     OW30115   4.513   1.389   0.827  0.9561  0.3595  0.0656
 6219SOL    HW130116   4.483   1.451   0.894  0.0279 -0.4316  0.3999
 6219SOL    HW230117   4.423   1.356   0.819  1.1139 -0.0103 -0.1571
 6220SOL     OW30118   1.273   3.533   3.569 -0.3243 -0.2672 -0.5864
 6220SOL    HW130119   1.282   3.624   3.596 -1.3016  0.0873 -1.4575
 6220SOL    HW230120   1.365   3.507   3.576 -0.7604 -1.4620  0.6220
 6221SOL     OW30121   4.027   0.730  16.178  1.0268  0.0367  0.7629
 6221SOL    HW130122   4.077   0.737  16.097  0.3384  0.9493  0.4171
 6221SOL    HW230123   4.072   0.800  16.227  2.3871 -0.3798  0.1059
 6222SOL     OW30124   0.189   4.081   0.057  0.1356  0.3686 -0.4676
 6222SOL    HW130125   0.250   4.139   0.102  0.6720 -3.6373  3.9109
 6222SOL    HW230126   0.219   3.991   0.068 -0.4543  0.1972 -0.2744
 6223SOL     OW30127   4.457   1.460   2.797  0.5553 -0.1885  0.0062
 6223SOL    HW130128   4.452   1.399   2.871  0.0149 -1.6951 -1.2776
 6223SOL    HW230129   4.477   1.542   2.843 -0.1043 -0.3829  0.6611
 6224SOL     OW30130   1.949   2.800   2.358  0.0740  0.3251 -0.0858
 6224SOL    HW130131   1.860   2.770   2.377 -0.6903  2.4405 -0.2763
 6224SOL    HW230132   1.935   2.824   2.267  0.5266  0.6237 -0.0773
 6225SOL     OW30133   3.153   3.690   4.698  0.0500  0.2591  0.1018
 6225SOL    HW130134   3.084   3.738   4.653  0.9189  1.9358  0.5686
 6225SOL    HW230135   3.224   3.749   4.672  0.5825 -0.2333  0.4451
 6226SOL     OW30136   3.870   1.349   5.067  0.1136 -0.2337 -0.1562
 6226SOL    HW130137   3.777   1.347   5.088  0.5847 -1.3981  1.8064
 6226SOL    HW230138   3.876   1.444   5.058  0.4683 -0.0382  1.9182
 6227SOL     OW30139   4.368   1.564   5.503  0.0461  0.0001 -0.2450
 6227SOL    HW130140   4.315   1.626   5.553 -0.4142 -0.4055 -0.2279
 6227SOL    HW230141   4.315   1.547   5.425  1.7787  0.8961 -1.6104
 6228SOL     OW30142   3.648   2.603   7.569 -0.2181 -0.3619  0.3502
 6228SOL    HW130143   3.564   2.560   7.587 -1.8690  2.7358 -0.0048
 6228SOL    HW230144   3.680   2.599   7.659  0.2302  1.5028  0.2651
 6229SOL     OW30145   2.443   0.560   7.136 -0.5624  0.7667 -0.4404
 6229SOL    HW130146   2.379   0.560   7.207 -1.0777 -4.2383 -0.9300
 6229SOL    HW230147   2.430   0.468   7.112  3.1265  0.5100 -1.4339
 6230SOL     OW30148   0.236   1.418   7.960 -0.1549 -0.7960 -0.7198
 6230SOL    HW130149   0.270   1.329   7.962  2.2214  0.1262 -0.6695
 6230SOL    HW230150   0.174   1.407   8.032  1.5667  0.8302  0.9805
 6231SOL     OW30151   3.282   3.850  15.347 -0.3401  0.0154 -0.1711
 6231SOL    HW130152   3.256   3.785  15.283 -3.1753  0.0592  0.9251
 6231SOL    HW230153   3.197   3.865  15.389 -1.0163 -1.5702 -0.9778
 6232SOL     OW30154   2.200   3.601   8.266 -0.1773  0.2363 -0.1850
 6232SOL    HW130155   2.187   3.608   8.172 -0.5567  1.9947 -0.0076
 6232SOL    HW230156   2.222   3.508   8.279 -1.3646  0.1218  1.0807
 6233SOL     OW30157   3.453   2.252   4.447 -0.2977  0.0895  0.5164
 6233SOL    HW130158   3.425   2.327   4.500  0.0050  0.9402 -0.5064
 6233SOL    HW230159   3.462   2.177   4.506  0.0370  1.5096  2.2715
 6234SOL     OW30160   2.434   0.176   4.683  0.5167  0.0810  1.2496
 6234SOL    HW130161   2.429   0.098   4.627 -0.1335  1.7941 -1.0653
 6234SOL    HW230162   2.487   0.140   4.755  0.7973  0.5811  1.2928
 6235SOL     OW30163   3.399   3.624   2.394  0.4240  0.3905 -0.2478
 6235SOL    HW130164   3.321   3.622   2.339  0.3560 -2.9346 -0.0898
 6235SOL    HW230165   3.461   3.588   2.331  0.6288  1.1629 -0.4837
 6236SOL     OW30166   2.796   2.369   5.518  0.4177 -0.6199 -0.5438
 6236SOL    HW130167   2.880   2.330   5.495  0.4613 -0.7319 -0.1955
 6236SOL    HW230168   2.787   2.340   5.609 -2.4880 -0.2488 -0.7077
 6237SOL     OW30169   4.304   2.967   1.471  0.1559  0.5241 -0.0233
 6237SOL    HW130170   4.346   2.974   1.557  2.2504 -1.2348 -0.8854
 6237SOL    HW230171   4.210   2.973   1.486  0.6054  2.1348  2.2726
 6238SOL     OW30172   4.259   1.823   3.625  0.8213 -0.2995  0.7726
 6238SOL    HW130173   4.242   1.917   3.625 -0.5770 -0.5532  0.7233
 6238SOL    HW230174   4.175   1.782   3.648  0.1690 -0.7756 -2.4648
 6239SOL     OW30175   2.001   0.947   9.536 -0.2920 -0.1491 -0.2809
 6239SOL    HW130176   2.058   1.019   9.506  1.3467 -0.7621  1.3975
 6239SOL    HW230177   1.987   0.972   9.627 -3.2576  1.5161 -1.2017
 6240SOL     OW30178   0.092   1.275   6.226  0.0665 -0.0202  0.4079
 6240SOL    HW130179   0.011   1.225   6.219  1.1472 -1.7643  0.2348
 6240SOL    HW230180   0.104   1.304   6.135  2.2890 -2.4628 -0.0661
 6241SOL     OW30181   3.515   1.519   6.448 -0.4921 -0.0606 -0.7158
 6241SOL    HW130182   3.571   1.541   6.522  1.7972  1.9783 -3.0467
 6241SOL    HW230183   3.570   1.549   6.376  1.8055  0.0387  1.0808
 6242SOL     OW30184   0.002   3.117   4.707  0.6158  0.0255 -0.6042
 6242SOL    HW130185   4.657   3.175   4.734  0.7582 -0.0931  0.0210
 6242SOL    HW230186   4.689   3.060   4.640  0.7450 -0.5293 -0.2062
 6243SOL     OW30187   3.902   2.529   4.547 -0.3353 -0.6191 -0.2638
 6243SOL    HW130188   3.880   2.613   4.509 -1.0016 -0.8958 -0.4773
 6243SOL    HW230189   3.814   2.500   4.572 -0.6233  0.7032  0.2556
 6244SOL     OW30190   3.617   0.236   1.563 -0.4437  0.4804  0.3787
 6244SOL    HW130191   3.563   0.239   1.484 -1.7365  0.1922  1.2396
 6244SOL    HW230192   3.545   0.256   1.623  1.1918  1.1947  2.0788
 6245SOL     OW30193   0.559   2.303   5.761 -0.0562  0.0563 -0.3369
 6245SOL    HW130194   0.626   2.355   5.717  1.3631 -0.6484  0.9920
 6245SOL    HW230195   0.487   2.292   5.700  1.1224 -2.6949 -1.2442
 6246SOL     OW30196   2.073   2.029   7.624 -0.3361  0.2829 -0.3242
 6246SOL    HW130197   2.154   1.978   7.625 -0.1184  0.5948 -2.2027
 6246SOL    HW230198   2.089   2.080   7.545 -1.4814 -1.6772 -1.8260
 6247SOL     OW30199   2.375   3.493   3.293 -0.1873 -0.2343  0.3440
 6247SOL    HW130200   2.309   3.522   3.231  0.1550 -0.2572 -0.0349
 6247SOL    HW230201   2.426   3.434   3.237 -2.0223 -2.6859  1.2099
 6248SOL     OW30202   2.376   1.378  14.257  0.5782 -0.2275 -0.3063
 6248SOL    HW130203   2.321   1.421  14.191 -1.7529 -1.5906  0.7373
 6248SOL    HW230204   2.366   1.443  14.327  2.6128  0.2642 -0.4799
 6249SOL     OW30205   0.805   2.904   0.346  0.2687 -0.0067 -0.0041
 6249SOL    HW130206   0.755   2.959   0.406 -1.6759 -0.9000 -0.8205
 6249SOL    HW230207   0.815   2.826   0.401 -1.2205 -0.6135 -0.5867
 6250SOL     OW30208   4.350   3.591   2.575  0.1558  0.4804 -0.1633
 6250SOL    HW130209   4.330   3.526   2.507 -0.0918  0.9071 -0.4965
 6250SOL    HW230210   4.283   3.551   2.631 -0.2242  1.1966 -0.1103
 6251SOL     OW30211   2.881   3.081  13.687 -0.3141 -0.4220 -0.4044
 6251SOL    HW130212   2.816   3.050  13.750 -0.0808  0.7979  0.4235
 6251SOL    HW230213   2.957   3.091  13.744  0.6870  1.4921 -2.0871
 6252SOL     OW30214   3.689   3.825  14.274  0.4827  0.1129  0.0515
 6252SOL    HW130215   3.629   3.894  14.246  0.0146 -0.4798 -0.4132
 6252SOL    HW230216   3.695   3.765  14.199 -2.2643 -0.1071  0.0201
 6253SOL     OW30217   2.127   2.957   6.192 -0.4019  0.1532  0.0554
 6253SOL    HW130218   2.060   2.984   6.129 -0.8525  2.0061  1.3393
 6253SOL    HW230219   2.092   2.996   6.271 -1.2158 -0.0457 -0.2093
 6254SOL     OW30220   0.500   2.543   7.376  0.6095  0.0399 -0.1324
 6254SOL    HW130221   0.464   2.458   7.350  0.8253 -0.5290  1.4560
 6254SOL    HW230222   0.484   2.594   7.296 -2.4680 -0.8889 -0.1007
 6255SOL     OW30223   1.033   3.937  16.822 -0.5738 -0.8124 -0.0282
 6255SOL    HW130224   1.019   3.850  16.859  1.6261 -1.4805 -0.7221
 6255SOL    HW230225   1.083   3.976  16.893 -1.8629  2.7379 -1.0841
 6256SOL     OW30226   2.699   3.410  16.968 -0.1921 -0.1962  0.3146
 6256SOL    HW130227   2.665   3.364  17.045  0.5521 -0.2176  0.6377
 6256SOL    HW230228   2.768   3.347  16.946 -0.3086 -0.0076 -0.5612
 6257SOL     OW30229   3.549   3.764   5.713  0.0417 -0.3122  0.3114
 6257SOL    HW130230   3.590   3.677   5.709  0.6942 -0.0575  1.7307
 6257SOL    HW230231   3.598   3.820   5.773  1.3815 -0.7739 -0.3456
 6258SOL     OW30232   0.643   4.273   3.565 -0.4381  0.8104 -0.0589
 6258SOL    HW130233   0.558   4.242   3.598  0.3713  0.5926  1.8045
 6258SOL    HW230234   0.644   4.217   3.487 -3.3117 -2.6290  2.3831
 6259SOL     OW30235   4.302   0.815   8.116 -0.1527  0.2419 -0.3960
 6259SOL    HW130236   4.373   0.755   8.093  0.6869  0.2477  2.1404
 6259SOL    HW230237   4.276   0.771   8.197 -1.1517  0.2984 -0.6934
 6260SOL     OW30238   0.761   0.096   3.669 -0.1465 -0.1173 -0.7465
 6260SOL    HW130239   0.772   0.180   3.623 -1.1937 -0.0293 -0.8239
 6260SOL    HW230240   0.764   0.039   3.593  1.2907  2.6469 -2.7540
 6261SOL     OW30241   0.277   3.373   3.447 -0.3623 -0.0327 -0.1357
 6261SOL    HW130242   0.324   3.448   3.411 -0.0064 -0.0354  0.3265
 6261SOL    HW230243   0.308   3.311   3.381  2.0408 -2.3045  3.1210
 6262SOL     OW30244   4.577   0.619   0.090  0.1106  0.4988  0.1404
 6262SOL    HW130245   4.512   0.674   0.133  0.3454  1.2724 -0.4854
 6262SOL    HW230246   4.627   0.624   0.171 -0.1161  2.4260  0.1553
 6263SOL     OW30247   0.685   0.804   4.585  0.1126  0.1691 -0.3567
 6263SOL    HW130248   0.692   0.841   4.497 -3.3074  0.9967 -0.2600
 6263SOL    HW230249   0.602   0.840   4.616 -0.2405 -0.0933 -1.0114
 6264SOL     OW30250   1.716   0.873   7.423 -0.1361 -0.4611 -0.2088
 6264SOL    HW130251   1.740   0.786   7.391 -0.1778 -0.2492 -0.8071
 6264SOL    HW230252   1.790   0.926   7.392 -0.9649  1.1002  0.4735
 6265SOL     OW30253   1.360   1.047   7.111 -0.3794  0.3116 -0.2301
 6265SOL    HW130254   1.405   1.030   7.194 -1.2300  2.1538  0.6208
 6265SOL    HW230255   1.270   1.014   7.121 -0.7286  1.6200  0.9508
 6266SOL     OW30256   2.663   1.037   2.644 -0.0090  0.1762 -0.1693
 6266SOL    HW130257   2.603   1.106   2.615  0.8759  0.0696 -2.2330
 6266SOL    HW230258   2.683   1.070   2.731  1.8634 -0.7053 -0.2762
 6267SOL     OW30259   2.784   3.967   6.900  0.6135  0.1320  0.0143
 6267SOL    HW130260   2.778   3.994   6.992 -0.7920 -0.8839  0.2117
 6267SOL    HW230261   2.806   4.054   6.865 -1.9388  1.4695  1.7552
 6268SOL     OW30262   3.342   3.378  15.051  0.6032 -0.1851  0.3062
 6268SOL    HW130263   3.402   3.364  15.124  0.7281 -0.6525  0.1147
 6268SOL    HW230264   3.267   3.408  15.102  1.3880  2.2534  0.0504
 6269SOL     OW30265   3.015   3.292   1.845  0.4493  0.0422  0.4132
 6269SOL    HW130266   3.070   3.216   1.858  0.5912 -0.0596 -0.8601
 6269SOL    HW230267   3.071   3.345   1.789 -0.7694  1.2615  0.3161
 6270SOL     OW30268   2.012   1.943  16.548  0.0869 -0.1183  0.3434
 6270SOL    HW130269   1.964   1.895  16.481  1.7670 -0.1180 -0.8551
 6270SOL    HW230270   1.941   1.940  16.611  0.7992 -0.6292  1.1295
 6271SOL     OW30271   0.186   3.807  12.487  0.2542  0.0445  0.0390
 6271SOL    HW130272   0.214   3.719  12.511 -0.8173  0.1920  1.8201
 6271SOL    HW230273   0.090   3.805  12.481  0.3541 -3.1230 -0.5435
 6272SOL     OW30274   4.519   2.357   5.552 -0.1417 -0.2229 -0.0130
 6272SOL    HW130275   4.433   2.365   5.593  0.3138 -0.5402  0.9960
 6272SOL    HW230276   4.544   2.449   5.560  1.6275 -0.4987 -2.3386
 6273SOL     OW30277   2.455   3.861   6.957  0.0608 -0.1902 -0.5919
 6273SOL    HW130278   2.538   3.814   6.946 -0.0938 -0.1661 -1.8182
 6273SOL    HW230279   2.486   3.924   7.022  0.6470 -1.4956  0.3960
 6274SOL     OW30280   0.498   1.652   0.502 -0.1969  0.1575  0.0476
 6274SOL    HW130281   0.492   1.591   0.428 -1.3684 -1.0669  1.1595
 6274SOL    HW230282   0.591   1.635   0.518 -0.0962 -0.2574 -0.9580
 6275SOL     OW30283   4.179   0.765   9.136  0.0860 -0.1457 -0.5906
 6275SOL    HW130284   4.249   0.812   9.182  0.4128  0.0104 -1.2373
 6275SOL    HW230285   4.143   0.710   9.205  1.6644  0.4931  0.7263
 6276SOL     OW30286   2.695   4.153   2.603  0.1720 -0.1788 -0.4432
 6276SOL    HW130287   2.614   4.149   2.553 -0.1226  0.3563 -0.0144
 6276SOL    HW230288   2.756   4.118   2.539  1.2959  0.8869  0.0547
 6277SOL     OW30289   2.044   1.602  11.392 -0.2557 -0.2451 -0.3161
 6277SOL    HW130290   2.098   1.527  11.417 -2.1881 -1.5896 -0.2396
 6277SOL    HW230291   1.961   1.566  11.361 -0.7828  1.5647 -1.0583
 6278SOL     OW30292   1.977   2.962  16.635 -0.3015 -0.7287  0.5124
 6278SOL    HW130293   1.949   3.038  16.584 -0.5504 -1.0116  0.2260
 6278SOL    HW230294   1.907   2.903  16.608 -1.4405  1.6573 -1.7744
 6279SOL     OW30295   4.322   3.991   6.034  0.2042 -0.0462  0.3640
 6279SOL    HW130296   4.372   3.984   5.952 -0.3487 -1.1820  0.1239
 6279SOL    HW230297   4.327   4.087   6.042 -1.6991  0.1587 -0.8669
 6280SOL     OW30298   3.385   4.504  10.880  0.1444  0.3680 -0.3696
 6280SOL    HW130299   3.467   4.544  10.848 -0.0004  0.4299 -0.6663
 6280SOL    HW230300   3.314   4.530  10.821 -0.3469  0.3260  0.2108
 6281SOL     OW30301   4.397   1.432   8.725  0.2464  0.0023 -0.4184
 6281SOL    HW130302   4.353   1.419   8.641 -1.8767 -1.0856  0.8598
 6281SOL    HW230303   4.355   1.375   8.790 -1.3786  2.9961  1.1671
 6282SOL     OW30304   2.261   1.950  16.790 -0.2778  0.4156 -0.3108
 6282SOL    HW130305   2.279   1.856  16.779  1.5537  1.1648 -3.8185
 6282SOL    HW230306   2.265   1.989  16.703 -0.6954  0.9570 -0.0891
 6283SOL     OW30307   1.423   2.013   2.173  0.3998 -0.5845 -0.1260
 6283SOL    HW130308   1.509   2.035   2.209  0.3654  0.2572 -0.5630
 6283SOL    HW230309   1.387   2.101   2.175  0.6930 -0.4554 -0.5307
 6284SOL     OW30310   2.525   1.763   1.338  0.0193 -0.3658 -0.0207
 6284SOL    HW130311   2.536   1.798   1.249 -0.4200 -1.3804 -0.4672
 6284SOL    HW230312   2.610   1.724   1.357 -0.2279 -0.1733  1.4980
 6285SOL     OW30313   3.485   2.509  15.407 -0.4204  0.2122 -0.3052
 6285SOL    HW130314   3.442   2.579  15.455 -1.7409  0.6009 -2.0497
 6285SOL    HW230315   3.493   2.545  15.318  0.6194 -0.2415 -0.4005
 6286SOL     OW30316   0.597   2.287   7.555  0.6637 -0.0566  0.0772
 6286SOL    HW130317   0.682   2.323   7.530  1.1007 -0.3684  1.0970
 6286SOL    HW230318   0.570   2.341   7.629  1.8985  2.5025 -1.3337
 6287SOL     OW30319   3.841   2.466  11.354  0.0156 -0.5009 -0.4914
 6287SOL    HW130320   3.793   2.489  11.433  1.5847  2.4959 -0.4065
 6287SOL    HW230321   3.927   2.448  11.391  0.0046  2.4668  1.0003
 6288SOL     OW30322   0.356   3.505   8.769 -0.3848 -0.5836  0.2567
 6288SOL    HW130323   0.383   3.594   8.749 -0.9747  0.1548  2.7985
 6288SOL    HW230324   0.283   3.511   8.831 -1.1645 -1.8154 -0.5400
 6289SOL     OW30325   2.538   3.126   7.136 -0.0408  1.0979  0.0881
 6289SOL    HW130326   2.625   3.099   7.166 -0.4435  0.8196  1.0116
 6289SOL    HW230327   2.524   3.062   7.066  0.9571 -1.2067  1.9877
 6290SOL     OW30328   4.359   0.077  16.612 -0.9035  0.7635 -0.6083
 6290SOL    HW130329   4.366   0.172  16.605 -0.6280  0.6852 -1.4360
 6290SOL    HW230330   4.270   0.060  16.642  0.1827 -1.5067  1.3693
 6291SOL     OW30331   2.001   0.041   7.455  0.0495 -0.1170  1.1512
 6291SOL    HW130332   1.920   0.025   7.502 -1.5291  0.9568 -1.2221
 6291SOL    HW230333   2.044   0.105   7.512 -1.8645 -0.1586  2.6199
 6292SOL     OW30334   1.499   3.799   2.246 -0.5020  0.7311 -0.1258
 6292SOL    HW130335   1.498   3.703   2.246  0.9441  0.7177 -3.8107
 6292SOL    HW230336   1.584   3.815   2.206 -0.1012  0.8956  0.7997
 6293SOL     OW30337   1.298   4.387   0.969 -0.3510 -0.7291 -0.0359
 6293SOL    HW130338   1.300   4.447   0.894 -1.0552  0.9142  1.2681
 6293SOL    HW230339   1.294   4.454   1.037  1.1736 -0.1997 -0.4710
 6294SOL     OW30340   0.447   1.776   3.962 -0.0130  0.2797  0.1949
 6294SOL    HW130341   0.411   1.842   3.903 -0.4302  0.2931  0.4601
 6294SOL    HW230342   0.536   1.769   3.928 -0.3401  0.8011 -0.7659
 6295SOL     OW30343   1.934   4.721   2.259 -0.4620  0.1122  0.4129
 6295SOL    HW130344   1.856   4.666   2.252 -1.1153  1.1179 -0.1771
 6295SOL    HW230345   1.996   4.676   2.201  1.7152  1.4593  1.7193
 6296SOL     OW30346   3.012   1.745   2.364 -0.2285  0.2014 -0.7044
 6296SOL    HW130347   3.026   1.673   2.424 -0.2123 -1.1350 -2.3086
 6296SOL    HW230348   3.010   1.822   2.421 -0.7184 -0.0052 -0.4412
 6297SOL     OW30349   2.163   1.708   0.439 -0.4002 -0.3266 -0.7764
 6297SOL    HW130350   2.174   1.613   0.427 -0.7243 -0.7572  2.2304
 6297SOL    HW230351   2.191   1.737   0.353  1.2657  1.2297  0.2990
 6298SOL     OW30352   0.540   2.662   2.008 -0.1854  0.4001 -0.0489
 6298SOL    HW130353   0.500   2.706   2.083  0.5467  1.3462 -0.2226
 6298SOL    HW230354   0.472   2.595   1.998 -0.0811  0.2848  0.0113
 6299SOL     OW30355   2.897   1.737   3.643  0.2728 -0.2396 -0.1057
 6299SOL    HW130356   2.855   1.804   3.588 -0.7729  0.3927  1.4829
 6299SOL    HW230357   2.913   1.672   3.574  0.0917 -1.5028  1.0566
 6300SOL     OW30358   3.195   0.027  17.019 -0.2994  0.3110 -0.1844
 6300SOL    HW130359   3.160   0.018  16.930 -0.5674  0.6127 -0.1100
 6300SOL    HW230360   3.252   0.103  17.002  0.9508 -0.4722  0.4955
 6301SOL     OW30361   1.362   1.215  15.957  0.3259 -0.7231 -0.2029
 6301SOL    HW130362   1.277   1.175  15.939  0.7504 -2.1230  0.8428
 6301SOL    HW230363   1.364   1.210  16.053 -2.1612  0.1084 -0.1231
 6302SOL     OW30364   2.179   4.623   2.998 -0.1825 -0.2547  0.0022
 6302SOL    HW130365   2.164   4.642   2.905  3.4947 -0.4343 -0.6596
 6302SOL    HW230366   2.126   4.686   3.046 -0.1714  0.4193 -0.8672
 6303SOL     OW30367   1.885   2.820   6.746  0.3971  0.2963 -0.1233
 6303SOL    HW130368   1.975   2.791   6.760  0.5016  0.4640 -0.4536
 6303SOL    HW230369   1.874   2.810   6.652 -3.2910 -0.8946  0.4526
 6304SOL     OW30370   2.025   1.040   5.202 -0.0448  0.6822  0.1153
 6304SOL    HW130371   1.933   1.012   5.200  0.5891 -1.4604  0.0224
 6304SOL    HW230372   2.067   0.974   5.147 -1.7590 -1.0351  0.8699
 6305SOL     OW30373   2.285   2.164   7.853 -0.4119  0.6647  0.5709
 6305SOL    HW130374   2.237   2.090   7.889 -1.4061  0.7125 -0.6628
 6305SOL    HW230375   2.210   2.223   7.847  0.9255  2.2069 -1.0794
 6306SOL     OW30376   3.842   2.086   1.930 -0.0722 -0.3332  0.3419
 6306SOL    HW130377   3.796   2.067   1.848  2.8303  1.1284 -1.6140
 6306SOL    HW230378   3.774   2.077   1.997  0.3814  4.3476  1.4422
 6307SOL     OW30379   1.020   2.632   8.531 -0.3369  0.0041 -0.1288
 6307SOL    HW130380   0.960   2.578   8.480  0.5452 -1.8628  0.7843
 6307SOL    HW230381   0.993   2.717   8.496  0.6673 -0.0080 -0.9192
 6308SOL     OW30382   1.844   4.636   4.632  0.1677  0.1612  0.2561
 6308SOL    HW130383   1.808   4.607   4.548  1.2058 -0.9472  0.1913
 6308SOL    HW230384   1.906   4.569   4.660 -0.2686 -0.7140 -0.8746
 6309SOL     OW30385   3.155   2.627   8.917  0.3702 -0.0668 -0.0868
 6309SOL    HW130386   3.171   2.720   8.906 -1.8854  0.3844  0.5423
 6309SOL    HW230387   3.218   2.599   8.983 -1.2640  2.1706  2.3695
 6310SOL     OW30388   4.433   0.191  17.143  0.4694 -0.3616 -0.2658
 6310SOL    HW130389   4.355   0.159  17.097  0.3732  1.1974 -1.2078
 6310SOL    HW230390   4.407   0.190  17.235  0.2642 -1.4509 -0.3413
 6311SOL     OW30391   0.380   0.100   6.200  0.5978  0.2819 -0.1161
 6311SOL    HW130392   0.344   0.131   6.117 -0.1715  1.6933  0.7391
 6311SOL    HW230393   0.469   0.137   6.204  1.1589 -1.0797 -0.0239
 6312SOL     OW30394   3.003   3.514   3.255  0.4906 -0.5897  0.1805
 6312SOL    HW130395   2.917   3.545   3.225  1.0257  0.0912 -0.6631
 6312SOL    HW230396   3.002   3.420   3.240  0.6558 -0.7230  1.0030
 6313SOL     OW30397   1.079   3.998   2.152  0.1526 -0.1038  0.2276
 6313SOL    HW130398   0.990   4.002   2.186  0.6350  3.1493  1.1227
 6313SOL    HW230399   1.082   4.086   2.115  0.8703  0.4609  1.6115
 6314SOL     OW30400   2.413   2.941   8.714 -0.0325  1.1335 -0.6817
 6314SOL    HW130401   2.433   2.994   8.637 -0.2902  0.5223 -1.1661
 6314SOL    HW230402   2.499   2.901   8.714 -0.2957  0.5832 -2.3866
 6315SOL     OW30403   3.143   3.086   5.532 -0.9464  0.3647  0.1030
 6315SOL    HW130404   3.118   3.161   5.586 -0.4842  0.9576 -0.5008
 6315SOL    HW230405   3.197   3.131   5.468 -1.1054 -1.0330 -1.0064
 6316SOL     OW30406   3.333   1.725   7.445  0.4947 -0.3385  0.0407
 6316SOL    HW130407   3.353   1.717   7.352 -0.7413 -0.8544 -0.1803
 6316SOL    HW230408   3.346   1.633   7.468  0.8800  0.0014  1.1964
 6317SOL     OW30409   0.291   3.117   7.725 -0.1350  0.0194  0.2601
 6317SOL    HW130410   0.197   3.135   7.716  0.1894  2.4655  1.6160
 6317SOL    HW230411   0.314   3.193   7.779 -0.3454  0.6396 -0.5236
 6318SOL     OW30412   2.162   1.233   1.699  0.4957 -0.4930 -0.1226
 6318SOL    HW130413   2.178   1.324   1.724 -2.3193 -0.3858  1.3273
 6318SOL    HW230414   2.120   1.257   1.616 -1.7489 -2.0096  0.5759
 6319SOL     OW30415   3.156   2.381   2.748  0.2643 -0.4111  0.0692
 6319SOL    HW130416   3.132   2.466   2.713 -1.3368 -0.4007  1.2222
 6319SOL    HW230417   3.190   2.407   2.834  0.4759  0.3175 -0.2377
 6320SOL     OW30418   3.261   0.024   4.446 -0.1042  0.9033  0.6307
 6320SOL    HW130419   3.171   0.037   4.416 -0.4661 -1.0404  0.8722
 6320SOL    HW230420   3.291   4.719   4.360 -0.2227 -2.0202  1.6225
 6321SOL     OW30421   3.750   1.192   9.354  0.3451  0.2033 -0.4599
 6321SOL    HW130422   3.823   1.146   9.395  0.0796  2.4300  2.4146
 6321SOL    HW230423   3.776   1.212   9.264 -0.5644 -0.1399 -0.7986
 6322SOL     OW30424   3.744   1.936  16.146  0.3965 -0.3780  0.2174
 6322SOL    HW130425   3.661   1.898  16.115  0.7518  0.7185 -2.1116
 6322SOL    HW230426   3.793   1.936  16.063  0.1792  0.0060  0.0881
 6323SOL     OW30427   0.919   4.710   5.568  0.5417  0.4432 -0.5662
 6323SOL    HW130428   0.889   4.722   5.659  1.5012 -1.4210 -0.0119
 6323SOL    HW230429   0.911   4.615   5.561  2.1139  0.1973  1.0322
 6324SOL     OW30430   0.697   4.595   6.385 -0.1523  0.3990  0.0024
 6324SOL    HW130431   0.631   4.598   6.455  1.6005  0.6003  1.6293
 6324SOL    HW230432   0.659   4.548   6.311 -1.4126  2.7562 -0.8527
 6325SOL     OW30433   3.253   4.538  17.536  0.3430 -0.5175  0.3946
 6325SOL    HW130434   3.197   4.493  17.599  4.0579 -1.5045  3.0474
 6325SOL    HW230435   3.299   4.463  17.497  0.7239  0.1615 -0.4587
 6326SOL     OW30436   2.894   3.165   3.760 -0.3451  0.3151 -0.2573
 6326SOL    HW130437   2.820   3.212   3.799 -1.2535 -2.9058  1.8811
 6326SOL    HW230438   2.962   3.189   3.822 -0.3040 -0.5482  0.0280
 6327SOL     OW30439   2.549   1.645   6.545 -0.2409 -0.0388  0.1904
 6327SOL    HW130440   2.492   1.569   6.550 -0.0704 -0.2398 -0.9800
 6327SOL    HW230441   2.599   1.636   6.464 -2.1123 -1.1755 -0.8119
 6328SOL     OW30442   3.387   0.494  14.437  0.0184  0.1430 -0.0460
 6328SOL    HW130443   3.301   0.513  14.475 -1.5880 -1.7158 -2.7516
 6328SOL    HW230444   3.371   0.486  14.343 -0.2903 -1.0685  0.1083
 6329SOL     OW30445   4.374   4.720   5.122 -0.7589 -0.1029 -0.3867
 6329SOL    HW130446   4.430   4.659   5.073 -0.0779  0.1405  0.0841
 6329SOL    HW230447   4.445   0.052   5.149 -0.7769  0.5335 -1.6960
 6330SOL     OW30448   4.334   2.091   3.829 -0.2347  0.3397 -0.0805
 6330SOL    HW130449   4.366   2.039   3.902 -0.9940 -0.7200 -0.4926
 6330SOL    HW230450   4.384   2.065   3.752  0.0609  1.2249 -0.1849
 6331SOL     OW30451   0.519   2.607   7.653 -0.8989  0.3352 -0.1891
 6331SOL    HW130452   0.524   2.597   7.558 -1.4439 -1.0007 -0.0896
 6331SOL    HW230453   0.464   2.534   7.683 -1.9913  1.4407  0.4645
 6332SOL     OW30454   4.620   2.824   6.576 -0.1694 -0.0029 -0.3302
 6332SOL    HW130455   4.701   2.837   6.526  0.7184 -0.4179  1.0055
 6332SOL    HW230456   4.659   2.773   6.647 -2.0658 -1.3428 -0.2461
 6333SOL     OW30457   3.589   3.126   2.193 -0.1604 -0.1214  0.0154
 6333SOL    HW130458   3.641   3.189   2.242 -0.7504  1.0496 -0.8583
 6333SOL    HW230459   3.563   3.188   2.124 -2.8015 -0.1354  0.9813
 6334SOL     OW30460   4.425   3.970   5.766 -0.2521 -0.0493 -0.3292
 6334SOL    HW130461   4.353   3.908   5.767  1.2683 -1.8137  0.1138
 6334SOL    HW230462   4.401   4.010   5.683  0.0498  0.5373 -0.1373
 6335SOL     OW30463   2.491   3.605  16.971 -0.0982  0.5206 -0.3281
 6335SOL    HW130464   2.565   3.549  16.948  1.0326  2.1626 -0.6955
 6335SOL    HW230465   2.513   3.681  16.917  1.0874  0.4077  0.0172
 6336SOL     OW30466   0.626   4.485   0.804 -0.2810  0.0339  0.3336
 6336SOL    HW130467   0.707   4.508   0.850 -0.4733 -1.0636  1.2163
 6336SOL    HW230468   0.650   4.393   0.792  2.7661  0.6387  1.7082
 6337SOL     OW30469   0.996   2.322   6.020  0.0386  0.3596  0.1393
 6337SOL    HW130470   0.959   2.309   5.933  0.6264 -0.3388 -0.0088
 6337SOL    HW230471   0.932   2.275   6.073  0.2524 -1.8805 -1.5970
 6338SOL     OW30472   2.798   2.413  12.237  0.5348  0.2826  0.1902
 6338SOL    HW130473   2.884   2.392  12.273 -0.3376 -1.8956  1.0478
 6338SOL    HW230474   2.818   2.490  12.184 -1.1556  0.4494 -0.2021
 6339SOL     OW30475   1.989   3.981   2.300  0.1500  0.3860 -0.3655
 6339SOL    HW130476   2.083   3.972   2.287 -0.0169 -0.2156 -1.1789
 6339SOL    HW230477   1.977   4.032   2.219  0.4591  0.7454 -0.1866
 6340SOL     OW30478   0.118   2.317   7.799 -0.1802 -0.4869 -0.4429
 6340SOL    HW130479   0.169   2.280   7.872 -1.4681  1.1710  1.2998
 6340SOL    HW230480   0.171   2.389   7.763  2.5195 -2.3283 -0.1781
 6341SOL     OW30481   1.889   1.184   5.609  0.1093  0.2476 -0.3199
 6341SOL    HW130482   1.910   1.226   5.526 -1.9099  1.3640 -0.2525
 6341SOL    HW230483   1.904   1.263   5.661  1.4700  0.0568 -0.4203
 6342SOL     OW30484   4.183   4.231   6.747 -0.1267  0.2333  0.3513
 6342SOL    HW130485   4.222   4.149   6.718  0.5125  0.1536  1.4080
 6342SOL    HW230486   4.089   4.214   6.738 -0.2166 -0.6375  2.9107
 6343SOL     OW30487   1.126   0.588   1.790  0.4818 -0.4980  0.3223
 6343SOL    HW130488   1.102   0.507   1.745 -1.2513 -0.3850  1.0346
 6343SOL    HW230489   1.125   0.658   1.725 -2.3993 -1.4109 -0.6049
 6344SOL     OW30490   0.174   2.492   4.131 -0.8489 -0.0943 -0.1602
 6344SOL    HW130491   0.195   2.536   4.213 -0.8871 -0.3777  0.0017
 6344SOL    HW230492   0.263   2.463   4.108 -0.1451  0.6207  1.6637
 6345SOL     OW30493   1.468   0.995  15.389  0.1845  0.2496  0.5255
 6345SOL    HW130494   1.532   0.933  15.352 -0.3738  1.6585 -2.7907
 6345SOL    HW230495   1.506   1.010  15.475 -1.7303 -0.4941  1.5053
 6346SOL     OW30496   1.011   3.973   7.675 -0.1358  0.0185 -0.2771
 6346SOL    HW130497   0.985   4.004   7.588 -3.2372 -1.3215  0.1417
 6346SOL    HW230498   1.034   4.056   7.718 -1.3336  0.3837 -0.3203
 6347SOL     OW30499   3.244   0.236  13.360  0.3980  0.2336 -0.0395
 6347SOL    HW130500   3.237   0.185  13.279  0.2495  0.3035 -0.0729
 6347SOL    HW230501   3.262   0.155  13.406  1.4821  0.0413 -0.7933
 6348SOL     OW30502   1.273   2.342   7.244  0.3587 -0.2620  0.2812
 6348SOL    HW130503   1.316   2.376   7.166 -1.2524  0.8052 -0.1254
 6348SOL    HW230504   1.184   2.333   7.211  0.3191  1.5531 -0.1307
 6349SOL     OW30505   1.161   3.102   8.890  0.5821 -0.5008 -0.2733
 6349SOL    HW130506   1.169   3.195   8.867 -1.2716 -0.6215 -1.4542
 6349SOL    HW230507   1.098   3.078   8.822  0.8043 -0.7427 -0.3900
 6350SOL     OW30508   1.347   2.735   4.093 -0.1189  0.1298  0.7905
 6350SOL    HW130509   1.267   2.683   4.106 -0.2622 -0.1825 -1.4209
 6350SOL    HW230510   1.333   2.771   4.006  0.5024  0.5478  0.8634
 6351SOL     OW30511   0.251   2.999   8.951 -0.8688  0.9254  0.0045
 6351SOL    HW130512   0.196   3.077   8.955 -0.2433  1.3509  0.3330
 6351SOL    HW230513   0.185   2.935   8.977  2.1537 -2.6763 -1.0998
 6352SOL     OW30514   2.605   2.601   1.794  0.3783  0.7702 -0.6770
 6352SOL    HW130515   2.694   2.637   1.797  0.3866  0.5803  0.8997
 6352SOL    HW230516   2.599   2.559   1.708 -1.1366  0.8754 -0.6085
 6353SOL     OW30517   2.396   3.642   8.951 -0.5713 -0.0877 -0.2883
 6353SOL    HW130518   2.370   3.550   8.948 -4.4099  1.0186 -0.5333
 6353SOL    HW230519   2.398   3.654   9.046 -1.6165 -0.1275 -0.2671
 6354SOL     OW30520   2.921   4.373   6.548  0.3489 -0.1759 -0.5539
 6354SOL    HW130521   2.869   4.437   6.500  2.7908  0.9701 -1.6798
 6354SOL    HW230522   2.986   4.423   6.596  1.4276 -0.5482 -1.6153
 6355SOL     OW30523   3.707   0.971  16.717  0.2967 -0.2243  0.0175
 6355SOL    HW130524   3.684   0.954  16.808  1.2748 -0.7541  0.1586
 6355SOL    HW230525   3.799   0.997  16.722  0.4665 -0.8250  0.0087
 6356SOL     OW30526   3.601   2.000   4.033  0.4234  0.1431 -0.3306
 6356SOL    HW130527   3.666   2.055   3.989 -0.8094  0.1634 -2.1326
 6356SOL    HW230528   3.651   1.919   4.045  1.0606  0.6054  0.1446
 6357SOL     OW30529   0.130   2.037   3.885 -0.4124  0.1256 -0.0568
 6357SOL    HW130530   0.209   2.031   3.831 -0.7598 -0.5549 -0.4978
 6357SOL    HW230531   0.156   2.057   3.975  2.3232 -2.1930 -0.3378
 6358SOL     OW30532   1.332   1.353   5.693  0.2814 -0.6098 -0.0630
 6358SOL    HW130533   1.294   1.331   5.607  0.0986 -0.8981  0.0907
 6358SOL    HW230534   1.293   1.283   5.745  1.1482 -1.2614 -0.2893
 6359SOL     OW30535   4.190   2.396   6.560  0.4602  0.0147 -0.6369
 6359SOL    HW130536   4.279   2.382   6.527  0.9156 -1.0699  1.0434
 6359SOL    HW230537   4.136   2.345   6.499  0.4417  0.2855 -0.8475
 6360SOL     OW30538   1.011   1.275   3.845  0.2699 -0.0336  0.0959
 6360SOL    HW130539   1.088   1.326   3.871  0.6904 -0.4798 -0.2603
 6360SOL    HW230540   0.947   1.344   3.829 -0.0873 -0.0514  1.4808
 6361SOL     OW30541   4.364   4.278   5.973 -0.5788 -0.0635  0.1681
 6361SOL    HW130542   4.307   4.307   6.045  0.4640  0.1577  0.9051
 6361SOL    HW230543   4.351   4.344   5.904  3.5257  0.2466 -0.2830
 6362SOL     OW30544   1.108   2.576   5.014 -0.3348 -0.2431 -0.0371
 6362SOL    HW130545   1.058   2.653   5.042  0.8389  1.1336 -1.7234
 6362SOL    HW230546   1.078   2.518   5.083 -1.0396  1.1863  0.8530
 6363SOL     OW30547   2.261   3.170   9.421 -0.3879 -0.3045 -0.0231
 6363SOL    HW130548   2.312   3.217   9.487 -0.5418  0.7474 -0.6486
 6363SOL    HW230549   2.179   3.219   9.430  0.2057  0.5445  0.8461
 6364SOL     OW30550   2.950   0.510   9.560  0.3730 -0.0141 -0.0974
 6364SOL    HW130551   2.948   0.597   9.519  1.0058  0.0120 -0.0729
 6364SOL    HW230552   3.015   0.527   9.628 -0.5097  2.0805  0.2349
 6365SOL     OW30553   2.858   4.497  11.366  0.0032  0.1773  0.6336
 6365SOL    HW130554   2.903   4.582  11.373 -0.1381  0.4112 -1.1798
 6365SOL    HW230555   2.796   4.508  11.438  1.5683  1.1886  1.8198
 6366SOL     OW30556   3.037   3.227   7.682  0.3653 -0.0301  0.2408
 6366SOL    HW130557   3.092   3.220   7.760  0.4339  0.6691  0.2598
 6366SOL    HW230558   3.105   3.242   7.616  2.3242 -2.3693  1.7378
 6367SOL     OW30559   4.493   0.914   5.575  0.3174  0.3462  0.2126
 6367SOL    HW130560   4.579   0.952   5.591  0.1827  0.8011 -0.0994
 6367SOL    HW230561   4.478   0.857   5.650 -2.9034 -1.5842 -1.9081
 6368SOL     OW30562   1.315   3.588  17.439 -0.3905 -0.3068 -0.0849
 6368SOL    HW130563   1.278   3.502  17.421  3.3039 -2.1369  0.9215
 6368SOL    HW230564   1.245   3.648  17.415  0.6410  1.8895  2.3277
 6369SOL     OW30565   2.427   2.991   4.884 -0.3880 -0.0870  0.2650
 6369SOL    HW130566   2.513   3.023   4.912  0.5312 -2.5046  0.1740
 6369SOL    HW230567   2.448   2.923   4.820 -1.3039 -1.1425  1.0859
 6370SOL     OW30568   0.836   4.601   4.299 -0.0866  0.1706  0.0123
 6370SOL    HW130569   0.880   4.566   4.221 -0.2173 -0.4971  0.2422
 6370SOL    HW230570   0.874   4.557   4.375 -1.5992 -0.5244  0.3661
 6371SOL     OW30571   4.713   3.753   5.918 -0.3512  0.1064 -0.7160
 6371SOL    HW130572   4.629   3.762   5.964 -0.9592 -0.6932 -1.6801
 6371SOL    HW230573   0.035   3.720   5.995 -3.2658  0.0702  1.0712
 6372SOL     OW30574   2.347   2.146   0.137  0.2492 -0.1315 -1.0405
 6372SOL    HW130575   2.334   2.123   0.045 -0.1911 -0.9813 -0.7629
 6372SOL    HW230576   2.442   2.146   0.145  0.3421  1.8718 -1.9227
 6373SOL     OW30577   3.813   2.591  12.591 -0.1401 -0.5193 -0.5084
 6373SOL    HW130578   3.898   2.547  12.584 -0.4399 -1.1557 -0.0977
 6373SOL    HW230579   3.828   2.670  12.538  0.8346 -0.7075 -0.5194
 6374SOL     OW30580   3.794   2.134   2.311 -0.1096  0.0021 -0.2695
 6374SOL    HW130581   3.736   2.134   2.235 -0.5976 -0.6186  0.1011
 6374SOL    HW230582   3.819   2.041   2.319 -1.4851 -0.2936  0.5157
 6375SOL     OW30583   3.907   3.610   3.514 -0.9205  0.1636  0.1165
 6375SOL    HW130584   3.934   3.572   3.597 -1.5632 -1.1525 -0.2746
 6375SOL    HW230585   3.857   3.536   3.479 -0.8582 -0.1703  0.7365
 6376SOL     OW30586   1.202   1.469   3.294 -0.2796 -0.0862  0.0003
 6376SOL    HW130587   1.138   1.540   3.300  1.1164  0.9535  2.0847
 6376SOL    HW230588   1.281   1.521   3.302  0.0745 -0.7048  0.5327
 6377SOL     OW30589   1.693   4.654   0.115 -0.4413  0.2860 -0.0577
 6377SOL    HW130590   1.653   4.698   0.040  0.3322  0.8896 -0.1168
 6377SOL    HW230591   1.678   4.716   0.186  1.6138 -0.1801  0.7822
 6378SOL     OW30592   3.517   2.906  12.949  0.1484  0.2901 -0.7756
 6378SOL    HW130593   3.424   2.888  12.957  0.2209  0.1991 -0.1559
 6378SOL    HW230594   3.540   2.948  13.032  1.4997 -1.7118 -0.1421
 6379SOL     OW30595   1.784   3.504   1.255 -0.3938 -0.3798  0.5849
 6379SOL    HW130596   1.842   3.541   1.322 -0.9406  2.3566 -0.4393
 6379SOL    HW230597   1.714   3.469   1.310 -2.0310  2.0821  0.0936
 6380SOL     OW30598   3.785   0.479   4.039 -0.1803 -0.7242 -0.8045
 6380SOL    HW130599   3.814   0.387   4.036  0.0706 -0.6585 -0.2084
 6380SOL    HW230600   3.834   0.522   4.109  0.1492 -1.0732 -0.8201
 6381SOL     OW30601   1.460   3.051   6.016 -0.1378 -0.1565  0.3119
 6381SOL    HW130602   1.438   2.990   6.086  1.1508  0.1160  0.9650
 6381SOL    HW230603   1.373   3.049   5.976  0.2986 -0.8703 -0.5743
 6382SOL     OW30604   2.626   2.795   1.522 -0.0700  0.0108 -0.0769
 6382SOL    HW130605   2.564   2.776   1.453 -0.6681 -1.1181  0.7675
 6382SOL    HW230606   2.669   2.713   1.546  0.4356  0.2350 -0.2132
 6383SOL     OW30607   3.851   0.444   8.225  0.3812 -0.0475  0.1401
 6383SOL    HW130608   3.767   0.489   8.214  0.7883  0.6998  0.0705
 6383SOL    HW230609   3.825   0.352   8.230 -0.4666  0.1750 -0.2223
 6384SOL     OW30610   3.151   4.573   7.503  0.4426 -0.5248  0.9648
 6384SOL    HW130611   3.115   4.595   7.417  1.6991 -1.3920  0.2160
 6384SOL    HW230612   3.227   4.521   7.478 -1.2323 -1.8741 -1.2973
 6385SOL     OW30613   2.382   3.565   1.275 -0.2465 -0.4501  0.2363
 6385SOL    HW130614   2.474   3.541   1.266 -0.7193 -2.1341 -0.1106
 6385SOL    HW230615   2.343   3.500   1.217  0.5985 -1.5358  0.9056
 6386SOL     OW30616   3.536   0.844  15.539  0.1608 -0.3193  0.2698
 6386SOL    HW130617   3.622   0.831  15.577  1.0721  1.5564 -1.1615
 6386SOL    HW230618   3.488   0.876  15.616  2.6679  3.3608  0.3106
 6387SOL     OW30619   0.876   2.051  10.629 -0.3236  0.6473  0.4624
 6387SOL    HW130620   0.866   2.139  10.593  0.6288 -0.0459 -1.4694
 6387SOL    HW230621   0.946   2.022  10.572 -0.3023  2.4915 -0.4405
 6388SOL     OW30622   3.637   4.059   0.295  0.2602 -0.6846 -0.3192
 6388SOL    HW130623   3.680   4.072   0.379 -3.0018 -0.2653  1.2855
 6388SOL    HW230624   3.703   4.112   0.251  0.9587 -0.5557  0.8712
 6389SOL     OW30625   1.787   0.473   8.495 -0.0637 -0.2129 -0.0546
 6389SOL    HW130626   1.755   0.384   8.502 -0.8695 -0.1982 -3.7946
 6389SOL    HW230627   1.750   0.511   8.575 -1.4646 -0.1951 -0.7089
 6390SOL     OW30628   2.460   1.555   5.750  0.5792 -0.5108  0.0612
 6390SOL    HW130629   2.506   1.487   5.798  2.0185  0.3724 -0.0775
 6390SOL    HW230630   2.400   1.588   5.816  0.1516  1.8141 -1.4680
 6391SOL     OW30631   2.692   0.577   1.835  0.5185  0.1185  0.3058
 6391SOL    HW130632   2.622   0.552   1.896 -0.2148  2.3952  0.3821
 6391SOL    HW230633   2.680   0.672   1.829  2.3186  0.2922 -0.3664
 6392SOL     OW30634   2.092   3.792   5.376  0.0964  0.8761 -0.4999
 6392SOL    HW130635   2.046   3.751   5.303  1.3046  2.2150 -1.9922
 6392SOL    HW230636   2.181   3.761   5.359  0.5341  2.1506 -0.5158
 6393SOL     OW30637   3.813   1.934  17.238  0.2091 -0.2346  0.7182
 6393SOL    HW130638   3.818   2.011  17.295  1.5958 -0.4311  0.8561
 6393SOL    HW230639   3.781   1.870  17.302  3.1001  1.0033  3.4449
 6394SOL     OW30640   2.134   0.660   1.684  0.6500 -0.0677 -0.1550
 6394SOL    HW130641   2.163   0.703   1.764 -0.2487  0.9982 -0.3850
 6394SOL    HW230642   2.215   0.609   1.680  0.9059  0.3713 -0.6133
 6395SOL     OW30643   3.451   4.338  14.011  0.1884 -0.1622 -0.4208
 6395SOL    HW130644   3.417   4.359  14.098 -1.4969 -1.3014 -0.7940
 6395SOL    HW230645   3.397   4.382  13.945 -1.0398  0.5981  1.0810
 6396SOL     OW30646   2.565   2.778  11.041 -0.1593 -0.3729 -0.4987
 6396SOL    HW130647   2.581   2.869  11.066 -0.1668  0.2949 -2.9319
 6396SOL    HW230648   2.471   2.774  11.058  0.1096  1.0789  1.3510
 6397SOL     OW30649   0.970   0.913   2.431  0.2739 -0.1281  0.4694
 6397SOL    HW130650   0.948   0.998   2.392 -0.6279 -0.7560 -0.3906
 6397SOL    HW230651   0.936   0.858   2.360  0.8842  0.0851  0.0080
 6398SOL     OW30652   0.007   3.503   4.976 -0.2200 -0.2702  0.4265
 6398SOL    HW130653   4.689   3.449   5.041  1.3291  0.2915  1.9169
 6398SOL    HW230654   4.665   3.520   4.910  2.2955  4.1560 -1.0258
 6399SOL     OW30655   1.233   0.829   4.759  0.6019 -0.2845  0.1542
 6399SOL    HW130656   1.147   0.836   4.717  1.0181  0.0716 -0.6270
 6399SOL    HW230657   1.245   0.908   4.811  1.2425 -0.4435  0.2391
 6400SOL     OW30658   2.195   2.606   5.744  0.0163  0.1693 -0.2917
 6400SOL    HW130659   2.222   2.597   5.836 -0.6891 -0.0032 -0.1018
 6400SOL    HW230660   2.136   2.530   5.743 -0.4375  0.5795 -2.6813
 6401SOL     OW30661   2.960   0.060   2.211  0.0292  0.2458  0.5327
 6401SOL    HW130662   3.007   0.000   2.153 -1.1577 -1.4262  1.3109
 6401SOL    HW230663   2.876   0.015   2.216  0.5357 -0.6851  0.6931
 6402SOL     OW30664   4.653   3.486   5.490  0.3349 -0.7464 -0.0342
 6402SOL    HW130665   0.014   3.454   5.512  1.0759 -0.9234 -3.2742
 6402SOL    HW230666   4.628   3.540   5.565 -0.6611 -1.7280  0.3443
 6403SOL     OW30667   1.060   2.180   5.555 -0.2843  0.2929  0.1716
 6403SOL    HW130668   1.048   2.274   5.546 -0.1684  0.2548 -0.3612
 6403SOL    HW230669   1.044   2.139   5.470  2.6404 -0.9248  0.2076
 6404SOL     OW30670   4.108   3.247   2.222 -0.2467 -0.1316  0.4818
 6404SOL    HW130671   4.034   3.305   2.200 -1.3716 -1.8535 -0.3443
 6404SOL    HW230672   4.085   3.170   2.169  0.1637 -0.1906  0.3912
 6405SOL     OW30673   3.742   4.689  16.161  0.4876 -0.2274  0.0102
 6405SOL    HW130674   3.806   4.660  16.225 -0.7662 -2.3627  0.2705
 6405SOL    HW230675   3.702   4.607  16.132 -1.0628  1.1783 -1.8684
 6406SOL     OW30676   3.234   3.687   9.491 -0.5792  0.6021 -0.1601
 6406SOL    HW130677   3.227   3.741   9.570 -2.4188  0.6686 -0.3683
 6406SOL    HW230678   3.175   3.613   9.509 -0.6125  0.6828  0.0547
 6407SOL     OW30679   4.668   3.695  13.067  0.2679 -0.8640 -0.0275
 6407SOL    HW130680   0.034   3.692  13.038 -0.2080 -1.5790 -1.4380
 6407SOL    HW230681   4.649   3.601  13.065 -1.7061 -0.4982  1.5778
 6408SOL     OW30682   2.722   4.217  13.037 -0.4334  0.4851  0.3946
 6408SOL    HW130683   2.632   4.189  13.020 -0.7159 -0.0813  2.7193
 6408SOL    HW230684   2.743   4.240  12.947 -2.3147  0.4323 -0.0573
 6409SOL     OW30685   3.273   1.673   5.958 -0.0454 -0.3731 -0.4922
 6409SOL    HW130686   3.191   1.691   5.912 -0.1158 -0.7700 -0.5202
 6409SOL    HW230687   3.325   1.633   5.888 -0.5240 -1.0182 -0.4742
 6410SOL     OW30688   2.052   0.803   6.189  0.2469  0.5478  0.1225
 6410SOL    HW130689   1.960   0.778   6.196  1.0463 -2.7096 -1.0029
 6410SOL    HW230690   2.079   0.734   6.128  0.6226  1.2389 -0.4877
 6411SOL     OW30691   3.969   3.592  14.392 -0.7794  0.2355 -0.2603
 6411SOL    HW130692   3.883   3.554  14.409 -0.2015 -1.1325 -0.3857
 6411SOL    HW230693   3.956   3.682  14.420 -2.4658 -0.1858  0.3144
 6412SOL     OW30694   3.163   4.339  14.352 -0.1654 -0.3085 -0.1454
 6412SOL    HW130695   3.247   4.358  14.310  0.0169  0.6204  0.6330
 6412SOL    HW230696   3.148   4.432  14.371  1.3023 -0.6592  2.6882
 6413SOL     OW30697   0.333   3.818  12.758  0.1209 -0.2072 -0.1139
 6413SOL    HW130698   0.305   3.803  12.668 -1.0450 -0.3701  0.2790
 6413SOL    HW230699   0.351   3.912  12.753  0.1705 -0.3159 -1.9051
 6414SOL     OW30700   2.820   2.001   4.927  0.0078  0.2020 -0.5210
 6414SOL    HW130701   2.785   1.975   5.012  1.0483  1.3640  0.2663
 6414SOL    HW230702   2.739   2.009   4.878 -0.7988  0.2684  0.8284
 6415SOL     OW30703   4.352   2.919   6.468  0.0283  0.4184 -0.0067
 6415SOL    HW130704   4.381   3.010   6.461 -2.7306  1.4346  1.6727
 6415SOL    HW230705   4.432   2.878   6.500  0.8942  0.5847 -1.9583
 6416SOL     OW30706   2.307   3.092   5.156 -0.2360 -0.0835  0.4802
 6416SOL    HW130707   2.310   3.047   5.072 -2.3088  0.6863  0.0043
 6416SOL    HW230708   2.400   3.082   5.176 -0.7889 -1.3438  2.4123
 6417SOL     OW30709   0.227   4.448  13.272  0.2073 -0.5551 -0.2421
 6417SOL    HW130710   0.292   4.403  13.219  2.1860 -1.6402  3.1636
 6417SOL    HW230711   0.160   4.381  13.282  0.3652 -0.4671  1.4058
 6418SOL     OW30712   1.221   3.952   4.121  0.1246  0.3225  0.0933
 6418SOL    HW130713   1.223   3.959   4.217  2.0006  0.0295  0.0640
 6418SOL    HW230714   1.181   4.036   4.095 -2.0281  0.0590  2.4877
 6419SOL     OW30715   1.884   0.886   8.755 -0.6955  0.3113  0.8775
 6419SOL    HW130716   1.818   0.907   8.821  0.8132  0.3161  2.3901
 6419SOL    HW230717   1.895   0.791   8.759  2.5921  0.5825 -1.3045
 6420SOL     OW30718   3.427   4.359   3.349 -0.6494 -0.6944  0.0657
 6420SOL    HW130719   3.384   4.381   3.431 -0.2216  0.0743  0.0879
 6420SOL    HW230720   3.429   4.263   3.349 -0.1118 -0.6883 -0.4454
 6421SOL     OW30721   3.341   1.177   3.732  0.1115 -0.7408  0.1715
 6421SOL    HW130722   3.374   1.175   3.642 -0.1451 -1.9029  0.1003
 6421SOL    HW230723   3.359   1.086   3.756  0.5938 -0.7098 -0.0593
 6422SOL     OW30724   4.486   1.935   5.929 -0.1062  0.2950 -0.2781
 6422SOL    HW130725   4.447   2.004   5.983 -0.5023 -0.1572  0.0114
 6422SOL    HW230726   4.483   1.974   5.842  0.1594  0.5890 -0.1572
 6423SOL     OW30727   3.018   3.690   5.639 -0.2107 -0.2712 -0.1425
 6423SOL    HW130728   3.058   3.736   5.713 -2.6656  0.4132  0.7504
 6423SOL    HW230729   3.081   3.712   5.571 -2.1041 -3.6113 -2.9301
 6424SOL     OW30730   3.412   0.904  13.024  0.0413  0.0774  0.2289
 6424SOL    HW130731   3.423   0.809  13.027  0.0400  0.1019  0.9917
 6424SOL    HW230732   3.501   0.934  13.042 -0.3078  2.6569 -2.2752
 6425SOL     OW30733   2.684   1.478   2.185 -0.2377 -0.1811  0.2614
 6425SOL    HW130734   2.699   1.383   2.193  1.2853 -0.0022 -0.5184
 6425SOL    HW230735   2.773   1.512   2.185 -0.0804 -0.5721 -1.3013
 6426SOL     OW30736   2.177   1.799  16.329 -0.5495 -0.7069 -0.0781
 6426SOL    HW130737   2.169   1.846  16.412 -3.3791 -1.7030  0.1797
 6426SOL    HW230738   2.086   1.796  16.300 -0.0889 -2.1016 -1.3619
 6427SOL     OW30739   3.398   0.616  13.058  0.3095  0.4182 -0.2334
 6427SOL    HW130740   3.470   0.574  13.105  0.6498  1.3536  0.0956
 6427SOL    HW230741   3.321   0.578  13.101  0.5614 -3.0383 -2.9109
 6428SOL     OW30742   2.468   2.968  14.536  0.8226  0.0391  0.1585
 6428SOL    HW130743   2.456   3.042  14.477  2.3848 -0.0708 -0.3038
 6428SOL    HW230744   2.393   2.912  14.521  0.9249  0.4962 -1.9815
 6429SOL     OW30745   3.448   4.715   1.838  0.2891  0.8129  0.4823
 6429SOL    HW130746   3.508   0.050   1.880  1.4059 -0.2585  0.4187
 6429SOL    HW230747   3.490   4.683   1.759  0.3701  1.0806  0.4163
 6430SOL     OW30748   0.293   0.956   9.551  0.4706 -0.4687 -0.1253
 6430SOL    HW130749   0.237   1.014   9.499  0.3457  0.9752  1.6223
 6430SOL    HW230750   0.301   1.012   9.629  2.7899 -0.8591 -0.0738
 6431SOL     OW30751   3.982   4.270   4.358  0.2710 -0.4064  0.2910
 6431SOL    HW130752   4.041   4.288   4.431  0.7236  0.3095 -0.2542
 6431SOL    HW230753   3.925   4.347   4.352 -0.3045 -0.7508  1.2388
 6432SOL     OW30754   4.159   1.412   4.802 -0.3995  0.9114  0.5577
 6432SOL    HW130755   4.254   1.416   4.793 -0.3117  1.0601  1.5531
 6432SOL    HW230756   4.153   1.320   4.777 -2.8489  0.9966  0.8723
 6433SOL     OW30757   3.405   3.139  13.428 -0.1709 -0.5759  0.9037
 6433SOL    HW130758   3.324   3.089  13.414  0.2116 -0.7345 -0.7199
 6433SOL    HW230759   3.374   3.225  13.400 -0.4067 -0.1172  2.5844
 6434SOL     OW30760   0.059   3.716   8.139 -0.3349 -0.2878  0.0281
 6434SOL    HW130761   0.080   3.766   8.061 -4.4830  2.2929  0.5869
 6434SOL    HW230762   0.100   3.777   8.200  0.3778 -0.1756 -0.5594
 6435SOL     OW30763   3.532   3.858   4.376 -0.5541  0.8141  0.7550
 6435SOL    HW130764   3.627   3.858   4.385 -0.3809 -1.6447 -1.2512
 6435SOL    HW230765   3.512   3.843   4.284 -0.2465  0.0987  0.8095
 6436SOL     OW30766   2.787   0.199  15.465 -0.1451 -0.1873 -0.0284
 6436SOL    HW130767   2.748   0.284  15.484  1.3011  0.6878 -1.0440
 6436SOL    HW230768   2.877   0.228  15.453  0.4064 -0.9052  2.3627
 6437SOL     OW30769   3.041   1.759   4.539  0.2917 -0.4387  0.6013
 6437SOL    HW130770   3.127   1.779   4.503  0.7744 -1.3562  1.2467
 6437SOL    HW230771   2.991   1.785   4.461  1.2348  0.8583  0.4164
 6438SOL     OW30772   3.180   4.155   4.244 -0.0710  0.5559  0.2812
 6438SOL    HW130773   3.103   4.201   4.212 -1.8590 -1.2617  1.9580
 6438SOL    HW230774   3.241   4.215   4.201  1.7470  0.5664  2.8400
 6439SOL     OW30775   4.533   2.383   1.081  0.4324  0.0565 -0.3744
 6439SOL    HW130776   4.602   2.363   1.145  1.8341  0.6214 -1.7020
 6439SOL    HW230777   4.473   2.438   1.129  1.6219 -0.5527  1.8111
 6440SOL     OW30778   3.718   1.347  14.603 -0.1333 -0.4891 -0.1652
 6440SOL    HW130779   3.641   1.304  14.642 -1.1007  2.0487  0.7274
 6440SOL    HW230780   3.694   1.440  14.612  3.3296  0.4868 -1.1755
 6441SOL     OW30781   1.445   4.357   6.168  0.4796 -0.0227  0.1546
 6441SOL    HW130782   1.379   4.426   6.158 -0.8411 -1.3092  0.1016
 6441SOL    HW230783   1.531   4.398   6.153  0.6430 -0.2758  0.4087
 6442SOL     OW30784   4.465   0.659   6.795  0.0006 -0.2279  0.2077
 6442SOL    HW130785   4.459   0.734   6.855 -0.3004  1.7576 -2.3204
 6442SOL    HW230786   4.561   0.654   6.790  0.1108  0.1696  1.8469
 6443SOL     OW30787   0.992   2.752   5.961  0.2148  0.3633  0.5819
 6443SOL    HW130788   1.052   2.692   6.004 -1.3581  0.2655  2.6442
 6443SOL    HW230789   0.911   2.741   6.010  0.1906 -0.1435  0.4228
 6444SOL     OW30790   3.899   4.464  16.634 -0.5738 -0.3634  0.4070
 6444SOL    HW130791   3.958   4.447  16.707  0.8963 -0.0928 -0.7258
 6444SOL    HW230792   3.925   4.410  16.560  2.2949 -0.7585  1.7263
 6445SOL     OW30793   1.416   1.721  11.311  0.3108 -0.3523 -0.1189
 6445SOL    HW130794   1.470   1.799  11.323 -0.6687  0.2243  0.4992
 6445SOL    HW230795   1.388   1.738  11.221  1.8310  0.1109 -0.5067
 6446SOL     OW30796   4.384   3.476  17.526 -0.4383  0.4270 -0.2337
 6446SOL    HW130797   4.343   3.560  17.507  1.7582  1.1164 -1.9963
 6446SOL    HW230798   4.363   3.425  17.448  1.2792  1.9892 -1.7236
 6447SOL     OW30799   0.016   0.170   0.671 -0.5515  0.1777 -0.5686
 6447SOL    HW130800   4.676   0.239   0.657 -0.8583 -0.2715 -1.3370
 6447SOL    HW230801   0.092   0.228   0.676  0.0352 -0.6960  0.7259
 6448SOL     OW30802   0.034   4.208   6.385 -0.1137  0.4718  0.0998
 6448SOL    HW130803   0.017   4.192   6.478  1.5653 -0.9256  0.1536
 6448SOL    HW230804   0.127   4.222   6.403 -0.0419 -1.3049  1.1358
 6449SOL     OW30805   3.547   3.205   6.345 -0.0397 -0.5338  0.2250
 6449SOL    HW130806   3.604   3.127   6.344  0.3288 -0.2545 -0.6387
 6449SOL    HW230807   3.481   3.171   6.405  1.1793 -1.8925  0.7977
 6450SOL     OW30808   2.620   3.136   9.833 -0.1257 -0.2770 -0.2871
 6450SOL    HW130809   2.645   3.188   9.910 -0.7226 -1.1629  0.5103
 6450SOL    HW230810   2.672   3.172   9.762  0.5256 -0.8135 -0.0845
 6451SOL     OW30811   1.666   2.676  17.523  0.6395 -0.2284  0.1413
 6451SOL    HW130812   1.596   2.615  17.547 -0.0089  0.6204  0.4134
 6451SOL    HW230813   1.653   2.691  17.430 -0.0622  0.9372  0.4296
 6452SOL     OW30814   4.201   0.092   3.755  0.7465  0.3276  0.0230
 6452SOL    HW130815   4.168   0.146   3.683  0.7215  0.6992  0.3097
 6452SOL    HW230816   4.142   0.018   3.764  0.3383  0.5204 -1.0891
 6453SOL     OW30817   2.324   1.732  10.027  0.1577  1.0409 -0.2915
 6453SOL    HW130818   2.335   1.822   9.997 -1.1060  1.4374  0.4444
 6453SOL    HW230819   2.281   1.749  10.111 -0.5554 -1.5725 -0.1107
 6454SOL     OW30820   2.260   2.849  14.764  0.3208 -0.2852  0.2810
 6454SOL    HW130821   2.298   2.810  14.686  2.3549  1.4765  0.3952
 6454SOL    HW230822   2.339   2.857  14.817 -0.9464  0.9453  2.0003
 6455SOL     OW30823   3.400   4.659  10.434  0.2792 -0.7997  0.1208
 6455SOL    HW130824   3.375   4.720  10.504 -2.1883 -1.0797 -0.5120
 6455SOL    HW230825   3.319   4.677  10.386 -0.5869 -1.6675  1.2462
 6456SOL     OW30826   0.399   0.776   2.650  0.2999  0.1753  0.5745
 6456SOL    HW130827   0.474   0.728   2.615 -0.8113 -0.8144 -0.4879
 6456SOL    HW230828   0.407   0.757   2.743  2.0180  0.0505  0.3943
 6457SOL     OW30829   4.187   1.837  12.430  0.0087  0.1421 -0.3421
 6457SOL    HW130830   4.161   1.878  12.513  0.9183  0.8858 -0.4251
 6457SOL    HW230831   4.269   1.885  12.415  0.1756 -0.2808 -0.7651
 6458SOL     OW30832   1.315   3.537   7.078 -0.1931  0.3729 -0.0410
 6458SOL    HW130833   1.223   3.543   7.101 -0.0648 -3.5319  1.5030
 6458SOL    HW230834   1.348   3.478   7.147 -0.4200 -0.9449 -1.0617
 6459SOL     OW30835   0.496   0.525  14.077  0.1629  0.3722 -0.0532
 6459SOL    HW130836   0.558   0.555  14.010  1.2476 -0.2267  0.6901
 6459SOL    HW230837   0.549   0.480  14.143  0.9210 -0.1774 -1.0379
 6460SOL     OW30838   2.392   4.025   7.908  0.0135  0.0437 -0.2824
 6460SOL    HW130839   2.481   3.991   7.899  0.3603  1.2495 -1.3011
 6460SOL    HW230840   2.393   4.054   7.999 -0.0920  0.5903 -0.4576
 6461SOL     OW30841   1.391   1.913   5.069 -0.1758  0.3388  0.0248
 6461SOL    HW130842   1.433   1.827   5.061 -1.2503 -0.2817  1.1541
 6461SOL    HW230843   1.335   1.892   5.143  2.2185 -1.7942  1.2421
 6462SOL     OW30844   2.285   3.931   5.621  0.0547 -0.8052  0.0634
 6462SOL    HW130845   2.359   3.988   5.643 -1.1818  0.7818  0.0230
 6462SOL    HW230846   2.315   3.899   5.536  1.1950 -0.4506  0.3227
 6463SOL     OW30847   4.411   4.676   6.085  0.2160 -0.6961 -0.0701
 6463SOL    HW130848   4.499   4.697   6.116 -0.6463 -0.8551  2.4685
 6463SOL    HW230849   4.417   4.705   5.994  0.9237  1.0657  0.5364
 6464SOL     OW30850   4.723   0.094  16.468 -0.3384  0.0699 -0.0120
 6464SOL    HW130851   4.657   0.033  16.435 -0.3774 -0.9270  1.9009
 6464SOL    HW230852   0.072   0.062  16.418 -0.1637  2.9008 -1.5216
 6465SOL     OW30853   1.462   3.056   4.004 -0.3389 -0.1302  0.1938
 6465SOL    HW130854   1.510   2.974   4.013 -2.1023 -1.1668  0.0549
 6465SOL    HW230855   1.487   3.060   3.912  0.0563  0.1845  0.3133
 6466SOL     OW30856   2.511   2.044   8.285  0.0815 -0.5409 -0.0789
 6466SOL    HW130857   2.533   1.962   8.241  2.0336  0.7046 -1.4792
 6466SOL    HW230858   2.494   2.100   8.209 -1.8553  0.0114  0.7514
 6467SOL     OW30859   3.662   0.908  13.130 -0.0163 -0.3052  0.0882
 6467SOL    HW130860   3.660   0.846  13.203  1.6574 -1.4764 -0.8605
 6467SOL    HW230861   3.745   0.953  13.142  0.4947 -0.1505 -3.9730
 6468SOL     OW30862   3.961   4.031   5.217 -0.1557  0.7135  0.2710
 6468SOL    HW130863   3.976   3.939   5.196  1.7619  1.5321 -1.9720
 6468SOL    HW230864   3.890   4.023   5.281  1.4840  1.1321  2.1513
 6469SOL     OW30865   3.062   1.648   7.784 -0.1423 -0.3341 -0.4313
 6469SOL    HW130866   3.044   1.702   7.861 -3.5138 -0.5998 -1.0648
 6469SOL    HW230867   3.158   1.652   7.792 -0.3494  0.5962  1.6370
 6470SOL     OW30868   4.183   2.872   3.036  0.0962 -0.2569  0.0700
 6470SOL    HW130869   4.208   2.963   3.018 -0.7500 -0.1145 -0.3845
 6470SOL    HW230870   4.099   2.873   2.991  0.0203  0.9365  0.2331
 6471SOL     OW30871   3.842   3.359   5.003 -0.1744  0.0255  0.9237
 6471SOL    HW130872   3.859   3.431   5.064  1.6597  0.9278 -0.6389
 6471SOL    HW230873   3.908   3.384   4.938 -0.1732 -0.7221  0.6406
 6472SOL     OW30874   2.287   2.112  16.564 -0.1821  0.0951 -0.0818
 6472SOL    HW130875   2.295   2.205  16.543 -2.5280  0.3515  0.1603
 6472SOL    HW230876   2.328   2.085  16.482  1.1571  1.6507  0.0681
 6473SOL     OW30877   4.038   1.181  12.528 -0.3428  0.0655  0.2427
 6473SOL    HW130878   3.975   1.251  12.544 -0.2595 -0.0183  0.9552
 6473SOL    HW230879   4.118   1.231  12.542  1.0835 -1.9851 -0.5608
 6474SOL     OW30880   0.936   3.416   8.780 -0.1198 -0.0795 -0.3025
 6474SOL    HW130881   0.878   3.401   8.855 -0.9880 -0.2877 -1.0096
 6474SOL    HW230882   0.891   3.494   8.747 -0.5568 -0.3254 -0.2941
 6475SOL     OW30883   4.353   2.118   9.914 -0.5016 -0.5548 -0.4628
 6475SOL    HW130884   4.349   2.164   9.830 -0.5853 -0.0442 -0.1723
 6475SOL    HW230885   4.382   2.029   9.893  3.0393  0.6808 -0.8148
 6476SOL     OW30886   0.111   2.813   6.445  0.3390  0.1020  0.4384
 6476SOL    HW130887   0.160   2.891   6.418  0.2803 -0.2002 -0.5544
 6476SOL    HW230888   0.185   2.764   6.479  1.9582  2.9315  0.9917
 6477SOL     OW30889   3.305   4.132  15.266  0.0854 -0.0278 -0.1307
 6477SOL    HW130890   3.347   4.081  15.197  0.0009 -1.3474  0.8033
 6477SOL    HW230891   3.308   4.065  15.334  0.5126  2.0707  1.8953
 6478SOL     OW30892   0.288   1.304   1.551  0.2109 -0.1541  0.3494
 6478SOL    HW130893   0.274   1.210   1.536 -1.6932  0.1374  0.1862
 6478SOL    HW230894   0.313   1.306   1.643  0.1747 -0.6802  0.3743
 6479SOL     OW30895   4.465   3.729   8.941  0.0041  0.3594  0.4789
 6479SOL    HW130896   4.392   3.729   9.003 -0.5697  0.9228 -0.2102
 6479SOL    HW230897   4.509   3.812   8.961 -0.5880  0.5513  0.9899
 6480SOL     OW30898   0.222   1.648   0.215  0.2230 -0.3652 -0.0115
 6480SOL    HW130899   0.315   1.638   0.233  0.1418 -0.0371  0.6061
 6480SOL    HW230900   0.202   1.574   0.272 -2.7585  0.1808 -0.3554
 6481SOL     OW30901   3.222   4.469   8.273 -0.0311  0.3105  0.2391
 6481SOL    HW130902   3.231   4.416   8.193  0.2100 -0.6466  0.9078
 6481SOL    HW230903   3.164   4.412   8.324 -1.0123  1.0344 -0.0778
 6482SOL     OW30904   3.172   1.473   8.249  0.4762  0.0758  0.3893
 6482SOL    HW130905   3.207   1.438   8.330 -0.0837  2.5707  1.6959
 6482SOL    HW230906   3.251   1.458   8.197  0.1951 -0.9089  0.2328
 6483SOL     OW30907   3.581   0.512  13.218  0.0680 -0.0769  0.2785
 6483SOL    HW130908   3.635   0.570  13.272  1.4239  1.5201 -2.7484
 6483SOL    HW230909   3.631   0.432  13.231 -0.0952 -0.4252 -1.2236
 6484SOL     OW30910   0.654   3.842  11.926  0.2043  0.7106 -0.7436
 6484SOL    HW130911   0.670   3.901  11.853 -1.3547  0.0236 -1.6521
 6484SOL    HW230912   0.744   3.813  11.940 -0.6481 -0.9439  1.4568
 6485SOL     OW30913   3.409   3.476   9.451  0.6188 -0.0428  0.1802
 6485SOL    HW130914   3.458   3.520   9.520 -0.8127 -1.1858  1.9365
 6485SOL    HW230915   3.373   3.557   9.416 -0.9166 -0.5454  0.6051
 6486SOL     OW30916   4.129   3.106  13.228 -0.4916  0.2574  0.4099
 6486SOL    HW130917   4.168   3.144  13.307 -3.0006  0.8036  1.3698
 6486SOL    HW230918   4.039   3.091  13.257 -0.7823 -2.6453 -1.9430
 6487SOL     OW30919   1.156   3.052  10.296 -0.1831 -0.1216 -0.1472
 6487SOL    HW130920   1.061   3.053  10.307 -0.2940 -0.6131 -1.0730
 6487SOL    HW230921   1.195   3.038  10.382 -0.5068 -2.0434 -0.3291
 6488SOL     OW30922   1.570   3.948   5.379 -0.4473 -0.1182  0.3203
 6488SOL    HW130923   1.577   4.035   5.342 -3.3556  1.3392  3.1652
 6488SOL    HW230924   1.625   3.954   5.457  1.8480 -3.2906 -1.0195
 6489SOL     OW30925   3.300   1.205   0.837  0.6214  0.0545 -0.4410
 6489SOL    HW130926   3.249   1.124   0.834 -0.7336  0.8381  1.1178
 6489SOL    HW230927   3.347   1.198   0.920 -1.6463 -0.6774  0.7595
 6490SOL     OW30928   2.002   2.417   0.825  0.0250 -0.4192 -0.3073
 6490SOL    HW130929   1.974   2.374   0.906 -0.1351 -0.8495 -0.5914
 6490SOL    HW230930   1.936   2.482   0.801 -1.7020 -1.6476  1.1599
 6491SOL     OW30931   0.243   2.061   6.514 -0.2504 -0.2628 -0.7775
 6491SOL    HW130932   0.222   2.154   6.528  0.6556 -0.3418  1.0680
 6491SOL    HW230933   0.331   2.056   6.551  0.6411 -2.0667 -3.1516
 6492SOL     OW30934   3.646   0.083  15.078  0.2039  0.0624  0.1987
 6492SOL    HW130935   3.696   0.141  15.020  0.7325  0.4266  1.0218
 6492SOL    HW230936   3.580   0.145  15.109 -1.1309 -0.3498 -1.7647
 6493SOL     OW30937   0.321   4.189   8.862  0.0300 -0.1230 -0.0862
 6493SOL    HW130938   0.276   4.200   8.946 -1.1082  0.0872 -0.7245
 6493SOL    HW230939   0.400   4.142   8.890 -0.8197  0.0150  2.5403
 6494SOL     OW30940   0.911   2.261  13.602 -0.0192  0.3599 -0.4083
 6494SOL    HW130941   0.944   2.350  13.589  1.9256 -0.4901 -1.2507
 6494SOL    HW230942   0.845   2.267  13.671  0.8817  0.9972  0.4072
 6495SOL     OW30943   3.521   1.402   3.442 -0.4475  0.2629 -0.2335
 6495SOL    HW130944   3.589   1.412   3.376  0.8576 -1.3735  0.8793
 6495SOL    HW230945   3.512   1.308   3.426  1.7226  0.0105  0.0348
 6496SOL     OW30946   2.564   0.963   6.228 -0.7455  0.1595 -0.5575
 6496SOL    HW130947   2.586   0.906   6.301  2.0842 -0.0997 -1.6199
 6496SOL    HW230948   2.471   0.938   6.222 -0.6818 -0.5562  1.6259
 6497SOL     OW30949   0.105   3.010   8.197  0.1197  0.1019  0.1136
 6497SOL    HW130950   0.183   2.956   8.203 -2.1070 -2.9965  1.3489
 6497SOL    HW230951   0.070   2.977   8.114 -0.2891 -0.1667  0.3948
 6498SOL     OW30952   2.759   3.527  17.409  0.1722 -0.4074 -0.4497
 6498SOL    HW130953   2.794   3.441  17.435 -1.3843 -0.6040  1.0022
 6498SOL    HW230954   2.797   3.541  17.322  0.2441  0.6918 -0.2432
 6499SOL     OW30955   0.269   0.439   5.402  0.0108  0.6665  0.4881
 6499SOL    HW130956   0.252   0.363   5.347  0.6508  1.9557 -1.4868
 6499SOL    HW230957   0.273   0.395   5.487  1.0059  0.1094  0.1519
 6500SOL     OW30958   2.153   2.825   3.184 -0.3352 -0.5364 -0.0664
 6500SOL    HW130959   2.118   2.885   3.118  2.4174  1.9360  0.7502
 6500SOL    HW230960   2.239   2.859   3.208 -0.4398 -0.8047  0.6705
 6501SOL     OW30961   3.011   2.707  14.908  0.0089  0.3440 -0.4429
 6501SOL    HW130962   3.018   2.767  14.982  0.1238 -2.2974  1.6739
 6501SOL    HW230963   2.995   2.765  14.834 -0.0487  0.5433 -0.2737
 6502SOL     OW30964   0.048   0.487  17.335 -0.2332  0.2030  0.1312
 6502SOL    HW130965   4.702   0.532  17.291 -1.9352 -1.5655  1.0848
 6502SOL    HW230966   0.069   0.552  17.402  2.0359  0.0714 -0.4332
 6503SOL     OW30967   4.015   2.495   8.453  0.0270 -0.6389  0.7551
 6503SOL    HW130968   4.025   2.534   8.540  1.3597  0.4810  0.0855
 6503SOL    HW230969   4.047   2.407   8.473  4.3255  0.4941 -1.0498
 6504SOL     OW30970   2.344   4.465   3.131  0.2514 -0.2375  0.2709
 6504SOL    HW130971   2.278   4.519   3.089  0.5049 -0.6152 -0.6005
 6504SOL    HW230972   2.374   4.414   3.056  1.0131  0.1052  0.3488
 6505SOL     OW30973   4.711   3.194   4.049  0.0412 -0.2806  0.5440
 6505SOL    HW130974   4.623   3.230   4.058  0.3878  1.3750 -2.8139
 6505SOL    HW230975   0.017   3.247   3.976 -1.5333 -0.1554 -0.0373
 6506SOL     OW30976   1.263   2.458  12.682  0.1204 -0.2287 -0.4448
 6506SOL    HW130977   1.304   2.424  12.761  0.6294  1.1559 -0.1124
 6506SOL    HW230978   1.313   2.536  12.658 -0.9209  0.8121  0.7550
 6507SOL     OW30979   3.207   2.994   3.429 -0.4807 -0.1374  0.2641
 6507SOL    HW130980   3.236   2.925   3.488  0.5981 -1.8071 -2.1907
 6507SOL    HW230981   3.138   2.947   3.381 -1.0638  0.3075  0.6765
 6508SOL     OW30982   2.981   3.106  15.068  0.7999  0.3168 -0.4336
 6508SOL    HW130983   2.957   3.141  15.154 -1.6619 -0.1083 -0.9535
 6508SOL    HW230984   2.991   3.017  15.101 -0.0936  0.2934 -0.2332
 6509SOL     OW30985   4.071   3.748  15.758  0.1238 -0.3278 -0.1085
 6509SOL    HW130986   3.991   3.713  15.797 -0.8698 -0.2949 -2.0809
 6509SOL    HW230987   4.073   3.838  15.790  0.8807  0.5297 -2.5463
 6510SOL     OW30988   0.615   4.217   4.703 -0.3423  0.5612 -0.4622
 6510SOL    HW130989   0.640   4.307   4.679 -0.8604  0.8707  0.1542
 6510SOL    HW230990   0.678   4.198   4.772 -1.4855  1.8171  0.9377
 6511SOL     OW30991   0.512   2.136   9.534  0.7264  0.6089  0.4952
 6511SOL    HW130992   0.586   2.168   9.483 -1.0420  0.4020 -2.2156
 6511SOL    HW230993   0.532   2.043   9.546  3.1067  1.0046 -0.4637
 6512SOL     OW30994   0.618   0.530   4.481 -0.1980  0.6890 -0.3149
 6512SOL    HW130995   0.659   0.613   4.457 -0.7073  0.9408 -0.3201
 6512SOL    HW230996   0.689   0.484   4.526 -0.3943 -0.5116 -1.2029
 6513SOL     OW30997   3.434   4.345  15.104 -0.2893 -0.4652  0.2641
 6513SOL    HW130998   3.379   4.399  15.161 -2.6504  0.2954 -2.7047
 6513SOL    HW230999   3.455   4.271  15.161 -0.7029 -0.2455  0.7095
 6514SOL     OW31000   3.723   2.034   3.535 -0.4075  0.4091  0.1589
 6514SOL    HW131001   3.629   2.034   3.550 -0.1522 -2.0937  1.7373
 6514SOL    HW231002   3.735   2.087   3.456 -2.3070  1.6788  0.7297
 6515SOL     OW31003   2.641   0.473   2.189  0.0681  0.2829 -0.5024
 6515SOL    HW131004   2.683   0.542   2.139  0.9775 -0.6680 -1.0329
 6515SOL    HW231005   2.708   0.406   2.179 -0.8121 -0.8068  0.9152
 6516SOL     OW31006   1.212   1.168  16.730 -0.4288  0.0395  0.5244
 6516SOL    HW131007   1.194   1.075  16.721  0.5901 -0.2401  1.3639
 6516SOL    HW231008   1.148   1.197  16.665  1.4121  0.5916 -1.0532
 6517SOL     OW31009   4.713   4.057  15.983  0.3532  0.0286  0.1459
 6517SOL    HW131010   0.030   4.138  15.954 -1.6228  1.5865  1.5432
 6517SOL    HW231011   4.669   4.037  15.900 -1.7380 -1.2755  1.5581
 6518SOL     OW31012   4.481   3.133  13.807  0.3187 -0.4701  0.0238
 6518SOL    HW131013   4.557   3.084  13.839  2.2652  2.8158  0.5161
 6518SOL    HW231014   4.411   3.100  13.863  1.4371 -1.4989  0.7958
 6519SOL     OW31015   3.619   1.190   3.835  0.0985 -0.5551  0.0979
 6519SOL    HW131016   3.540   1.178   3.782 -1.9743  1.6140  2.6754
 6519SOL    HW231017   3.653   1.259   3.778 -1.4421  0.0736 -0.0466
 6520SOL     OW31018   2.728   0.520  13.568  0.7873 -0.0969  0.5823
 6520SOL    HW131019   2.733   0.429  13.596  0.1665 -0.5436 -0.7555
 6520SOL    HW231020   2.819   0.549  13.572  0.4029  1.4997 -1.9267
 6521SOL     OW31021   4.715   4.698   1.582  0.2344  0.2148  0.0606
 6521SOL    HW131022   0.045   0.026   1.638  0.9121  0.8814 -1.2412
 6521SOL    HW231023   4.664   0.042   1.540 -0.9289 -0.5996  0.1302
 6522SOL     OW31024   4.397   2.556   7.096 -0.6138 -0.2377  0.5817
 6522SOL    HW131025   4.467   2.604   7.051 -0.9468 -1.1097 -0.8752
 6522SOL    HW231026   4.332   2.623   7.076  0.8788  0.5515 -1.6335
 6523SOL     OW31027   3.370   2.158   7.808 -0.3591 -0.3169 -0.2590
 6523SOL    HW131028   3.434   2.150   7.737  0.2327  0.3672  0.1943
 6523SOL    HW231029   3.401   2.084   7.861 -1.5618  0.1310  1.0804
 6524SOL     OW31030   2.684   1.420  13.442  0.4117  0.0116 -0.0180
 6524SOL    HW131031   2.710   1.495  13.388 -0.4016 -0.3921 -0.9662
 6524SOL    HW231032   2.594   1.405  13.413 -0.1232  2.3441  0.4762
 6525SOL     OW31033   0.282   1.148   4.538  0.1085  0.0347 -0.4536
 6525SOL    HW131034   0.266   1.082   4.471  2.9145 -1.6089  0.4754
 6525SOL    HW231035   0.369   1.184   4.519  0.4164 -2.2057 -3.2974
 6526SOL     OW31036   3.520   2.704  16.080  0.0139  0.1555 -0.3955
 6526SOL    HW131037   3.449   2.692  16.144  1.1155  0.2852  0.8379
 6526SOL    HW231038   3.486   2.774  16.024 -1.6653  0.2054  0.6850
 6527SOL     OW31039   1.311   3.263   3.740 -0.3378  0.0617 -0.4998
 6527SOL    HW131040   1.288   3.307   3.823  1.1905  1.7085 -0.9353
 6527SOL    HW231041   1.353   3.335   3.692 -0.7259 -0.6015 -1.8063
 6528SOL     OW31042   2.056   3.343   6.621  0.1465  0.0605 -0.0747
 6528SOL    HW131043   1.967   3.346   6.655 -0.1347 -1.1936 -0.7167
 6528SOL    HW231044   2.105   3.287   6.681  0.9927  0.8347 -0.0374
 6529SOL     OW31045   4.473   4.009   3.145  0.0397 -0.2829 -0.1603
 6529SOL    HW131046   4.378   4.003   3.156 -0.0231  0.2244 -0.3984
 6529SOL    HW231047   4.480   4.008   3.049  0.7259 -0.0122 -0.1162
 6530SOL     OW31048   1.530   2.141   4.329  0.3263 -0.5942  0.1712
 6530SOL    HW131049   1.505   2.213   4.387 -0.3327 -1.7941  1.3724
 6530SOL    HW231050   1.589   2.177   4.262  0.1932 -1.1135 -0.2257
 6531SOL     OW31051   1.873   1.762   9.316 -0.9855  0.1613 -0.0059
 6531SOL    HW131052   1.833   1.743   9.231  0.1102 -1.5778 -0.1385
 6531SOL    HW231053   1.803   1.801   9.368 -1.9736 -0.4406 -0.8866
 6532SOL     OW31054   1.639   2.542   3.594  0.0153  0.0640 -0.0026
 6532SOL    HW131055   1.563   2.496   3.631 -0.8594  0.0498 -1.7935
 6532SOL    HW231056   1.684   2.574   3.671 -0.9180 -0.6151  0.8263
 6533SOL     OW31057   3.690   4.452  15.999 -0.2996 -0.0725 -0.2356
 6533SOL    HW131058   3.621   4.388  16.015 -1.2536  1.3020  1.1182
 6533SOL    HW231059   3.765   4.413  16.043 -2.6933 -1.8734  2.2363
 6534SOL     OW31060   2.342   1.964   9.842 -0.1456  0.1423 -0.1939
 6534SOL    HW131061   2.367   1.898   9.778  1.5954  2.1883 -1.6407
 6534SOL    HW231062   2.257   1.993   9.808 -0.0695  1.8256  1.0345
 6535SOL     OW31063   3.956   3.042   7.893  0.0503 -0.3614  0.3632
 6535SOL    HW131064   3.918   2.961   7.927 -2.3861  1.6745  2.4900
 6535SOL    HW231065   4.035   3.053   7.946  1.1436  0.1103 -1.3434
 6536SOL     OW31066   3.217   2.406  10.382 -0.3192  0.0899 -0.7324
 6536SOL    HW131067   3.279   2.346  10.340 -1.1353  1.5546 -4.0745
 6536SOL    HW231068   3.275   2.451  10.443 -0.4464  2.8255 -2.6236
 6537SOL     OW31069   4.507   2.179   0.262 -0.1577 -0.2004 -0.4676
 6537SOL    HW131070   4.477   2.098   0.220 -0.0536 -0.8624  0.7628
 6537SOL    HW231071   4.468   2.179   0.349  2.2047 -0.0066  0.5869
 6538SOL     OW31072   4.637   0.074   0.400 -0.2714  0.0907 -0.1694
 6538SOL    HW131073   4.638   0.157   0.353  1.9766  0.0600 -0.1781
 6538SOL    HW231074   4.672   0.107   0.483 -0.8660 -0.8915  0.4636
 6539SOL     OW31075   0.532   2.141   8.411  0.1679 -0.3215 -0.1698
 6539SOL    HW131076   0.544   2.152   8.505 -2.3043  2.0425 -0.1245
 6539SOL    HW231077   0.479   2.215   8.380  0.8816 -0.2058 -1.1207
 6540SOL     OW31078   4.500   3.718   2.164  0.1701  0.1082 -0.4442
 6540SOL    HW131079   4.494   3.623   2.171  1.2990  0.1932  1.6118
 6540SOL    HW231080   4.593   3.733   2.178 -0.0593  1.2893 -0.2020
 6541SOL     OW31081   2.870   0.086   2.957  0.0670 -0.6361  0.6057
 6541SOL    HW131082   2.908   0.147   2.893 -2.5221 -0.1505 -0.4720
 6541SOL    HW231083   2.897   0.003   2.918 -1.4285 -0.4856 -0.7651
 6542SOL     OW31084   1.389   2.765   5.110 -0.1145  0.0235 -0.1380
 6542SOL    HW131085   1.413   2.854   5.136  0.4638 -0.3362  0.5387
 6542SOL    HW231086   1.335   2.784   5.033 -1.2234 -0.2850  0.5594
 6543SOL     OW31087   1.371   0.064  14.038  0.1564  0.4472 -0.1287
 6543SOL    HW131088   1.438   0.095  13.977 -0.0123  2.1472  0.5362
 6543SOL    HW231089   1.403   4.702  14.058 -1.7531  0.1828  1.8221
 6544SOL     OW31090   4.254   2.113   1.594 -0.2062  0.4287  0.3891
 6544SOL    HW131091   4.189   2.082   1.657 -0.7931  0.3071 -0.2859
 6544SOL    HW231092   4.306   2.037   1.569  1.7576  1.0971  2.4511
 6545SOL     OW31093   3.539   0.662   3.363  0.2350  0.5084 -0.4320
 6545SOL    HW131094   3.531   0.624   3.450  0.1675 -1.2604 -1.2121
 6545SOL    HW231095   3.520   0.584   3.312  1.7194 -0.9723  1.2551
 6546SOL     OW31096   2.154   4.445   1.704  0.1849 -0.5505  0.1955
 6546SOL    HW131097   2.243   4.411   1.717  0.3076 -0.5932 -0.7650
 6546SOL    HW231098   2.154   4.519   1.765  2.9854 -1.6773  1.5978
 6547SOL     OW31099   4.637   0.390   9.733 -0.1184  0.3301 -0.6858
 6547SOL    HW131100   4.705   0.326   9.755  0.4183 -0.5707 -4.9093
 6547SOL    HW231101   4.567   0.368   9.795 -0.0130 -0.2281 -0.7627
 6548SOL     OW31102   1.863   4.700   3.397 -0.7521 -0.7557  0.3707
 6548SOL    HW131103   1.780   4.692   3.444  0.5162 -0.8307  2.5843
 6548SOL    HW231104   1.839   4.682   3.306  1.9230 -1.9214 -0.1141
 6549SOL     OW31105   1.421   0.838  11.402  0.1242  0.1803  0.7654
 6549SOL    HW131106   1.326   0.833  11.412  0.2288 -2.4865  0.3226
 6549SOL    HW231107   1.439   0.758  11.452 -2.9107 -0.0856  1.4586
 6550SOL     OW31108   1.555   1.937   8.709 -0.2613 -0.0462 -0.1886
 6550SOL    HW131109   1.530   1.973   8.794  1.1012  0.1870  0.1020
 6550SOL    HW231110   1.637   1.982   8.689 -0.8311  0.9105 -0.3964
 6551SOL     OW31111   1.067   4.476   7.399  0.3109  0.7440  0.0111
 6551SOL    HW131112   1.058   4.567   7.427  1.8250  0.8316  0.2126
 6551SOL    HW231113   1.157   4.447   7.417  0.6710  1.8608  0.0111
 6552SOL     OW31114   0.952   0.650   5.557 -0.4280  0.3254 -0.2140
 6552SOL    HW131115   0.944   0.736   5.597  1.0492  0.1017  0.5661
 6552SOL    HW231116   1.046   0.648   5.543 -0.9149 -1.9965 -3.1518
 6553SOL     OW31117   1.532   0.269   0.869  0.2419  0.0226  0.7974
 6553SOL    HW131118   1.550   0.356   0.903  0.8770 -0.4810  1.7480
 6553SOL    HW231119   1.437   0.269   0.865  0.2032  0.1502  1.9668
 6554SOL     OW31120   1.953   4.257   7.844 -0.0200 -0.1416  0.1835
 6554SOL    HW131121   1.958   4.183   7.904  2.2363 -0.7005 -0.6956
 6554SOL    HW231122   1.917   4.321   7.906 -0.5724  0.7802 -1.0841
 6555SOL     OW31123   4.459   2.199   5.346  0.4176 -0.6488  0.7619
 6555SOL    HW131124   4.452   2.258   5.271  0.3143  1.2111  2.2568
 6555SOL    HW231125   4.509   2.252   5.408  1.8337 -0.7403 -0.3018
 6556SOL     OW31126   4.701   2.161   3.688 -0.2675 -0.5274 -0.3783
 6556SOL    HW131127   0.043   2.105   3.726  1.2646  1.2660 -0.4886
 6556SOL    HW231128   4.702   2.238   3.744 -0.4101 -1.9368  1.5947
 6557SOL     OW31129   1.719   4.004   5.625  0.6696 -0.5596 -0.7085
 6557SOL    HW131130   1.802   3.957   5.613  0.7721 -0.4523 -0.4031
 6557SOL    HW231131   1.688   3.974   5.710  2.4464  0.0355  0.1325
 6558SOL     OW31132   3.301   1.568   8.790 -0.0305  0.3814  0.3698
 6558SOL    HW131133   3.337   1.593   8.706  1.5318 -2.1051  0.3005
 6558SOL    HW231134   3.261   1.650   8.819  1.7598  1.5412 -0.4945
 6559SOL     OW31135   3.782   4.673   6.303  0.0582  0.1293 -0.1017
 6559SOL    HW131136   3.784   4.593   6.356 -1.6970  0.1296 -0.0469
 6559SOL    HW231137   3.692   4.689   6.277  0.3118 -0.0528 -1.0824
 6560SOL     OW31138   1.570   4.571  13.152 -0.2732 -0.5603  0.3180
 6560SOL    HW131139   1.538   4.661  13.157  0.3426 -0.3816  0.9923
 6560SOL    HW231140   1.665   4.578  13.142 -0.2435 -0.8056  0.4325
 6561SOL     OW31141   1.896   0.241   9.499 -0.3373  0.2764 -0.4333
 6561SOL    HW131142   1.926   0.329   9.479 -0.7125  0.6040  0.4594
 6561SOL    HW231143   1.958   0.215   9.566 -0.2561 -3.7370 -2.0374
 6562SOL     OW31144   4.553   2.359  15.236 -0.7464 -0.4367  0.0469
 6562SOL    HW131145   4.612   2.432  15.219 -1.1478 -0.8513 -3.0235
 6562SOL    HW231146   4.527   2.346  15.145 -1.1166  0.2764  0.0517
 6563SOL     OW31147   0.254   1.535  17.069  0.0647 -0.1212  0.0412
 6563SOL    HW131148   0.227   1.468  17.133  0.3659  0.0044  0.3029
 6563SOL    HW231149   0.295   1.477  17.005  0.9393 -0.3892  0.8401
 6564SOL     OW31150   2.254   1.306   7.307  0.0372 -0.2640 -0.5233
 6564SOL    HW131151   2.256   1.322   7.213 -1.6480 -1.5087 -0.7766
 6564SOL    HW231152   2.174   1.255   7.322  0.0014 -0.5297 -1.6120
 6565SOL     OW31153   3.519   2.809   1.858 -0.0944  0.3825  0.2294
 6565SOL    HW131154   3.520   2.821   1.953  4.0748  1.3892  0.0650
 6565SOL    HW231155   3.430   2.827   1.828  0.0363 -0.2026 -0.5022
 6566SOL     OW31156   1.975   0.120   4.359  0.0983  0.1041  0.1468
 6566SOL    HW131157   2.031   0.197   4.347 -0.7538  0.2105 -3.1946
 6566SOL    HW231158   1.917   0.131   4.284 -0.6177  2.4390  1.0419
 6567SOL     OW31159   0.224   0.814  12.984 -0.3687 -0.4785  0.2322
 6567SOL    HW131160   0.305   0.833  13.032  0.0206  0.3906 -0.7869
 6567SOL    HW231161   0.244   0.724  12.956 -0.5028 -0.9708  1.7029
 6568SOL     OW31162   2.715   3.710  11.113 -0.5880  0.1459 -0.1213
 6568SOL    HW131163   2.693   3.796  11.078 -2.5013 -1.0120 -1.7453
 6568SOL    HW231164   2.672   3.710  11.199 -1.1396 -0.5347 -0.4017
 6569SOL     OW31165   3.419   1.701   0.529 -0.5433 -0.1285  0.2875
 6569SOL    HW131166   3.451   1.621   0.487 -1.8369 -0.0641 -0.8378
 6569SOL    HW231167   3.412   1.671   0.620  1.3018  0.8954  0.7737
 6570SOL     OW31168   4.624   0.491   8.317  1.0108 -0.2367 -0.2590
 6570SOL    HW131169   4.645   0.572   8.363 -0.9684  0.4825 -0.6138
 6570SOL    HW231170   4.708   0.449   8.300  0.5910 -1.7998  1.5214
 6571SOL     OW31171   3.548   3.091   9.144  0.3416 -0.1993  0.4982
 6571SOL    HW131172   3.631   3.136   9.161  1.7759 -1.6525 -2.8482
 6571SOL    HW231173   3.574   3.003   9.171  2.0823  0.3686  0.6465
 6572SOL     OW31174   4.071   3.700   2.598 -0.2052  0.0363 -0.3124
 6572SOL    HW131175   4.046   3.648   2.522 -0.0899 -0.6548  0.1217
 6572SOL    HW231176   4.166   3.691   2.588 -0.2954 -0.1631 -0.9574
 6573SOL     OW31177   0.707   1.300   3.033  0.5740  0.5757  0.2528
 6573SOL    HW131178   0.657   1.381   3.035  0.2578  0.3933 -0.2360
 6573SOL    HW231179   0.752   1.311   2.949 -0.5653  1.2738 -0.2613
 6574SOL     OW31180   3.073   2.574   1.649  0.2846  0.2649  0.3281
 6574SOL    HW131181   3.071   2.481   1.674 -0.9702 -0.5162 -2.6247
 6574SOL    HW231182   3.049   2.579   1.557 -1.5672  1.2043  0.8572
 6575SOL     OW31183   0.178   1.688  10.498  0.3768 -0.1569 -0.2587
 6575SOL    HW131184   0.240   1.660  10.431  1.3668 -2.4954  1.6312
 6575SOL    HW231185   0.180   1.621  10.567  0.9363  0.3144  0.1757
 6576SOL     OW31186   1.819   3.181  12.126  0.0296 -0.2800 -0.2679
 6576SOL    HW131187   1.729   3.188  12.158  0.0214  0.1589 -0.3816
 6576SOL    HW231188   1.859   3.172  12.212 -1.9329  1.7876  0.8712
 6577SOL     OW31189   1.123   0.483   2.966  0.2099 -0.1358  0.2428
 6577SOL    HW131190   1.209   0.495   3.006 -0.0452  1.9434  0.1510
 6577SOL    HW231191   1.147   0.430   2.890 -1.1991 -0.0826 -0.2372
 6578SOL     OW31192   0.789   4.610  11.153  0.3742  0.6140  0.0239
 6578SOL    HW131193   0.794   4.706  11.160 -0.6155  0.6141  0.6629
 6578SOL    HW231194   0.817   4.600  11.062 -0.3620 -2.8815  0.2046
 6579SOL     OW31195   1.881   3.112   0.447  0.1303 -0.5620  0.4205
 6579SOL    HW131196   1.879   3.201   0.411  1.4858 -1.2439 -1.3343
 6579SOL    HW231197   1.789   3.091   0.433  1.2232 -4.4713 -1.0379
 6580SOL     OW31198   1.376   4.336   8.764 -0.1598 -0.1831 -0.1762
 6580SOL    HW131199   1.328   4.395   8.821 -0.9895 -0.4029 -0.6524
 6580SOL    HW231200   1.458   4.319   8.812 -0.0735  2.7260  0.6864
 6581SOL     OW31201   4.398   0.504   5.443  0.6408  0.5112  0.4293
 6581SOL    HW131202   4.344   0.466   5.375  1.0531 -1.5080  1.2352
 6581SOL    HW231203   4.409   0.590   5.404  0.6523  0.6627  0.7645
 6582SOL     OW31204   4.114   3.372   1.247  0.0946 -0.1397 -0.0942
 6582SOL    HW131205   4.122   3.355   1.153  2.5828  0.0212  0.0876
 6582SOL    HW231206   4.022   3.363   1.272  0.1531  1.2281  0.6045
 6583SOL     OW31207   4.389   3.998   6.969 -0.3711 -0.4406  0.4867
 6583SOL    HW131208   4.414   3.947   7.046 -0.5739  1.0914  1.5730
 6583SOL    HW231209   4.365   4.082   7.008  0.0826 -0.9278  1.8395
 6584SOL     OW31210   1.827   1.496   5.870 -0.1548 -0.5151 -0.4570
 6584SOL    HW131211   1.861   1.471   5.784 -1.1214 -0.3983 -0.8625
 6584SOL    HW231212   1.745   1.448   5.868 -2.0926  2.7856  0.9159
 6585SOL     OW31213   3.729   2.275   5.720 -0.1373  0.2687  0.0102
 6585SOL    HW131214   3.735   2.325   5.801 -0.8481  1.0934 -0.4459
 6585SOL    HW231215   3.705   2.344   5.657  1.7740  0.8988 -0.0402
 6586SOL     OW31216   4.131   2.847   7.383  0.0060 -0.0415  0.1625
 6586SOL    HW131217   4.068   2.779   7.405  0.0996 -0.5852 -1.2465
 6586SOL    HW231218   4.142   2.889   7.468 -2.6452  1.4367 -0.2606
 6587SOL     OW31219   2.501   4.444   4.574 -0.1525 -0.2050 -0.1723
 6587SOL    HW131220   2.483   4.526   4.527 -0.8424  0.5438  1.4205
 6587SOL    HW231221   2.442   4.395   4.516 -0.9266  0.4998  0.0274
 6588SOL     OW31222   0.074   2.909  17.026  0.0577 -0.1159  0.8549
 6588SOL    HW131223   0.021   2.869  16.958  4.0100 -1.9576 -1.1212
 6588SOL    HW231224   0.019   2.988  17.034 -0.4540 -0.3051 -0.9242
 6589SOL     OW31225   3.880   4.460   6.499  0.0997 -0.2411 -0.3429
 6589SOL    HW131226   3.890   4.523   6.570 -2.0679 -0.1685 -0.1206
 6589SOL    HW231227   3.960   4.408   6.489  1.0373  1.3558 -1.0993
 6590SOL     OW31228   3.602   3.433   4.384 -0.1203 -0.1014  0.3896
 6590SOL    HW131229   3.576   3.454   4.474 -1.0377 -1.7111  0.4819
 6590SOL    HW231230   3.596   3.338   4.396  2.8348 -0.3845 -0.2816
 6591SOL     OW31231   0.467   2.287   3.116 -0.7225  0.3662 -0.0537
 6591SOL    HW131232   0.410   2.347   3.164 -0.3587  1.0365 -0.4626
 6591SOL    HW231233   0.430   2.291   3.028 -0.3717  0.4653 -0.1976
 6592SOL     OW31234   1.297   0.575   6.032 -0.0431 -0.0812 -0.0128
 6592SOL    HW131235   1.331   0.664   6.041 -0.4552  0.1761 -1.0347
 6592SOL    HW231236   1.203   0.592   6.019 -0.4341 -1.1298  1.3552
 6593SOL     OW31237   1.575   2.493   4.939 -0.0480  0.5624 -0.0982
 6593SOL    HW131238   1.641   2.560   4.922  1.6507 -0.9207  0.6539
 6593SOL    HW231239   1.589   2.463   5.029  0.2175 -0.3227 -0.4326
 6594SOL     OW31240   4.233   4.055   3.838  0.1137 -0.4085  0.7911
 6594SOL    HW131241   4.236   4.151   3.846 -1.4573 -0.2124 -1.0341
 6594SOL    HW231242   4.327   4.039   3.830  0.3006  2.0500 -2.0881
 6595SOL     OW31243   3.787   2.236   1.030  0.2057  0.1160 -0.0368
 6595SOL    HW131244   3.835   2.298   1.085  0.2536  0.8194 -0.8588
 6595SOL    HW231245   3.847   2.232   0.955  1.7002 -1.9725  1.2586
 6596SOL     OW31246   4.505   2.070   2.325 -0.2290  0.2010 -0.0374
 6596SOL    HW131247   4.578   2.077   2.264  1.3777  0.7151  1.9134
 6596SOL    HW231248   4.510   2.157   2.365 -0.1611  0.1099  0.1545
 6597SOL     OW31249   3.332   3.298  17.551 -0.2585  0.2225 -0.1026
 6597SOL    HW131250   3.335   3.254  17.465  2.7263  1.0678 -0.4274
 6597SOL    HW231251   3.416   3.267  17.585 -0.0167 -0.2797 -1.1252
 6598SOL     OW31252   4.253   4.412   4.285 -0.5829 -0.3008  0.0570
 6598SOL    HW131253   4.319   4.355   4.323  1.2517  1.0365 -1.1313
 6598SOL    HW231254   4.268   4.378   4.197  0.2462 -2.8660  1.1972
 6599SOL     OW31255   3.720   3.139   5.142  0.0729 -0.2302 -0.5726
 6599SOL    HW131256   3.728   3.225   5.100 -1.5200  2.2947  4.2061
 6599SOL    HW231257   3.809   3.134   5.178  0.3299 -3.3733 -1.6551
 6600SOL     OW31258   0.857   2.876   0.941 -0.2612  0.0115 -0.1169
 6600SOL    HW131259   0.936   2.865   0.888 -0.4971 -1.7515 -0.1140
 6600SOL    HW231260   0.790   2.843   0.881 -1.2332 -1.3752  1.7464
 6601SOL     OW31261   4.366   2.235   4.446 -0.6733 -0.1581  0.4259
 6601SOL    HW131262   4.405   2.323   4.453  0.7786 -0.7852  0.1665
 6601SOL    HW231263   4.300   2.250   4.513 -0.9254 -2.1712  0.6253
 6602SOL     OW31264   3.867   4.264  12.136 -0.3403  0.1067 -0.5555
 6602SOL    HW131265   3.832   4.349  12.164 -1.2958 -0.2128 -0.7727
 6602SOL    HW231266   3.860   4.217  12.219  0.7057  0.4434 -0.2754
 6603SOL     OW31267   0.799   3.202   3.945  0.2006 -0.0764 -0.0387
 6603SOL    HW131268   0.764   3.282   3.983 -0.1576 -0.2303 -0.0483
 6603SOL    HW231269   0.770   3.141   4.014 -1.4054 -0.8379 -1.3955
 6604SOL     OW31270   2.655   4.044   9.769 -0.5288 -0.0796  0.0771
 6604SOL    HW131271   2.632   4.050   9.677 -0.7572 -0.0966  0.1333
 6604SOL    HW231272   2.643   4.136   9.793 -2.2067 -0.4320  0.5677
 6605SOL     OW31273   1.011   3.447  10.038  0.3359 -0.3285  0.4640
 6605SOL    HW131274   0.948   3.511  10.004  1.5624 -0.6035 -2.3769
 6605SOL    HW231275   0.969   3.420  10.119  0.7817 -1.6293  0.2572
 6606SOL     OW31276   1.033   1.850  12.065  0.0073 -0.4814 -0.2012
 6606SOL    HW131277   1.066   1.910  11.999  0.5727  0.9458  1.3696
 6606SOL    HW231278   1.065   1.765  12.036  0.2439 -0.6294  0.4803
 6607SOL     OW31279   3.948   1.755   8.254 -0.3023 -0.0845 -0.1979
 6607SOL    HW131280   3.984   1.702   8.326 -0.7629 -0.6964 -0.4188
 6607SOL    HW231281   3.987   1.840   8.273  1.5615 -0.5094 -2.1349
 6608SOL     OW31282   3.083   4.630  15.156 -0.3137  0.3417  0.8026
 6608SOL    HW131283   3.081   4.584  15.072  0.8989 -0.4337  1.1941
 6608SOL    HW231284   3.057   4.558  15.214  0.1787 -0.8132 -0.4044
 6609SOL     OW31285   0.664   0.267   3.349  0.2357  0.3127 -1.1355
 6609SOL    HW131286   0.671   0.299   3.439  0.9542 -0.4033 -0.9359
 6609SOL    HW231287   0.573   0.241   3.361 -0.0954  0.9273 -2.3484
 6610SOL     OW31288   3.128   1.936   5.446  0.6066 -0.1372 -0.2770
 6610SOL    HW131289   3.048   1.936   5.393 -0.4326 -1.2855  1.2473
 6610SOL    HW231290   3.171   1.854   5.421  1.9767  0.7989 -0.9870
 6611SOL     OW31291   4.527   2.613   3.863 -1.0994  0.1262 -0.4103
 6611SOL    HW131292   4.468   2.538   3.854 -0.9811 -0.2034  1.6141
 6611SOL    HW231293   4.542   2.612   3.957 -0.1092  0.8964 -0.5658
 6612SOL     OW31294   1.739   3.706  10.865  0.5790  0.3303 -0.3790
 6612SOL    HW131295   1.709   3.685  10.777  2.3332 -1.3575 -0.5729
 6612SOL    HW231296   1.762   3.799  10.864  2.2864 -0.0466  3.1625
 6613SOL     OW31297   1.231   2.873   8.634  0.2048 -0.1164 -0.3814
 6613SOL    HW131298   1.167   2.940   8.611  1.9975  0.9283 -2.3838
 6613SOL    HW231299   1.171   2.807   8.669 -1.0017  0.9979 -0.3585
 6614SOL     OW31300   2.858   0.725   2.386 -0.2033 -0.2376 -0.5152
 6614SOL    HW131301   2.779   0.684   2.420  0.1517 -1.4688 -1.1566
 6614SOL    HW231302   2.819   0.747   2.301 -1.4613 -0.5116 -0.0110
 6615SOL     OW31303   2.134   0.517   5.616 -0.7216  0.2587 -0.2485
 6615SOL    HW131304   2.202   0.469   5.569 -0.9808  1.2833 -1.6842
 6615SOL    HW231305   2.133   0.474   5.702 -0.6519  0.9278  0.0843
 6616SOL     OW31306   1.764   4.354   3.275 -0.4361 -0.2242 -0.1396
 6616SOL    HW131307   1.792   4.423   3.215  0.1530  0.5399  1.0130
 6616SOL    HW231308   1.815   4.373   3.354 -0.5197  1.2935 -0.4327
 6617SOL     OW31309   2.119   2.141  11.345  0.2136 -0.3049 -0.0642
 6617SOL    HW131310   2.054   2.129  11.276 -0.7351  2.0090  0.4206
 6617SOL    HW231311   2.181   2.069  11.335  1.2534  0.5787  0.0655
 6618SOL     OW31312   1.824   0.720   4.430  0.3127 -0.2532 -0.0953
 6618SOL    HW131313   1.758   0.692   4.493 -0.2732 -2.2000 -1.5622
 6618SOL    HW231314   1.777   0.742   4.350  0.2466  1.4865  0.4276
 6619SOL     OW31315   0.946   3.995   8.352 -0.0459 -0.2377 -0.4152
 6619SOL    HW131316   0.975   3.908   8.379  1.3372  0.2817 -0.2599
 6619SOL    HW231317   1.006   4.048   8.406  0.4463  0.9804 -2.1581
 6620SOL     OW31318   2.626   2.898   6.124  0.1729  0.0804 -0.0819
 6620SOL    HW131319   2.557   2.955   6.158 -0.1216  0.7903 -1.8598
 6620SOL    HW231320   2.637   2.954   6.047 -1.8630  0.5832 -0.0103
 6621SOL     OW31321   1.970   3.301   9.303  0.1373 -0.0497 -0.6486
 6621SOL    HW131322   1.955   3.368   9.371 -1.4463 -0.7090 -0.3434
 6621SOL    HW231323   2.003   3.354   9.231 -1.1942  0.6856 -0.7197
 6622SOL     OW31324   1.423   2.127   2.563 -0.3208  0.9413  1.1042
 6622SOL    HW131325   1.379   2.189   2.621 -1.2960  0.7815  0.5270
 6622SOL    HW231326   1.503   2.173   2.537 -1.2218  0.6030 -2.1956
 6623SOL     OW31327   1.138   3.904   6.980 -0.7460  0.0420  0.4569
 6623SOL    HW131328   1.178   3.975   6.930 -0.8694 -0.2651 -0.0745
 6623SOL    HW231329   1.158   3.927   7.071 -0.7391 -0.5237  0.5956
 6624SOL     OW31330   3.822   1.305   6.266  0.2210  0.3004 -0.1758
 6624SOL    HW131331   3.773   1.222   6.266 -0.7805  0.8839  1.7418
 6624SOL    HW231332   3.756   1.374   6.262 -1.0638 -0.7696  2.4431
 6625SOL     OW31333   3.196   1.829   5.181  0.2667  0.2736  0.3541
 6625SOL    HW131334   3.234   1.741   5.186 -3.6538 -1.3256  2.1608
 6625SOL    HW231335   3.266   1.882   5.144  0.8934  0.0007  1.1426
 6626SOL     OW31336   4.023   3.253   3.723  0.0972  0.2556  0.3234
 6626SOL    HW131337   4.084   3.180   3.710 -0.6591 -1.0700  4.2566
 6626SOL    HW231338   3.960   3.252   3.651  1.2166 -0.4766 -0.6432
 6627SOL     OW31339   2.781   1.738   4.360 -0.1074  0.1323  0.0532
 6627SOL    HW131340   2.731   1.749   4.441 -0.2024 -0.4879  0.0798
 6627SOL    HW231341   2.770   1.825   4.323  2.8382  0.0226 -1.1649
 6628SOL     OW31342   4.704   1.554  17.078 -0.0606 -0.0800 -0.0856
 6628SOL    HW131343   0.066   1.565  17.042 -0.1696 -0.3197 -0.4252
 6628SOL    HW231344   4.673   1.645  17.075 -2.9475 -1.0482  0.6181
 6629SOL     OW31345   2.380   2.550  12.687 -0.6081 -0.1361  0.0423
 6629SOL    HW131346   2.418   2.630  12.722 -1.3971  1.0603 -1.8387
 6629SOL    HW231347   2.413   2.489  12.753 -1.9155  0.0495  0.8718
 6630SOL     OW31348   2.577   3.461  15.770 -0.2720  0.7621 -0.2190
 6630SOL    HW131349   2.519   3.416  15.709 -0.5402 -1.9525  2.0330
 6630SOL    HW231350   2.595   3.545  15.727  0.5729  1.1654  0.9094
 6631SOL     OW31351   4.615   2.893   5.478  0.1253 -0.2407  0.0973
 6631SOL    HW131352   4.575   2.905   5.392  0.6497  2.4515  0.2539
 6631SOL    HW231353   4.587   2.971   5.524  0.6164  1.0228 -1.7553
 6632SOL     OW31354   3.190   1.811   8.777 -0.6351  0.3075  0.3695
 6632SOL    HW131355   3.133   1.842   8.706  1.7181  0.6529 -1.3700
 6632SOL    HW231356   3.247   1.888   8.772 -2.0583  1.2443 -1.3165
 6633SOL     OW31357   3.197   2.962  15.504  0.2601  0.3553 -0.0654
 6633SOL    HW131358   3.209   2.869  15.485 -1.5547 -0.2365  1.6754
 6633SOL    HW231359   3.261   2.997  15.442 -1.6075  2.0333 -1.0739
 6634SOL     OW31360   2.954   3.570  14.171  0.1595 -0.2721 -0.2589
 6634SOL    HW131361   2.974   3.498  14.112  2.5788  0.5204 -0.3768
 6634SOL    HW231362   3.030   3.625  14.154  0.6691 -0.6247  0.8311
 6635SOL     OW31363   2.751   2.388   4.210  0.1638  0.3805  0.3716
 6635SOL    HW131364   2.779   2.476   4.185  0.3535  0.1030 -0.3858
 6635SOL    HW231365   2.665   2.399   4.168  2.1284  0.8714 -3.5286
 6636SOL     OW31366   0.246   0.252   4.012 -0.4774 -0.0817  0.9108
 6636SOL    HW131367   0.320   0.292   4.058 -2.7638  3.3327  1.6064
 6636SOL    HW231368   0.215   0.316   3.948 -0.5413 -2.0274 -0.9801
 6637SOL     OW31369   2.281   1.082   2.073 -0.7570  0.6967  0.4310
 6637SOL    HW131370   2.237   1.167   2.073  1.0666  1.6513 -0.6493
 6637SOL    HW231371   2.200   1.031   2.068  0.2031 -0.5797 -1.8930
 6638SOL     OW31372   1.866   3.824  10.581  0.4160  0.4320  0.9459
 6638SOL    HW131373   1.829   3.872  10.654 -1.3121 -0.2714  0.5197
 6638SOL    HW231374   1.806   3.750  10.586  0.1481  0.5382 -0.5368
 6639SOL     OW31375   3.752   1.055   6.157  0.9075  0.1026  0.3135
 6639SOL    HW131376   3.665   1.065   6.119  0.7464 -1.4700  0.2654
 6639SOL    HW231377   3.743   0.980   6.215  3.1081 -0.8272 -0.5567
 6640SOL     OW31378   0.654   3.905  10.921 -0.2488  0.0839 -0.3861
 6640SOL    HW131379   0.686   3.890  11.010  0.1328 -0.4898 -0.6171
 6640SOL    HW231380   0.727   3.866  10.873 -0.0445  0.2481 -0.2067
 6641SOL     OW31381   3.298   2.575   8.572 -0.1812 -0.7313 -0.0024
 6641SOL    HW131382   3.366   2.595   8.636 -1.7134  2.5710  0.5986
 6641SOL    HW231383   3.253   2.658   8.559 -0.5174 -1.3541 -2.8725
 6642SOL     OW31384   4.225   3.224  11.028 -0.1159  0.0507  0.1071
 6642SOL    HW131385   4.220   3.142  10.978 -0.8915  1.4155 -2.0486
 6642SOL    HW231386   4.130   3.223  11.036 -0.2438  3.3809 -0.8235
 6643SOL     OW31387   2.342   0.386   2.128 -0.0167 -0.1035 -0.2642
 6643SOL    HW131388   2.333   0.446   2.055 -3.2247 -1.9538 -1.3830
 6643SOL    HW231389   2.436   0.390   2.142 -0.5668  1.3449  2.9703
 6644SOL     OW31390   1.127   4.093  16.045  0.9375 -0.4322 -1.0419
 6644SOL    HW131391   1.129   4.143  15.963 -0.8183  0.3429 -0.5908
 6644SOL    HW231392   1.032   4.094  16.048  0.9296 -5.0187  0.7656
 6645SOL     OW31393   3.104   1.542  15.523 -0.3646  0.5977 -0.1297
 6645SOL    HW131394   3.131   1.585  15.604 -0.6445  1.4280 -0.4844
 6645SOL    HW231395   3.009   1.539  15.531 -0.2470 -0.0339  1.0254
 6646SOL     OW31396   3.531   3.628   1.310 -0.6051  0.4151  0.1372
 6646SOL    HW131397   3.517   3.676   1.229 -1.5584 -0.5958 -0.2874
 6646SOL    HW231398   3.592   3.687   1.355  2.2793 -1.6004 -1.1386
 6647SOL     OW31399   3.509   0.137  14.708 -0.1572 -0.2308 -0.8202
 6647SOL    HW131400   3.499   0.192  14.786  3.4921  0.9996 -1.1963
 6647SOL    HW231401   3.473   0.054  14.737  0.2373  0.6391  2.1327
 6648SOL     OW31402   0.176   3.484   3.064 -0.3024  0.2274 -0.5647
 6648SOL    HW131403   0.225   3.566   3.070  0.5036 -0.4738  2.3385
 6648SOL    HW231404   0.179   3.459   2.971 -2.2472 -2.2227  0.0389
 6649SOL     OW31405   0.436   3.871   3.385 -0.0576  0.1111 -0.0970
 6649SOL    HW131406   0.403   3.948   3.431 -1.8538  1.3508 -3.4030
 6649SOL    HW231407   0.525   3.889   3.416  0.2982  0.5131 -1.3464
 6650SOL     OW31408   1.496   4.683   3.623 -0.3772  0.1983  0.1312
 6650SOL    HW131409   1.564   4.686   3.691 -0.4703  0.2096  0.2235
 6650SOL    HW231410   1.523   0.025   3.562 -1.5550 -0.1412 -0.7677
 6651SOL     OW31411   2.458   0.013  15.617  0.4741 -0.4441  0.1304
 6651SOL    HW131412   2.485   4.668  15.676 -0.7570 -0.5439  0.5575
 6651SOL    HW231413   2.364   0.008  15.635  0.7043 -0.0912  1.4455
 6652SOL     OW31414   1.255   0.792  11.603  0.9074 -0.6122 -0.1843
 6652SOL    HW131415   1.162   0.810  11.618  1.4815  1.8187  0.3752
 6652SOL    HW231416   1.296   0.872  11.634 -2.4068  1.0046 -0.0159
 6653SOL     OW31417   1.824   1.858   3.419 -0.3131  0.5305  0.2591
 6653SOL    HW131418   1.774   1.939   3.411 -0.8447 -0.0567 -2.1046
 6653SOL    HW231419   1.852   1.857   3.511 -0.6051 -0.1818  0.3377
 6654SOL     OW31420   4.227   4.508   3.597  0.3879 -0.6260  0.1841
 6654SOL    HW131421   4.245   4.505   3.503  0.1639  2.2430  0.0470
 6654SOL    HW231422   4.135   4.534   3.587  0.6689  0.1863 -0.2821
 6655SOL     OW31423   3.015   0.527  17.438 -0.2734 -0.2302 -0.5136
 6655SOL    HW131424   3.091   0.486  17.398  0.2302 -0.8541  1.0757
 6655SOL    HW231425   2.969   0.454  17.481 -0.5977  1.2690  1.7158
 6656SOL     OW31426   3.917   1.266   3.455  0.7924 -0.2508 -0.0397
 6656SOL    HW131427   3.914   1.280   3.549  3.0125 -1.1767  0.1537
 6656SOL    HW231428   3.988   1.205   3.434 -0.3984 -1.7488  0.2566
 6657SOL     OW31429   0.901   3.035  13.219 -0.4078  0.6267 -0.0079
 6657SOL    HW131430   0.995   3.016  13.227 -0.8715 -1.9677 -0.6601
 6657SOL    HW231431   0.903   3.129  13.236  2.6229  0.5862 -0.1508
 6658SOL     OW31432   4.624   2.724  11.302 -0.4054  0.5565 -0.1094
 6658SOL    HW131433   4.633   2.725  11.206  1.2776 -1.8046  0.0363
 6658SOL    HW231434   4.675   2.804  11.319 -0.4552  0.5011  0.2990
 6659SOL     OW31435   2.507   0.014   1.739 -0.2877 -0.0538  0.5816
 6659SOL    HW131436   2.423   0.024   1.785 -0.0739  1.3255  0.6642
 6659SOL    HW231437   2.515   4.644   1.737  1.9784  0.1142  2.1705
 6660SOL     OW31438   0.913   2.407   3.018 -0.1643  0.6651  0.0484
 6660SOL    HW131439   0.970   2.452   3.080  2.2728 -0.1708 -1.5921
 6660SOL    HW231440   0.865   2.481   2.980 -1.3546 -1.1381 -1.9847
 6661SOL     OW31441   1.850   4.059   7.042  0.1631  0.0313  0.1870
 6661SOL    HW131442   1.912   3.992   7.013 -0.2934 -0.6154  0.7007
 6661SOL    HW231443   1.904   4.138   7.044  0.4789 -0.0976 -2.7498
 6662SOL     OW31444   2.874   2.637   4.484 -0.0664 -1.3519 -0.2895
 6662SOL    HW131445   2.802   2.700   4.489  0.7335 -0.3098 -1.7690
 6662SOL    HW231446   2.831   2.553   4.496 -4.5431  1.1491  1.4811
 6663SOL     OW31447   1.345   0.351  13.676 -0.6275  0.0294 -0.2353
 6663SOL    HW131448   1.352   0.348  13.771 -3.2764 -1.4002 -0.1026
 6663SOL    HW231449   1.256   0.316  13.668 -0.7131  0.0711  0.5186
 6664SOL     OW31450   0.620   3.383   5.474 -0.1998 -0.3938  0.7136
 6664SOL    HW131451   0.666   3.463   5.447 -1.6852  0.0044 -0.6128
 6664SOL    HW231452   0.527   3.399   5.487 -0.3901 -2.1197  1.4809
 6665SOL     OW31453   3.241   1.809   2.852 -0.3578 -0.3071 -0.3887
 6665SOL    HW131454   3.235   1.903   2.841  0.2663 -0.2276 -0.0826
 6665SOL    HW231455   3.217   1.798   2.944  1.5706  1.3635  0.3176
 6666SOL     OW31456   2.291   4.404  12.898  0.6979  0.6613 -0.1886
 6666SOL    HW131457   2.265   4.315  12.920 -0.5769  1.3560  1.1726
 6666SOL    HW231458   2.375   4.383  12.859  0.4396 -0.2624 -0.2436
 6667SOL     OW31459   2.271   1.737   0.689 -0.1819  0.6364 -0.2764
 6667SOL    HW131460   2.239   1.708   0.604 -1.4792  1.6270 -0.1271
 6667SOL    HW231461   2.276   1.660   0.745 -0.0677 -0.3138 -1.6181
 6668SOL     OW31462   1.495   3.374   2.092  0.5133 -0.3405 -0.6028
 6668SOL    HW131463   1.420   3.434   2.096 -0.2077 -1.2965  0.2773
 6668SOL    HW231464   1.560   3.429   2.137 -0.3401  0.5586 -0.4716
 6669SOL     OW31465   3.718   2.751  12.857  0.3358 -0.8390  0.1239
 6669SOL    HW131466   3.626   2.773  12.872  0.6357  0.2355  0.3676
 6669SOL    HW231467   3.725   2.692  12.782  0.7088  0.4461 -0.8400
 6670SOL     OW31468   0.868   3.991   3.656 -0.3096  0.0802  0.1415
 6670SOL    HW131469   0.920   4.024   3.583  0.3170 -0.5329  0.3212
 6670SOL    HW231470   0.939   3.985   3.720  0.4988 -0.9954 -0.8538
 6671SOL     OW31471   4.284   4.534   6.262 -0.3880  0.8508  0.9325
 6671SOL    HW131472   4.295   4.599   6.332 -1.9088  1.4817  0.5953
 6671SOL    HW231473   4.309   4.590   6.188 -2.1800 -1.7837 -1.6465
 6672SOL     OW31474   2.990   0.340   8.870  0.2142 -0.9914 -0.3670
 6672SOL    HW131475   3.061   0.394   8.906  0.4149 -0.2374 -1.9171
 6672SOL    HW231476   2.920   0.404   8.880  0.5893 -0.6641  0.1423
 6673SOL     OW31477   4.515   1.693   1.487  0.1429 -0.7923 -0.2647
 6673SOL    HW131478   4.488   1.602   1.487 -1.1917 -0.3981 -1.5399
 6673SOL    HW231479   4.498   1.708   1.394  2.1377  1.1422 -0.3293
 6674SOL     OW31480   4.505   0.433   8.678 -0.2154  0.6007 -0.3956
 6674SOL    HW131481   4.555   0.366   8.632 -1.4799 -2.0640  2.0989
 6674SOL    HW231482   4.413   0.417   8.655 -0.9325  1.7713  1.7043
 6675SOL     OW31483   3.994   1.128   8.510 -0.4253 -0.2102 -0.3936
 6675SOL    HW131484   3.951   1.058   8.461  1.3110  0.2582 -2.5663
 6675SOL    HW231485   3.951   1.210   8.484  0.4679  0.1793 -0.6254
 6676SOL     OW31486   3.738   2.993   6.685  0.0361  0.0745 -0.3497
 6676SOL    HW131487   3.816   3.046   6.703  0.1377 -0.6881  1.5205
 6676SOL    HW231488   3.761   2.918   6.740 -2.2437 -0.4634 -0.1460
 6677SOL     OW31489   2.130   1.591   7.174  0.1430 -0.2947  0.8034
 6677SOL    HW131490   2.125   1.626   7.263 -2.5963  0.2889  0.4109
 6677SOL    HW231491   2.039   1.567   7.157 -0.0192  1.0330 -0.1649
 6678SOL     OW31492   3.359   0.357   5.054  0.1676  0.6810  0.1068
 6678SOL    HW131493   3.278   0.370   5.102  0.0145 -1.4279  0.4118
 6678SOL    HW231494   3.380   0.264   5.067 -1.3704 -0.0227 -2.5921
 6679SOL     OW31495   2.302   4.285   3.830  0.4834  0.1124  0.7121
 6679SOL    HW131496   2.255   4.265   3.911 -1.2673 -1.1939 -0.6489
 6679SOL    HW231497   2.294   4.200   3.787  1.3390  0.8332 -0.8528
 6680SOL     OW31498   4.691   2.541   4.675  0.3268 -0.1405 -0.8298
 6680SOL    HW131499   4.703   2.468   4.614 -1.0880 -0.3447 -0.8457
 6680SOL    HW231500   4.707   2.485   4.751 -2.0879  2.2631  1.4502
 6681SOL     OW31501   4.365   1.276   4.411  0.2944  0.8872  0.2774
 6681SOL    HW131502   4.311   1.352   4.430  1.2014  1.6367 -0.1593
 6681SOL    HW231503   4.365   1.276   4.315  1.5867  0.1366  0.2707
 6682SOL     OW31504   2.591   4.568   6.837 -0.4453  0.5200 -0.1374
 6682SOL    HW131505   2.570   4.597   6.748  1.1129  1.0162 -0.3376
 6682SOL    HW231506   2.605   4.474   6.824  1.5345  0.9722 -1.2613
 6683SOL     OW31507   2.900   0.178  14.527  0.0543 -0.3292 -0.6155
 6683SOL    HW131508   2.839   0.131  14.584  0.0322 -1.3385 -1.4889
 6683SOL    HW231509   2.889   0.123  14.450  2.5066 -2.7789  0.7858
 6684SOL     OW31510   3.702   1.082   4.073  0.1587 -0.2406 -0.0896
 6684SOL    HW131511   3.631   1.018   4.065 -1.7754  1.7402  1.2284
 6684SOL    HW231512   3.673   1.134   3.999  1.6671  1.6356  0.6400
 6685SOL     OW31513   0.719   1.072   3.953 -0.1727  0.3679  0.3741
 6685SOL    HW131514   0.786   1.004   3.960 -0.1897  0.1681 -1.4253
 6685SOL    HW231515   0.666   1.062   4.032  0.7356  1.2198  1.0948
 6686SOL     OW31516   4.706   0.069  13.173  0.4490 -0.0046  0.0827
 6686SOL    HW131517   4.612   0.072  13.192  0.8584 -2.0263  2.4322
 6686SOL    HW231518   4.719   0.157  13.136  0.1510  0.1116  0.2479
 6687SOL     OW31519   3.659   3.962  11.674 -0.2553  0.0536  0.0532
 6687SOL    HW131520   3.730   3.900  11.655 -0.8083 -0.8963  1.0597
 6687SOL    HW231521   3.579   3.910  11.681 -0.7794  0.7665 -0.7788
 6688SOL     OW31522   3.178   4.692  14.249 -0.1988  0.4876 -0.0837
 6688SOL    HW131523   3.087   4.691  14.277  0.1218 -0.2480  0.9111
 6688SOL    HW231524   3.232   4.683  14.327 -0.8319 -0.3747  0.2487
 6689SOL     OW31525   0.359   2.141   9.200  0.0685  0.4973  0.4828
 6689SOL    HW131526   0.362   2.208   9.268  1.0066  0.2593  0.6820
 6689SOL    HW231527   0.270   2.107   9.209 -0.9607  2.6591 -1.8848
 6690SOL     OW31528   1.137   0.695  14.689  0.6166  0.7695 -0.0765
 6690SOL    HW131529   1.202   0.624  14.689 -0.1899  0.0329 -0.9407
 6690SOL    HW231530   1.101   0.697  14.777  0.0460  2.3186 -0.3508
 6691SOL     OW31531   0.748   4.376  15.933  0.7662  0.6581  0.2780
 6691SOL    HW131532   0.668   4.337  15.898  1.6105 -1.6816  0.9519
 6691SOL    HW231533   0.726   4.469  15.935 -1.0816  0.2572 -1.2097
 6692SOL     OW31534   2.320   3.231   6.359 -0.0038 -0.2914 -0.0260
 6692SOL    HW131535   2.244   3.286   6.340  0.9667  1.2665  0.5812
 6692SOL    HW231536   2.361   3.281   6.429  0.8792  1.7049 -1.9774
 6693SOL     OW31537   1.343   1.427   6.450 -0.0332 -0.0341  0.1487
 6693SOL    HW131538   1.364   1.365   6.380  0.1008 -0.2407  0.3697
 6693SOL    HW231539   1.262   1.389   6.485  0.0038 -1.5579 -1.4114
 6694SOL     OW31540   4.603   0.593  10.923  0.2833 -0.1207 -0.4950
 6694SOL    HW131541   4.535   0.659  10.932  1.2906  0.9802 -0.9768
 6694SOL    HW231542   4.671   0.617  10.986 -1.5351 -1.2196  1.8751
 6695SOL     OW31543   0.673   2.612  12.044 -0.3318 -0.0840  0.0064
 6695SOL    HW131544   0.722   2.667  12.106  2.7059 -0.2469 -2.2456
 6695SOL    HW231545   0.640   2.544  12.102  0.8216 -0.0266  0.7302
 6696SOL     OW31546   0.030   3.509   4.302 -0.2038 -0.4810 -0.4733
 6696SOL    HW131547   0.038   3.599   4.272  0.2358 -0.2141  0.4465
 6696SOL    HW231548   0.121   3.481   4.315 -0.1283  0.2917  0.6963
 6697SOL     OW31549   2.824   1.060   7.438  0.0506 -0.0191  0.2027
 6697SOL    HW131550   2.895   1.031   7.382  0.4926 -1.1607  1.3693
 6697SOL    HW231551   2.865   1.088   7.520 -0.8490  1.4900  0.1424
 6698SOL     OW31552   1.315   3.362   2.668 -0.0940  0.3928 -0.3218
 6698SOL    HW131553   1.405   3.332   2.684  0.2111  2.4123  1.7680
 6698SOL    HW231554   1.306   3.327   2.579  1.5012 -0.0439 -0.3175
 6699SOL     OW31555   1.385   2.867   5.444 -0.2773  0.4975  0.6524
 6699SOL    HW131556   1.316   2.821   5.395  1.0250 -0.4012 -0.3668
 6699SOL    HW231557   1.469   2.832   5.412 -0.5199 -0.4429  1.0572
 6700SOL     OW31558   1.957   0.720   7.974  0.3953  0.2312  0.1259
 6700SOL    HW131559   1.925   0.809   7.960  0.0752 -0.0744 -1.1406
 6700SOL    HW231560   2.007   0.740   8.053 -0.7199 -0.4978  1.0225
 6701SOL     OW31561   3.735   2.863   8.557 -0.0714 -0.0973 -0.0573
 6701SOL    HW131562   3.730   2.800   8.629 -1.7388  0.1727  0.0634
 6701SOL    HW231563   3.827   2.867   8.532 -0.1289 -0.7703 -0.3696
 6702SOL     OW31564   0.551   3.484  17.556 -0.1166 -0.1327 -0.1659
 6702SOL    HW131565   0.518   3.396  17.573 -0.7174  0.2990  0.8441
 6702SOL    HW231566   0.638   3.471  17.516  0.5139  1.4777  0.7076
 6703SOL     OW31567   2.086   2.153   8.595 -0.2988  0.2028  0.4695
 6703SOL    HW131568   2.116   2.199   8.516 -0.3215  2.1203  1.5797
 6703SOL    HW231569   2.160   2.092   8.599  1.1217  1.9034  0.3527
 6704SOL     OW31570   3.414   2.973   2.566  0.3041  0.1143 -0.0759
 6704SOL    HW131571   3.401   3.062   2.533 -1.4693 -0.2436 -0.3608
 6704SOL    HW231572   3.509   2.968   2.556  0.5948  3.5031  1.1389
 6705SOL     OW31573   0.737   3.148   7.432 -0.3475 -0.1669  0.0970
 6705SOL    HW131574   0.763   3.240   7.444 -1.6787  0.1031  0.8040
 6705SOL    HW231575   0.642   3.147   7.434 -0.4152  3.1499 -0.8782
 6706SOL     OW31576   3.419   1.339  13.164  0.2026  0.5540  0.2386
 6706SOL    HW131577   3.437   1.271  13.230 -0.6956 -0.3501 -0.4444
 6706SOL    HW231578   3.367   1.403  13.212  0.4303  0.9337 -0.0279
 6707SOL     OW31579   0.354   0.682   5.827 -0.0202  0.0481  0.2740
 6707SOL    HW131580   0.362   0.673   5.732 -0.6327  0.9342  0.1338
 6707SOL    HW231581   0.420   0.620   5.857  0.5172 -0.8810 -2.8479
 6708SOL     OW31582   1.304   3.472   0.477  0.3092  0.4546  0.0515
 6708SOL    HW131583   1.263   3.552   0.509  0.9003  1.1274 -0.8851
 6708SOL    HW231584   1.358   3.449   0.553  3.7199  0.6681 -2.3306
 6709SOL     OW31585   1.811   0.653   8.315 -0.0441  0.4223  0.1797
 6709SOL    HW131586   1.905   0.638   8.315  0.1828  1.8710  2.5214
 6709SOL    HW231587   1.786   0.586   8.379 -0.2969 -1.7913 -2.2597
 6710SOL     OW31588   1.384   3.672   6.446 -0.1203  0.2099 -0.2043
 6710SOL    HW131589   1.353   3.751   6.491  0.7166  0.6826 -0.4527
 6710SOL    HW231590   1.301   3.625   6.441 -0.6743  1.1539  0.0616
 6711SOL     OW31591   2.168   2.325   6.687  0.3921 -0.1557  0.0570
 6711SOL    HW131592   2.177   2.232   6.666  1.6002 -0.4647  1.9518
 6711SOL    HW231593   2.234   2.362   6.629  0.8319  0.4225  0.9146
 6712SOL     OW31594   1.835   1.979  16.758 -0.3698  0.2384 -0.1183
 6712SOL    HW131595   1.819   1.898  16.806  0.5260  0.3827  0.4129
 6712SOL    HW231596   1.874   2.038  16.823 -1.0760  0.1956  0.3494
 6713SOL     OW31597   1.846   3.630   5.837  0.9649  0.3457  0.2512
 6713SOL    HW131598   1.934   3.649   5.804  1.0744 -0.0232  0.3390
 6713SOL    HW231599   1.847   3.535   5.847  0.2084  0.5708  2.3927
 6714SOL     OW31600   1.525   1.870   5.370 -0.5481  0.0588  0.2318
 6714SOL    HW131601   1.532   1.788   5.419  2.0479 -0.0833 -0.3709
 6714SOL    HW231602   1.429   1.875   5.374 -0.4990  1.6935 -0.4398
 6715SOL     OW31603   2.731   1.402   3.749  0.2235  0.0507 -0.2783
 6715SOL    HW131604   2.812   1.432   3.789 -1.1619 -0.9995  3.3320
 6715SOL    HW231605   2.671   1.474   3.768 -0.7707 -0.4002 -1.7448
 6716SOL     OW31606   4.118   3.040  10.227  0.0219  0.0319 -0.2881
 6716SOL    HW131607   4.116   3.058  10.321  1.4520 -0.2056 -0.2188
 6716SOL    HW231608   4.094   2.947  10.233  1.4618 -0.4002 -1.3476
 6717SOL     OW31609   2.399   1.836   9.287 -0.4822  0.1045 -0.1284
 6717SOL    HW131610   2.311   1.820   9.321 -0.7513  0.5931 -0.6034
 6717SOL    HW231611   2.389   1.925   9.254 -0.8785  0.0844 -0.0637
 6718SOL     OW31612   3.083   1.388   6.448  0.2177 -0.0980  1.1393
 6718SOL    HW131613   3.002   1.338   6.444 -0.7590  1.4034  2.3429
 6718SOL    HW231614   3.045   1.461   6.497  0.4899  0.3446  0.6920
 6719SOL     OW31615   2.593   4.405   5.031 -0.4369  0.0953  0.0353
 6719SOL    HW131616   2.637   4.421   5.114 -1.1656  0.3072  0.3809
 6719SOL    HW231617   2.661   4.399   4.964  0.7613 -1.3253  1.3671
 6720SOL     OW31618   4.649   4.674   9.861 -0.0586  0.4166  0.1501
 6720SOL    HW131619   0.001   4.707   9.906 -1.8254  3.4914  0.9450
 6720SOL    HW231620   4.682   4.636   9.780  0.5286  0.4230  0.3840
 6721SOL     OW31621   4.691   2.102   7.950 -0.1260 -0.3150  0.2181
 6721SOL    HW131622   0.036   2.109   8.013 -0.7233 -0.7543  0.9377
 6721SOL    HW231623   4.619   2.116   8.012  1.1842 -0.0444  1.6613
 6722SOL     OW31624   0.431   0.727   8.084  0.1181 -0.3341  0.3729
 6722SOL    HW131625   0.450   0.790   8.014  1.9118 -0.0668  1.1003
 6722SOL    HW231626   0.448   0.782   8.160 -1.1809  0.7868 -0.1421
 6723SOL     OW31627   4.474   3.673   4.254  0.0417  0.4478  0.4327
 6723SOL    HW131628   4.534   3.666   4.180 -0.6277  1.3831 -0.1948
 6723SOL    HW231629   4.530   3.732   4.304  2.4103 -1.2668 -0.2049
 6724SOL     OW31630   2.631   3.182   7.602 -0.2093 -0.0050 -0.0938
 6724SOL    HW131631   2.670   3.239   7.668  0.9752  1.1530 -1.8038
 6724SOL    HW231632   2.706   3.180   7.541  0.3326 -1.0189  0.5926
 6725SOL     OW31633   2.126   3.866   3.921 -0.2707  0.7420 -0.2029
 6725SOL    HW131634   2.136   3.789   3.865 -1.4121  1.0628 -0.8296
 6725SOL    HW231635   2.212   3.890   3.957 -0.1186  1.8809 -1.3526
 6726SOL     OW31636   3.085   2.757  17.026 -0.6965  0.1552 -0.6453
 6726SOL    HW131637   3.068   2.719  16.940 -2.5508  1.3471 -0.8034
 6726SOL    HW231638   3.048   2.688  17.081 -0.3594  0.5055  0.0276
 6727SOL     OW31639   3.295   0.319   2.668 -0.1310  0.5137  1.1286
 6727SOL    HW131640   3.383   0.340   2.698  0.2201 -1.0562  1.1695
 6727SOL    HW231641   3.303   0.311   2.573 -2.9504 -0.6037  1.0045
 6728SOL     OW31642   2.992   3.334   3.553 -0.0650  0.1296  0.1348
 6728SOL    HW131643   3.080   3.323   3.518 -0.0640 -1.0010  0.4912
 6728SOL    HW231644   2.994   3.282   3.634  2.0605  0.0171 -0.0015
 6729SOL     OW31645   3.521   4.077  17.067 -0.5058  0.4539  0.5964
 6729SOL    HW131646   3.560   4.152  17.022 -0.3880  0.5281  0.8232
 6729SOL    HW231647   3.521   4.015  16.994 -1.4065  1.7250 -0.4904
 6730SOL     OW31648   1.572   3.347  13.940 -0.5015 -0.5764  0.0798
 6730SOL    HW131649   1.501   3.305  13.892 -1.0171  0.8042 -0.3853
 6730SOL    HW231650   1.596   3.428  13.895  1.2557 -0.1394  1.7936
 6731SOL     OW31651   1.102   3.286   2.184 -0.3156 -0.5394 -0.2596
 6731SOL    HW131652   1.109   3.200   2.141 -0.8659  0.0532 -1.5289
 6731SOL    HW231653   1.077   3.344   2.112 -2.0624 -0.4532  0.4109
 6732SOL     OW31654   1.914   2.668   4.396 -0.4754  0.2202  0.4574
 6732SOL    HW131655   1.862   2.599   4.356 -1.3434  0.3792  1.3266
 6732SOL    HW231656   1.973   2.688   4.323 -0.7313  0.6577  0.3690
 6733SOL     OW31657   3.623   0.533   6.534 -0.3986  0.3535  0.3071
 6733SOL    HW131658   3.582   0.467   6.479 -2.1173  1.6373  0.0346
 6733SOL    HW231659   3.693   0.560   6.475 -0.9237  1.8606  0.3553
 6734SOL     OW31660   0.100   3.073   3.265  0.5171  0.2937  0.2461
 6734SOL    HW131661   0.066   3.067   3.176 -3.6242 -3.3928  2.0639
 6734SOL    HW231662   0.183   3.111   3.238  0.4681  1.2488  1.4104
 6735SOL     OW31663   3.762   1.173   2.114  0.1155 -0.2360 -0.2250
 6735SOL    HW131664   3.702   1.107   2.151  0.5589 -0.2108  0.5294
 6735SOL    HW231665   3.711   1.193   2.036  1.5886 -0.3867 -1.2173
 6736SOL     OW31666   2.258   2.899  12.673  0.7073  0.2098 -0.0721
 6736SOL    HW131667   2.335   2.868  12.720 -1.7600 -1.1703  3.0357
 6736SOL    HW231668   2.264   2.989  12.704  2.6956 -0.1161  0.4828
 6737SOL     OW31669   2.700   2.008   4.279 -0.6323  0.1013  0.2466
 6737SOL    HW131670   2.677   1.976   4.192 -1.1187 -0.7137  0.6766
 6737SOL    HW231671   2.615   2.017   4.322 -0.7827 -2.7682  0.5359
 6738SOL     OW31672   0.325   4.377   8.666 -0.2772 -0.0232 -0.3612
 6738SOL    HW131673   0.333   4.318   8.741  0.8718 -0.5205 -0.8780
 6738SOL    HW231674   0.279   4.453   8.703  0.9056 -0.1679  1.4246
 6739SOL     OW31675   4.286   2.249   1.366  0.2899 -0.3207  0.1840
 6739SOL    HW131676   4.291   2.338   1.401  4.1482 -0.9509  1.2675
 6739SOL    HW231677   4.242   2.209   1.441  2.8602  0.2173  1.9746
 6740SOL     OW31678   1.204   3.852   3.404 -1.0163 -0.2844  0.1893
 6740SOL    HW131679   1.139   3.782   3.405 -0.8863 -0.4051  0.2131
 6740SOL    HW231680   1.198   3.920   3.471  0.2465 -0.6436  0.6666
 6741SOL     OW31681   1.662   2.085   6.277  0.0773 -0.6059  0.7579
 6741SOL    HW131682   1.694   2.111   6.363  1.7055 -0.1984  0.0326
 6741SOL    HW231683   1.645   1.993   6.298  1.1382 -0.8428  0.5558
 6742SOL     OW31684   2.365   3.070   5.447  0.0963  0.0776 -0.1129
 6742SOL    HW131685   2.333   3.109   5.366 -0.0771  2.2301  0.9987
 6742SOL    HW231686   2.337   2.978   5.442 -0.2903  0.1940 -0.0716
 6743SOL     OW31687   1.354   3.091   7.003 -0.6912  0.6335 -0.1439
 6743SOL    HW131688   1.407   3.032   7.058 -0.4231  1.3867  0.4012
 6743SOL    HW231689   1.422   3.110   6.939 -1.1260  0.3748 -0.6819
 6744SOL     OW31690   2.578   3.925   4.692 -0.0064  0.0945 -0.2107
 6744SOL    HW131691   2.608   3.987   4.626 -2.2633 -0.2787 -1.6231
 6744SOL    HW231692   2.611   3.954   4.777  3.3677 -0.5240 -1.3149
 6745SOL     OW31693   1.484   0.321   5.148 -0.6411  0.9538  0.1786
 6745SOL    HW131694   1.509   0.335   5.056  2.1846 -0.2620  0.7592
 6745SOL    HW231695   1.471   0.227   5.143  0.2351  1.0446 -3.9531
 6746SOL     OW31696   3.401   1.039  17.433  0.9306 -0.5258 -0.3882
 6746SOL    HW131697   3.310   1.048  17.462  0.8043  1.3000 -1.3827
 6746SOL    HW231698   3.409   0.948  17.403 -0.2150 -1.1371  1.1434
 6747SOL     OW31699   3.765   1.564  11.243 -0.5140 -0.3277 -0.3392
 6747SOL    HW131700   3.713   1.618  11.185  0.2337  1.1874  0.3956
 6747SOL    HW231701   3.852   1.604  11.252 -0.4376 -0.8076  1.1472
 6748SOL     OW31702   2.745   1.937   2.115  0.0634  0.2584 -0.2040
 6748SOL    HW131703   2.723   1.877   2.186 -1.2245  0.8983 -0.0685
 6748SOL    HW231704   2.657   1.972   2.104 -0.5525 -1.1256  0.4460
 6749SOL     OW31705   0.411   1.272   4.868 -0.1308 -0.2147 -0.1537
 6749SOL    HW131706   0.328   1.307   4.835 -1.0433  1.4670  3.8762
 6749SOL    HW231707   0.398   1.290   4.962 -1.6577  0.6498 -0.5280
 6750SOL     OW31708   3.594   3.301   4.919 -1.0211  0.3680 -0.4167
 6750SOL    HW131709   3.584   3.350   4.837 -1.7470 -0.9293 -1.1078
 6750SOL    HW231710   3.680   3.331   4.947  0.3456 -3.1537 -0.9235
 6751SOL     OW31711   4.528   2.056   6.470 -0.0815  0.1837 -0.0162
 6751SOL    HW131712   4.579   2.057   6.389 -0.3097 -2.6639 -0.1819
 6751SOL    HW231713   4.590   2.007   6.524 -1.3125 -1.1473  0.1749
 6752SOL     OW31714   3.195   0.051   1.945  0.5974  0.2417 -0.9401
 6752SOL    HW131715   3.278   0.047   1.896  0.3006 -1.2622 -1.3320
 6752SOL    HW231716   3.133   0.076   1.877  0.5900  0.5922 -0.8005
 6753SOL     OW31717   2.078   0.068   6.927 -0.1338 -0.1228 -0.1269
 6753SOL    HW131718   2.143   0.002   6.951 -0.7441  0.0444  1.9875
 6753SOL    HW231719   1.996   0.020   6.941 -0.7362  0.9717  0.1267
 6754SOL     OW31720   2.017   0.082   1.662 -0.0634 -0.6230  0.7105
 6754SOL    HW131721   2.001   0.029   1.584 -0.0436 -0.9182  0.9084
 6754SOL    HW231722   1.941   0.140   1.667  0.4601  0.4131 -3.1437
 6755SOL     OW31723   1.598   2.764  15.645 -0.0793 -0.0719 -0.3899
 6755SOL    HW131724   1.520   2.770  15.589 -0.1246 -0.4919 -0.3764
 6755SOL    HW231725   1.666   2.796  15.586  0.2578 -0.4796 -0.2194
 6756SOL     OW31726   0.720   0.219  11.482  0.1114  0.2975 -0.1019
 6756SOL    HW131727   0.799   0.263  11.451  0.8968  0.0047  1.4882
 6756SOL    HW231728   0.742   0.128  11.460  1.0700  0.3891  0.4698
 6757SOL     OW31729   2.934   0.964   7.802 -0.1402 -0.3119 -0.1074
 6757SOL    HW131730   2.951   1.047   7.757 -2.3428 -1.1910 -2.5889
 6757SOL    HW231731   3.021   0.930   7.823  0.4833  2.1289  1.1603
 6758SOL     OW31732   0.530   3.982  16.703 -0.0076 -0.3163  0.6861
 6758SOL    HW131733   0.479   3.902  16.700 -1.5070  0.6888 -0.6712
 6758SOL    HW231734   0.474   4.048  16.663  2.5557  1.2741 -0.2936
 6759SOL     OW31735   4.425   2.358  12.718  0.0340  0.2221 -0.0006
 6759SOL    HW131736   4.460   2.441  12.751 -0.6777  0.6861 -0.4238
 6759SOL    HW231737   4.430   2.303  12.797 -0.6150  0.0962 -0.0494
 6760SOL     OW31738   0.350   0.661   4.500  0.5831 -0.1705 -0.6675
 6760SOL    HW131739   0.439   0.627   4.512  0.6713  1.2185  2.5260
 6760SOL    HW231740   0.344   0.649   4.405  0.2652 -0.8176 -0.5714
 6761SOL     OW31741   3.740   3.224   4.621 -0.4013 -0.1008  0.4598
 6761SOL    HW131742   3.732   3.183   4.535 -0.2563  1.1401 -0.1429
 6761SOL    HW231743   3.728   3.148   4.678 -3.0474  0.1412  0.2116
 6762SOL     OW31744   0.664   1.510   7.535  0.1705 -0.0236  0.3951
 6762SOL    HW131745   0.747   1.468   7.558 -0.4500 -2.0370 -1.0251
 6762SOL    HW231746   0.678   1.602   7.560  0.2349 -0.0349  0.4014
 6763SOL     OW31747   4.148   1.063   8.159 -0.3263  0.2565  0.0154
 6763SOL    HW131748   4.183   0.974   8.157  2.1194  1.2164  0.6937
 6763SOL    HW231749   4.194   1.111   8.228  1.3527 -0.8844 -0.3041
 6764SOL     OW31750   1.785   1.580   8.304  0.4022 -0.0431  0.0381
 6764SOL    HW131751   1.867   1.532   8.304  1.6137  2.0070  2.1725
 6764SOL    HW231752   1.736   1.543   8.230 -1.3657 -0.9482  1.6615
 6765SOL     OW31753   1.515   2.508  10.725 -0.2284  0.6865 -0.6350
 6765SOL    HW131754   1.498   2.415  10.739  0.0587  0.7422  0.1090
 6765SOL    HW231755   1.436   2.536  10.772 -0.4264 -1.4217  0.2870
 6766SOL     OW31756   2.719   3.017   8.127 -0.0750 -0.3953 -0.2472
 6766SOL    HW131757   2.632   3.048   8.151  0.4660 -0.5614  1.8836
 6766SOL    HW231758   2.765   3.061   8.199 -0.0699 -2.3486  0.9462
 6767SOL     OW31759   0.700   4.045  17.026 -0.1953  0.5608 -0.1129
 6767SOL    HW131760   0.635   3.984  16.990  0.7205  0.2672 -1.2949
 6767SOL    HW231761   0.706   4.026  17.119 -1.7492 -1.3342 -0.3980
 6768SOL     OW31762   4.276   1.404   2.560 -0.0294 -0.1495 -0.0543
 6768SOL    HW131763   4.371   1.401   2.560 -0.1020 -2.2598 -0.6333
 6768SOL    HW231764   4.259   1.437   2.648 -0.2825 -0.4173 -0.0017
 6769SOL     OW31765   0.264   0.925   7.867  0.0410  0.4921 -0.1110
 6769SOL    HW131766   0.246   0.884   7.951  0.5091  1.9850  0.7102
 6769SOL    HW231767   0.220   0.864   7.807  0.6791  1.9987 -2.1287
 6770SOL     OW31768   3.357   4.085   6.382  0.4896  0.3617 -0.5390
 6770SOL    HW131769   3.394   4.111   6.297 -2.9567  1.7338 -1.5911
 6770SOL    HW231770   3.286   4.025   6.358 -0.2987  1.0318  0.1495
 6771SOL     OW31771   0.414   4.309  14.243  0.0503 -0.1427  0.7388
 6771SOL    HW131772   0.318   4.301  14.245  0.0240 -0.1171 -0.4018
 6771SOL    HW231773   0.419   4.404  14.249 -0.4636 -0.0450 -0.3827
 6772SOL     OW31774   2.269   3.374   6.891 -0.0894  0.4742 -0.4550
 6772SOL    HW131775   2.188   3.392   6.938 -0.5205 -2.3092 -0.1307
 6772SOL    HW231776   2.247   3.290   6.851  0.1642 -0.1634  0.7553
 6773SOL     OW31777   2.559   2.791   0.154  0.3473  0.2090  0.1151
 6773SOL    HW131778   2.509   2.833   0.084 -0.1103  1.1479  1.0007
 6773SOL    HW231779   2.531   2.854   0.222 -0.7468  0.0905 -0.2306
 6774SOL     OW31780   0.091   2.404   6.117 -0.3627 -0.5282  1.1239
 6774SOL    HW131781   0.161   2.341   6.100 -0.7116 -0.0143 -2.3424
 6774SOL    HW231782   0.118   2.447   6.198 -0.0735 -0.2741  0.8955
 6775SOL     OW31783   2.780   1.479   3.407  0.6359 -0.0409  0.5009
 6775SOL    HW131784   2.777   1.484   3.502  1.2902 -0.1531  0.5222
 6775SOL    HW231785   2.711   1.536   3.372 -0.2870  0.5313  3.2269
 6776SOL     OW31786   4.152   2.238  15.929 -0.4486 -0.3074 -0.1623
 6776SOL    HW131787   4.181   2.204  15.844 -1.1967 -1.4872  0.0505
 6776SOL    HW231788   4.169   2.330  15.910 -2.5095  0.3041  1.0497
 6777SOL     OW31789   1.116   2.445   5.407 -0.2619 -0.7644 -0.1727
 6777SOL    HW131790   1.162   2.529   5.404  0.8565 -1.3197  1.9345
 6777SOL    HW231791   1.150   2.404   5.327  2.5271  1.5872 -0.2142
 6778SOL     OW31792   1.665   3.989   6.482  0.1765 -0.3548  0.5535
 6778SOL    HW131793   1.682   3.916   6.541 -0.3415 -1.1072 -0.2120
 6778SOL    HW231794   1.631   3.939   6.407  1.5829  1.1828 -1.1114
 6779SOL     OW31795   2.918   4.704  17.251  0.5517 -0.2221  0.9925
 6779SOL    HW131796   2.828   4.672  17.242  0.7882 -0.7329  0.4158
 6779SOL    HW231797   2.941   0.016  17.165  0.5934 -3.2558 -0.3115
 6780SOL     OW31798   1.659   3.185   5.900 -0.3707 -0.7825  0.0431
 6780SOL    HW131799   1.600   3.124   5.945  1.5610 -3.0043 -0.4662
 6780SOL    HW231800   1.698   3.236   5.971 -0.6034 -3.4324  2.0385
 6781SOL     OW31801   4.687   3.593  16.894 -0.2781  0.0136  0.1463
 6781SOL    HW131802   4.659   3.609  16.804  0.1380 -1.3197 -0.2090
 6781SOL    HW231803   0.053   3.569  16.894 -0.1668  0.4500  0.7877
 6782SOL     OW31804   2.222   0.821  17.520  0.3440 -0.1921 -0.4225
 6782SOL    HW131805   2.311   0.851  17.504 -0.0906  1.2724 -0.1180
 6782SOL    HW231806   2.206   0.767  17.442  0.9966  1.1793 -1.5079
 6783SOL     OW31807   4.109   0.993   2.660 -0.4304  0.6154 -0.5163
 6783SOL    HW131808   4.125   1.043   2.580  0.4165  1.1437 -0.0108
 6783SOL    HW231809   4.035   0.947   2.619 -0.2821 -0.8959  0.9093
 6784SOL     OW31810   4.243   1.242   1.121 -0.0178 -0.5630  0.1043
 6784SOL    HW131811   4.230   1.273   1.031  0.4053  0.3281  0.3509
 6784SOL    HW231812   4.240   1.330   1.159 -0.7154 -0.6190  0.1818
 6785SOL     OW31813   2.077   2.376   7.840 -0.6389 -0.5499 -0.8227
 6785SOL    HW131814   1.994   2.354   7.884  0.0587  0.9587  1.2454
 6785SOL    HW231815   2.141   2.393   7.909 -1.7029  0.3747 -0.0670
 6786SOL     OW31816   1.826   3.270   6.432 -0.5724  0.3979 -0.8503
 6786SOL    HW131817   1.792   3.222   6.507 -0.6997 -1.3392 -2.0367
 6786SOL    HW231818   1.777   3.352   6.441 -0.8084  0.1766 -0.1076
 6787SOL     OW31819   4.633   1.397  12.629  0.3858 -0.3054  0.3787
 6787SOL    HW131820   4.712   1.374  12.677  0.4242  0.6706  0.7831
 6787SOL    HW231821   4.612   1.485  12.663  0.5830 -0.2412  0.3326
 6788SOL     OW31822   0.837   2.629   2.607 -0.0559  0.3636  0.3407
 6788SOL    HW131823   0.836   2.713   2.652 -0.8532  1.5818 -1.9782
 6788SOL    HW231824   0.743   2.610   2.615 -0.0936  1.2010  1.7745
 6789SOL     OW31825   1.905   1.508   1.884 -0.3201  0.3371  0.5185
 6789SOL    HW131826   1.846   1.577   1.853 -1.7337  0.1007  2.6569
 6789SOL    HW231827   1.989   1.546   1.859 -0.9570  1.3923 -0.0143
 6790SOL     OW31828   3.069   3.972   8.258  0.6865 -0.0328  0.2131
 6790SOL    HW131829   3.020   3.953   8.338  0.6856 -1.3875 -0.1032
 6790SOL    HW231830   3.000   4.010   8.204  1.9336  0.7488 -0.8412
 6791SOL     OW31831   1.946   3.703  15.532 -0.1817 -0.3398 -0.2682
 6791SOL    HW131832   2.020   3.652  15.567  0.6034  2.0668  1.5219
 6791SOL    HW231833   1.888   3.627  15.524 -0.7129  0.1083 -0.6031
 6792SOL     OW31834   3.966   0.746   3.456  0.4811  0.1365  0.0694
 6792SOL    HW131835   4.007   0.710   3.535 -0.3239 -0.7132  0.1117
 6792SOL    HW231836   3.898   0.804   3.490  0.8760  0.7363 -0.1740
 6793SOL     OW31837   1.258   4.423   4.768  0.0616  0.2388 -0.3852
 6793SOL    HW131838   1.165   4.405   4.782 -0.3766  1.8826 -1.1898
 6793SOL    HW231839   1.286   4.430   4.860 -1.2834 -1.7898  0.1787
 6794SOL     OW31840   4.296   4.443   6.612 -0.3218  0.3117 -0.4756
 6794SOL    HW131841   4.211   4.424   6.572  0.1679  1.1450 -1.9262
 6794SOL    HW231842   4.301   4.356   6.651  1.0907  0.7119  0.2443
 6795SOL     OW31843   0.858   4.518   0.985 -0.5075  0.0966 -0.1280
 6795SOL    HW131844   0.783   4.513   1.045 -0.7926  3.4126 -0.2054
 6795SOL    HW231845   0.928   4.506   1.050 -1.9829 -1.6969  1.0976
 6796SOL     OW31846   0.644   0.249   7.459  0.2024 -0.8183 -0.6343
 6796SOL    HW131847   0.666   0.195   7.535  0.6940  0.2283 -0.0293
 6796SOL    HW231848   0.598   0.183   7.407 -1.8218 -0.4048  0.6243
 6797SOL     OW31849   3.685   1.078   7.992  0.9408 -0.0225 -0.3054
 6797SOL    HW131850   3.780   1.085   7.981  0.8392  0.8627 -0.5737
 6797SOL    HW231851   3.676   0.990   7.956  0.3722  0.2811 -0.8950
 6798SOL     OW31852   3.364   0.303   1.861 -0.5359  0.3841 -0.1781
 6798SOL    HW131853   3.283   0.341   1.895 -0.4829 -0.7940  1.2793
 6798SOL    HW231854   3.350   0.275   1.771 -0.1909  0.9755 -0.4174
 6799SOL     OW31855   1.010   4.260   4.736  0.2011  0.4465 -0.6903
 6799SOL    HW131856   0.926   4.255   4.781  1.1685  0.7750  1.1235
 6799SOL    HW231857   1.052   4.177   4.759 -2.8174 -1.1238 -0.9004
 6800SOL     OW31858   1.702   2.083  15.504 -0.4448  0.0262 -0.2308
 6800SOL    HW131859   1.752   2.037  15.571 -1.9560 -1.6671 -0.2662
 6800SOL    HW231860   1.632   2.115  15.559 -0.6367  0.4184 -0.7004
 6801SOL     OW31861   1.158   0.453   5.702  0.3493  0.6282 -0.3916
 6801SOL    HW131862   1.250   0.476   5.695  0.2605  0.7146 -1.2863
 6801SOL    HW231863   1.119   0.538   5.722  0.5146  0.2076  1.7384
 6802SOL     OW31864   4.409   1.453   1.451 -0.1935 -0.1497 -0.3926
 6802SOL    HW131865   4.339   1.490   1.397 -1.1837  0.6311  1.4149
 6802SOL    HW231866   4.450   1.394   1.388  0.1489 -0.6742  0.3288
 6803SOL     OW31867   0.275   0.006   3.005  0.0899 -0.0781 -0.3940
 6803SOL    HW131868   0.286   4.703   3.096 -2.4642  1.1560  0.3076
 6803SOL    HW231869   0.187   0.042   2.998 -1.0415 -2.6307  0.7253
 6804SOL     OW31870   1.141   1.716   3.390 -0.3122  0.0804  0.0457
 6804SOL    HW131871   1.119   1.783   3.325 -3.1275  0.9084  1.8897
 6804SOL    HW231872   1.236   1.731   3.385 -0.4905  1.6659  1.4801
 6805SOL     OW31873   3.019   0.234  11.451  0.4162 -0.1668  0.1719
 6805SOL    HW131874   2.964   0.299  11.406  0.8087  0.0521  0.0068
 6805SOL    HW231875   3.055   0.278  11.528  0.0147  0.6212 -0.0908
 6806SOL     OW31876   3.910   3.898  14.358  0.0122 -0.2286  0.0213
 6806SOL    HW131877   3.825   3.876  14.319 -0.6994  1.5597  0.5300
 6806SOL    HW231878   3.949   3.956  14.293  0.0442 -0.5050 -0.2048
 6807SOL     OW31879   3.632   4.630   6.721  0.5927 -0.6877  0.4778
 6807SOL    HW131880   3.602   4.549   6.681 -0.7044 -0.7309  1.5275
 6807SOL    HW231881   3.724   4.610   6.739  1.2869  0.6947 -1.5529
 6808SOL     OW31882   1.859   1.518   6.767  0.2826 -0.1503 -0.0927
 6808SOL    HW131883   1.895   1.430   6.775  1.6050  0.5936  2.1007
 6808SOL    HW231884   1.794   1.522   6.836  0.2540 -1.9793 -0.0269
 6809SOL     OW31885   0.191   1.210  15.164  0.1216 -0.7019 -0.6148
 6809SOL    HW131886   0.145   1.240  15.086  1.5514  0.9905 -0.8182
 6809SOL    HW231887   0.185   1.115  15.155  3.2161 -1.1609  2.2800
 6810SOL     OW31888   3.934   3.974  16.543  0.5187  1.0598  0.2952
 6810SOL    HW131889   3.891   3.889  16.548 -2.2928  2.3380 -1.7735
 6810SOL    HW231890   4.019   3.944  16.575 -0.3435 -1.2540  0.3954
 6811SOL     OW31891   2.857   4.052   2.418 -0.1075  0.0064 -0.1622
 6811SOL    HW131892   2.906   4.114   2.364 -0.9657  0.0582 -0.8892
 6811SOL    HW231893   2.921   4.049   2.490  0.9227  1.1057 -1.0384
 6812SOL     OW31894   2.772   0.587   5.085 -0.5691  0.5059  1.1744
 6812SOL    HW131895   2.708   0.631   5.141  0.1747  1.8900  0.9160
 6812SOL    HW231896   2.834   0.554   5.150 -0.2322 -2.6255 -0.7198
 6813SOL     OW31897   3.116   1.889  11.777  0.4782 -0.3145  0.6150
 6813SOL    HW131898   3.155   1.916  11.860  0.6483  2.2636 -0.2676
 6813SOL    HW231899   3.053   1.823  11.805 -1.5164  0.7730 -1.2492
 6814SOL     OW31900   1.600   2.242  12.851  0.0841  0.1471  0.1192
 6814SOL    HW131901   1.525   2.300  12.855 -2.4074 -3.1588  0.9058
 6814SOL    HW231902   1.648   2.283  12.923  0.6047 -1.5666  0.7485
 6815SOL     OW31903   0.790   2.558   1.958 -0.0097  0.7736 -0.2599
 6815SOL    HW131904   0.716   2.613   1.986 -0.6996 -0.5814  0.5827
 6815SOL    HW231905   0.752   2.474   1.984  1.6446  0.3326  0.7381
 6816SOL     OW31906   4.080   0.769   1.199 -0.4559 -0.7689 -0.6780
 6816SOL    HW131907   4.076   0.722   1.282  0.1058 -0.3453 -0.4067
 6816SOL    HW231908   4.157   0.824   1.213  0.6534 -2.3186 -0.6705
 6817SOL     OW31909   0.075   2.173   1.586 -0.3195 -0.1471  0.4467
 6817SOL    HW131910   4.723   2.127   1.616 -0.0894 -0.0633  1.1667
 6817SOL    HW231911   0.070   2.253   1.638 -0.2100  0.6032 -0.6957
 6818SOL     OW31912   0.523   3.145   1.597  0.1888 -0.0732 -0.4874
 6818SOL    HW131913   0.460   3.103   1.538  0.4800 -0.4044 -0.5608
 6818SOL    HW231914   0.513   3.091   1.675  0.2481  1.1714  0.3867
 6819SOL     OW31915   2.490   3.744   2.792  0.5729 -0.1442 -0.6221
 6819SOL    HW131916   2.536   3.798   2.728  0.8662  0.2844 -0.0468
 6819SOL    HW231917   2.521   3.658   2.764  1.3790 -0.3081  0.7411
 6820SOL     OW31918   0.702   3.087   8.952  0.5543 -0.3639 -0.2778
 6820SOL    HW131919   0.725   3.177   8.930  1.1249 -0.7500 -1.2609
 6820SOL    HW231920   0.787   3.043   8.960  0.0930 -1.2869 -0.4967
 6821SOL     OW31921   2.810   2.714   3.156  0.0866 -0.0113  0.2893
 6821SOL    HW131922   2.855   2.760   3.085 -1.2784  1.3091  0.2803
 6821SOL    HW231923   2.765   2.795   3.181  0.0494  0.1619 -0.3449
 6822SOL     OW31924   1.423   2.940   3.246 -0.2253 -0.4027 -0.5609
 6822SOL    HW131925   1.491   2.947   3.179  0.1164  1.9986  0.0124
 6822SOL    HW231926   1.443   2.866   3.303 -3.8944 -0.9763 -0.0438
 6823SOL     OW31927   3.862   4.237  13.829  0.0681 -0.0663  0.6752
 6823SOL    HW131928   3.955   4.221  13.814 -0.2120  1.8039 -3.0187
 6823SOL    HW231929   3.822   4.182  13.762  1.1456  0.9160 -0.7706
 6824SOL     OW31930   3.354   1.606   1.948  0.0261  0.0085  0.1404
 6824SOL    HW131931   3.411   1.607   1.871 -0.3600  0.1729 -0.1429
 6824SOL    HW231932   3.400   1.538   1.997 -1.7131 -1.1251  0.2205
 6825SOL     OW31933   2.712   0.649   0.873  0.2887  0.0257  0.5661
 6825SOL    HW131934   2.683   0.729   0.830 -1.1672 -1.1113 -0.5618
 6825SOL    HW231935   2.764   0.607   0.804 -1.1239  0.6505 -0.8809
 6826SOL     OW31936   4.183   1.600   0.638 -0.0150  0.0210  0.3495
 6826SOL    HW131937   4.134   1.566   0.713 -1.2007 -0.4244 -0.6419
 6826SOL    HW231938   4.233   1.673   0.677 -0.1686  0.5936 -0.5214
 6827SOL     OW31939   1.389   2.998   8.797  0.3771 -0.6073 -0.3209
 6827SOL    HW131940   1.320   3.040   8.849  0.9437  2.1613 -1.7980
 6827SOL    HW231941   1.326   2.934   8.765  0.6764 -0.6148 -0.8894
 6828SOL     OW31942   2.663   1.095   8.136  0.1492 -0.0631 -0.0199
 6828SOL    HW131943   2.725   1.164   8.159  0.4343 -0.9607  1.8984
 6828SOL    HW231944   2.585   1.108   8.191 -0.5912  0.8910 -1.3078
 6829SOL     OW31945   4.124   1.749  14.022  0.4853  0.4394  0.3835
 6829SOL    HW131946   4.052   1.811  14.035  0.9973  1.5601 -2.1429
 6829SOL    HW231947   4.074   1.678  13.981 -0.9984 -0.9727  4.6349
 6830SOL     OW31948   1.896   4.110   2.574 -0.0115  0.2719  0.2778
 6830SOL    HW131949   1.963   4.163   2.530  0.9476 -2.3515 -1.4075
 6830SOL    HW231950   1.829   4.105   2.507  0.4181  0.5545 -0.1740
 6831SOL     OW31951   2.739   1.005   7.084  0.3388  0.3159 -0.0055
 6831SOL    HW131952   2.761   0.922   7.043  1.9261  1.2041 -0.9373
 6831SOL    HW231953   2.797   0.999   7.160  1.0793 -0.0924 -0.6098
 6832SOL     OW31954   0.937   4.272  13.311  0.0625  0.1967 -0.4166
 6832SOL    HW131955   0.932   4.192  13.363 -0.1920 -0.8288 -2.0058
 6832SOL    HW231956   0.983   4.238  13.235 -0.9069  0.5404 -1.1611
 6833SOL     OW31957   2.376   1.522   1.476  0.1941  0.4786 -0.4705
 6833SOL    HW131958   2.284   1.506   1.456  0.2367 -1.9095  1.1828
 6833SOL    HW231959   2.401   1.597   1.422  4.7533 -0.3251  0.5462
 6834SOL     OW31960   1.515   1.058   3.972 -0.2574  0.7384  0.0537
 6834SOL    HW131961   1.456   1.101   4.035 -1.0943  1.0460 -0.9454
 6834SOL    HW231962   1.462   1.041   3.894  0.5245 -2.0546  0.1433
 6835SOL     OW31963   3.033   0.214   2.443  0.0728  0.1061 -0.2591
 6835SOL    HW131964   2.970   0.192   2.374 -0.7827 -0.3529  0.6812
 6835SOL    HW231965   3.065   0.297   2.406 -0.8656 -0.3790 -2.1750
 6836SOL     OW31966   2.649   0.789   6.468  0.1676  0.1524  0.7422
 6836SOL    HW131967   2.591   0.743   6.529 -0.5728  0.0243 -0.0636
 6836SOL    HW231968   2.694   0.841   6.534  2.0234 -2.4551  1.5239
 6837SOL     OW31969   3.729   1.690   8.868 -0.0466  0.0471 -0.1861
 6837SOL    HW131970   3.760   1.763   8.815  0.3150 -0.7755 -1.1102
 6837SOL    HW231971   3.687   1.745   8.934  1.0596  1.2128 -0.4500
 6838SOL     OW31972   1.605   1.780  10.967  0.6657 -0.0696 -0.4741
 6838SOL    HW131973   1.528   1.811  11.015  0.0501  0.3318 -1.7303
 6838SOL    HW231974   1.565   1.699  10.936  2.0289 -0.7123 -0.5718
 6839SOL     OW31975   2.001   0.469   2.679 -0.6578  0.2806  0.1506
 6839SOL    HW131976   2.090   0.496   2.655 -0.9379  1.5574  0.5372
 6839SOL    HW231977   1.970   0.424   2.600 -0.3419 -0.3268  0.3730
 6840SOL     OW31978   0.749   1.841   8.062  0.1892 -0.8568 -0.4684
 6840SOL    HW131979   0.668   1.849   8.112  0.8641 -1.4336  0.6944
 6840SOL    HW231980   0.777   1.751   8.078 -0.5925 -1.1162 -0.5390
 6841SOL     OW31981   3.252   2.225   5.896 -0.1297  0.2293  0.1227
 6841SOL    HW131982   3.317   2.164   5.931 -1.4971 -1.1673  0.1967
 6841SOL    HW231983   3.297   2.258   5.818  0.6942  2.8527  1.7058
 6842SOL     OW31984   4.041   2.287   7.336  0.0017 -1.0323  0.3286
 6842SOL    HW131985   4.052   2.378   7.306 -0.9616 -0.9506  0.2269
 6842SOL    HW231986   3.948   2.277   7.357 -0.2313  0.5135  0.0823
 6843SOL     OW31987   3.397   3.591  15.327 -0.2509 -0.5105 -0.6381
 6843SOL    HW131988   3.331   3.534  15.367 -0.5433  1.2436  1.3955
 6843SOL    HW231989   3.444   3.632  15.401 -0.2674 -1.5224 -0.0723
 6844SOL     OW31990   2.489   3.010   5.693  0.0921 -0.2978 -0.1606
 6844SOL    HW131991   2.560   2.958   5.654  0.3366 -1.4367  1.7933
 6844SOL    HW231992   2.453   3.053   5.615  0.8731 -0.9333 -0.8724
 6845SOL     OW31993   0.721   3.767   4.790  0.0174  0.2324  0.4020
 6845SOL    HW131994   0.807   3.789   4.755  0.6243 -0.8052  1.2605
 6845SOL    HW231995   0.744   3.678   4.817 -1.2807 -0.1511  0.2575
 6846SOL     OW31996   3.486   3.764  14.838 -0.2026 -0.1794  0.1941
 6846SOL    HW131997   3.476   3.859  14.846  2.2811 -0.0085  1.1110
 6846SOL    HW231998   3.401   3.746  14.797 -0.0792  0.3636 -0.3213
 6847SOL     OW31999   0.767   4.683  16.438 -1.6234  0.1069 -0.5689
 6847SOL    HW132000   0.704   4.646  16.500 -0.6215 -0.5840  0.0290
 6847SOL    HW232001   0.842   4.632  16.468 -1.0440 -0.1498 -2.4566
 6848SOL     OW32002   4.463   3.149   6.494 -0.2585  0.5880 -0.0134
 6848SOL    HW132003   4.467   3.243   6.516 -0.6791 -0.1554  3.1802
 6848SOL    HW232004   4.543   3.134   6.443  0.3759  2.7348  0.3491
 6849SOL     OW32005   3.568   3.668  15.549  0.2187  0.5257  0.1803
 6849SOL    HW132006   3.543   3.659  15.641  1.5070 -0.3986  0.4432
 6849SOL    HW232007   3.637   3.734  15.558  1.5297 -0.6693 -1.1715
 6850SOL     OW32008   2.269   2.726  11.605  0.0512 -0.4874 -0.3256
 6850SOL    HW132009   2.313   2.780  11.539  1.4706  0.1099  1.1083
 6850SOL    HW232010   2.265   2.785  11.681 -1.6746 -0.4813 -0.4252
 6851SOL     OW32011   4.047   2.444   4.772  0.2625 -0.0552  0.6548
 6851SOL    HW132012   3.994   2.475   4.697  0.7242 -3.1259 -0.9427
 6851SOL    HW232013   3.988   2.462   4.845  0.1166 -2.0600  1.0302
 6852SOL     OW32014   1.805   1.976   2.998 -0.4280  0.0526 -0.3117
 6852SOL    HW132015   1.777   2.056   3.042 -1.6965 -2.0971  2.8836
 6852SOL    HW232016   1.894   1.970   3.033 -1.5466 -0.0086  2.5239
 6853SOL     OW32017   0.814   0.514  14.694 -0.2964  0.3745  0.6219
 6853SOL    HW132018   0.839   0.526  14.602  0.8344 -1.7871  0.6510
 6853SOL    HW232019   0.727   0.556  14.695 -0.7907 -0.6729  1.1388
 6854SOL     OW32020   0.178   1.586   2.680  0.2537 -0.2378 -0.1338
 6854SOL    HW132021   0.222   1.562   2.598 -1.4983 -0.5163 -0.9971
 6854SOL    HW232022   0.156   1.500   2.714 -1.5127  0.5571  0.7115
 6855SOL     OW32023   0.806   4.671  15.716  0.1164 -0.1570  0.6090
 6855SOL    HW132024   0.864   4.702  15.786  1.4809 -0.1255 -0.5188
 6855SOL    HW232025   0.725   4.683  15.765 -0.3791 -1.2936  0.0580
 6856SOL     OW32026   2.046   3.766   3.558 -0.4275  0.3239 -0.2842
 6856SOL    HW132027   1.975   3.830   3.554 -0.2082  0.6963  1.7911
 6856SOL    HW232028   2.033   3.735   3.468 -1.7443  0.6631 -0.2068
 6857SOL     OW32029   4.583   3.739  11.500  0.0735  0.0538  0.6631
 6857SOL    HW132030   4.671   3.714  11.529 -0.0208  1.1594  1.9384
 6857SOL    HW232031   4.541   3.654  11.497 -2.8484  1.5366 -0.2552
 6858SOL     OW32032   3.559   2.893  13.536  0.5693 -0.5650  0.0086
 6858SOL    HW132033   3.534   2.891  13.628 -1.2566 -0.6543 -0.4897
 6858SOL    HW232034   3.493   2.956  13.509 -0.9233 -2.2538 -0.2741
 6859SOL     OW32035   3.078   4.240   8.451 -0.4400  0.0671  0.0221
 6859SOL    HW132036   3.085   4.315   8.510  0.2232 -0.0866  0.1420
 6859SOL    HW232037   3.087   4.163   8.506 -0.6790  0.5890  0.7906
 6860SOL     OW32038   2.196   1.353  11.585 -0.3326 -0.2774 -1.2949
 6860SOL    HW132039   2.107   1.350  11.619 -0.1877 -2.8956 -1.1733
 6860SOL    HW232040   2.239   1.372  11.669  0.8067 -0.3489 -1.8690
 6861SOL     OW32041   2.647   1.633   9.972  0.1264  0.5391 -0.4521
 6861SOL    HW132042   2.597   1.703  10.013 -0.6556 -1.1792  1.5248
 6861SOL    HW232043   2.696   1.605  10.050 -1.3254  1.4246  0.7649
 6862SOL     OW32044   2.040   1.482   1.508  0.1890 -0.2314  0.3015
 6862SOL    HW132045   2.029   1.561   1.561 -0.8975 -0.5234  0.5100
 6862SOL    HW232046   2.019   1.515   1.420 -0.4619  2.5524  1.4974
 6863SOL     OW32047   0.441   2.124   6.874 -0.2669 -0.1568  0.0308
 6863SOL    HW132048   0.354   2.160   6.891  0.6396  1.3128  1.6380
 6863SOL    HW232049   0.427   2.034   6.901 -2.6284 -0.1593 -1.2263
 6864SOL     OW32050   1.872   2.407   1.060 -0.1772  0.5648  0.5615
 6864SOL    HW132051   1.888   2.500   1.045  2.8908 -0.3294 -1.6747
 6864SOL    HW232052   1.783   2.396   1.027 -0.1911 -3.3989  1.8690
 6865SOL     OW32053   4.355   0.368   0.189  0.1239  0.2333  0.5564
 6865SOL    HW132054   4.328   0.435   0.252 -1.0723  0.1037  0.1956
 6865SOL    HW232055   4.448   0.371   0.210 -0.1436  1.5925  1.5774
 6866SOL     OW32056   0.678   0.084  16.228 -0.4092  0.4385  0.1451
 6866SOL    HW132057   0.663   0.177  16.245 -2.6182  0.3268 -1.1893
 6866SOL    HW232058   0.710   0.053  16.313  1.7214 -2.0665 -1.5790
 6867SOL     OW32059   3.037   1.951   9.543  0.5832 -0.2744  0.0965
 6867SOL    HW132060   3.021   1.975   9.634  2.2662  1.7884 -0.1493
 6867SOL    HW232061   2.974   1.880   9.534 -1.9312  2.0815 -0.9244
 6868SOL     OW32062   4.231   1.211  16.067 -0.8167  0.3085 -0.0484
 6868SOL    HW132063   4.196   1.252  16.147 -2.2536  1.4519 -1.2539
 6868SOL    HW232064   4.203   1.282  16.009  1.7371  2.9709  1.9596
 6869SOL     OW32065   2.969   3.549   4.193 -0.4077  0.3629 -0.1482
 6869SOL    HW132066   3.011   3.563   4.107 -1.0528 -0.7220 -0.6488
 6869SOL    HW232067   3.038   3.588   4.246 -1.0442  1.5976 -0.2201
 6870SOL     OW32068   0.428   3.805   8.031 -0.0635 -0.0014 -0.2614
 6870SOL    HW132069   0.404   3.888   7.990  0.9497  0.1965 -0.4533
 6870SOL    HW232070   0.377   3.752   7.969 -0.2133  1.2367 -1.1878
 6871SOL     OW32071   2.619   3.360   8.005  0.2953  0.1518  0.3169
 6871SOL    HW132072   2.539   3.379   7.956 -0.1806  0.0525  1.0414
 6871SOL    HW232073   2.681   3.345   7.934 -1.1194 -0.5021 -0.7733
 6872SOL     OW32074   2.028   1.350   5.079  1.0893 -0.0569 -0.5159
 6872SOL    HW132075   2.114   1.308   5.085 -0.6249 -3.0599  2.5180
 6872SOL    HW232076   2.000   1.347   5.170  0.5391  0.3140 -0.6703
 6873SOL     OW32077   1.442   2.556  14.646 -0.3243  0.4902 -0.0453
 6873SOL    HW132078   1.487   2.524  14.568 -1.2170  1.9365 -1.1534
 6873SOL    HW232079   1.487   2.500  14.710  1.5932  1.8494 -0.2252
 6874SOL     OW32080   3.813   0.112   0.823  0.3272 -0.1292  0.7135
 6874SOL    HW132081   3.871   0.150   0.890 -1.5210 -0.3505  2.4288
 6874SOL    HW232082   3.808   0.024   0.859  1.3980  0.4734  2.3862
 6875SOL     OW32083   3.468   4.086   6.126 -0.2882 -0.1348 -0.9982
 6875SOL    HW132084   3.470   4.113   6.034 -1.1675  0.9807 -0.6848
 6875SOL    HW232085   3.460   3.990   6.121  0.8596 -0.2453 -0.6291
 6876SOL     OW32086   0.149   4.227  12.543 -0.3155  0.5431 -0.4587
 6876SOL    HW132087   0.061   4.248  12.513 -0.0839  0.4390 -1.2190
 6876SOL    HW232088   0.169   4.147  12.495  0.5233  1.0660 -0.9764
 6877SOL     OW32089   2.150   3.199  14.273 -0.0668  0.5776  0.0749
 6877SOL    HW132090   2.228   3.153  14.303 -0.6515 -0.2132  0.3858
 6877SOL    HW232091   2.133   3.161  14.187 -1.1800 -1.1639  1.0658
 6878SOL     OW32092   0.466   0.644   8.724 -0.1241 -0.4673 -0.5984
 6878SOL    HW132093   0.506   0.605   8.802  0.4004 -2.0811 -1.6784
 6878SOL    HW232094   0.375   0.615   8.738  0.4042 -0.7831  2.2179
 6879SOL     OW32095   2.171   4.083  13.785  0.2155 -0.0885 -0.1883
 6879SOL    HW132096   2.180   4.006  13.729 -0.8130 -0.7893  0.6105
 6879SOL    HW232097   2.112   4.044  13.849 -1.4588  0.1003 -1.6321
 6880SOL     OW32098   1.858   4.422  12.769 -0.2042 -0.4866 -0.4894
 6880SOL    HW132099   1.806   4.495  12.735  0.7581  0.4488  0.0334
 6880SOL    HW232100   1.937   4.459  12.810 -0.1470  1.4617 -2.3910
 6881SOL     OW32101   1.587   1.587  11.999  0.4254 -0.2805 -0.1355
 6881SOL    HW132102   1.571   1.679  11.980  1.3454  0.2599  1.6348
 6881SOL    HW232103   1.664   1.569  11.945  1.7046 -0.9904  1.9113
 6882SOL     OW32104   2.340   0.075  15.031 -0.4830  0.0571 -0.5240
 6882SOL    HW132105   2.257   0.122  15.040 -0.4772 -0.0473  0.0682
 6882SOL    HW232106   2.322   4.723  15.084  0.6014  0.8214  0.9603
 6883SOL     OW32107   2.407   3.055   6.634  0.5363 -0.1150 -0.0766
 6883SOL    HW132108   2.434   2.964   6.642 -3.9106 -1.2702  1.8910
 6883SOL    HW232109   2.473   3.094   6.577 -1.0278  1.3443 -0.8806
 6884SOL     OW32110   0.707   0.741  10.934  0.0705 -0.0076  0.0828
 6884SOL    HW132111   0.678   0.833  10.939  3.3002  0.9449  1.5300
 6884SOL    HW232112   0.627   0.689  10.934  0.9139 -1.3088  0.3684
 6885SOL     OW32113   0.297   3.044  16.172  0.4510 -0.3491 -0.4947
 6885SOL    HW132114   0.282   2.982  16.243 -0.5820 -0.5186 -0.8527
 6885SOL    HW232115   0.243   3.001  16.106  0.9022 -1.7443  0.0565
 6886SOL     OW32116   3.100   1.000  11.065  0.2495 -0.2954  0.1153
 6886SOL    HW132117   3.124   0.965  11.151  1.3933 -0.3569 -0.2283
 6886SOL    HW232118   3.099   1.091  11.095  0.7497 -0.9056  2.0078
 6887SOL     OW32119   4.096   0.137   7.281 -0.1403 -0.0411  0.2127
 6887SOL    HW132120   4.147   0.192   7.341 -0.7098  0.6312  0.0802
 6887SOL    HW232121   4.081   0.207   7.217  0.8157 -0.0606 -0.0234
 6888SOL     OW32122   4.692   2.558  15.036  0.1184 -0.1806 -0.0629
 6888SOL    HW132123   0.021   2.590  15.108 -2.3500  1.3880  1.1254
 6888SOL    HW232124   0.037   2.523  14.981  0.1455 -0.3064  0.0519
 6889SOL     OW32125   4.404   3.828   1.926  0.3272  0.3277 -0.1925
 6889SOL    HW132126   4.325   3.773   1.928  0.5982 -0.0858 -0.6654
 6889SOL    HW232127   4.430   3.803   2.015 -1.3693 -1.2537 -0.1442
 6890SOL     OW32128   0.103   1.364  10.498  0.2260 -0.2852  0.0154
 6890SOL    HW132129   0.149   1.287  10.531  3.1257  1.3474 -0.2338
 6890SOL    HW232130   0.124   1.433  10.561  2.0605 -1.7104  0.9468
 6891SOL     OW32131   2.673   0.800   4.525 -0.4427  0.0112  0.0699
 6891SOL    HW132132   2.584   0.833   4.536 -0.2800  0.2167  0.7523
 6891SOL    HW232133   2.677   0.770   4.434  0.2365 -0.3408  0.2193
 6892SOL     OW32134   4.224   1.584   3.292  0.0838  0.3790  0.0820
 6892SOL    HW132135   4.229   1.601   3.198  3.6287  2.0451  0.5812
 6892SOL    HW232136   4.128   1.576   3.291  0.1429 -0.2853 -0.1410
 6893SOL     OW32137   2.283   3.656   7.045  0.2346  0.2961  0.6809
 6893SOL    HW132138   2.272   3.583   6.984 -0.1204  0.0732  1.0106
 6893SOL    HW232139   2.344   3.716   7.002  0.9684  0.3715  1.8334
 6894SOL     OW32140   2.965   3.545  14.727  0.1460 -0.0197 -0.4298
 6894SOL    HW132141   2.982   3.527  14.635 -1.9836 -1.1864 -0.5886
 6894SOL    HW232142   2.904   3.477  14.754  0.0349  1.6320  3.5041
 6895SOL     OW32143   1.149   3.960  10.712 -0.1526 -0.2132 -0.5325
 6895SOL    HW132144   1.208   4.012  10.766  0.1680 -1.9870  0.8199
 6895SOL    HW232145   1.078   4.014  10.676 -0.5185 -1.5526 -1.8543
 6896SOL     OW32146   2.393   3.686   5.857  0.1868 -0.7657  0.0881
 6896SOL    HW132147   2.348   3.689   5.941  0.5331 -2.6624  0.3505
 6896SOL    HW232148   2.373   3.596   5.831  2.9205 -1.2378 -0.4701
 6897SOL     OW32149   2.235   2.124   3.031  0.3930  0.7064  0.0021
 6897SOL    HW132150   2.287   2.128   3.111  1.6934  0.9100 -0.8469
 6897SOL    HW232151   2.155   2.085   3.065  0.7141  0.0812  0.0314
 6898SOL     OW32152   4.371   1.119   4.918 -0.6450  0.2124 -0.3222
 6898SOL    HW132153   4.314   1.110   4.842 -0.0006  1.6132 -0.9459
 6898SOL    HW232154   4.341   1.048   4.976  0.1280 -1.2918 -1.7540
 6899SOL     OW32155   1.298   2.448  15.301 -0.2979 -0.3254 -0.5181
 6899SOL    HW132156   1.243   2.524  15.281 -2.5299 -2.5174 -2.6219
 6899SOL    HW232157   1.247   2.372  15.271 -2.2423  0.8304 -0.1659
 6900SOL     OW32158   2.324   1.139  13.305 -0.8723 -0.3472  0.1642
 6900SOL    HW132159   2.338   1.205  13.373 -0.5107 -0.3312  0.0768
 6900SOL    HW232160   2.265   1.182  13.242 -0.1538  1.7698  0.9410
 6901SOL     OW32161   2.035   3.084   8.131  0.2179 -0.5124 -0.1646
 6901SOL    HW132162   2.045   3.062   8.224  2.2198 -1.6399 -0.6555
 6901SOL    HW232163   2.060   3.000   8.092  2.5330 -0.2249  0.7011
 6902SOL     OW32164   1.694   1.420  16.325  0.1547  0.0602  0.2002
 6902SOL    HW132165   1.757   1.352  16.345  0.1069  0.4857  1.7763
 6902SOL    HW232166   1.613   1.370  16.310 -0.6826  0.8819  1.9889
 6903SOL     OW32167   4.361   4.689   0.510 -0.0767  0.1197 -0.3987
 6903SOL    HW132168   4.379   0.011   0.429  0.5682  0.5241 -0.0211
 6903SOL    HW232169   4.278   0.002   0.537 -0.1400 -1.7882  2.2197
 6904SOL     OW32170   2.038   2.202  16.416 -0.0394  0.7425 -0.1349
 6904SOL    HW132171   2.033   2.131  16.479 -0.6446  1.3916  0.5415
 6904SOL    HW232172   2.106   2.259  16.453  1.1608 -0.1418 -0.9656
 6905SOL     OW32173   1.802   1.780   4.555  0.4390  0.2676 -0.1281
 6905SOL    HW132174   1.717   1.824   4.551 -0.9069 -2.4180 -0.6388
 6905SOL    HW232175   1.785   1.693   4.519  2.4512  0.4019 -1.4170
 6906SOL     OW32176   3.178   2.615   1.995  0.1268  0.2366  0.4459
 6906SOL    HW132177   3.117   2.545   1.970  0.3175  0.1747  0.1479
 6906SOL    HW232178   3.181   2.602   2.090 -1.6269  0.4231  0.5311
 6907SOL     OW32179   3.274   2.747   8.100 -0.3158 -0.2272  0.0194
 6907SOL    HW132180   3.201   2.687   8.109 -0.1354 -0.2310  1.5012
 6907SOL    HW232181   3.277   2.783   8.189  1.4911 -0.0809 -0.0979
 6908SOL     OW32182   2.159   1.425   0.756  0.4560  0.4739 -0.0222
 6908SOL    HW132183   2.154   1.334   0.726 -1.0785  1.1255 -1.7781
 6908SOL    HW232184   2.226   1.416   0.823  2.5421  1.0496 -2.0420
 6909SOL     OW32185   3.157   0.377   4.469  0.0704 -0.1862  0.2662
 6909SOL    HW132186   3.091   0.420   4.523 -0.3348  2.3549 -2.3075
 6909SOL    HW232187   3.100   0.328   4.410  0.6211 -3.0090  2.0546
 6910SOL     OW32188   2.286   1.214   2.905 -0.5347  0.1841 -0.0748
 6910SOL    HW132189   2.338   1.147   2.949  0.3605  1.3799  0.7152
 6910SOL    HW232190   2.275   1.176   2.818  0.0206  1.5607 -0.7487
 6911SOL     OW32191   0.780   3.746   5.578 -0.1633 -0.4322 -0.9611
 6911SOL    HW132192   0.826   3.666   5.602  3.9248  2.1328 -0.3887
 6911SOL    HW232193   0.751   3.720   5.491  1.8615 -0.9460 -1.4610
 6912SOL     OW32194   0.404   0.759   7.185 -0.1437 -0.5898 -0.6251
 6912SOL    HW132195   0.378   0.844   7.149  0.0946  0.3142  1.2998
 6912SOL    HW232196   0.498   0.763   7.166 -0.2663  0.0649 -1.1093
 6913SOL     OW32197   2.021   3.448   5.675  0.0080 -0.2058 -0.0996
 6913SOL    HW132198   2.052   3.400   5.598  0.3969  0.9989 -0.7000
 6913SOL    HW232199   2.051   3.532   5.640  1.2621 -0.2141  0.9550
 6914SOL     OW32200   1.140   0.773   9.875  0.1555  0.4820 -0.2546
 6914SOL    HW132201   1.231   0.790   9.899  0.3818  0.5398 -1.1504
 6914SOL    HW232202   1.156   0.707   9.808  0.8776  4.1948 -3.7886
 6915SOL     OW32203   1.607   1.730   3.873  0.5690 -0.2517  0.7161
 6915SOL    HW132204   1.689   1.700   3.833 -0.6092 -0.1755 -1.7584
 6915SOL    HW232205   1.543   1.678   3.824  0.7468 -0.7368  0.9966
 6916SOL     OW32206   4.169   1.614   3.004 -0.0645 -0.1906 -0.0229
 6916SOL    HW132207   4.263   1.623   2.993 -0.2537  0.9732 -0.6553
 6916SOL    HW232208   4.147   1.697   2.961  0.6260  0.5317  1.0409
 6917SOL     OW32209   0.045   0.644   5.758  0.1509  0.1228 -0.0022
 6917SOL    HW132210   0.060   0.735   5.785  0.2629 -0.0569  0.5519
 6917SOL    HW232211   4.676   0.650   5.745  0.5133  2.8998 -1.4069
 6918SOL     OW32212   4.384   2.588   1.174 -0.1055 -0.0828  0.3712
 6918SOL    HW132213   4.332   2.598   1.254  1.5394 -1.7037  1.6507
 6918SOL    HW232214   4.369   2.672   1.132  0.8544 -0.4140 -0.6327
 6919SOL     OW32215   4.658   0.185   7.444 -0.0690  0.5325  0.1435
 6919SOL    HW132216   0.002   0.178   7.509 -0.0494  1.7432  0.2381
 6919SOL    HW232217   4.712   0.192   7.365 -0.4321 -0.8993 -0.2297
 6920SOL     OW32218   2.610   0.744   7.867  0.2226  0.4412  0.4320
 6920SOL    HW132219   2.668   0.747   7.943  1.0417 -1.0205 -0.1356
 6920SOL    HW232220   2.631   0.831   7.831  2.2470  0.3790  1.4469
 6921SOL     OW32221   3.744   1.583  11.506  0.5066 -0.4307  0.0449
 6921SOL    HW132222   3.749   1.581  11.410  0.3732 -0.2881  0.0357
 6921SOL    HW232223   3.766   1.491  11.524 -1.0203 -0.9425 -0.6587
 6922SOL     OW32224   1.007   0.327   7.835 -0.2392 -0.1447  0.5227
 6922SOL    HW132225   0.954   0.371   7.901  0.6646  0.8892  0.5630
 6922SOL    HW232226   1.042   0.252   7.883  0.3261  0.0790  0.4572
 6923SOL     OW32227   1.990   1.891   3.652  0.4599 -0.4750  0.1086
 6923SOL    HW132228   2.010   1.974   3.610  0.5932 -0.7522 -0.3798
 6923SOL    HW232229   2.029   1.899   3.739  1.6930 -1.4764 -0.3510
 6924SOL     OW32230   0.295   0.410   6.207  0.6371 -0.1817 -0.2786
 6924SOL    HW132231   0.268   0.492   6.166 -0.7101 -0.8304 -0.6893
 6924SOL    HW232232   0.212   0.375   6.238  0.6464 -0.6145 -0.7580
 6925SOL     OW32233   0.521   1.502   2.714  0.3409  0.2927 -0.0990
 6925SOL    HW132234   0.449   1.509   2.652 -1.1114 -2.0342  1.3639
 6925SOL    HW232235   0.489   1.424   2.758  3.6574 -1.4533 -0.8060
 6926SOL     OW32236   1.677   4.641   4.400 -0.2165  0.0325 -0.0621
 6926SOL    HW132237   1.742   4.670   4.337  0.3073 -1.4196 -0.1823
 6926SOL    HW232238   1.604   4.704   4.397  0.2970  0.4504 -3.4321
 6927SOL     OW32239   3.893   2.894  10.486  0.6905  0.5168 -0.2899
 6927SOL    HW132240   3.970   2.928  10.532  0.3827 -2.6006  2.5754
 6927SOL    HW232241   3.861   2.971  10.440  1.7382  0.8781 -0.4071
 6928SOL     OW32242   0.663   2.671   5.271 -0.6211  0.0380  0.2995
 6928SOL    HW132243   0.710   2.716   5.201 -0.3956  1.2464  1.2326
 6928SOL    HW232244   0.725   2.598   5.270 -0.5753  0.1319 -3.4757
 6929SOL     OW32245   2.622   3.629   7.091  0.6411 -0.4156  0.0556
 6929SOL    HW132246   2.564   3.563   7.053 -0.4314 -0.1033  1.1520
 6929SOL    HW232247   2.615   3.605   7.184 -1.7418  0.9024  0.1861
 6930SOL     OW32248   4.092   0.543   6.393  0.4285 -0.0477  0.1160
 6930SOL    HW132249   4.064   0.469   6.447 -1.5544  1.0040  0.5665
 6930SOL    HW232250   4.177   0.559   6.434  0.0540  0.4163  0.7207
 6931SOL     OW32251   0.993   3.157   4.342  0.0059 -0.5860 -0.0656
 6931SOL    HW132252   1.008   3.175   4.249  1.3358 -0.5231  0.1624
 6931SOL    HW232253   0.943   3.235   4.366 -0.6888 -0.7538 -0.9618
 6932SOL     OW32254   3.410   4.463  17.103 -0.1408 -0.1912  0.7415
 6932SOL    HW132255   3.345   4.438  17.038  0.1003 -2.8546  1.5194
 6932SOL    HW232256   3.496   4.436  17.071  0.1957  1.0203  0.6107
 6933SOL     OW32257   0.271   2.443   9.544  0.1608 -0.2507  0.2947
 6933SOL    HW132258   0.188   2.492   9.545  0.4765  0.2050  4.0696
 6933SOL    HW232259   0.231   2.361   9.574  1.0919 -0.9765 -0.4730
 6934SOL     OW32260   3.096   4.374  14.999  0.1939  0.2891  0.5572
 6934SOL    HW132261   3.021   4.379  15.059 -0.5330  0.4612 -0.3647
 6934SOL    HW232262   3.115   4.280  14.989 -0.2913  0.1384  1.0294
 6935SOL     OW32263   1.203   1.462   4.285  0.3011  0.1448 -0.5697
 6935SOL    HW132264   1.240   1.482   4.371  1.1364  0.3864 -0.9825
 6935SOL    HW232265   1.276   1.486   4.227  1.3704 -0.3798  0.5450
 6936SOL     OW32266   4.453   2.514   0.427  0.5535 -0.0568 -0.0771
 6936SOL    HW132267   4.520   2.490   0.491  0.1946 -0.9933 -0.0612
 6936SOL    HW232268   4.476   2.605   0.406 -1.3976  0.8723  1.8547
 6937SOL     OW32269   0.903   0.909   3.669  0.0007  0.3432  0.0064
 6937SOL    HW132270   0.818   0.883   3.704  0.3406  0.1677  0.7052
 6937SOL    HW232271   0.942   0.945   3.749 -2.8097 -1.6930  2.2968
 6938SOL     OW32272   3.836   4.405   7.778 -0.2904  0.2959 -0.3230
 6938SOL    HW132273   3.793   4.332   7.823 -2.5302  0.5851 -2.0581
 6938SOL    HW232274   3.797   4.487   7.808  3.8455  2.4807 -0.8546
 6939SOL     OW32275   0.448   4.530   9.488  0.5692 -0.1446  0.2058
 6939SOL    HW132276   0.540   4.532   9.460  0.7401 -0.0819  0.7540
 6939SOL    HW232277   0.426   4.623   9.496  1.0709  0.1307 -1.5502
 6940SOL     OW32278   2.561   2.254   3.620 -0.0635  0.0045  0.4419
 6940SOL    HW132279   2.650   2.219   3.633  0.4894  1.1168 -0.3661
 6940SOL    HW232280   2.583   2.344   3.597  0.2232  0.0368  0.8374
 6941SOL     OW32281   1.720   4.551   2.205  0.4876 -0.3284 -0.4022
 6941SOL    HW132282   1.660   4.477   2.197  1.0092 -0.4251 -3.6805
 6941SOL    HW232283   1.745   4.558   2.113  0.1710 -2.0669 -0.6257
 6942SOL     OW32284   2.161   2.811  15.810  0.1946  0.1614 -0.3500
 6942SOL    HW132285   2.131   2.836  15.722 -2.0500 -1.8039 -0.1400
 6942SOL    HW232286   2.124   2.877  15.868  2.6635  1.8786 -0.7241
 6943SOL     OW32287   2.619   1.192   0.569 -0.5994  0.4648 -0.0186
 6943SOL    HW132288   2.617   1.103   0.532  0.7078 -0.4771  2.1997
 6943SOL    HW232289   2.633   1.169   0.661 -5.1734 -2.4599  0.0108
 6944SOL     OW32290   4.024   1.775  13.618  0.3141 -0.0196 -0.2193
 6944SOL    HW132291   3.954   1.830  13.654  2.5081  2.2881  0.5190
 6944SOL    HW232292   4.000   1.686  13.642 -0.1514 -0.5361 -2.5834
 6945SOL     OW32293   2.401   2.778   2.520  0.3500 -0.3229 -0.5466
 6945SOL    HW132294   2.329   2.739   2.569 -1.3198  2.3161 -0.9166
 6945SOL    HW232295   2.364   2.858   2.482 -0.3347 -0.0559  0.7043
 6946SOL     OW32296   2.993   3.694   6.637 -0.0671 -0.1922  0.2641
 6946SOL    HW132297   2.911   3.679   6.684 -0.9911 -0.4152 -1.4260
 6946SOL    HW232298   2.973   3.672   6.546  0.4304  0.8149 -0.0911
 6947SOL     OW32299   0.070   4.077   6.156  0.2931  0.4292  0.1350
 6947SOL    HW132300   0.056   4.137   6.083  1.0532  1.2046  0.6190
 6947SOL    HW232301   0.053   4.128   6.235 -1.8911 -0.7132  0.3896
 6948SOL     OW32302   3.235   4.437   6.076  0.2360  0.2692  0.3070
 6948SOL    HW132303   3.262   4.407   6.163  0.6714 -1.9620 -0.6147
 6948SOL    HW232304   3.309   4.496   6.059 -0.0923 -0.0946 -2.3730
 6949SOL     OW32305   3.092   4.001   2.605  0.3469 -0.3095 -0.2404
 6949SOL    HW132306   3.132   3.939   2.666  0.3035 -0.1098 -0.0058
 6949SOL    HW232307   3.161   4.007   2.539  0.3960  0.4931 -0.1220
 6950SOL     OW32308   3.740   0.458  11.973  0.3057 -0.3997 -0.2543
 6950SOL    HW132309   3.677   0.494  12.035  0.7579 -0.2022  0.0902
 6950SOL    HW232310   3.820   0.509  11.989  0.5585 -0.9764  0.3469
 6951SOL     OW32311   1.016   3.466  12.009 -0.5584 -0.0739  0.0774
 6951SOL    HW132312   1.010   3.390  12.067  0.5383 -1.3418 -1.4540
 6951SOL    HW232313   1.107   3.491  12.022 -0.6093  0.5406 -0.7304
 6952SOL     OW32314   4.594   3.931   0.176 -0.0851 -0.7365 -0.3443
 6952SOL    HW132315   4.549   3.943   0.260  0.2697 -0.9565 -0.1249
 6952SOL    HW232316   4.631   3.843   0.182  2.1314  0.2965  1.2777
 6953SOL     OW32317   0.157   1.259  10.842  0.1796  0.3989  0.1711
 6953SOL    HW132318   0.201   1.318  10.780 -0.9131  0.2159 -0.7767
 6953SOL    HW232319   0.065   1.276  10.826  0.4284 -0.1882 -1.8166
 6954SOL     OW32320   0.781   3.265   1.540  0.0452 -0.3494  0.4051
 6954SOL    HW132321   0.781   3.258   1.445  0.1989 -0.2441  0.3962
 6954SOL    HW232322   0.689   3.247   1.561 -0.1936  0.6254  0.2017
 6955SOL     OW32323   3.023   0.167  10.459 -0.2423  0.6422  0.4462
 6955SOL    HW132324   3.030   0.230  10.388 -0.1090 -0.0809 -0.1881
 6955SOL    HW232325   3.043   0.221  10.536 -1.9518 -0.1576  1.4531
 6956SOL     OW32326   0.557   4.083   2.763 -0.7580  0.3322  0.2541
 6956SOL    HW132327   0.613   4.025   2.815 -0.3590 -0.7410 -1.3885
 6956SOL    HW232328   0.607   4.162   2.782 -1.3462  0.9228 -0.6387
 6957SOL     OW32329   2.059   2.567  16.084  0.1744  0.1486  0.1577
 6957SOL    HW132330   2.118   2.492  16.076 -1.4908 -1.1905  0.4912
 6957SOL    HW232331   2.066   2.608  15.998 -0.8178 -0.8337 -0.3907
 6958SOL     OW32332   3.496   3.751   0.524 -0.2837  0.0459  0.1304
 6958SOL    HW132333   3.522   3.701   0.602 -0.1139  1.8838  1.2662
 6958SOL    HW232334   3.495   3.677   0.464  0.3581  1.3025 -1.4367
 6959SOL     OW32335   3.611   2.394   3.613  0.0644 -0.5389 -0.2148
 6959SOL    HW132336   3.577   2.448   3.685 -2.1215 -1.0352 -0.8815
 6959SOL    HW232337   3.573   2.311   3.642 -1.2273  0.2229  0.2830
 6960SOL     OW32338   0.381   0.977  13.975 -0.2288 -0.5930 -0.7110
 6960SOL    HW132339   0.325   1.024  13.913 -0.7037 -0.9830 -0.5799
 6960SOL    HW232340   0.370   1.032  14.052 -0.6056 -1.4680 -0.1328
 6961SOL     OW32341   2.446   4.643   2.131 -0.5845 -0.0047 -0.3251
 6961SOL    HW132342   2.385   4.679   2.067  1.1011  1.5278 -1.0743
 6961SOL    HW232343   2.516   4.708   2.143  0.3320 -0.9970 -0.3642
 6962SOL     OW32344   2.476   0.045   5.382 -0.1291  0.0240 -0.5610
 6962SOL    HW132345   2.544   0.033   5.449  0.4078  1.8640 -0.7889
 6962SOL    HW232346   2.523   0.088   5.311  0.4979  0.7734  0.3197
 6963SOL     OW32347   2.731   4.425   7.759  0.0329 -0.0769 -0.3461
 6963SOL    HW132348   2.803   4.483   7.731  0.2878 -1.1881 -2.0098
 6963SOL    HW232349   2.711   4.467   7.842  0.8363  0.7137 -0.5455
 6964SOL     OW32350   1.724   3.511   0.094  0.0585  0.1508  0.7342
 6964SOL    HW132351   1.634   3.502   0.063 -0.2053  0.2591  1.4786
 6964SOL    HW232352   1.764   3.535   0.010 -2.2063 -1.3785 -0.7713
 6965SOL     OW32353   2.200   1.540   3.777  0.3687  0.1303 -0.0377
 6965SOL    HW132354   2.244   1.502   3.853 -0.1422  0.3938  0.3965
 6965SOL    HW232355   2.109   1.533   3.807  1.0190 -1.6449  1.5127
 6966SOL     OW32356   3.719   4.098   0.554 -0.1528 -0.6226 -0.7494
 6966SOL    HW132357   3.669   4.039   0.611  0.7432  0.4959  1.1786
 6966SOL    HW232358   3.791   4.140   0.601  1.9194 -3.4258 -1.4328
 6967SOL     OW32359   2.931   1.092   3.000 -0.0083 -0.4020  0.1740
 6967SOL    HW132360   2.952   1.164   3.059 -0.8172 -1.5958  1.9448
 6967SOL    HW232361   2.959   1.139   2.922 -0.1432 -2.3763 -1.0593
 6968SOL     OW32362   4.676   2.906   2.688 -0.0832 -0.2019  0.5071
 6968SOL    HW132363   4.613   2.898   2.616  0.9668 -0.5867 -0.3621
 6968SOL    HW232364   4.630   2.954   2.757 -1.5596 -2.1682  0.9304
 6969SOL     OW32365   4.297   0.775   4.793  0.0904  0.2512  0.2780
 6969SOL    HW132366   4.381   0.795   4.753  1.1305 -2.3908  1.1393
 6969SOL    HW232367   4.287   0.688   4.756 -0.2791 -0.0053  0.9929
 6970SOL     OW32368   3.669   1.368   3.217 -0.5079 -0.1279  0.0965
 6970SOL    HW132369   3.748   1.350   3.167  0.2418  1.3011  0.7903
 6970SOL    HW232370   3.617   1.291   3.191 -2.2322 -0.0839  3.4609
 6971SOL     OW32371   3.740   0.989   9.545 -0.1137  0.5292  0.0011
 6971SOL    HW132372   3.696   1.071   9.567  0.4245  1.2550 -1.6237
 6971SOL    HW232373   3.829   1.013   9.519 -0.5622 -0.3334 -2.2645
 6972SOL     OW32374   0.239   3.199  16.834  0.1412  0.9379  0.0621
 6972SOL    HW132375   0.183   3.198  16.912  2.1146  1.0096  1.4820
 6972SOL    HW232376   0.325   3.182  16.873 -1.8943 -3.0381  2.7601
 6973SOL     OW32377   0.386   2.778  11.668 -0.5178  0.0906  0.2496
 6973SOL    HW132378   0.425   2.690  11.670 -3.0749 -0.9948  2.2112
 6973SOL    HW232379   0.334   2.771  11.588  0.5571  1.8149 -0.6088
 6974SOL     OW32380   3.419   1.402   6.097 -0.7561  0.7453 -0.1429
 6974SOL    HW132381   3.390   1.356   6.176  2.4638 -0.4964  0.3039
 6974SOL    HW232382   3.368   1.483   6.096 -0.7282  0.7528 -2.3209
 6975SOL     OW32383   4.312   3.946   3.468  0.4307 -0.9126  0.2265
 6975SOL    HW132384   4.406   3.948   3.487  0.3326 -0.2273  0.6470
 6975SOL    HW232385   4.297   3.851   3.467 -0.1600 -0.8287  1.1101
 6976SOL     OW32386   4.571   4.433   1.561  0.0232  0.1297  0.1150
 6976SOL    HW132387   4.582   4.361   1.623 -0.1924 -0.8559 -1.0139
 6976SOL    HW232388   4.646   4.487   1.585  0.2992 -1.0572  1.9340
 6977SOL     OW32389   4.713   4.359   6.972  0.2282 -0.0678  0.2969
 6977SOL    HW132390   4.649   4.310   6.920 -1.5460  0.4649  1.9892
 6977SOL    HW232391   0.005   4.431   6.912  0.5587 -0.5245 -0.1569
 6978SOL     OW32392   0.321   4.713  12.510  0.0220  0.6681 -0.0655
 6978SOL    HW132393   0.319   4.619  12.532  0.5774  1.0165  1.4471
 6978SOL    HW232394   0.380   4.725  12.436  0.9784 -1.8164  0.2810
 6979SOL     OW32395   0.963   2.290   2.771 -0.3555 -0.0347 -0.0623
 6979SOL    HW132396   0.946   2.383   2.756  1.0659  0.2633  0.1699
 6979SOL    HW232397   0.875   2.260   2.750 -0.9394  1.2300  0.5462
 6980SOL     OW32398   0.513   1.743   1.100  0.5361  0.5877  0.6871
 6980SOL    HW132399   0.486   1.786   1.019 -0.6096 -0.9417  0.2571
 6980SOL    HW232400   0.428   1.736   1.144 -1.0234  3.6172 -1.8942
 6981SOL     OW32401   0.523   0.484   8.206  0.0079 -0.2051 -0.1686
 6981SOL    HW132402   0.493   0.562   8.160 -0.0200  0.8381  1.6364
 6981SOL    HW232403   0.462   0.497   8.279  0.2742  0.1836 -0.0139
 6982SOL     OW32404   2.333   3.375   8.525 -0.4649 -0.0104  0.6426
 6982SOL    HW132405   2.363   3.287   8.550  0.0249  0.9073  3.3015
 6982SOL    HW232406   2.350   3.417   8.609  0.7865 -0.7742  0.7761
 6983SOL     OW32407   3.204   4.663  13.536 -0.4085 -0.4822  0.0421
 6983SOL    HW132408   3.151   4.620  13.603  1.5304 -2.7116  0.1353
 6983SOL    HW232409   3.283   4.610  13.526 -0.3496 -0.2161 -0.9121
 6984SOL     OW32410   1.513   3.570   2.545  0.1171  0.4419 -0.0576
 6984SOL    HW132411   1.438   3.519   2.516 -1.7248  2.1211  1.6888
 6984SOL    HW232412   1.531   3.609   2.459 -2.9798 -0.4597 -1.1144
 6985SOL     OW32413   3.991   2.531   7.215 -0.1667  0.2859  0.2941
 6985SOL    HW132414   4.019   2.598   7.152 -1.8619  1.1084  0.4140
 6985SOL    HW232415   3.962   2.584   7.289 -1.2040  0.5091 -0.2731
 6986SOL     OW32416   0.804   1.761   3.269 -0.6388  0.1836 -0.2880
 6986SOL    HW132417   0.839   1.831   3.215 -2.3343  1.5972  0.4373
 6986SOL    HW232418   0.842   1.681   3.233 -1.4024 -0.4174  0.2319
 6987SOL     OW32419   1.999   2.763  10.128  0.1011  0.0516  0.1189
 6987SOL    HW132420   2.054   2.698  10.171 -0.2200  0.6287  1.4140
 6987SOL    HW232421   2.008   2.758  10.033  1.4337  0.4189  0.2357
 6988SOL     OW32422   2.958   1.398   5.211 -1.1431  0.5109  0.0362
 6988SOL    HW132423   2.940   1.479   5.163 -0.8140  1.4985  1.5835
 6988SOL    HW232424   2.883   1.385   5.269  0.7331  1.5261  2.6779
 6989SOL     OW32425   1.886   1.110   7.166 -0.0820  0.0839 -0.0967
 6989SOL    HW132426   1.931   1.096   7.249 -1.3540 -1.3807  0.3432
 6989SOL    HW232427   1.871   1.022   7.133  1.1862 -0.7083  1.4140
 6990SOL     OW32428   0.724   3.212  10.661  0.2451 -0.2128 -0.2311
 6990SOL    HW132429   0.660   3.210  10.590 -0.5778 -1.0010  0.5277
 6990SOL    HW232430   0.760   3.125  10.646  1.6746  0.3535 -0.0664
 6991SOL     OW32431   4.395   3.050   2.228  0.2748 -0.1807  0.3915
 6991SOL    HW132432   4.310   3.095   2.235 -0.6645 -1.4900 -2.8856
 6991SOL    HW232433   4.372   2.966   2.189  0.2814 -0.2967  0.6380
 6992SOL     OW32434   2.538   1.787   8.465 -0.2917 -0.4336  0.0332
 6992SOL    HW132435   2.444   1.785   8.445 -0.3823  2.2109  0.0831
 6992SOL    HW232436   2.535   1.746   8.552 -2.3307 -1.3540 -0.4635
 6993SOL     OW32437   3.077   1.667   2.634 -0.0874 -0.1074  0.7923
 6993SOL    HW132438   3.148   1.675   2.697  0.3013  0.4450  0.2884
 6993SOL    HW232439   3.011   1.721   2.678  0.0346  2.6249 -2.3394
 6994SOL     OW32440   1.825   1.267   5.347  0.1265 -0.3219  0.3176
 6994SOL    HW132441   1.790   1.208   5.280 -0.9465  2.4991 -1.6208
 6994SOL    HW232442   1.805   1.353   5.309  0.1235 -0.7732 -0.6926
 6995SOL     OW32443   0.748   0.406   9.345  0.1847  0.5113  0.1177
 6995SOL    HW132444   0.736   0.501   9.337  0.5048  0.5144 -0.3162
 6995SOL    HW232445   0.707   0.385   9.429 -1.4139  1.3787 -0.4514
 6996SOL     OW32446   2.940   0.042   6.182  0.0764  0.2045 -0.7061
 6996SOL    HW132447   3.007   0.066   6.117  0.9922 -1.3784 -0.3518
 6996SOL    HW232448   2.934   0.128   6.223  0.4769  1.0787 -2.4507
 6997SOL     OW32449   1.202   2.177   7.658 -0.1694 -0.4152  0.2573
 6997SOL    HW132450   1.295   2.163   7.671  0.0965 -0.1781 -1.3199
 6997SOL    HW232451   1.205   2.229   7.577 -0.5296 -1.4329 -0.4202
 6998SOL     OW32452   4.059   3.926   0.609  0.3364  0.2939  0.1902
 6998SOL    HW132453   4.023   4.008   0.644 -2.2411 -0.0137 -1.7251
 6998SOL    HW232454   4.144   3.961   0.582  0.5840 -0.6714 -0.2710
 6999SOL     OW32455   3.569   4.350  12.486 -0.0344  0.4396  0.3009
 6999SOL    HW132456   3.557   4.352  12.391 -1.6483  0.0800  0.5070
 6999SOL    HW232457   3.662   4.375  12.488  0.4297 -1.2541 -1.2108
 7000SOL     OW32458   2.153   2.541   1.208  0.1416 -0.1121 -0.2540
 7000SOL    HW132459   2.107   2.614   1.168  2.6826  1.3288 -0.5296
 7000SOL    HW232460   2.160   2.564   1.300 -2.9872  3.6099 -1.0014
 7001SOL     OW32461   2.342   1.063   1.798 -0.0086 -0.0681  0.3207
 7001SOL    HW132462   2.269   1.114   1.762 -0.1369 -0.4938 -0.0258
 7001SOL    HW232463   2.327   1.063   1.892  2.1399  0.1667  0.6739
 7002SOL     OW32464   0.521   2.230   1.804 -0.1274  0.4906 -0.1103
 7002SOL    HW132465   0.432   2.253   1.830 -0.3246 -0.7444  0.3195
 7002SOL    HW232466   0.532   2.158   1.866  1.0872  1.5093  0.8833
 7003SOL     OW32467   1.319   1.829   7.127 -0.3279 -0.5063  0.1968
 7003SOL    HW132468   1.343   1.895   7.062 -1.0053  2.5218  3.0449
 7003SOL    HW232469   1.264   1.874   7.191  0.6119 -0.2774  0.8453
 7004SOL     OW32470   2.531   2.812   4.702 -0.2664 -0.0510  0.4979
 7004SOL    HW132471   2.578   2.749   4.756 -1.5184 -1.5925 -0.2090
 7004SOL    HW232472   2.599   2.868   4.665 -0.4801 -1.0259 -1.3654
 7005SOL     OW32473   2.117   4.326   2.504  0.3263 -0.4550  0.0246
 7005SOL    HW132474   2.068   4.402   2.536 -0.5013 -0.5239 -1.0853
 7005SOL    HW232475   2.175   4.361   2.437 -0.0277  0.3158  0.1207
 7006SOL     OW32476   2.454   2.224   8.782 -0.4367  0.3569  0.7239
 7006SOL    HW132477   2.488   2.162   8.846  1.2145  3.5250  2.9428
 7006SOL    HW232478   2.535   2.267   8.755 -0.8970 -0.1178 -1.4254
 7007SOL     OW32479   0.773   1.213  12.446 -0.0192 -0.3926 -1.0000
 7007SOL    HW132480   0.710   1.270  12.403  2.6813  1.3445 -2.6370
 7007SOL    HW232481   0.825   1.169  12.379  0.1335 -1.1643 -0.3826
 7008SOL     OW32482   3.313   3.544  14.493 -0.1174 -0.5191 -0.1439
 7008SOL    HW132483   3.340   3.470  14.549  0.7070 -0.0160  0.1165
 7008SOL    HW232484   3.393   3.573  14.451 -0.5529 -0.0533 -0.6464
 7009SOL     OW32485   4.387   4.208  11.022 -0.5551 -0.1522 -0.0739
 7009SOL    HW132486   4.456   4.266  10.993 -1.8547  0.6498 -1.5790
 7009SOL    HW232487   4.441   4.137  11.056 -0.5783 -0.2330 -0.2053
 7010SOL     OW32488   0.577   2.093  11.491 -0.5068 -0.1424 -0.3737
 7010SOL    HW132489   0.575   2.124  11.582  1.5925  0.1918 -0.4391
 7010SOL    HW232490   0.587   2.177  11.447  1.3974 -0.3872 -0.4496
 7011SOL     OW32491   3.069   0.638  11.740  0.5616  0.2584  0.2885
 7011SOL    HW132492   3.034   0.722  11.771  2.9885  1.2287  0.3640
 7011SOL    HW232493   3.157   0.646  11.776  0.2626  0.0798  1.0472
 7012SOL     OW32494   4.078   1.099   6.702  0.7689  0.2528 -0.1774
 7012SOL    HW132495   4.055   1.135   6.787 -2.0525 -1.0560 -0.3862
 7012SOL    HW232496   4.150   1.042   6.729 -1.2409 -1.8790  0.7015
 7013SOL     OW32497   1.786   3.898   2.706 -0.1505 -0.4415 -0.5002
 7013SOL    HW132498   1.766   3.846   2.628 -0.0236  1.7326 -1.9720
 7013SOL    HW232499   1.824   3.974   2.663 -1.5829 -1.0771 -2.9026
 7014SOL     OW32500   4.388   1.510   6.080  0.4991 -0.0794  0.5273
 7014SOL    HW132501   4.406   1.419   6.103  1.1237  0.2771  1.4569
 7014SOL    HW232502   4.295   1.503   6.059  0.3410  1.1553  0.7899
 7015SOL     OW32503   2.511   1.817   5.477 -0.6026 -0.6133 -0.0812
 7015SOL    HW132504   2.435   1.861   5.438  0.1406  0.6606 -0.0916
 7015SOL    HW232505   2.485   1.725   5.472 -2.0282 -0.2858  1.1576
 7016SOL     OW32506   2.206   1.727   3.559 -0.4543  0.0082  0.1860
 7016SOL    HW132507   2.126   1.772   3.588 -0.8858  0.3095 -1.4577
 7016SOL    HW232508   2.221   1.662   3.627  1.8911  0.9649  0.5776
 7017SOL     OW32509   3.078   1.947   6.109  0.5458 -0.5919  0.1098
 7017SOL    HW132510   3.085   1.986   6.022 -0.2897 -0.1103  0.2636
 7017SOL    HW232511   2.983   1.941   6.119  0.7055  1.9022  2.9859
 7018SOL     OW32512   3.313   2.743   6.450 -0.0222  0.5334  0.0156
 7018SOL    HW132513   3.255   2.819   6.443 -1.0340 -0.2509 -0.0857
 7018SOL    HW232514   3.331   2.718   6.360  0.2930  1.3017 -0.1316
 7019SOL     OW32515   2.057   2.752   7.217 -0.0040  0.2134 -0.0985
 7019SOL    HW132516   1.965   2.741   7.194 -0.4089 -0.4385  1.8330
 7019SOL    HW232517   2.058   2.793   7.303  2.5404  1.2495 -0.6176
 7020SOL     OW32518   3.543   0.177  14.207  0.0459  0.7602  0.0790
 7020SOL    HW132519   3.515   0.152  14.295  0.0464 -2.0050 -0.6952
 7020SOL    HW232520   3.606   0.245  14.230  2.2896 -0.9064 -1.1087
 7021SOL     OW32521   1.872   2.280   3.814 -0.2473 -0.1182  0.1462
 7021SOL    HW132522   1.864   2.368   3.777  1.2918 -0.9170 -2.0731
 7021SOL    HW232523   1.901   2.300   3.903 -0.6150 -0.6042  0.3771
 7022SOL     OW32524   1.263   0.280   6.043  0.2966  0.0924 -0.0924
 7022SOL    HW132525   1.297   0.369   6.050  0.1126  0.0869  0.8681
 7022SOL    HW232526   1.265   0.267   6.138  4.1506 -1.0476 -0.3376
 7023SOL     OW32527   4.307   2.940  13.521 -0.5643  0.0727  0.1500
 7023SOL    HW132528   4.283   3.033  13.514 -2.6180 -0.3624  1.6367
 7023SOL    HW232529   4.251   2.896  13.584 -1.7198  2.8149  1.0431
 7024SOL     OW32530   1.788   2.563  14.583 -0.2463  0.0974 -0.4582
 7024SOL    HW132531   1.789   2.658  14.592  0.2597  0.0672 -0.1984
 7024SOL    HW232532   1.808   2.532  14.672 -0.3118 -0.6718 -0.7094
 7025SOL     OW32533   3.875   0.469   9.334  0.0141  0.6570  0.1993
 7025SOL    HW132534   3.956   0.520   9.329 -1.0822  2.2084 -1.4725
 7025SOL    HW232535   3.848   0.468   9.243 -0.5604 -3.1524  0.3852
 7026SOL     OW32536   2.667   3.179  14.331  0.1527 -0.7696  0.6296
 7026SOL    HW132537   2.649   3.221  14.247  0.9265 -0.9435  0.3786
 7026SOL    HW232538   2.761   3.199  14.331 -0.3479  1.6322  3.4603
 7027SOL     OW32539   1.903   4.094   7.396  0.3896  0.0201 -0.6111
 7027SOL    HW132540   1.943   4.059   7.317 -0.6396 -2.7520  0.1171
 7027SOL    HW232541   1.979   4.141   7.431  1.0306  0.5848 -2.7719
 7028SOL     OW32542   4.669   2.812   4.724  0.5779 -0.5071 -0.0919
 7028SOL    HW132543   0.022   2.820   4.778 -1.0479  0.0105  2.2233
 7028SOL    HW232544   4.660   2.717   4.718 -1.0519 -0.2736 -1.3123
 7029SOL     OW32545   4.011   4.672   3.350 -0.1667  0.0612 -0.1237
 7029SOL    HW132546   4.105   4.681   3.341  0.1129 -3.0342 -0.1707
 7029SOL    HW232547   3.993   4.590   3.305  0.2535 -0.9176  1.4790
 7030SOL     OW32548   2.499   4.537  15.395 -0.1090  0.1236  0.0406
 7030SOL    HW132549   2.479   4.463  15.452 -1.4362 -0.4035 -1.1181
 7030SOL    HW232550   2.555   4.499  15.326 -0.6395  1.2932 -1.0304
 7031SOL     OW32551   1.864   2.060   8.018 -0.2941  0.5666 -0.1997
 7031SOL    HW132552   1.825   2.146   8.004  0.0515  0.7394 -0.1114
 7031SOL    HW232553   1.850   2.020   7.932  0.0128 -0.5401  0.2676
 7032SOL     OW32554   3.092   4.144  10.270 -0.7235  0.2365  0.0478
 7032SOL    HW132555   3.124   4.234  10.271  1.7988 -0.6513 -0.0654
 7032SOL    HW232556   3.114   4.117  10.359 -0.9536  0.8316  0.2773
 7033SOL     OW32557   2.936   2.377   9.051 -0.2021 -0.1310 -0.4192
 7033SOL    HW132558   2.993   2.378   8.974 -1.0223  0.5047 -1.0211
 7033SOL    HW232559   2.961   2.295   9.093 -1.7050 -0.1399  0.4360
 7034SOL     OW32560   0.360   0.592  12.902  0.0930  0.3066  0.2899
 7034SOL    HW132561   0.418   0.517  12.892  0.5611  0.7752 -0.4836
 7034SOL    HW232562   0.407   0.675  12.894 -0.1697  0.6030  1.8146
 7035SOL     OW32563   1.298   4.362  16.023 -0.1873  0.4675  0.4204
 7035SOL    HW132564   1.228   4.326  15.969 -0.0143  0.6968  0.0492
 7035SOL    HW232565   1.380   4.335  15.982  2.2986  0.3159  5.5351
 7036SOL     OW32566   3.270   2.685  16.199 -0.6097  0.2834 -0.0968
 7036SOL    HW132567   3.242   2.734  16.121 -0.6437 -1.4547 -1.1995
 7036SOL    HW232568   3.187   2.671  16.244 -0.9186  0.3584 -0.6380
 7037SOL     OW32569   3.715   2.083  12.248  0.0433  0.5654  0.1121
 7037SOL    HW132570   3.741   2.040  12.166  1.4891  1.2559  0.2032
 7037SOL    HW232571   3.690   2.170  12.218  0.6673  1.6634  2.7513
 7038SOL     OW32572   3.435   1.404   6.900 -0.0649  0.5006  0.7482
 7038SOL    HW132573   3.341   1.414   6.884 -0.4771 -0.4837  2.5725
 7038SOL    HW232574   3.432   1.318   6.943  1.4974  1.0351  1.9050
 7039SOL     OW32575   2.715   0.301   7.397  0.5544 -0.2308  0.3853
 7039SOL    HW132576   2.634   0.305   7.448 -0.3269 -0.3620 -1.0012
 7039SOL    HW232577   2.722   0.207   7.382 -0.0219 -0.2232  0.0578
 7040SOL     OW32578   1.641   0.485  15.311 -0.7490 -0.5217 -0.0055
 7040SOL    HW132579   1.632   0.389  15.312 -0.6154 -0.5304  0.2411
 7040SOL    HW232580   1.670   0.490  15.402  0.4233 -1.5657 -0.3184
 7041SOL     OW32581   1.061   2.147   4.522  0.0217 -0.4674  0.2740
 7041SOL    HW132582   1.051   2.070   4.579  1.4830 -2.3425 -2.0126
 7041SOL    HW232583   1.129   2.113   4.464  0.1238  0.0333  0.1049
 7042SOL     OW32584   0.780   2.073   1.022  0.3308 -0.0664  0.5239
 7042SOL    HW132585   0.697   2.087   1.067 -0.2332 -2.4249  0.1880
 7042SOL    HW232586   0.806   1.991   1.065  0.6609 -1.6565 -2.7734
 7043SOL     OW32587   4.662   3.451   2.755 -0.1052 -0.0894 -0.0675
 7043SOL    HW132588   4.617   3.444   2.840  0.0496  0.3496  0.0512
 7043SOL    HW232589   4.633   3.533   2.716  0.4505 -1.6133 -3.6353
 7044SOL     OW32590   0.603   3.324   2.271 -0.3413  0.1598 -0.8154
 7044SOL    HW132591   0.583   3.341   2.179  1.6831  1.1413 -1.0822
 7044SOL    HW232592   0.677   3.384   2.284 -2.2243  2.6134 -1.3775
 7045SOL     OW32593   3.335   0.018  12.058 -0.0074 -0.4133  0.1918
 7045SOL    HW132594   3.265   4.685  12.030 -0.6575  0.9828 -1.0910
 7045SOL    HW232595   3.289   0.101  12.050 -0.9578 -1.0036 -0.4394
 7046SOL     OW32596   2.969   3.179   9.030 -0.4137 -0.4043 -0.6639
 7046SOL    HW132597   3.021   3.218   8.960 -0.0208  1.2724  0.5747
 7046SOL    HW232598   3.023   3.105   9.059  0.6041  1.0846  1.2537
 7047SOL     OW32599   4.264   3.982   2.698  0.3968 -0.0470  0.7192
 7047SOL    HW132600   4.282   4.022   2.783 -1.2218 -1.0529  1.5499
 7047SOL    HW232601   4.281   3.892   2.727 -0.2297 -0.2787  0.3474
 7048SOL     OW32602   2.619   1.623  14.983 -0.3538  0.1216  0.3995
 7048SOL    HW132603   2.707   1.600  14.951 -0.7841 -0.9859  0.0342
 7048SOL    HW232604   2.631   1.609  15.077 -0.1226  0.8640  0.4859
 7049SOL     OW32605   2.974   1.201   7.648  0.0779 -0.5161 -0.1898
 7049SOL    HW132606   3.064   1.223   7.669  0.3278 -0.9826 -0.7568
 7049SOL    HW232607   2.931   1.281   7.677 -1.0430 -1.4906  0.8522
 7050SOL     OW32608   2.795   0.702   2.109 -0.3744  0.3035 -0.4379
 7050SOL    HW132609   2.884   0.674   2.085 -0.3112  1.2666 -1.3008
 7050SOL    HW232610   2.764   0.756   2.037 -1.3536 -0.9299 -0.9373
 7051SOL     OW32611   2.114   0.251   2.073  0.2956 -0.6799 -0.4700
 7051SOL    HW132612   2.119   0.265   1.979 -0.3739 -0.9136 -0.5396
 7051SOL    HW232613   2.200   0.289   2.093  0.7243 -1.5634 -0.6618
 7052SOL     OW32614   4.091   4.606   7.340  0.3763 -0.5582  0.5416
 7052SOL    HW132615   4.147   4.678   7.310 -0.8306  0.3095  0.3400
 7052SOL    HW232616   4.066   4.643   7.425  0.5580  1.0054 -0.0760
 7053SOL     OW32617   4.434   1.317   1.751  0.0302 -0.0720  0.3405
 7053SOL    HW132618   4.458   1.312   1.844  0.5864  0.4999  0.2326
 7053SOL    HW232619   4.519   1.304   1.709  0.3143  0.6528  0.6871
 7054SOL     OW32620   3.413   3.358  14.789  0.4295 -0.2697  0.1580
 7054SOL    HW132621   3.338   3.299  14.780  2.2428 -2.2750 -2.0711
 7054SOL    HW232622   3.390   3.389  14.876  0.2442 -0.0620  0.0334
 7055SOL     OW32623   4.052   2.780   1.219 -0.3452 -0.3923 -0.1958
 7055SOL    HW132624   4.031   2.726   1.144  2.9152 -2.1402  0.1374
 7055SOL    HW232625   4.016   2.720   1.284  0.4024  0.0329  0.6188
 7056SOL     OW32626   3.250   3.301  11.439 -0.1167  0.2165  0.5312
 7056SOL    HW132627   3.263   3.348  11.522  0.9407  0.0871  0.4371
 7056SOL    HW232628   3.330   3.248  11.438  1.6183  2.8568 -0.0702
 7057SOL     OW32629   0.889   3.839  16.162 -0.7825 -0.2249 -0.1905
 7057SOL    HW132630   0.806   3.877  16.192 -1.0326 -0.4479 -0.5975
 7057SOL    HW232631   0.857   3.750  16.144  1.2392 -1.0811  0.4931
 7058SOL     OW32632   2.623   2.624   4.144 -0.1397 -0.1440  0.3099
 7058SOL    HW132633   2.601   2.717   4.143  0.7309  0.0673  2.2440
 7058SOL    HW232634   2.621   2.612   4.049  1.8810  1.4522  0.0581
 7059SOL     OW32635   1.655   0.992   1.115  0.6399 -0.0188 -0.5183
 7059SOL    HW132636   1.588   1.052   1.081  0.4216 -0.3975 -0.7507
 7059SOL    HW232637   1.695   1.029   1.194 -0.8666  1.8997 -0.6469
 7060SOL     OW32638   0.924   2.334  13.908  0.5601 -0.3940 -0.2060
 7060SOL    HW132639   0.989   2.396  13.942  1.9806 -1.3922 -1.0915
 7060SOL    HW232640   0.859   2.337  13.978  1.9606  0.6846  1.0315
 7061SOL     OW32641   1.520   1.245   3.304 -0.6085  0.0107 -0.1518
 7061SOL    HW132642   1.584   1.316   3.301 -0.9144  0.3500  1.1182
 7061SOL    HW232643   1.449   1.293   3.348 -1.6000  1.1542 -3.0384
 7062SOL     OW32644   2.835   0.715   3.038  0.4217  0.0683 -0.2514
 7062SOL    HW132645   2.866   0.755   2.957 -0.0484  1.4687  0.2652
 7062SOL    HW232646   2.921   0.694   3.076  0.0634  0.1474  0.5923
 7063SOL     OW32647   3.276   2.477   3.533 -0.3720 -0.1713  0.0817
 7063SOL    HW132648   3.212   2.525   3.586 -0.7547 -0.4569 -0.1288
 7063SOL    HW232649   3.266   2.390   3.570  1.2403 -0.4017 -0.0273
 7064SOL     OW32650   0.899   1.162   4.914 -0.5842 -0.3627  0.0548
 7064SOL    HW132651   0.890   1.137   4.822 -1.2296 -2.7271  0.7703
 7064SOL    HW232652   0.869   1.081   4.955 -0.0415 -0.1613  0.8493
 7065SOL     OW32653   1.372   4.216   4.029  0.0305 -0.2304 -0.4225
 7065SOL    HW132654   1.418   4.298   4.015  0.6856 -0.1801  1.9667
 7065SOL    HW232655   1.413   4.184   4.109  0.1786  0.5992 -0.1662
 7066SOL     OW32656   3.484   3.721  12.219 -0.1189  0.0063  0.2982
 7066SOL    HW132657   3.453   3.791  12.161  0.7842 -0.6876 -1.0068
 7066SOL    HW232658   3.568   3.756  12.249 -0.2443  1.0354 -0.5330
 7067SOL     OW32659   3.293   4.391  12.669 -0.1367  0.0672  0.4662
 7067SOL    HW132660   3.322   4.478  12.643  0.3142 -0.2491 -0.1006
 7067SOL    HW232661   3.202   4.416  12.688 -0.7709 -2.0437  0.2473
 7068SOL     OW32662   2.516   4.212   7.405  0.1333 -0.5205  0.1943
 7068SOL    HW132663   2.600   4.207   7.451  1.0494 -0.1417 -1.4339
 7068SOL    HW232664   2.472   4.284   7.452  1.4654  0.6008 -0.2766
 7069SOL     OW32665   2.818   2.792  13.397 -0.5749  0.3412 -0.0586
 7069SOL    HW132666   2.755   2.847  13.444 -0.3613 -1.3918  2.2596
 7069SOL    HW232667   2.778   2.714  13.435  0.8517 -1.0045 -1.3695
 7070SOL     OW32668   2.780   0.789   6.709  0.0841 -0.4367 -0.3138
 7070SOL    HW132669   2.783   0.767   6.802 -2.2311  1.6921  0.2756
 7070SOL    HW232670   2.863   0.743   6.696  0.4641  0.3453 -0.7096
 7071SOL     OW32671   0.238   1.824   9.502 -0.3085  0.0917  0.6133
 7071SOL    HW132672   0.319   1.854   9.545 -0.3494  0.2294  0.5927
 7071SOL    HW232673   0.265   1.740   9.465  1.3426  0.4487  0.9844
 7072SOL     OW32674   2.439   1.663   3.133 -0.2362  0.1001  0.8680
 7072SOL    HW132675   2.448   1.594   3.067 -2.7026  0.8477 -0.2702
 7072SOL    HW232676   2.441   1.745   3.084 -0.8678 -0.5921 -0.3331
 7073SOL     OW32677   2.804   0.759   3.298  0.0216  0.1141 -0.2990
 7073SOL    HW132678   2.820   0.786   3.208  0.6389  0.0969 -0.1937
 7073SOL    HW232679   2.894   0.732   3.314 -0.7052 -1.1062  1.7518
 7074SOL     OW32680   0.010   0.326  14.028  0.1939  0.3706  1.0570
 7074SOL    HW132681   4.726   0.402  14.085  0.8670  1.5070 -0.3208
 7074SOL    HW232682   0.106   0.328  14.034  0.3924  1.8332 -2.1524
 7075SOL     OW32683   1.797   1.149   6.481 -0.4545  0.4578  0.1982
 7075SOL    HW132684   1.793   1.189   6.394 -0.7704  1.3241  0.6210
 7075SOL    HW232685   1.738   1.213   6.519 -0.1844  0.9259 -0.1705
 7076SOL     OW32686   2.762   0.261   6.261 -0.0203 -0.2220  0.0300
 7076SOL    HW132687   2.675   0.223   6.273  1.4265 -3.9987 -1.5120
 7076SOL    HW232688   2.750   0.338   6.206  0.1243  0.4235  0.9003
 7077SOL     OW32689   1.833   0.258   5.981  0.5205 -0.7501  0.0809
 7077SOL    HW132690   1.778   0.335   5.967  2.2170 -0.2065 -3.5446
 7077SOL    HW232691   1.898   0.297   6.040 -0.1649  0.3088  0.1191
 7078SOL     OW32692   2.148   2.123   2.517  0.3469  0.4656 -0.0367
 7078SOL    HW132693   2.229   2.101   2.564 -0.0252  0.5159  0.6160
 7078SOL    HW232694   2.163   2.206   2.473 -1.0202 -0.8587 -3.0310
 7079SOL     OW32695   1.714   0.918   5.852 -0.0488  0.4507 -0.1335
 7079SOL    HW132696   1.809   0.929   5.839 -0.2289  3.0507  0.8616
 7079SOL    HW232697   1.670   0.999   5.827 -1.6000 -0.0452  1.0195
 7080SOL     OW32698   4.381   1.997  10.152  0.1857 -0.0399 -0.0154
 7080SOL    HW132699   4.351   1.920  10.104 -1.4083 -0.7062  2.0521
 7080SOL    HW232700   4.384   2.063  10.083 -2.1862  1.1247  1.0081
 7081SOL     OW32701   3.100   0.791   7.076  0.1740 -0.2060  0.2717
 7081SOL    HW132702   3.114   0.703   7.111  1.2047  0.5009  1.6479
 7081SOL    HW232703   3.192   0.814   7.065 -0.0778  1.3981  1.5252
 7082SOL     OW32704   1.190   4.243   8.084  0.1214 -0.0978  0.0970
 7082SOL    HW132705   1.181   4.315   8.146  0.6605 -0.7490  0.9168
 7082SOL    HW232706   1.103   4.205   8.092 -0.0942  0.7191  1.5086
 7083SOL     OW32707   1.898   2.268   9.143 -0.6935 -0.2188 -0.6659
 7083SOL    HW132708   1.820   2.306   9.184 -0.9230  0.5637 -1.8243
 7083SOL    HW232709   1.870   2.288   9.053 -0.9382  1.9840 -0.1014
 7084SOL     OW32710   1.708   1.277  16.984  0.1266  0.2659 -0.4858
 7084SOL    HW132711   1.803   1.279  16.973  0.6114 -1.5790  3.1067
 7084SOL    HW232712   1.681   1.226  16.907 -1.5225  0.7261 -0.2027
 7085SOL     OW32713   0.735   2.226   9.396 -0.5480  0.3551  0.3744
 7085SOL    HW132714   0.724   2.319   9.375  0.6595  0.0806 -1.5367
 7085SOL    HW232715   0.811   2.244   9.452  1.3590  0.0585 -2.1074
 7086SOL     OW32716   4.654   3.658   4.053  0.4999  0.0436  0.8143
 7086SOL    HW132717   4.720   3.593   4.074 -2.5762 -2.3157  3.1273
 7086SOL    HW232718   4.596   3.607   3.996 -0.8678  0.0672  2.1863
 7087SOL     OW32719   0.865   4.630   2.306 -0.5215  0.1843  0.4537
 7087SOL    HW132720   0.880   4.559   2.244  0.4699 -0.0655  0.9745
 7087SOL    HW232721   0.899   4.705   2.256  0.2020  2.0552  3.7391
 7088SOL     OW32722   2.099   3.176   1.355 -0.4201  0.6448  0.9239
 7088SOL    HW132723   2.068   3.247   1.411  0.4046 -0.1612  2.3923
 7088SOL    HW232724   2.163   3.136   1.413 -0.9768  0.1999  1.2339
 7089SOL     OW32725   3.075   0.240  15.534  0.4856 -0.0051 -0.5718
 7089SOL    HW132726   3.044   0.210  15.620  3.2592 -3.2597 -0.6812
 7089SOL    HW232727   3.164   0.265  15.557 -0.0148  2.1312 -0.9363
 7090SOL     OW32728   4.510   2.356   3.484 -0.7490  0.5951 -0.2630
 7090SOL    HW132729   4.595   2.379   3.522 -1.1683 -0.1024  1.1041
 7090SOL    HW232730   4.520   2.262   3.472  0.2691  0.5987  0.5705
 7091SOL     OW32731   1.839   2.880   6.503 -0.3910 -0.6858  0.1922
 7091SOL    HW132732   1.908   2.942   6.479 -0.0614 -0.2457  2.2907
 7091SOL    HW232733   1.759   2.932   6.505  1.4642  2.1514  0.2348
 7092SOL     OW32734   2.919   3.337  12.807 -0.3875  0.1318  0.1692
 7092SOL    HW132735   3.000   3.289  12.825  2.2131  4.2834 -0.4813
 7092SOL    HW232736   2.851   3.276  12.835 -0.9000  0.5290 -0.2043
 7093SOL     OW32737   4.039   1.369   8.891  0.4140  0.7634 -0.2900
 7093SOL    HW132738   3.957   1.415   8.909  0.3485  0.9874 -1.1733
 7093SOL    HW232739   3.999   1.295   8.846  0.9118  0.3796 -0.0972
 7094SOL     OW32740   0.810   2.269   6.961  0.2823  0.3993  0.7052
 7094SOL    HW132741   0.780   2.267   6.870  0.1585  1.0012  0.7360
 7094SOL    HW232742   0.811   2.363   6.981 -0.5093  0.5497  0.0467
 7095SOL     OW32743   3.883   4.424   2.476 -0.4623  0.1417  0.5889
 7095SOL    HW132744   3.933   4.397   2.399 -1.0690  0.4027  0.1084
 7095SOL    HW232745   3.848   4.344   2.514  1.5712 -1.0343  0.0005
 7096SOL     OW32746   0.105   1.801   7.594 -0.0620 -0.2598 -0.2083
 7096SOL    HW132747   0.067   1.882   7.629  0.1095 -0.1136 -0.3583
 7096SOL    HW232748   0.059   1.738   7.649  0.5386 -1.6081 -1.2652
 7097SOL     OW32749   2.090   1.084   6.228  0.4857  0.1410 -0.1124
 7097SOL    HW132750   2.080   1.094   6.134  2.4811 -0.6646 -0.4132
 7097SOL    HW232751   2.056   0.995   6.232 -1.6406  0.8542 -2.6243
 7098SOL     OW32752   1.189   4.417   3.041  0.6878  0.4468 -1.1355
 7098SOL    HW132753   1.131   4.369   2.981  0.3876  0.9244 -1.2195
 7098SOL    HW232754   1.146   4.502   3.046 -0.3715 -0.1729 -0.0033
 7099SOL     OW32755   1.517   3.433   3.605 -0.1193  0.2431  0.7544
 7099SOL    HW132756   1.555   3.372   3.542  0.0525 -0.5641  1.6487
 7099SOL    HW232757   1.586   3.447   3.670  0.6662  1.2490 -0.3006
 7100SOL     OW32758   0.359   2.005  13.986  0.3415  0.3890  0.4052
 7100SOL    HW132759   0.443   2.046  14.006 -0.7968  3.4241 -1.0754
 7100SOL    HW232760   0.315   1.994  14.070  0.6520  0.8887  0.6304
 7101SOL     OW32761   2.107   4.654   4.526  0.2507  0.2621 -0.2480
 7101SOL    HW132762   2.041   4.714   4.494  1.9564  1.3100 -1.7865
 7101SOL    HW232763   2.083   4.658   4.619 -0.8468  1.4245 -0.5892
 7102SOL     OW32764   4.389   3.310   7.129 -0.5333 -0.6263 -0.1853
 7102SOL    HW132765   4.480   3.339   7.128 -1.0327  0.9804  0.3547
 7102SOL    HW232766   4.343   3.385   7.090 -0.5330 -0.8023 -0.5237
 7103SOL     OW32767   1.613   4.311   4.710 -0.9403  0.1619 -0.1379
 7103SOL    HW132768   1.589   4.371   4.781 -0.0270  1.1875 -0.6964
 7103SOL    HW232769   1.705   4.294   4.731 -1.1620 -0.9749 -0.1097
 7104SOL     OW32770   4.098   1.417  15.915 -0.2318  0.6632 -0.0432
 7104SOL    HW132771   4.134   1.484  15.857  0.8822  0.0077 -0.1167
 7104SOL    HW232772   4.058   1.475  15.980 -0.9432 -1.2262  1.2166
 7105SOL     OW32773   2.232   2.866   5.816  0.5243  0.1555 -0.3858
 7105SOL    HW132774   2.227   2.776   5.784  0.1469 -0.3776  1.1862
 7105SOL    HW232775   2.318   2.893   5.782  0.1211 -0.4679 -1.8803
 7106SOL     OW32776   2.972   1.364  14.684  0.0931 -0.0683 -0.2744
 7106SOL    HW132777   2.999   1.423  14.613 -0.4029  0.2595 -0.1923
 7106SOL    HW232778   2.952   1.285  14.633  0.4809  1.0060 -2.1145
 7107SOL     OW32779   0.387   2.411   4.422 -0.2156 -0.4330 -0.2202
 7107SOL    HW132780   0.436   2.329   4.429  1.7928  0.9145  1.4840
 7107SOL    HW232781   0.448   2.473   4.462 -1.7485  0.2835  1.0319
 7108SOL     OW32782   2.537   0.565   0.312  0.1827  0.1761 -0.1290
 7108SOL    HW132783   2.463   0.625   0.323 -0.0170 -0.1079  0.0631
 7108SOL    HW232784   2.532   0.559   0.216  0.2553  0.0449 -0.1251
 7109SOL     OW32785   3.280   0.252  14.049 -0.0194 -0.2867 -0.1605
 7109SOL    HW132786   3.270   0.340  14.085 -4.7480 -1.6407  1.8939
 7109SOL    HW232787   3.362   0.228  14.093  0.3889  1.6711  0.1479
 7110SOL     OW32788   3.440   3.211  14.124  0.1161 -0.0076  0.2376
 7110SOL    HW132789   3.422   3.119  14.105  2.6512 -0.2469 -0.9617
 7110SOL    HW232790   3.506   3.216  14.193 -0.0685 -0.8314  0.4689
 7111SOL     OW32791   3.572   3.864  16.885 -0.3846  0.1164  0.2785
 7111SOL    HW132792   3.540   3.825  16.803 -0.4545  1.1464 -0.1771
 7111SOL    HW232793   3.664   3.841  16.878 -0.7696 -1.5308  0.6179
 7112SOL     OW32794   1.645   3.388   2.862 -0.1425 -0.2815 -0.0914
 7112SOL    HW132795   1.605   3.321   2.808 -0.7689  0.3166 -0.3708
 7112SOL    HW232796   1.690   3.427   2.787  1.2233 -1.4222  0.1193
 7113SOL     OW32797   4.169   1.869  11.384  0.0648 -0.2737  0.5063
 7113SOL    HW132798   4.171   1.950  11.334 -1.7330  0.1667  1.1708
 7113SOL    HW232799   4.197   1.803  11.320  0.1371  0.9535 -0.7081
 7114SOL     OW32800   2.180   1.535   2.114  0.8703 -0.6068  0.2766
 7114SOL    HW132801   2.167   1.560   2.022 -1.2215  0.0227  0.7404
 7114SOL    HW232802   2.267   1.494   2.121  1.2582  0.1241 -0.3078
 7115SOL     OW32803   3.612   4.043   5.785  0.0905 -0.2824  0.1474
 7115SOL    HW132804   3.568   4.025   5.702 -1.1501 -1.0769  0.9884
 7115SOL    HW232805   3.572   4.122   5.821 -0.3330  0.4907 -2.0121
 7116SOL     OW32806   0.733   4.368   6.728 -0.1986  0.5480 -0.3991
 7116SOL    HW132807   0.737   4.276   6.755  0.3139  0.6975  0.0218
 7116SOL    HW232808   0.822   4.388   6.699 -0.1949  0.9289 -0.1238
 7117SOL     OW32809   0.590   0.610  13.244 -0.0612 -0.5387 -0.6231
 7117SOL    HW132810   0.497   0.599  13.224 -0.1731  1.0498 -0.9658
 7117SOL    HW232811   0.619   0.614  13.152  1.2785  0.6174 -0.1531
 7118SOL     OW32812   3.603   4.667   7.181  0.2533 -0.5980  0.2865
 7118SOL    HW132813   3.622   0.029   7.148 -0.2757  0.3619  2.5449
 7118SOL    HW232814   3.643   4.680   7.267 -0.4391 -1.6005  0.7728
 7119SOL     OW32815   3.551   3.798   5.060 -0.5581  0.0109  0.1749
 7119SOL    HW132816   3.478   3.856   5.040 -1.2115 -0.1231  2.1518
 7119SOL    HW232817   3.624   3.848   5.024  0.0873 -2.0356 -1.3976
 7120SOL     OW32818   1.850   4.189   8.321 -0.0119 -0.0509 -0.1924
 7120SOL    HW132819   1.868   4.260   8.382  1.9748 -1.7555  1.1814
 7120SOL    HW232820   1.866   4.112   8.375 -0.6855 -0.2810 -0.3146
 7121SOL     OW32821   2.463   1.256   2.587 -0.0230  0.0966 -0.5197
 7121SOL    HW132822   2.524   1.322   2.620 -2.9376  2.9484 -0.7080
 7121SOL    HW232823   2.380   1.305   2.595  0.2604  0.4747  0.1696
 7122SOL     OW32824   4.368   2.802   3.598 -0.5639 -0.1324 -0.5118
 7122SOL    HW132825   4.456   2.805   3.561 -0.0826  0.4089  0.6785
 7122SOL    HW232826   4.349   2.712   3.571 -0.8185 -0.2240 -0.0450
 7123SOL     OW32827   1.587   1.177   5.454 -0.0933  0.0164  1.0909
 7123SOL    HW132828   1.644   1.101   5.439 -1.7312 -1.1192  0.7205
 7123SOL    HW232829   1.533   1.178   5.375  1.2419 -0.5499  0.1654
 7124SOL     OW32830   3.018   1.034   3.316  0.1057 -0.2734 -0.7107
 7124SOL    HW132831   2.937   1.054   3.270 -0.3115  0.7439  0.4599
 7124SOL    HW232832   3.042   0.951   3.273  1.1845 -1.0409  1.3545
 7125SOL     OW32833   2.722   2.870   4.365  0.2959  0.3821  0.2625
 7125SOL    HW132834   2.652   2.912   4.415  1.2576  1.3271  0.8241
 7125SOL    HW232835   2.771   2.949   4.342  1.5488  0.1697  2.1934
 7126SOL     OW32836   1.323   1.943   6.000 -0.3377 -0.0706 -0.0329
 7126SOL    HW132837   1.227   1.937   5.992 -0.4404  1.9298 -0.3117
 7126SOL    HW232838   1.345   2.035   5.989  0.4102 -0.0400  1.8227
 7127SOL     OW32839   4.272   4.495   5.796 -0.4046  0.3558 -0.2400
 7127SOL    HW132840   4.183   4.521   5.818 -0.5000 -0.0720 -0.1224
 7127SOL    HW232841   4.328   4.571   5.808 -1.5698  1.2790 -0.6681
 7128SOL     OW32842   1.719   1.655   7.148  0.1461 -0.1309  0.3218
 7128SOL    HW132843   1.643   1.660   7.206 -0.6046 -1.0616 -0.5936
 7128SOL    HW232844   1.754   1.725   7.203 -0.8089  0.3396  0.3359
 7129SOL     OW32845   2.908   1.091   6.753  0.0588  0.2197 -0.4115
 7129SOL    HW132846   2.837   1.027   6.748  1.0598 -0.9641  0.5749
 7129SOL    HW232847   2.960   1.062   6.678 -0.0934 -0.4422 -0.2613
 7130SOL     OW32848   4.336   0.328  15.525 -0.2597  0.4851 -0.3223
 7130SOL    HW132849   4.271   0.266  15.557 -0.6749  0.1273 -1.8597
 7130SOL    HW232850   4.298   0.367  15.447 -1.3878  0.8427  0.4065
 7131SOL     OW32851   3.624   2.258  15.629 -0.3904 -0.0673 -0.0512
 7131SOL    HW132852   3.552   2.246  15.567  0.7472  0.7461 -1.5215
 7131SOL    HW232853   3.588   2.311  15.700  0.4188 -0.1653  0.4248
 7132SOL     OW32854   2.697   3.343   5.483  0.1972 -0.0309  0.3858
 7132SOL    HW132855   2.714   3.347   5.389  0.1136  0.6298  0.3990
 7132SOL    HW232856   2.602   3.347   5.488  0.2343  2.5183 -0.9943
 7133SOL     OW32857   2.209   2.324   4.753  0.0693 -0.5146  0.4569
 7133SOL    HW132858   2.143   2.332   4.822 -0.4010  0.1961 -0.0634
 7133SOL    HW232859   2.226   2.417   4.736  2.3669 -1.0358 -0.0447
 7134SOL     OW32860   2.360   4.306  15.500  0.4008  0.1866  0.6954
 7134SOL    HW132861   2.305   4.374  15.539 -0.8705  0.6297 -1.8783
 7134SOL    HW232862   2.354   4.237  15.566 -1.5243 -0.2572  0.0546
 7135SOL     OW32863   0.058   3.756   3.673 -0.2847 -0.1685 -0.4962
 7135SOL    HW132864   0.071   3.782   3.765  1.3440  3.1421 -1.6705
 7135SOL    HW232865   0.035   3.664   3.683 -0.9182  0.1671  1.1990
 7136SOL     OW32866   2.134   1.087   3.792  1.0952  0.2580  0.3091
 7136SOL    HW132867   2.143   0.993   3.810  2.3802  0.5084  1.0356
 7136SOL    HW232868   2.048   1.080   3.752  1.4340 -1.7278 -0.0610
 7137SOL     OW32869   1.278   0.254   0.864  0.3128  0.1218 -0.6737
 7137SOL    HW132870   1.217   0.327   0.854  0.2259  0.2277  0.7092
 7137SOL    HW232871   1.250   0.200   0.790  0.4286 -3.3148  1.8217
 7138SOL     OW32872   3.308   2.201   8.966  0.6864  0.3362 -0.4116
 7138SOL    HW132873   3.373   2.241   8.907 -2.2552  0.3462 -3.6559
 7138SOL    HW232874   3.226   2.233   8.928  1.0611  2.0263  0.1842
 7139SOL     OW32875   2.234   1.982   9.539 -0.0203 -0.0831 -0.3285
 7139SOL    HW132876   2.201   1.893   9.547 -0.0258 -0.2233 -1.8586
 7139SOL    HW232877   2.162   2.033   9.502 -1.2287 -1.2711  0.3761
 7140SOL     OW32878   4.362   3.092   5.414  0.5021  0.4397 -0.0717
 7140SOL    HW132879   4.403   3.058   5.335 -1.6816  0.3423 -1.1551
 7140SOL    HW232880   4.427   3.132   5.471  0.3092 -0.7131  0.9651
 7141SOL     OW32881   2.808   2.263   5.783  1.0997 -0.3126  0.3458
 7141SOL    HW132882   2.826   2.318   5.859 -1.4203 -1.6410  1.8878
 7141SOL    HW232883   2.842   2.180   5.817  2.4348  0.1323  0.1106
 7142SOL     OW32884   4.297   0.987  16.714 -0.1375  0.2743 -0.1869
 7142SOL    HW132885   4.328   0.975  16.624 -2.2120  1.0189 -1.0219
 7142SOL    HW232886   4.353   0.933  16.770 -1.5003 -2.2421 -1.2739
 7143SOL     OW32887   4.516   1.899  17.333 -0.0570  0.3993 -0.1425
 7143SOL    HW132888   4.504   1.917  17.240 -1.4237  0.6532  0.0925
 7143SOL    HW232889   4.447   1.952  17.371 -1.7587 -1.2762 -0.8869
 7144SOL     OW32890   2.185   0.520   0.086 -0.1316 -0.1182  0.4236
 7144SOL    HW132891   2.155   0.549  17.704  2.7583  1.7836  0.0508
 7144SOL    HW232892   2.246   0.450   0.062 -1.1642 -0.6413 -0.6627
 7145SOL     OW32893   1.541   4.329   1.665 -0.0719 -0.0433 -0.0797
 7145SOL    HW132894   1.595   4.283   1.601  2.7125  0.7312  1.7623
 7145SOL    HW232895   1.505   4.259   1.719  1.3194 -0.6900  0.0085
 7146SOL     OW32896   2.477   2.034   4.408  0.4649 -0.1800  0.4022
 7146SOL    HW132897   2.404   2.086   4.377 -0.7551 -1.4511  1.1549
 7146SOL    HW232898   2.434   1.980   4.474 -0.1719  0.5298  0.5655
 7147SOL     OW32899   2.015   3.711   9.855  0.0846 -0.1097 -0.2352
 7147SOL    HW132900   2.102   3.700   9.815  0.0442  1.5473 -0.7461
 7147SOL    HW232901   1.997   3.800   9.825 -1.3805 -0.3893 -0.1525
 7148SOL     OW32902   4.533   4.093   2.559 -0.3330  0.2661 -0.5921
 7148SOL    HW132903   4.526   3.998   2.544 -2.1634  0.2185  0.5808
 7148SOL    HW232904   4.515   4.131   2.473 -2.5803 -1.6576 -0.9612
 7149SOL     OW32905   4.153   2.070  10.906  0.1067 -0.5293 -0.3726
 7149SOL    HW132906   4.077   2.077  10.965  0.7440  0.9078  0.2699
 7149SOL    HW232907   4.174   2.160  10.883 -0.7542 -0.2488 -0.0695
 7150SOL     OW32908   2.525   0.782   0.580  0.2089  0.4412  0.9242
 7150SOL    HW132909   2.579   0.824   0.513  2.3856 -0.6165  2.0029
 7150SOL    HW232910   2.577   0.805   0.658  2.0916  0.8494 -0.4542
 7151SOL     OW32911   1.587   2.955  17.335 -0.1151 -0.1270  0.1029
 7151SOL    HW132912   1.543   3.039  17.344 -1.5796 -0.8927  0.0799
 7151SOL    HW232913   1.657   2.974  17.272 -0.5813  0.1482 -0.3347
 7152SOL     OW32914   1.324   0.743   3.136 -0.1564  0.0601 -0.0367
 7152SOL    HW132915   1.394   0.808   3.127 -1.5151  1.2360 -2.0356
 7152SOL    HW232916   1.359   0.665   3.094 -1.1094  0.2092 -1.0805
 7153SOL     OW32917   2.141   2.605   3.530 -0.1313 -0.3212 -0.3688
 7153SOL    HW132918   2.090   2.598   3.450 -0.1688 -0.7964 -0.2993
 7153SOL    HW232919   2.211   2.665   3.504  0.5181 -0.3219  1.3521
 7154SOL     OW32920   1.964   2.221   5.371 -0.4451  0.3232 -0.6751
 7154SOL    HW132921   1.900   2.254   5.435 -2.9555 -2.3080 -1.8004
 7154SOL    HW232922   1.914   2.144   5.344  0.8777 -0.2876 -1.3516
 7155SOL     OW32923   1.575   0.121  10.309 -0.7727 -0.0646  0.1505
 7155SOL    HW132924   1.640   0.051  10.299 -1.7142 -0.9781  0.4001
 7155SOL    HW232925   1.615   0.193  10.260 -0.2372  1.2983  2.6227
 7156SOL     OW32926   1.942   3.521   9.526 -0.3446 -0.5046  0.0584
 7156SOL    HW132927   1.900   3.471   9.596  1.7212 -2.6440 -0.2014
 7156SOL    HW232928   1.884   3.596   9.514  0.6621  0.2242 -0.2052
 7157SOL     OW32929   1.123   1.501   4.739  0.2079  0.8087  0.4368
 7157SOL    HW132930   1.047   1.515   4.682  0.7722  0.7393 -0.3347
 7157SOL    HW232931   1.195   1.515   4.677  1.6475 -1.0361  1.6789
 7158SOL     OW32932   4.600   4.655   7.759  0.3078 -0.6482  0.1080
 7158SOL    HW132933   4.556   4.597   7.821  0.1196  1.5463  2.0009
 7158SOL    HW232934   4.673   4.685   7.813 -0.9568 -1.2351  2.1316
 7159SOL     OW32935   0.276   2.165   1.380  0.2865 -0.4163 -0.3089
 7159SOL    HW132936   0.355   2.212   1.406 -0.1745  0.6385 -0.8097
 7159SOL    HW232937   0.322   2.092   1.338 -1.1863 -0.9144 -1.0658
 7160SOL     OW32938   1.959   4.396   3.496  1.0916  0.2423  0.4821
 7160SOL    HW132939   2.043   4.437   3.473  2.0367 -2.2265 -0.4961
 7160SOL    HW232940   1.991   4.307   3.482  1.0401  0.0884  1.3772
 7161SOL     OW32941   1.862   4.284   0.106 -0.4102  0.6860  0.1926
 7161SOL    HW132942   1.801   4.227   0.059  0.5320  0.4128 -0.6724
 7161SOL    HW232943   1.924   4.215   0.128  0.4525  1.3693 -0.1285
 7162SOL     OW32944   0.137   0.009  16.222  0.0521  0.1423  0.1514
 7162SOL    HW132945   0.099   4.703  16.140  0.5937  0.4266 -0.2113
 7162SOL    HW232946   0.150   4.659  16.279  2.2903  1.4025  1.3634
 7163SOL     OW32947   0.875   3.867   6.947  0.0781  0.1382 -0.2377
 7163SOL    HW132948   0.822   3.865   7.026  0.9358  2.5134  0.3963
 7163SOL    HW232949   0.963   3.878   6.984 -1.0045  0.6070  2.1992
 7164SOL     OW32950   3.741   4.469  12.259  0.2881  0.3069  1.0317
 7164SOL    HW132951   3.698   4.546  12.221 -0.7511 -0.3892  0.7989
 7164SOL    HW232952   3.759   4.500  12.348  2.6344 -1.2717  1.1100
 7165SOL     OW32953   3.627   0.618   1.333  0.1980 -0.1257 -0.7320
 7165SOL    HW132954   3.708   0.622   1.384  0.6672 -1.3093 -1.3857
 7165SOL    HW232955   3.621   0.713   1.317  1.7152  0.7158  3.7163
 7166SOL     OW32956   4.417   0.307   9.919  0.0356  0.3001  0.7938
 7166SOL    HW132957   4.342   0.255   9.950  0.2331 -1.7354 -2.1364
 7166SOL    HW232958   4.389   0.392   9.954 -1.9350 -0.0685  0.1172
 7167SOL     OW32959   3.468   3.807  11.806  0.4666  0.1573  0.0429
 7167SOL    HW132960   3.507   3.805  11.894 -0.2291 -0.2625  0.3404
 7167SOL    HW232961   3.383   3.843  11.829  1.1370  0.7763  1.5139
 7168SOL     OW32962   4.670   0.964   3.454  0.7756 -0.4256  0.5449
 7168SOL    HW132963   4.645   0.915   3.533  3.5616 -0.2717  1.5079
 7168SOL    HW232964   0.015   0.909   3.420  0.6722 -0.0338 -0.2885
 7169SOL     OW32965   3.746   4.130  12.333  0.4463 -0.2749 -0.0787
 7169SOL    HW132966   3.653   4.142  12.317  0.1180  0.3272  2.3195
 7169SOL    HW232967   3.757   4.061  12.267  1.2644 -0.8015  0.5961
 7170SOL     OW32968   4.702   2.512   2.919 -0.6314 -0.0928 -0.2969
 7170SOL    HW132969   4.695   2.421   2.889  0.8638 -0.2618 -0.0965
 7170SOL    HW232970   4.613   2.516   2.956  0.2227  1.7219  1.5725
 7171SOL     OW32971   1.743   0.610   4.984  0.2034 -0.6506  0.1980
 7171SOL    HW132972   1.664   0.661   4.963  0.0236 -1.8761 -2.0717
 7171SOL    HW232973   1.741   0.565   4.900 -1.8817 -2.2813  1.1057
 7172SOL     OW32974   1.827   1.827   6.490  0.4527 -0.5248 -0.3565
 7172SOL    HW132975   1.787   1.749   6.529  0.0305 -0.6186 -0.9701
 7172SOL    HW232976   1.878   1.797   6.414  0.4878 -1.6961  0.1269
 7173SOL     OW32977   0.053   0.144   2.945  0.1979 -0.0116 -0.0324
 7173SOL    HW132978   0.023   0.218   2.997  0.8232 -0.7339  1.3454
 7173SOL    HW232979   0.015   0.175   2.862 -2.5318 -1.1791  0.7874
 7174SOL     OW32980   2.989   2.437   5.056  0.3096 -0.8587 -0.1429
 7174SOL    HW132981   3.063   2.424   5.115  1.1407  0.2674 -0.9158
 7174SOL    HW232982   3.038   2.460   4.977  0.9736 -0.3860  0.4090
 7175SOL     OW32983   4.265   0.020   4.764 -0.2703 -0.1941 -0.3451
 7175SOL    HW132984   4.291   0.093   4.819  0.2573  0.1985 -1.1233
 7175SOL    HW232985   4.291   0.048   4.677 -0.3145 -0.9153 -0.5945
 7176SOL     OW32986   1.868   2.745  15.767  0.3350 -0.7010  0.3141
 7176SOL    HW132987   1.940   2.757  15.705 -0.0022 -0.1745  0.0315
 7176SOL    HW232988   1.791   2.721  15.716  0.0921 -1.5059  1.0419
 7177SOL     OW32989   3.959   3.711  12.337 -0.0831 -0.6165 -0.2597
 7177SOL    HW132990   4.023   3.650  12.372  3.0722  3.0719  0.3967
 7177SOL    HW232991   4.012   3.788  12.315 -2.4649  0.9723 -0.5124
 7178SOL     OW32992   1.813   1.508   9.723 -0.3970  0.6139  0.2179
 7178SOL    HW132993   1.900   1.547   9.715 -0.6807  0.9383 -1.2077
 7178SOL    HW232994   1.761   1.539   9.650  2.4654 -0.5237 -2.3052
 7179SOL     OW32995   0.931   0.698   6.582  0.1113  0.4931  0.6646
 7179SOL    HW132996   0.861   0.759   6.560 -0.3220 -0.3222 -0.2303
 7179SOL    HW232997   0.887   0.634   6.637 -1.4179 -1.8529 -3.3128
 7180SOL     OW32998   2.376   0.016  11.962 -0.0571  0.1224 -0.4864
 7180SOL    HW132999   2.318   4.672  11.993 -0.8523  0.7738 -0.4925
 7180SOL    HW233000   2.456   0.004  12.012 -0.3663  1.6260  0.3535
 7181SOL     OW33001   1.841   3.730   8.728 -0.0797 -0.2448  0.1301
 7181SOL    HW133002   1.911   3.665   8.718  0.0878  0.2512 -1.8792
 7181SOL    HW233003   1.884   3.816   8.725 -0.1420 -0.2388 -0.7663
 7182SOL     OW33004   3.827   1.793   4.063  0.5177  0.5382  0.4907
 7182SOL    HW133005   3.824   1.761   4.153  0.4568  1.1825  0.7220
 7182SOL    HW233006   3.861   1.880   4.084  0.5663  0.0270  2.5251
 7183SOL     OW33007   2.492   1.356  16.675 -0.1025 -0.7594 -0.1454
 7183SOL    HW133008   2.511   1.333  16.584 -2.3525  0.6183 -0.9605
 7183SOL    HW233009   2.501   1.451  16.672 -0.8072 -0.6130  1.9749
 7184SOL     OW33010   1.699   0.966   8.950 -0.5397 -0.0723 -0.2584
 7184SOL    HW133011   1.644   1.040   8.974 -0.2364  0.0560  0.0510
 7184SOL    HW233012   1.728   0.926   9.032 -1.3973 -0.6434 -0.2377
 7185SOL     OW33013   0.244   2.926  16.796  0.0610 -0.2099 -0.0272
 7185SOL    HW133014   0.186   2.930  16.872  2.5186 -0.3503  1.8448
 7185SOL    HW233015   0.290   3.010  16.791 -1.1251  0.4547  0.1326
 7186SOL     OW33016   0.147   3.967   2.785  0.4782 -0.0876  0.4228
 7186SOL    HW133017   0.052   3.969   2.799  0.4186  1.4635 -0.2637
 7186SOL    HW233018   0.181   4.055   2.772 -1.1513  0.8364  2.3809
 7187SOL     OW33019   2.520   1.774   0.527  0.4181  0.2238 -0.0238
 7187SOL    HW133020   2.574   1.698   0.548  0.3067 -0.7964 -3.4363
 7187SOL    HW233021   2.437   1.750   0.568 -0.8220 -3.0619 -4.3823
 7188SOL     OW33022   0.531   4.062   2.467 -0.0417  0.3432  0.0782
 7188SOL    HW133023   0.449   4.013   2.461 -0.3139  0.6478  1.3155
 7188SOL    HW233024   0.578   4.033   2.545  0.5932 -0.2063 -0.5118
 7189SOL     OW33025   4.032   2.740  11.690  0.3338 -0.8305  0.2797
 7189SOL    HW133026   3.974   2.817  11.687  2.0907  0.4511 -0.4999
 7189SOL    HW233027   3.965   2.674  11.673 -0.8151  0.7407 -1.3138
 7190SOL     OW33028   0.057   1.864  15.508 -0.0967  0.2476  0.6528
 7190SOL    HW133029   0.111   1.787  15.525  2.2650  2.0473  1.3050
 7190SOL    HW233030   4.725   1.831  15.439  2.8519 -0.1514 -1.6304
 7191SOL     OW33031   1.755   2.452   0.648 -0.0898  0.3575  0.0950
 7191SOL    HW133032   1.673   2.498   0.629  0.9284  1.5686 -1.3620
 7191SOL    HW233033   1.801   2.532   0.671  0.2352  0.5000 -1.0719
 7192SOL     OW33034   0.638   2.511  15.057 -0.5236 -0.2441 -0.0329
 7192SOL    HW133035   0.550   2.474  15.060  0.3649 -2.4106 -0.5206
 7192SOL    HW233036   0.684   2.463  14.988 -0.3642 -0.8268  0.4775
 7193SOL     OW33037   3.362   0.234   1.600 -0.3723 -0.2776  0.4045
 7193SOL    HW133038   3.297   0.296   1.567  0.8477 -0.2591 -1.9231
 7193SOL    HW233039   3.330   0.151   1.566 -2.0324 -0.3374  2.1120
 7194SOL     OW33040   2.492   4.357   8.295  0.3677 -0.2369  0.0433
 7194SOL    HW133041   2.551   4.402   8.355 -1.5532 -0.0650  1.8059
 7194SOL    HW233042   2.445   4.430   8.255  0.3179  0.8264  2.0118
 7195SOL     OW33043   3.040   2.946   8.694  0.7795 -0.5793  0.0113
 7195SOL    HW133044   2.950   2.961   8.663  1.9498  0.4980 -2.8584
 7195SOL    HW233045   3.060   3.039   8.708 -0.4980 -0.2407 -0.3922
 7196SOL     OW33046   3.614   0.789   4.030 -0.2801 -0.6812 -0.1188
 7196SOL    HW133047   3.597   0.699   4.057 -0.4216 -1.1284 -1.7334
 7196SOL    HW233048   3.632   0.766   3.939 -3.7992 -2.6207 -0.2942
 7197SOL     OW33049   1.861   4.284   4.869  0.4916  0.0231 -0.1056
 7197SOL    HW133050   1.806   4.317   4.941 -0.0834  0.6886 -0.8482
 7197SOL    HW233051   1.866   4.189   4.881  4.5815  0.2084 -0.4889
 7198SOL     OW33052   0.420   2.080   8.921  0.2014 -0.3648 -0.2092
 7198SOL    HW133053   0.407   2.095   9.014 -2.2183 -0.5156 -0.5270
 7198SOL    HW233054   0.478   2.003   8.927 -0.3938 -0.8227 -0.3040
 7199SOL     OW33055   0.325   3.043  13.803  0.2064  0.1289 -0.2223
 7199SOL    HW133056   0.395   3.084  13.753 -0.4159  2.0678  0.4710
 7199SOL    HW233057   0.310   3.113  13.867 -1.0004 -0.5866  0.2778
 7200SOL     OW33058   3.610   2.464  12.742  0.6237 -0.2227  0.3958
 7200SOL    HW133059   3.666   2.462  12.820  1.6464  0.8539 -0.3210
 7200SOL    HW233060   3.671   2.449  12.670 -1.1533  1.4750 -1.4545
 7201SOL     OW33061   3.040   4.024   0.061 -0.1846 -0.2103  0.7675
 7201SOL    HW133062   3.045   3.968  17.688  0.7548  0.5528  0.2582
 7201SOL    HW233063   3.118   4.077   0.042 -0.9499 -0.5488 -3.4665
 7202SOL     OW33064   4.630   1.707  15.299 -0.4346 -0.5085  0.0627
 7202SOL    HW133065   4.684   1.746  15.230  0.2241 -0.4825  0.5881
 7202SOL    HW233066   4.646   1.614  15.281 -1.8951 -0.6244 -0.5843
 7203SOL     OW33067   0.990   3.057  12.654  0.0282 -0.2283 -0.0867
 7203SOL    HW133068   0.954   3.129  12.601  1.8417 -0.5821 -1.7932
 7203SOL    HW233069   0.943   2.983  12.615 -0.1560  0.0988 -0.4945
 7204SOL     OW33070   3.846   2.088   4.454 -0.0534  0.0619  0.0949
 7204SOL    HW133071   3.928   2.108   4.500 -0.2217  2.8902 -0.8396
 7204SOL    HW233072   3.819   2.173   4.417 -1.4707 -0.2585  0.3903
 7205SOL     OW33073   2.840   1.022   5.401  0.3672  0.1628  0.3886
 7205SOL    HW133074   2.811   1.050   5.488  3.7127  0.8987  1.3087
 7205SOL    HW233075   2.916   0.966   5.417 -0.4109 -0.8008  0.6582
 7206SOL     OW33076   2.600   3.944   1.505  0.3759 -0.0052 -0.2166
 7206SOL    HW133077   2.534   4.013   1.500  0.8720  0.4773 -0.0730
 7206SOL    HW233078   2.638   3.940   1.417  1.7532 -0.9345  0.4201
 7207SOL     OW33079   1.714   2.490   4.303 -0.1454  0.1537 -0.1760
 7207SOL    HW133080   1.652   2.547   4.258  0.9700  1.2653 -0.3018
 7207SOL    HW233081   1.652   2.429   4.345  0.3473  0.4316  0.9710
 7208SOL     OW33082   1.602   2.331   1.209 -0.0730  0.9012 -0.5210
 7208SOL    HW133083   1.583   2.327   1.302 -2.7721 -0.0939 -1.1316
 7208SOL    HW233084   1.619   2.240   1.184 -0.7166  0.1974  1.6676
 7209SOL     OW33085   3.382   2.939   9.921 -0.6352  0.6739  0.5597
 7209SOL    HW133086   3.373   2.853   9.962 -1.0970 -0.5060 -2.0247
 7209SOL    HW233087   3.477   2.943   9.913 -0.5239 -0.5427  1.3338
 7210SOL     OW33088   2.104   0.855  14.401 -0.3095 -0.3162  0.2605
 7210SOL    HW133089   2.144   0.929  14.356 -0.0006 -0.0408  0.9866
 7210SOL    HW233090   2.019   0.848  14.356 -0.6477 -1.9924  1.1423
 7211SOL     OW33091   4.709   2.230   5.694 -0.3399 -0.2635  0.3065
 7211SOL    HW133092   0.057   2.291   5.701 -0.1776 -0.4023 -0.1647
 7211SOL    HW233093   4.654   2.285   5.639 -0.2170 -0.0460  0.4012
 7212SOL     OW33094   0.875   2.539   3.545 -0.6888  0.0625  0.2292
 7212SOL    HW133095   0.821   2.466   3.515 -0.0094 -0.9547  1.4881
 7212SOL    HW233096   0.844   2.555   3.634 -0.0281  2.1433  0.0914
 7213SOL     OW33097   2.360   1.754   7.141  0.3394 -0.3876 -0.4132
 7213SOL    HW133098   2.396   1.711   7.219  2.8918 -0.0567 -1.3866
 7213SOL    HW233099   2.277   1.710   7.128 -0.6908  0.2743  3.7224
 7214SOL     OW33100   1.551   1.696   2.647 -0.3685  0.2838 -0.4485
 7214SOL    HW133101   1.571   1.719   2.738 -3.8853  2.9586 -0.3148
 7214SOL    HW233102   1.600   1.616   2.630  1.4019  1.5759 -1.4302
 7215SOL     OW33103   2.844   0.414   4.516  0.1077  0.1440  0.2093
 7215SOL    HW133104   2.752   0.434   4.498  0.2451  1.4986  1.0117
 7215SOL    HW233105   2.882   0.495   4.481 -1.2363  0.7113  0.0255
 7216SOL     OW33106   0.066   3.624  10.794  0.6380 -0.1005  0.5190
 7216SOL    HW133107   0.005   3.689  10.761  0.8346 -0.9834 -1.5351
 7216SOL    HW233108   0.131   3.618  10.724 -0.2204 -0.0652 -0.2694
 7217SOL     OW33109   3.314   0.303   7.436  0.5023 -0.4980 -0.2446
 7217SOL    HW133110   3.248   0.300   7.504 -0.9731  0.6872 -1.6150
 7217SOL    HW233111   3.320   0.398   7.422  0.5362 -0.5788 -0.8022
 7218SOL     OW33112   0.973   3.682   8.479 -0.7225 -0.0723  0.6174
 7218SOL    HW133113   0.928   3.688   8.563 -1.4351  0.2465  0.2129
 7218SOL    HW233114   0.895   3.654   8.430  1.0443 -2.9954 -0.5721
 7219SOL     OW33115   0.525   3.463  10.163 -0.4060 -0.2388  0.1187
 7219SOL    HW133116   0.470   3.435  10.235 -0.4949  0.2527  0.2422
 7219SOL    HW233117   0.487   3.551  10.156 -1.2404 -0.6992 -1.0667
 7220SOL     OW33118   1.650   4.035   8.614  0.4718 -0.9004 -0.2756
 7220SOL    HW133119   1.597   4.090   8.558  1.2806 -0.6555 -0.8023
 7220SOL    HW233120   1.588   3.962   8.615 -1.3672  0.6912  1.3179
 7221SOL     OW33121   4.590   0.166  13.859 -0.2081  0.3026 -0.2770
 7221SOL    HW133122   4.610   0.239  13.917  0.0694  0.5536 -0.6911
 7221SOL    HW233123   4.550   0.106  13.921 -0.4234 -1.1157 -1.7990
 7222SOL     OW33124   0.812   2.406  10.782  0.1833 -0.3736 -0.1473
 7222SOL    HW133125   0.722   2.376  10.765  0.5738 -2.0009  0.7441
 7222SOL    HW233126   0.862   2.387  10.703 -0.4789 -2.3140 -0.0968
 7223SOL     OW33127   3.055   4.085  15.600  0.0738  0.0199  0.0182
 7223SOL    HW133128   3.130   4.085  15.659  0.7014  2.8308 -0.8031
 7223SOL    HW233129   3.021   4.169  15.631  0.6819  0.1056  0.4373
 7224SOL     OW33130   1.063   4.433   5.643  0.3692 -0.2282  0.0986
 7224SOL    HW133131   1.073   4.397   5.554 -0.7558 -1.7769  0.6024
 7224SOL    HW233132   1.133   4.498   5.637 -0.7871  1.0853  1.2116
 7225SOL     OW33133   2.312   1.254   8.586  0.0770 -0.2869 -0.3639
 7225SOL    HW133134   2.253   1.327   8.598 -0.9349 -0.7623 -2.5501
 7225SOL    HW233135   2.249   1.182   8.579  0.4557 -0.5239 -1.2746
 7226SOL     OW33136   0.137   4.144  16.848  0.4556 -0.6692  0.2205
 7226SOL    HW133137   0.149   4.083  16.774 -0.1238 -0.8883  0.3096
 7226SOL    HW233138   0.122   4.080  16.917 -0.2037 -0.6890  0.0583
 7227SOL     OW33139   2.327   0.252  16.433  0.4706  0.4807  0.4289
 7227SOL    HW133140   2.414   0.290  16.437  0.7786 -0.2815  0.9220
 7227SOL    HW233141   2.340   0.164  16.397 -1.7763  1.6978 -3.4187
 7228SOL     OW33142   1.021   4.352   8.963  0.1842 -0.4618 -0.3074
 7228SOL    HW133143   0.928   4.354   8.940  0.2857 -0.2544 -0.7042
 7228SOL    HW233144   1.047   4.437   8.928  1.5717 -0.4088  0.8737
 7229SOL     OW33145   1.063   2.671  16.940 -0.3291  0.7257  0.3243
 7229SOL    HW133146   1.120   2.606  16.898 -1.8121 -1.0107  0.9578
 7229SOL    HW233147   0.984   2.619  16.955  0.6764 -0.8201  0.2882
 7230SOL     OW33148   1.061   0.788  10.595 -1.0390  0.0263  0.0594
 7230SOL    HW133149   1.002   0.741  10.654 -0.1572 -3.2744 -1.6514
 7230SOL    HW233150   1.032   0.760  10.508 -1.3833 -0.0645  0.2021
 7231SOL     OW33151   0.136   2.031   8.146  0.0778  0.0915  0.0682
 7231SOL    HW133152   0.131   2.066   8.235 -0.5392  1.9037 -0.6872
 7231SOL    HW233153   0.230   2.012   8.149  0.0720  0.1251  0.4854
 7232SOL     OW33154   0.002   1.844   9.758  0.2251  0.0578  0.0402
 7232SOL    HW133155   0.082   1.876   9.799  0.2554  2.3436 -1.7779
 7232SOL    HW233156   0.026   1.753   9.744  0.2816 -0.1696  1.6897
 7233SOL     OW33157   4.620   3.139   6.260  0.0935 -0.0674  0.0947
 7233SOL    HW133158   4.628   3.164   6.168  0.8192  0.7409  0.3738
 7233SOL    HW233159   4.614   3.044   6.251  1.7299 -0.1309 -0.4622
 7234SOL     OW33160   0.711   4.569   8.029  0.0070 -0.0637  0.1032
 7234SOL    HW133161   0.735   4.476   8.022  1.0647  0.1772  0.5237
 7234SOL    HW233162   0.736   4.590   8.119 -1.6379  0.1970  0.4989
 7235SOL     OW33163   3.001   2.854   7.459 -0.2318 -0.4583  0.0037
 7235SOL    HW133164   3.038   2.851   7.548 -2.1977 -2.4202  0.7671
 7235SOL    HW233165   3.077   2.835   7.404 -0.6808 -0.8219 -0.4896
 7236SOL     OW33166   3.228   3.390   4.878 -0.5720  0.3227 -0.4261
 7236SOL    HW133167   3.146   3.439   4.869 -0.2877  1.0609  0.8425
 7236SOL    HW233168   3.298   3.455   4.871  0.2744 -0.4219  1.1098
 7237SOL     OW33169   0.949   3.527   4.049 -0.7151 -0.1381 -0.2047
 7237SOL    HW133170   1.014   3.586   4.088 -0.3402  0.5386 -1.8430
 7237SOL    HW233171   0.953   3.564   3.961 -2.4309 -0.2169 -0.3078
 7238SOL     OW33172   3.888   0.449   9.066  0.2514  0.8860  0.4929
 7238SOL    HW133173   3.890   0.431   8.972 -0.0287 -1.0256  0.8557
 7238SOL    HW233174   3.970   0.409   9.095 -0.2376 -1.8955 -1.8539
 7239SOL     OW33175   4.667   3.835   4.315  0.1743 -0.3524 -0.3656
 7239SOL    HW133176   4.695   3.822   4.225 -0.9956 -0.1364 -0.7594
 7239SOL    HW233177   4.657   3.930   4.324  3.6083  0.0486 -1.0050
 7240SOL     OW33178   0.620   2.404   5.306  0.2126 -0.0929  0.3786
 7240SOL    HW133179   0.565   2.326   5.312 -0.6566  0.5228  0.3794
 7240SOL    HW233180   0.560   2.471   5.273 -0.2066 -1.1952 -1.1035
 7241SOL     OW33181   1.948   2.403  13.723 -0.2658  0.4113 -0.2572
 7241SOL    HW133182   2.004   2.424  13.798  0.0086 -0.8193 -0.1123
 7241SOL    HW233183   1.994   2.439  13.647 -1.2925 -0.1202 -1.1346
 7242SOL     OW33184   1.653   0.589  13.597  0.0984  0.5433 -0.0597
 7242SOL    HW133185   1.599   0.529  13.547 -0.5357  1.7181 -0.7841
 7242SOL    HW233186   1.604   0.670  13.610  1.0920  1.4879 -2.2472
 7243SOL     OW33187   0.125   0.561   3.253  0.1839  0.3319 -0.5537
 7243SOL    HW133188   0.175   0.554   3.172  1.4705  0.4422  0.2298
 7243SOL    HW233189   0.141   0.478   3.297  0.8722 -0.7029 -2.7304
 7244SOL     OW33190   1.160   2.550  14.696  0.4775 -0.1695  0.0618
 7244SOL    HW133191   1.244   2.507  14.711  0.6137 -0.1921 -0.7532
 7244SOL    HW233192   1.179   2.577  14.606  1.2922  1.1129  0.6216
 7245SOL     OW33193   3.234   0.991  13.219 -0.2295  0.0028  0.2710
 7245SOL    HW133194   3.294   0.986  13.145 -1.4184  0.6477 -0.7395
 7245SOL    HW233195   3.148   0.974  13.181  0.8117 -1.3951 -1.5173
 7246SOL     OW33196   1.420   0.402   3.875 -0.1819 -0.5292  0.3893
 7246SOL    HW133197   1.390   0.339   3.808 -1.0420  0.6188 -0.3118
 7246SOL    HW233198   1.431   0.483   3.825  0.4493 -1.7007 -1.4083
 7247SOL     OW33199   3.958   4.136   0.705  0.3405 -0.0561 -0.3426
 7247SOL    HW133200   3.944   4.117   0.798  0.2570  3.2019  0.2991
 7247SOL    HW233201   3.983   4.228   0.696 -0.8300  0.3617  0.5810
 7248SOL     OW33202   2.251   0.985   2.441 -0.1359 -0.4887 -0.3241
 7248SOL    HW133203   2.218   0.918   2.381 -1.1730 -0.9091  0.7183
 7248SOL    HW233204   2.184   1.048   2.412  0.6956 -0.5119 -2.2933
 7249SOL     OW33205   4.023   3.079   3.999 -0.4086  0.1258 -0.5183
 7249SOL    HW133206   4.081   3.154   3.987 -2.3409  1.6858 -0.0207
 7249SOL    HW233207   4.024   3.037   3.913 -1.3974 -1.9644  0.4932
 7250SOL     OW33208   3.160   0.143  14.593 -0.0911 -0.3478  0.7410
 7250SOL    HW133209   3.137   0.184  14.676  0.5571 -0.4622  0.9838
 7250SOL    HW233210   3.075   0.154  14.551 -1.0198 -1.0869  2.4642
 7251SOL     OW33211   0.327   2.057  17.320 -0.0501  0.9544  0.6762
 7251SOL    HW133212   0.252   2.106  17.286 -0.8718 -0.8991 -0.2019
 7251SOL    HW233213   0.395   2.068  17.254 -0.9914 -0.1220 -0.4811
 7252SOL     OW33214   0.245   2.993   4.852 -0.0970 -0.1221  0.4012
 7252SOL    HW133215   0.174   3.039   4.807 -2.0633 -0.4050  3.2051
 7252SOL    HW233216   0.253   2.912   4.800  0.2943  0.6279 -0.7048
 7253SOL     OW33217   4.222   4.170  12.697 -0.4328 -0.0168 -0.0435
 7253SOL    HW133218   4.274   4.107  12.747 -0.6778  0.1914  0.4702
 7253SOL    HW233219   4.183   4.225  12.764 -1.0185 -0.7308  0.1908
 7254SOL     OW33220   1.206   2.932  13.027  0.1713 -0.1694 -0.1239
 7254SOL    HW133221   1.186   2.950  13.119 -0.8627  2.0746 -0.8059
 7254SOL    HW233222   1.283   2.875  13.033 -1.0625 -1.9430 -1.1414
 7255SOL     OW33223   3.346   0.790   8.445 -0.1632  0.2301  0.0785
 7255SOL    HW133224   3.418   0.827   8.394  0.2546  1.0822  1.2835
 7255SOL    HW233225   3.360   0.835   8.529  0.4946  1.1398 -0.5199
 7256SOL     OW33226   3.822   0.464   6.019 -0.2115  0.0218 -0.1726
 7256SOL    HW133227   3.885   0.471   5.947 -1.8186 -0.2892 -1.5958
 7256SOL    HW233228   3.780   0.549   6.006 -0.7313  0.0876  1.9589
 7257SOL     OW33229   0.851   3.651  17.500 -0.8665  0.2323  0.4631
 7257SOL    HW133230   0.922   3.715  17.508 -0.0168 -0.3596 -2.0254
 7257SOL    HW233231   0.786   3.680  17.563  0.4837  2.2035  0.9559
 7258SOL     OW33232   1.645   4.581   9.987 -0.0730 -0.2822  0.4333
 7258SOL    HW133233   1.686   4.589  10.073 -1.5621  0.9807  1.0391
 7258SOL    HW233234   1.557   4.563  10.017 -0.3601 -0.1830 -0.3293
 7259SOL     OW33235   1.014   0.138   8.029 -0.2945  0.5440 -0.1001
 7259SOL    HW133236   1.094   0.190   8.039 -0.7557  1.3746 -0.7528
 7259SOL    HW233237   0.964   0.164   8.106 -1.3629  1.2885 -1.0508
 7260SOL     OW33238   0.361   4.065   4.951 -0.0430  0.2176  0.0154
 7260SOL    HW133239   0.421   4.011   5.002 -0.6750  0.5977  1.1588
 7260SOL    HW233240   0.390   4.036   4.865  3.2074 -0.2560  1.2804
 7261SOL     OW33241   2.594   3.273   2.435  0.4224  0.3034  0.5135
 7261SOL    HW133242   2.628   3.234   2.355  0.7953  0.0667  0.7869
 7261SOL    HW233243   2.645   3.354   2.439  1.9128 -0.5373 -1.7548
 7262SOL     OW33244   4.510   3.733   6.083  0.8294 -0.2785 -0.1744
 7262SOL    HW133245   4.441   3.778   6.132 -0.4937 -0.8701 -1.5142
 7262SOL    HW233246   4.494   3.639   6.094 -1.9462 -0.1511 -3.3781
 7263SOL     OW33247   1.791   0.109   9.297 -0.5482  0.1444 -0.0600
 7263SOL    HW133248   1.836   0.148   9.373 -1.3689  0.1077  0.4460
 7263SOL    HW233249   1.762   0.032   9.346 -4.5101  1.0023 -1.1182
 7264SOL     OW33250   1.613   4.344   7.297  0.2893  0.2058 -0.1927
 7264SOL    HW133251   1.600   4.370   7.206  1.9706 -0.1983 -0.5525
 7264SOL    HW233252   1.647   4.255   7.284  4.3050  1.8956 -1.3192
 7265SOL     OW33253   3.175   3.594   2.238 -0.5019 -0.6391  0.5191
 7265SOL    HW133254   3.200   3.505   2.216  0.3494 -0.6603  1.5656
 7265SOL    HW233255   3.218   3.639   2.165 -1.4902 -1.0354 -0.3026
 7266SOL     OW33256   0.387   2.437   9.273 -0.2434 -0.0718  0.0873
 7266SOL    HW133257   0.451   2.505   9.254  2.1820 -2.0300  1.2520
 7266SOL    HW233258   0.370   2.436   9.368  1.4660 -2.4296  0.3613
 7267SOL     OW33259   1.075   4.266   2.068  0.2601  0.6620 -0.8344
 7267SOL    HW133260   1.002   4.313   2.107  0.0542 -0.0789 -0.3163
 7267SOL    HW233261   1.157   4.313   2.084 -1.4549  3.2648  0.2775
 7268SOL     OW33262   4.060   0.720  12.850 -0.8714  0.1399 -0.2395
 7268SOL    HW133263   4.071   0.789  12.784  1.7062 -0.4195 -0.4014
 7268SOL    HW233264   4.150   0.688  12.853 -0.1311  2.1448 -1.1284
 7269SOL     OW33265   1.692   0.276   3.923 -0.4940 -0.1101  0.4448
 7269SOL    HW133266   1.630   0.349   3.923  1.2288  1.3479  2.2422
 7269SOL    HW233267   1.638   0.198   3.913 -1.2577  0.4862 -0.1032
 7270SOL     OW33268   3.813   1.779   2.035  0.4121  0.3963  0.1912
 7270SOL    HW133269   3.770   1.857   2.069  2.1034 -0.0938  3.5493
 7270SOL    HW233270   3.875   1.758   2.105  0.0289  0.2570  0.4839
 7271SOL     OW33271   3.506   2.362   2.441  0.1849 -0.0406 -0.0103
 7271SOL    HW133272   3.587   2.410   2.421 -0.6176  0.8897 -1.0624
 7271SOL    HW233273   3.443   2.434   2.444  0.7474  0.3641  1.8441
 7272SOL     OW33274   3.814   0.381   2.601 -0.0931 -0.0496  0.5234
 7272SOL    HW133275   3.904   0.409   2.614 -0.2539  0.2565  0.9880
 7272SOL    HW233276   3.799   0.309   2.663 -1.0861 -0.7029 -0.4763
 7273SOL     OW33277   3.670   1.513   6.220 -0.5361 -0.2202  0.4569
 7273SOL    HW133278   3.749   1.567   6.215 -0.5800 -0.1410  0.6497
 7273SOL    HW233279   3.627   1.533   6.136  0.7036 -0.5676 -0.2686
 7274SOL     OW33280   4.237   4.506   3.326  0.8009  0.0604 -0.3854
 7274SOL    HW133281   4.163   4.462   3.286 -0.6080  1.3799  0.7681
 7274SOL    HW233282   4.302   4.479   3.261  1.0122  0.4260 -0.3309
 7275SOL     OW33283   2.914   2.187  12.036  0.3572 -0.2656  0.3193
 7275SOL    HW133284   2.928   2.114  12.096 -0.3706 -0.3270  0.4093
 7275SOL    HW233285   2.903   2.261  12.095 -1.2970 -1.6540  1.7669
 7276SOL     OW33286   2.787   4.154   3.481 -0.0729  0.0091 -0.9143
 7276SOL    HW133287   2.844   4.077   3.483  0.2471  0.3073  1.6271
 7276SOL    HW233288   2.738   4.144   3.562  0.2587 -2.2742 -0.9977
 7277SOL     OW33289   4.056   4.707   6.917  0.2477  0.2847  0.1160
 7277SOL    HW133290   4.129   0.042   6.909 -0.8852  1.4788 -1.0226
 7277SOL    HW233291   4.103   4.624   6.908  0.6586  0.4069  1.0824
 7278SOL     OW33292   2.105   1.676   1.853  0.4412  0.7425  0.0051
 7278SOL    HW133293   2.189   1.661   1.810 -0.6666  1.7137 -2.4755
 7278SOL    HW233294   2.104   1.772   1.856 -3.6067  0.6648  1.2449
 7279SOL     OW33295   3.887   2.554  14.555  0.1803  0.1099  0.3923
 7279SOL    HW133296   3.965   2.589  14.513  0.9002 -2.0938 -0.1239
 7279SOL    HW233297   3.904   2.460  14.548  1.6452  0.5313 -1.4988
 7280SOL     OW33298   1.829   1.974   5.358  0.3503 -0.4459  0.3019
 7280SOL    HW133299   1.752   1.929   5.392  0.2967 -0.3456  0.3125
 7280SOL    HW233300   1.885   1.897   5.363 -0.1308 -0.7881  0.4200
 7281SOL     OW33301   0.465   1.771   6.367  0.7862 -0.0191 -0.2404
 7281SOL    HW133302   0.446   1.836   6.435 -1.1806 -1.4225  0.5607
 7281SOL    HW233303   0.409   1.703   6.405  1.0471 -0.8758 -1.3789
 7282SOL     OW33304   0.233   1.123   3.818 -0.4583  0.5112  0.1422
 7282SOL    HW133305   0.293   1.101   3.747  0.1853  0.3378  0.7398
 7282SOL    HW233306   0.171   1.174   3.765  1.2697  1.0913 -1.3404
 7283SOL     OW33307   1.623   3.681   0.505 -0.1186  0.3201 -0.3188
 7283SOL    HW133308   1.547   3.704   0.557  0.0207 -0.8630  0.3896
 7283SOL    HW233309   1.601   3.598   0.464  0.1418  0.6778 -1.2009
 7284SOL     OW33310   2.279   3.735   9.723  0.2417  0.4375 -0.3052
 7284SOL    HW133311   2.326   3.735   9.806 -2.7948 -0.1792  1.4323
 7284SOL    HW233312   2.334   3.777   9.657 -1.4812  2.0287 -0.7354
 7285SOL     OW33313   3.802   0.895   0.305 -0.0717 -0.5146  0.2485
 7285SOL    HW133314   3.840   0.973   0.265 -0.4541  0.8698  2.5736
 7285SOL    HW233315   3.842   0.894   0.392  0.8042  2.4441 -0.0983
 7286SOL     OW33316   2.461   1.090   3.439  0.2432 -0.6220 -0.1782
 7286SOL    HW133317   2.432   1.158   3.378 -1.1081 -0.4913  0.6124
 7286SOL    HW233318   2.463   1.143   3.519  0.6772 -1.2066  0.1922
 7287SOL     OW33319   1.752   4.445   3.673 -0.2904  0.5104 -0.0294
 7287SOL    HW133320   1.820   4.430   3.608  1.2000 -0.4440  1.7654
 7287SOL    HW233321   1.789   4.400   3.749  0.7007  2.4894  0.6488
 7288SOL     OW33322   4.656   0.211   5.747  0.2582 -0.8456 -1.0443
 7288SOL    HW133323   4.724   0.271   5.777  0.2318 -1.8793  1.0960
 7288SOL    HW233324   4.577   0.264   5.736 -0.6638 -1.9493  0.2256
 7289SOL     OW33325   4.013   2.526  13.223 -0.2775  0.0326 -0.0040
 7289SOL    HW133326   4.064   2.452  13.190 -0.6654 -0.2505  0.0343
 7289SOL    HW233327   3.979   2.497  13.307 -0.2871  3.3723  1.1308
 7290SOL     OW33328   1.071   0.878   2.001  0.2810 -0.3187  0.2406
 7290SOL    HW133329   1.006   0.847   2.064 -1.8188  0.8319 -1.3234
 7290SOL    HW233330   1.021   0.870   1.920  0.0730  0.5099  0.2842
 7291SOL     OW33331   2.578   1.485   2.640  0.1841 -0.0126  0.0815
 7291SOL    HW133332   2.582   1.578   2.660 -0.8993 -0.1695  1.0289
 7291SOL    HW233333   2.672   1.473   2.652  0.4091  0.2623 -1.3070
 7292SOL     OW33334   2.752   3.016  13.144 -0.2940  0.4849  0.2376
 7292SOL    HW133335   2.701   3.096  13.155 -0.7184  0.4198 -1.2319
 7292SOL    HW233336   2.690   2.944  13.157 -1.1168  1.1481 -0.0413
 7293SOL     OW33337   0.484   3.455   1.459  0.3599  0.3794 -0.3951
 7293SOL    HW133338   0.407   3.399   1.473  0.9268 -0.3841 -0.3286
 7293SOL    HW233339   0.507   3.442   1.367  0.4087 -0.0382 -0.3250
 7294SOL     OW33340   2.100   2.118  16.155  0.4436  0.5131  0.4785
 7294SOL    HW133341   2.010   2.096  16.132  0.9509 -2.7173  1.5857
 7294SOL    HW233342   2.091   2.165  16.238  0.2049  1.3596 -0.0225
 7295SOL     OW33343   0.001   4.480   5.241 -0.3298 -0.2650 -0.5500
 7295SOL    HW133344   4.652   4.427   5.269 -0.7888  0.1727 -0.9361
 7295SOL    HW233345   0.006   4.523   5.326  1.1614  0.7411 -1.1478
 7296SOL     OW33346   2.448   4.575   2.777  0.2886  0.1074 -0.3105
 7296SOL    HW133347   2.460   4.495   2.827  0.6686 -0.5938 -1.5069
 7296SOL    HW233348   2.367   4.613   2.811 -0.4389  0.6247 -2.5787
 7297SOL     OW33349   1.744   1.960   9.442 -0.1236  0.0893 -0.5928
 7297SOL    HW133350   1.819   1.983   9.496 -1.3252  4.0544 -0.6064
 7297SOL    HW233351   1.716   2.045   9.406 -1.2971 -0.3703 -0.7702
 7298SOL     OW33352   3.120   1.350   5.740  0.0674  0.7191 -0.7994
 7298SOL    HW133353   3.208   1.376   5.768 -0.2259  2.2923 -1.2985
 7298SOL    HW233354   3.138   1.330   5.648 -0.8507 -2.0632 -0.3539
 7299SOL     OW33355   3.919   3.862  14.638 -0.2126 -0.4026  0.7978
 7299SOL    HW133356   3.900   3.883  14.547 -0.7905  0.0739  1.0324
 7299SOL    HW233357   4.007   3.831  14.617 -1.3262 -1.2806 -2.4797
 7300SOL     OW33358   0.841   2.133  13.162  0.3675  0.0669  0.5383
 7300SOL    HW133359   0.921   2.121  13.111  0.4676  2.0405  0.2539
 7300SOL    HW233360   0.831   2.228  13.164 -1.5111 -0.1031 -0.7099
 7301SOL     OW33361   1.113   4.018   3.804 -0.0312 -0.4710 -0.5758
 7301SOL    HW133362   1.145   3.930   3.785  0.8481 -0.4910  0.9949
 7301SOL    HW233363   1.191   4.072   3.786  1.1227 -1.4121  1.5300
 7302SOL     OW33364   2.313   3.373  10.231  0.2719  0.3513 -0.3012
 7302SOL    HW133365   2.324   3.287  10.272  0.2315  1.1699  1.4207
 7302SOL    HW233366   2.280   3.428  10.302 -2.9262 -1.1907 -0.6069
 7303SOL     OW33367   3.954   3.292   6.472 -0.3745  0.4209  0.2941
 7303SOL    HW133368   3.858   3.294   6.463 -0.2564  1.9028 -0.5639
 7303SOL    HW233369   3.958   3.232   6.547  0.8840  0.0963 -0.0338
 7304SOL     OW33370   1.838   2.062   4.531 -0.5688 -0.5257 -0.3238
 7304SOL    HW133371   1.800   1.986   4.488 -2.7852  0.3751  0.0509
 7304SOL    HW233372   1.810   2.039   4.619 -1.7799  1.4077 -0.2163
 7305SOL     OW33373   3.014   1.982   2.539  0.0113  0.5454  0.3488
 7305SOL    HW133374   3.014   2.070   2.502 -0.9427  1.3889  2.3430
 7305SOL    HW233375   3.068   2.006   2.615  2.1136 -1.7363 -0.4379
 7306SOL     OW33376   2.461   0.400   2.534  0.1034 -0.1720 -0.0775
 7306SOL    HW133377   2.418   0.324   2.494  0.0271 -0.6012  0.8344
 7306SOL    HW233378   2.386   0.455   2.552 -0.0791  0.1764 -1.8574
 7307SOL     OW33379   4.606   0.660   9.729  0.1161  0.2023  0.2464
 7307SOL    HW133380   4.680   0.721   9.734  1.6546 -1.8509  2.1732
 7307SOL    HW233381   4.640   0.571   9.729  2.0174  0.9202  1.5094
 7308SOL     OW33382   0.867   0.272  15.710  0.3668  0.3379  0.3246
 7308SOL    HW133383   0.783   0.318  15.711  0.5096  0.6073 -0.2362
 7308SOL    HW233384   0.867   0.231  15.624  0.2336  0.1086  0.4319
 7309SOL     OW33385   4.520   3.743   8.146 -0.1062 -0.3980  0.4826
 7309SOL    HW133386   4.603   3.701   8.168  0.1575 -1.0021 -1.7364
 7309SOL    HW233387   4.501   3.705   8.061  1.7130  0.2383 -0.2041
 7310SOL     OW33388   0.426   3.235   0.429 -0.1224 -0.2646  0.8076
 7310SOL    HW133389   0.351   3.213   0.485  1.1649 -0.3820  2.5063
 7310SOL    HW233390   0.438   3.328   0.449  0.3699  0.4725 -2.8845
 7311SOL     OW33391   2.326   0.281   3.406  0.4038  0.1246  1.2028
 7311SOL    HW133392   2.389   0.300   3.337 -0.2528 -1.7636  0.0681
 7311SOL    HW233393   2.300   0.192   3.381  1.1152  0.8241 -2.0429
 7312SOL     OW33394   2.641   0.198   8.982 -0.3593  0.0124 -0.3579
 7312SOL    HW133395   2.668   0.132   9.046  0.3784  0.8993  0.2541
 7312SOL    HW233396   2.550   0.209   9.009 -0.3254  5.3798 -2.4019
 7313SOL     OW33397   4.286   2.616  13.087  0.1699  0.2994 -0.2246
 7313SOL    HW133398   4.336   2.640  13.009 -0.3204  0.5342 -0.4645
 7313SOL    HW233399   4.354   2.610  13.153  0.1095  1.5131 -0.0573
 7314SOL     OW33400   0.327   4.659   3.263 -0.4081  1.1149  0.0576
 7314SOL    HW133401   0.276   4.616   3.332 -0.5269 -0.3264 -0.9308
 7314SOL    HW233402   0.414   4.621   3.275 -0.0750  1.0084 -2.6017
 7315SOL     OW33403   1.487   0.700   4.885  0.1452  0.0311 -0.0146
 7315SOL    HW133404   1.411   0.648   4.857 -1.4099  2.0135  0.4882
 7315SOL    HW233405   1.452   0.722   4.972  1.2833  1.0816  0.1762
 7316SOL     OW33406   4.320   0.898   7.615 -0.4285  0.1255 -0.2306
 7316SOL    HW133407   4.409   0.879   7.584 -0.9065 -0.7039 -1.0873
 7316SOL    HW233408   4.335   0.925   7.706 -4.0963 -1.4333  0.8157
 7317SOL     OW33409   3.225   0.761   8.206  0.2489 -0.4120 -0.3228
 7317SOL    HW133410   3.270   0.771   8.290  0.2222 -0.5911 -0.2889
 7317SOL    HW233411   3.165   0.700   8.248  0.4284 -1.3080 -1.3887
 7318SOL     OW33412   0.289   3.735   4.446 -0.6407  0.5500  0.3265
 7318SOL    HW133413   0.349   3.660   4.444 -0.9180  0.3157  0.7549
 7318SOL    HW233414   0.350   3.787   4.395  0.9497 -0.2697  1.3785
 7319SOL     OW33415   1.578   1.288   4.848 -0.2235 -0.1534  0.4219
 7319SOL    HW133416   1.557   1.202   4.813 -1.3044  0.2527  0.0702
 7319SOL    HW233417   1.668   1.273   4.878 -1.4340  0.4573  4.2888
 7320SOL     OW33418   0.288   1.818   2.668  0.0164  0.0598 -0.3386
 7320SOL    HW133419   0.250   1.731   2.681 -1.3960  0.6678 -0.3482
 7320SOL    HW233420   0.237   1.855   2.595  0.4941 -1.2914 -1.3552
 7321SOL     OW33421   2.245   3.542   4.011 -0.3175 -0.2142  0.4464
 7321SOL    HW133422   2.198   3.458   4.008  0.9435 -0.9282  0.7978
 7321SOL    HW233423   2.254   3.563   3.918  1.1873  2.1099  1.1235
 7322SOL     OW33424   3.088   0.329  14.818 -0.2674  0.1276  0.7937
 7322SOL    HW133425   3.036   0.371  14.886 -2.7129 -0.0661 -0.9449
 7322SOL    HW233426   3.037   0.371  14.748  0.9193  2.3753  1.2704
 7323SOL     OW33427   2.878   3.113  13.421  0.4456  0.6558 -0.1467
 7323SOL    HW133428   2.882   3.095  13.514  1.6478  3.5332  0.3600
 7323SOL    HW233429   2.867   3.025  13.386 -1.2397  0.9908 -0.4354
 7324SOL     OW33430   1.824   1.806  12.206 -0.0637  0.1217 -0.5036
 7324SOL    HW133431   1.822   1.797  12.302  0.6131 -0.4033 -0.5370
 7324SOL    HW233432   1.917   1.795  12.189 -0.1932  0.3517 -1.3341
 7325SOL     OW33433   3.224   4.440  15.840 -0.3650  0.1610 -0.2879
 7325SOL    HW133434   3.292   4.384  15.802 -1.0995 -0.3414 -0.8606
 7325SOL    HW233435   3.159   4.376  15.866  0.5607 -0.8989 -0.5654
 7326SOL     OW33436   0.152   0.163   6.422  0.1648 -0.4221  0.1107
 7326SOL    HW133437   0.219   0.159   6.354  1.4947 -0.1134  1.4206
 7326SOL    HW233438   0.104   0.081   6.409 -0.2620 -0.2649  0.7120
 7327SOL     OW33439   3.509   3.695   9.609  0.1385  0.0206 -0.4032
 7327SOL    HW133440   3.437   3.736   9.658  1.7785  1.6098  0.6691
 7327SOL    HW233441   3.509   3.739   9.524 -1.2792  2.4065  0.8378
 7328SOL     OW33442   1.243   0.760  17.101 -0.0004  0.2711 -0.1071
 7328SOL    HW133443   1.162   0.708  17.096  1.0182 -1.3161  0.0235
 7328SOL    HW233444   1.234   0.801  17.015 -0.1841 -2.3471 -1.3590
 7329SOL     OW33445   4.178   2.099   7.170  0.4063 -0.0600  0.0945
 7329SOL    HW133446   4.268   2.114   7.198  0.5382  0.8007 -0.7783
 7329SOL    HW233447   4.124   2.160   7.220 -0.2970 -1.0877  0.6014
 7330SOL     OW33448   1.447   1.276   6.225 -0.2363  0.6233  0.1141
 7330SOL    HW133449   1.432   1.230   6.142  1.0238 -0.3744  0.4454
 7330SOL    HW233450   1.483   1.200   6.270 -1.1242 -0.6844 -1.3889
 7331SOL     OW33451   3.222   2.614   0.712  1.1503 -0.2512 -0.0104
 7331SOL    HW133452   3.217   2.709   0.718 -1.2150 -0.2454 -2.2525
 7331SOL    HW233453   3.205   2.592   0.804 -0.2931  0.3203 -0.1354
 7332SOL     OW33454   3.651   3.684   9.847  0.1187  0.5353 -0.6612
 7332SOL    HW133455   3.683   3.602   9.810 -2.0784 -0.8909  0.6102
 7332SOL    HW233456   3.574   3.693   9.790  0.0449  0.5769 -0.5539
 7333SOL     OW33457   1.068   0.584   8.153 -0.1663  0.1154 -0.1869
 7333SOL    HW133458   1.157   0.611   8.130 -0.8551  1.6006 -1.0987
 7333SOL    HW233459   1.060   0.598   8.247  0.1202 -0.4866 -0.0704
 7334SOL     OW33460   0.761   2.478  11.040 -0.2720  0.2782 -0.1393
 7334SOL    HW133461   0.666   2.473  11.048 -0.0363  0.5318  2.7975
 7334SOL    HW233462   0.777   2.462  10.947 -0.1475 -0.4467  0.0058
 7335SOL     OW33463   1.443   0.934   7.346 -0.2116 -0.2693 -0.2101
 7335SOL    HW133464   1.445   0.861   7.285  0.1636 -0.7691  0.4035
 7335SOL    HW233465   1.525   0.915   7.390 -0.1580 -1.2084 -0.7099
 7336SOL     OW33466   0.897   0.874   7.280  0.0206  0.4484 -0.2779
 7336SOL    HW133467   0.843   0.795   7.281  1.4875 -0.5566 -0.1580
 7336SOL    HW233468   0.820   0.931   7.282 -0.6338 -0.4577  0.2103
 7337SOL     OW33469   4.404   4.298  13.979 -0.0620 -0.4333  0.2023
 7337SOL    HW133470   4.445   4.258  13.903 -0.4990  0.3915 -0.4609
 7337SOL    HW233471   4.313   4.281  13.958  0.2008 -1.5028 -0.1075
 7338SOL     OW33472   1.802   2.187   3.190  0.2993  0.1843  0.2486
 7338SOL    HW133473   1.774   2.226   3.273 -1.0146  1.9175 -1.0215
 7338SOL    HW233474   1.843   2.265   3.154 -1.5294  1.3111  0.5892
 7339SOL     OW33475   0.748   1.799  15.405  0.3865 -0.3190  0.3909
 7339SOL    HW133476   0.687   1.737  15.446 -0.2396 -0.5759 -0.9417
 7339SOL    HW233477   0.753   1.864  15.475 -2.6302 -0.5102  0.7936
 7340SOL     OW33478   0.084   2.650   7.838  0.3494 -0.5424 -0.4075
 7340SOL    HW133479   0.154   2.712   7.858 -0.4736 -0.1462  1.2617
 7340SOL    HW233480   0.072   2.617   7.927  0.2164 -0.8273 -0.5304
 7341SOL     OW33481   3.570   3.899   2.171  0.0566 -0.4029  0.5163
 7341SOL    HW133482   3.639   3.833   2.181 -0.4388 -0.7815  1.4440
 7341SOL    HW233483   3.591   3.955   2.245 -2.0635 -1.0677  1.6234
 7342SOL     OW33484   0.408   3.698  10.142  0.4096 -0.0878  0.0317
 7342SOL    HW133485   0.431   3.780  10.099  2.6711 -0.2046  1.0187
 7342SOL    HW233486   0.326   3.674  10.100  1.8277 -3.3313 -0.9243
 7343SOL     OW33487   1.778   0.363   4.408 -0.5215  0.3073 -0.2906
 7343SOL    HW133488   1.821   0.300   4.467 -1.1691  1.4265  1.3615
 7343SOL    HW233489   1.750   0.435   4.463  0.4142  0.9228 -0.6160
 7344SOL     OW33490   0.420   1.095   3.615 -0.3874 -0.5794 -0.3081
 7344SOL    HW133491   0.511   1.083   3.639 -0.7282  1.5036  2.0584
 7344SOL    HW233492   0.405   1.009   3.576  0.4515  0.3046 -2.5690
 7345SOL     OW33493   3.050   3.374   0.140 -0.3125  0.1486 -1.2926
 7345SOL    HW133494   3.060   3.293   0.191 -0.5072  0.3387 -0.9547
 7345SOL    HW233495   2.955   3.369   0.142 -0.2887  0.5625  2.7187
 7346SOL     OW33496   2.578   0.173   3.600  0.2589  0.3216  0.7908
 7346SOL    HW133497   2.650   0.211   3.549  0.4648  1.5324  1.9860
 7346SOL    HW233498   2.501   0.174   3.544  0.0104 -3.4197  1.0711
 7347SOL     OW33499   1.122   0.949  16.115 -0.4196  0.8059 -0.6081
 7347SOL    HW133500   1.132   1.010  16.043  0.8410  1.6611  0.2917
 7347SOL    HW233501   1.152   1.011  16.182 -3.8347 -0.3997  2.0449
 7348SOL     OW33502   4.033   3.938   9.208  0.3580  0.3153 -0.1769
 7348SOL    HW133503   3.991   3.889   9.137 -0.7740  1.5394 -0.3447
 7348SOL    HW233504   3.965   3.940   9.275 -0.2287  0.9713 -0.7892
 7349SOL     OW33505   3.368   1.548   3.714 -0.7227  0.0888  0.0150
 7349SOL    HW133506   3.349   1.614   3.780 -0.1607  1.4040 -1.1275
 7349SOL    HW233507   3.462   1.541   3.727 -0.9628 -2.1181  0.4689
 7350SOL     OW33508   4.279   3.063   3.608  0.0556  0.7869  0.0635
 7350SOL    HW133509   4.209   3.058   3.543  0.1546  0.6538 -0.0341
 7350SOL    HW233510   4.310   2.973   3.608  0.2257  0.8480  1.4331
 7351SOL     OW33511   1.247   3.453   3.929 -0.0912  0.7713 -0.0119
 7351SOL    HW133512   1.310   3.514   3.892  0.8641  0.3391  0.9090
 7351SOL    HW233513   1.299   3.425   4.005 -1.7243 -0.4351  0.6735
 7352SOL     OW33514   3.427   3.118   6.970 -0.0082  0.1075  0.4327
 7352SOL    HW133515   3.361   3.125   7.039  0.7996  0.6360  1.1604
 7352SOL    HW233516   3.403   3.198   6.923 -0.2334 -0.0999  0.1978
 7353SOL     OW33517   3.751   2.990   2.002  0.1939  0.4093  0.1747
 7353SOL    HW133518   3.823   3.054   2.003  0.2369  0.3513  1.4238
 7353SOL    HW233519   3.688   3.025   2.065 -1.3915  1.4111 -1.9716
 7354SOL     OW33520   2.720   0.989  11.783 -0.1042  0.4537 -0.4771
 7354SOL    HW133521   2.741   0.913  11.729  1.6867  1.1466 -0.7902
 7354SOL    HW233522   2.706   1.054  11.714  2.9810  2.7235  1.0431
 7355SOL     OW33523   4.184   1.766   1.445  0.1584  0.2025  0.6953
 7355SOL    HW133524   4.136   1.840   1.409 -1.2684 -2.2181 -2.2932
 7355SOL    HW233525   4.179   1.778   1.540 -4.3010 -3.5649  0.9188
 7356SOL     OW33526   4.481   0.803  12.706  0.9886 -0.6970  0.1863
 7356SOL    HW133527   4.477   0.845  12.620 -0.6929 -0.0910  0.5521
 7356SOL    HW233528   4.534   0.865  12.756  1.0146 -1.3357  0.9389
 7357SOL     OW33529   3.450   4.303  10.507 -0.4542  0.9169 -0.0873
 7357SOL    HW133530   3.479   4.213  10.495  0.1442  1.3277 -1.6280
 7357SOL    HW233531   3.384   4.292  10.576  1.0532 -0.3853  1.1563
 7358SOL     OW33532   3.612   2.854  12.262 -0.2190 -0.1445 -1.2474
 7358SOL    HW133533   3.666   2.883  12.335 -1.2004 -0.4752 -0.3851
 7358SOL    HW233534   3.641   2.910  12.191 -0.5317 -0.9221 -1.9927
 7359SOL     OW33535   1.786   2.641   3.816  0.5712  0.4761  0.4515
 7359SOL    HW133536   1.777   2.591   3.897 -0.1841  1.0575  0.7320
 7359SOL    HW233537   1.728   2.716   3.832 -0.7908 -0.6614  0.9138
 7360SOL     OW33538   4.605   1.630   5.730  0.3819 -0.3982 -0.4893
 7360SOL    HW133539   4.553   1.560   5.770 -0.5046  1.0403  0.8573
 7360SOL    HW233540   4.551   1.707   5.749 -1.2305 -1.8411  0.7495
 7361SOL     OW33541   4.260   0.505   4.720 -0.3231 -0.2369  0.7947
 7361SOL    HW133542   4.288   0.546   4.638 -0.2370 -1.1542  0.3716
 7361SOL    HW233543   4.166   0.496   4.705 -0.1523 -1.5063  0.4888
 7362SOL     OW33544   3.594   4.551   4.857 -0.2085 -0.1484 -0.1902
 7362SOL    HW133545   3.550   4.543   4.941  0.4281 -3.2485 -0.1756
 7362SOL    HW233546   3.645   4.472   4.870 -2.3164 -1.8747 -2.2075
 7363SOL     OW33547   0.483   3.450  16.362  0.6565 -0.0511  0.1159
 7363SOL    HW133548   0.431   3.403  16.427  3.3719 -0.8144  1.7552
 7363SOL    HW233549   0.457   3.409  16.280 -0.3570  1.5120 -0.3317
 7364SOL     OW33550   0.819   3.951   5.921 -0.5569  0.1467  0.4284
 7364SOL    HW133551   0.751   3.897   5.880 -0.5593 -1.7643  2.9472
 7364SOL    HW233552   0.788   3.953   6.011 -1.7999  1.2557 -0.0204
 7365SOL     OW33553   1.521   2.000   8.004 -0.5887 -0.4075  0.6250
 7365SOL    HW133554   1.567   1.969   8.081  0.6656 -0.5412 -0.1792
 7365SOL    HW233555   1.544   2.093   8.008  2.6791 -1.1680 -0.2164
 7366SOL     OW33556   1.962   3.354  13.066 -0.0703 -0.2583  0.3305
 7366SOL    HW133557   2.025   3.422  13.090  0.5101 -0.3027 -1.0757
 7366SOL    HW233558   1.950   3.310  13.150  2.0787 -1.7530 -0.1344
 7367SOL     OW33559   3.891   0.262  14.640 -0.1319  0.2829  0.2945
 7367SOL    HW133560   3.811   0.292  14.597  1.0968 -0.1482 -2.3027
 7367SOL    HW233561   3.879   0.167  14.638 -2.1043  0.6031 -2.9837
 7368SOL     OW33562   2.259   1.366  15.756 -0.3179 -0.4616 -0.0908
 7368SOL    HW133563   2.242   1.280  15.794 -1.6484 -0.2129 -0.1494
 7368SOL    HW233564   2.348   1.359  15.721 -0.1537  1.9256 -0.1661
 7369SOL     OW33565   2.243   4.280  10.334 -0.6562 -0.2745 -0.6644
 7369SOL    HW133566   2.230   4.194  10.374  2.6068  0.0586  1.1249
 7369SOL    HW233567   2.308   4.260  10.266  1.3051 -0.1819  1.1987
 7370SOL     OW33568   3.284   1.020  16.909  0.3696  0.0080 -0.0101
 7370SOL    HW133569   3.246   1.025  16.821 -0.8730  1.0033  0.5837
 7370SOL    HW233570   3.347   1.092  16.898  0.9036 -0.0865  2.3026
 7371SOL     OW33571   0.051   3.076   5.137  0.2435 -0.4096  0.1373
 7371SOL    HW133572   0.090   3.116   5.215  2.9589 -1.3572 -0.7209
 7371SOL    HW233573   0.066   3.148   5.076 -3.1518  0.6220  0.5104
 7372SOL     OW33574   2.057   1.470   9.007 -0.6453  0.9848  0.7339
 7372SOL    HW133575   2.072   1.413   8.932 -2.0466 -1.2679  2.1668
 7372SOL    HW233576   1.983   1.523   8.979 -0.0083  0.8127 -1.2296
 7373SOL     OW33577   0.675   4.269  17.306  0.3010  0.1094 -0.0798
 7373SOL    HW133578   0.624   4.188  17.308 -1.4530  1.2800  2.7068
 7373SOL    HW233579   0.600   4.329  17.299  1.0760  1.2036  0.9319
 7374SOL     OW33580   1.299   3.446   3.122  0.2086 -0.4831 -0.0162
 7374SOL    HW133581   1.381   3.475   3.162 -0.5113  0.9037  0.4699
 7374SOL    HW233582   1.261   3.526   3.084 -0.0019 -0.4677  0.2265
 7375SOL     OW33583   4.536   1.977   1.638  0.1351 -0.0543  0.6293
 7375SOL    HW133584   4.532   1.884   1.614 -0.2363 -0.1362  1.0077
 7375SOL    HW233585   4.491   1.976   1.723 -1.8671 -0.3584 -0.4527
 7376SOL     OW33586   1.049   3.712  15.149 -0.4135 -0.2750 -0.2474
 7376SOL    HW133587   0.981   3.691  15.085 -0.9943 -0.5106  0.4471
 7376SOL    HW233588   1.129   3.699  15.099  0.5317  0.1836  1.1636
 7377SOL     OW33589   0.843   0.947   5.061  0.1768  0.2676 -0.5190
 7377SOL    HW133590   0.850   0.928   5.155 -0.4166  1.8723 -0.1535
 7377SOL    HW233591   0.760   0.903   5.041  0.4163 -0.2489 -0.3691
 7378SOL     OW33592   0.146   1.946   6.799  0.2880  0.4040 -0.4405
 7378SOL    HW133593   0.117   1.881   6.863 -0.9273  1.7760  0.4102
 7378SOL    HW233594   0.080   1.924   6.733  0.0811  0.6394 -0.3129
 7379SOL     OW33595   0.693   2.510   4.706  0.3451 -0.4559  0.3714
 7379SOL    HW133596   0.766   2.448   4.714  0.4800 -0.6679 -2.6349
 7379SOL    HW233597   0.723   2.591   4.747 -0.4049 -0.1884  0.3925
 7380SOL     OW33598   1.554   2.838  15.923 -0.0195 -0.0393  0.2385
 7380SOL    HW133599   1.568   2.795  15.839 -1.8002  0.2599 -0.2082
 7380SOL    HW233600   1.639   2.825  15.966 -0.1686  0.4256  0.6825
 7381SOL     OW33601   2.029   2.574  10.900 -0.0869  0.0671 -0.3363
 7381SOL    HW133602   2.069   2.648  10.854  2.5004 -0.0099  1.8349
 7381SOL    HW233603   2.098   2.510  10.915 -2.2777 -1.5100  2.9235
 7382SOL     OW33604   3.035   1.680  17.175  0.0600  0.5046  0.4437
 7382SOL    HW133605   2.944   1.690  17.202  0.3697 -0.9327  2.0114
 7382SOL    HW233606   3.030   1.595  17.132  0.3874  1.0966 -0.7816
 7383SOL     OW33607   3.784   1.502   4.555  0.6321  0.3044  0.5865
 7383SOL    HW133608   3.874   1.534   4.563  0.4448  1.0098 -0.0533
 7383SOL    HW233609   3.779   1.448   4.634  0.0380  0.9471  0.9869
 7384SOL     OW33610   3.312   1.070  12.829 -0.0478  0.2991 -0.4015
 7384SOL    HW133611   3.291   1.010  12.758  2.1498 -0.9645  0.0154
 7384SOL    HW233612   3.329   1.016  12.906 -0.9348  0.6849  0.0643
 7385SOL     OW33613   3.088   0.397   5.865  0.0165 -0.3229  0.0267
 7385SOL    HW133614   3.044   0.440   5.939 -0.4107  2.2285 -1.7268
 7385SOL    HW233615   3.060   0.441   5.785  2.0355  2.3843  0.8078
 7386SOL     OW33616   1.481   4.411  12.959  0.4027  0.2122  0.0328
 7386SOL    HW133617   1.388   4.395  12.976 -0.0861  1.2379 -1.6488
 7386SOL    HW233618   1.516   4.473  13.023 -0.3811 -2.4706  3.0399
 7387SOL     OW33619   1.954   3.332   1.936 -0.0731 -0.2703 -0.2639
 7387SOL    HW133620   1.923   3.302   1.851 -0.0867 -4.1649  1.1183
 7387SOL    HW233621   1.911   3.275   2.000  1.7081 -1.2653  0.0510
 7388SOL     OW33622   2.997   0.773   7.614 -1.4019  1.5610 -0.2543
 7388SOL    HW133623   2.971   0.850   7.665 -1.7132  0.9223  0.5354
 7388SOL    HW233624   2.919   0.772   7.560 -3.5037  0.0513  2.8390
 7389SOL     OW33625   0.564   4.590   2.838 -0.1583  0.2836 -0.0478
 7389SOL    HW133626   0.580   4.562   2.928  1.2452  0.1178 -0.3535
 7389SOL    HW233627   0.619   4.538   2.781 -0.4710 -0.7928  0.6293
 7390SOL     OW33628   4.711   2.794   0.684 -0.5754 -0.0366  0.7811
 7390SOL    HW133629   4.647   2.765   0.749 -0.4601 -1.3585  0.3123
 7390SOL    HW233630   4.654   2.801   0.607 -2.4403 -1.7143  1.9976
 7391SOL     OW33631   3.201   4.198  14.572 -0.2989 -0.3339 -0.7388
 7391SOL    HW133632   3.191   4.271  14.511  0.9103 -0.3238 -0.9245
 7391SOL    HW233633   3.108   4.180  14.585 -0.1353 -0.0435  0.8138
 7392SOL     OW33634   2.440   1.629   7.973  0.2976 -0.2517  0.0367
 7392SOL    HW133635   2.374   1.649   8.038  1.6412  1.4700  0.8537
 7392SOL    HW233636   2.410   1.544   7.939 -0.6026  0.1376 -0.1203
 7393SOL     OW33637   3.136   1.508   4.611 -0.2936 -0.9748  0.7831
 7393SOL    HW133638   3.101   1.482   4.526  1.2815  2.1660 -0.8650
 7393SOL    HW233639   3.095   1.595   4.607  0.1112 -0.8488 -0.4757
 7394SOL     OW33640   2.352   2.619  15.870 -0.1020 -0.0098 -0.7530
 7394SOL    HW133641   2.389   2.688  15.926  0.7534 -0.9117 -0.2044
 7394SOL    HW233642   2.259   2.643  15.865 -0.3168 -0.1681  2.2253
 7395SOL     OW33643   0.369   1.257  16.405  0.1715 -0.6104  0.0288
 7395SOL    HW133644   0.298   1.201  16.438 -0.5810  0.2144 -0.1849
 7395SOL    HW233645   0.392   1.296  16.489 -1.2984  1.6257 -0.6155
 7396SOL     OW33646   3.124   0.660  15.544  0.5532  1.0599  0.3507
 7396SOL    HW133647   3.143   0.599  15.615 -0.1546  0.8965  0.4061
 7396SOL    HW233648   3.045   0.611  15.518  2.5796 -2.4394  0.7454
 7397SOL     OW33649   2.966   1.107  15.424  0.1173  0.6546 -0.1821
 7397SOL    HW133650   3.059   1.107  15.403  0.0090 -1.2987 -0.6018
 7397SOL    HW233651   2.932   1.037  15.370  0.3853 -1.1349  1.9538
 7398SOL     OW33652   0.039   3.143   6.552 -0.1666 -0.7840 -0.4474
 7398SOL    HW133653   0.058   3.085   6.478  0.9222 -1.5705  0.4364
 7398SOL    HW233654   0.096   3.219   6.538  0.1698 -0.8454  0.5877
 7399SOL     OW33655   0.850   1.630  13.534  0.0613  0.7262 -0.0854
 7399SOL    HW133656   0.878   1.650  13.623 -0.9224  0.0223  0.3764
 7399SOL    HW233657   0.793   1.554  13.542 -1.6249  2.2771  2.4475
 7400SOL     OW33658   0.289   4.457  12.673  0.3413  0.1879  0.6646
 7400SOL    HW133659   0.376   4.420  12.683 -0.9870 -2.6128  2.1043
 7400SOL    HW233660   0.240   4.383  12.638  0.3442  0.7013 -0.4009
 7401SOL     OW33661   4.600   2.125   4.972  0.3244 -0.2363  0.3709
 7401SOL    HW133662   4.615   2.102   5.063 -0.8003  1.9623  1.0979
 7401SOL    HW233663   4.603   2.034   4.943  1.5490  0.6042 -2.1604
 7402SOL     OW33664   1.084   0.383  14.628 -0.3614 -0.5450  0.3967
 7402SOL    HW133665   1.045   0.372  14.715  0.2363  0.2146  0.7599
 7402SOL    HW233666   1.034   0.449  14.581 -2.1450 -2.0282  0.2303
 7403SOL     OW33667   0.334   2.353   8.346  0.3697 -0.2655  0.2539
 7403SOL    HW133668   0.249   2.365   8.304  0.8786 -2.3193 -1.3618
 7403SOL    HW233669   0.306   2.331   8.435 -1.2422  0.7529 -0.0025
 7404SOL     OW33670   0.241   2.605   5.361  0.0315 -0.1840  0.2339
 7404SOL    HW133671   0.180   2.572   5.295 -1.8473  2.1072  0.8689
 7404SOL    HW233672   0.172   2.636   5.419 -0.4823  0.0817 -0.5255
 7405SOL     OW33673   1.670   3.781  10.329 -0.4757 -0.2277 -0.1914
 7405SOL    HW133674   1.693   3.868  10.296 -1.5151 -0.2390 -0.9295
 7405SOL    HW233675   1.621   3.742  10.257 -0.4071 -1.1742  0.2694
 7406SOL     OW33676   2.988   2.133   9.199  0.3526  0.9052  0.4824
 7406SOL    HW133677   3.068   2.107   9.244  0.7755  1.2938 -0.0482
 7406SOL    HW233678   2.985   2.071   9.127 -1.4328  1.7726 -0.2017
 7407SOL     OW33679   4.514   3.028   9.889  0.3195 -0.3434 -0.0541
 7407SOL    HW133680   4.472   3.020   9.975  1.0094  0.5920  0.3773
 7407SOL    HW233681   4.461   2.962   9.846  0.4977  0.9645 -2.2736
 7408SOL     OW33682   2.893   3.710   5.230 -0.4406 -0.2848  0.9296
 7408SOL    HW133683   2.821   3.648   5.242  0.2315 -1.3662 -0.6166
 7408SOL    HW233684   2.872   3.722   5.137  0.7675  0.8955  0.7979
 7409SOL     OW33685   3.088   2.387   7.297 -0.1278  0.3440 -0.4246
 7409SOL    HW133686   3.102   2.402   7.390 -1.2086  0.1530 -0.2406
 7409SOL    HW233687   2.998   2.416   7.281 -0.0803 -0.4105 -2.0808
 7410SOL     OW33688   3.411   0.130  16.244  0.2680  0.2835  0.0894
 7410SOL    HW133689   3.359   0.066  16.292 -0.6921  1.5010  0.6707
 7410SOL    HW233690   3.345   0.164  16.184  0.5143  0.3145 -0.1629
 7411SOL     OW33691   0.622   1.251   7.097 -0.0208  0.1570 -0.1749
 7411SOL    HW133692   0.650   1.334   7.059 -0.9002  0.1122 -0.9096
 7411SOL    HW233693   0.667   1.254   7.182 -1.9379 -2.7254  0.9480
 7412SOL     OW33694   2.057   4.657   1.876 -0.3465  0.0677 -0.4495
 7412SOL    HW133695   2.023   4.701   1.799 -0.0733  3.5376  1.4105
 7412SOL    HW233696   1.982   4.605   1.905  0.7997 -0.6700  1.2226
 7413SOL     OW33697   4.153   0.316   4.504 -0.3140 -0.2676 -0.2753
 7413SOL    HW133698   4.180   0.391   4.452 -0.6252 -0.5995 -0.9191
 7413SOL    HW233699   4.220   0.252   4.480  1.2980  0.3344  2.6228
 7414SOL     OW33700   1.391   1.891  11.071  0.0290 -0.0480 -0.3553
 7414SOL    HW133701   1.302   1.881  11.035 -1.0011 -0.7613  2.3589
 7414SOL    HW233702   1.410   1.985  11.076 -0.4335  0.0488 -0.3864
 7415SOL     OW33703   3.566   3.318   2.667  0.5451 -0.3008 -0.2512
 7415SOL    HW133704   3.571   3.386   2.734 -0.1808 -0.5846  0.0896
 7415SOL    HW233705   3.472   3.303   2.680  0.2810  2.1324  0.6692
 7416SOL     OW33706   3.654   2.510   6.085 -0.0624  0.0665  0.3219
 7416SOL    HW133707   3.726   2.446   6.085  1.1171  1.4048 -2.2147
 7416SOL    HW233708   3.675   2.553   6.003  0.1448 -1.4229 -0.4064
 7417SOL     OW33709   3.005   0.186  15.114 -0.2425 -0.0028  0.0713
 7417SOL    HW133710   3.001   0.214  15.022 -0.2132  0.7771  0.3039
 7417SOL    HW233711   3.028   0.093  15.112 -0.2458 -0.0497  2.3861
 7418SOL     OW33712   0.702   3.228   6.746 -0.2996  0.1394  0.2398
 7418SOL    HW133713   0.670   3.196   6.662  0.3939 -0.0274  0.0359
 7418SOL    HW233714   0.791   3.259   6.725 -1.2912  3.2635  0.6385
 7419SOL     OW33715   3.235   0.726  16.789  0.3143  0.0938  0.4410
 7419SOL    HW133716   3.154   0.773  16.771  0.3111 -0.8578 -2.0078
 7419SOL    HW233717   3.302   0.768  16.736  0.6794 -0.3989  0.5102
 7420SOL     OW33718   3.668   1.618  14.610 -0.7836  0.0014 -0.0700
 7420SOL    HW133719   3.652   1.697  14.661 -0.2355  0.1714 -0.1597
 7420SOL    HW233720   3.725   1.657  14.544  0.1070 -0.8033  0.2128
 7421SOL     OW33721   2.568   0.956   7.463 -0.5823  0.7075  0.7887
 7421SOL    HW133722   2.532   1.024   7.519  0.7594  2.4754 -0.4984
 7421SOL    HW233723   2.660   0.981   7.465 -0.1582 -0.8744  1.4399
 7422SOL     OW33724   0.364   4.542  16.685 -0.2810 -0.2248 -0.7152
 7422SOL    HW133725   0.307   4.618  16.697 -0.5345 -0.4223 -0.6922
 7422SOL    HW233726   0.303   4.470  16.698 -1.7835  1.2580  0.2935
 7423SOL     OW33727   2.784   3.283   9.686  0.4179  0.8994 -0.0664
 7423SOL    HW133728   2.867   3.316   9.720  0.8955  1.8223 -2.1519
 7423SOL    HW233729   2.738   3.365   9.669  2.8284  1.9717 -1.3189
 7424SOL     OW33730   2.155   0.328   4.292  0.5435 -0.6577 -0.0829
 7424SOL    HW133731   2.216   0.371   4.232 -1.2367 -0.8276 -2.0134
 7424SOL    HW233732   2.099   0.404   4.307 -0.1161 -0.8544 -1.5307
 7425SOL     OW33733   0.353   4.709   7.235 -0.2166  0.3477 -0.1062
 7425SOL    HW133734   0.410   4.659   7.177  0.8702  0.6241  0.7261
 7425SOL    HW233735   0.366   0.074   7.209 -1.0006  0.9692  1.6558
 7426SOL     OW33736   0.539   1.380  11.986  0.5934 -0.0200 -0.1519
 7426SOL    HW133737   0.524   1.300  12.036  3.2405  0.4261  1.3553
 7426SOL    HW233738   0.613   1.421  12.029 -0.1494  0.9255  0.2220
 7427SOL     OW33739   4.680   3.703   6.338  0.1307 -0.1177 -0.4120
 7427SOL    HW133740   4.608   3.679   6.279  0.5701  0.8634 -1.3565
 7427SOL    HW233741   0.024   3.705   6.272  1.8687  0.9978  1.4952
 7428SOL     OW33742   0.309   3.096   4.014 -0.7222  0.7356  0.0549
 7428SOL    HW133743   0.365   3.172   4.001 -0.6442  0.7456  0.4509
 7428SOL    HW233744   0.360   3.040   3.956 -0.8080 -1.0551  1.6702
 7429SOL     OW33745   0.228   1.568  16.430  0.5494  0.1814 -0.5167
 7429SOL    HW133746   0.309   1.541  16.473  0.1356 -1.2412 -0.6258
 7429SOL    HW233747   0.253   1.561  16.339  2.6692  0.0759  0.0874
 7430SOL     OW33748   1.565   3.329   1.843 -0.2554  0.0671 -0.3665
 7430SOL    HW133749   1.511   3.252   1.823  0.3975 -0.3330 -0.5785
 7430SOL    HW233750   1.563   3.333   1.939 -0.1197  2.3384 -0.4760
 7431SOL     OW33751   3.890   2.029   4.172  0.2019  0.3161  0.3727
 7431SOL    HW133752   3.944   2.107   4.166 -0.8427  0.8716 -1.6719
 7431SOL    HW233753   3.838   2.041   4.251 -0.6215 -2.6574  0.3062
 7432SOL     OW33754   1.177   2.561   4.333  0.1031  0.1213  0.8498
 7432SOL    HW133755   1.164   2.552   4.238 -0.3531 -1.4096  1.0550
 7432SOL    HW233756   1.122   2.491   4.366 -0.5581  0.2291 -0.0097
 7433SOL     OW33757   4.341   4.610   2.606  0.8472 -0.0767 -0.0407
 7433SOL    HW133758   4.366   4.684   2.550 -0.5881  0.7175  0.3624
 7433SOL    HW233759   4.404   4.543   2.578  1.4072  1.4225 -2.3775
 7434SOL     OW33760   2.031   1.171  15.327 -0.2058 -0.1223  0.2702
 7434SOL    HW133761   2.089   1.122  15.269 -0.3440 -0.1781  0.1804
 7434SOL    HW233762   2.089   1.213  15.392  1.9818 -2.2597 -0.3142
 7435SOL     OW33763   0.359   1.149  16.743 -0.3383  0.2075  0.2589
 7435SOL    HW133764   0.435   1.090  16.743  0.2952  1.0281 -1.4677
 7435SOL    HW233765   0.308   1.124  16.666 -0.3455  1.9868 -0.3047
 7436SOL     OW33766   0.795   1.506   8.327  0.6640  0.3760  0.1746
 7436SOL    HW133767   0.755   1.576   8.379 -0.3404 -0.1639  0.1163
 7436SOL    HW233768   0.870   1.548   8.284  0.2161 -1.0807 -2.0504
 7437SOL     OW33769   0.272   4.030   2.414 -0.0500  0.5094  0.1570
 7437SOL    HW133770   0.251   4.098   2.350 -0.3204  0.4260  0.1568
 7437SOL    HW233771   0.227   4.063   2.492  0.2341 -1.4580  1.1687
 7438SOL     OW33772   1.631   1.472   8.084 -0.0944 -0.4835  0.1400
 7438SOL    HW133773   1.549   1.438   8.121 -0.3968  0.3747  0.2581
 7438SOL    HW233774   1.603   1.540   8.022  1.8540  1.1440  1.0647
 7439SOL     OW33775   3.158   0.143   8.843 -0.1267  0.1287 -0.1551
 7439SOL    HW133776   3.197   0.193   8.772  0.5814 -0.1192  0.0515
 7439SOL    HW233777   3.088   0.206   8.860  0.6545  0.8845  0.2674
 7440SOL     OW33778   1.633   0.854   5.295  0.1113  0.3094  0.0549
 7440SOL    HW133779   1.681   0.924   5.250  0.7698 -0.1323  0.0706
 7440SOL    HW233780   1.702   0.788   5.304  3.2663  3.3363 -1.8896
 7441SOL     OW33781   3.985   0.958   9.042  0.1071  0.1286  0.0302
 7441SOL    HW133782   4.056   0.903   9.075 -1.0296 -0.3787  1.6488
 7441SOL    HW233783   3.910   0.902   9.062 -0.9220  1.3417 -0.4272
 7442SOL     OW33784   4.613   4.202   4.800  0.0852 -0.0194  0.8216
 7442SOL    HW133785   4.653   4.195   4.887 -0.2713 -1.5709  0.8566
 7442SOL    HW233786   4.692   4.206   4.746  0.4955 -1.1558  1.3299
 7443SOL     OW33787   0.202   0.411  15.036  0.4433 -0.1072  0.0238
 7443SOL    HW133788   0.198   0.316  15.020  1.2226  0.3856 -3.2362
 7443SOL    HW233789   0.255   0.414  15.115 -0.6054 -0.1822  0.7229
 7444SOL     OW33790   2.321   3.261   6.024  0.0256  0.6134 -0.6749
 7444SOL    HW133791   2.409   3.224   6.022 -0.9534 -1.8198  1.1678
 7444SOL    HW233792   2.315   3.252   6.119 -0.0626  1.4503 -0.6022
 7445SOL     OW33793   2.010   0.022   5.948 -0.5707 -0.3016 -0.4886
 7445SOL    HW133794   1.999   4.698   5.867  0.5820 -1.5261  0.0885
 7445SOL    HW233795   1.933   0.078   5.950 -0.9153 -0.8531  1.7469
 7446SOL     OW33796   1.341   3.764  13.879  0.3817  0.2502  0.2737
 7446SOL    HW133797   1.420   3.714  13.860  0.2522  0.3621 -0.5505
 7446SOL    HW233798   1.340   3.823  13.804  2.2554 -1.3672 -1.0177
 7447SOL     OW33799   3.424   1.472  14.642  0.6146 -0.1420 -0.1107
 7447SOL    HW133800   3.443   1.393  14.591 -1.2741 -0.3918 -0.4312
 7447SOL    HW233801   3.504   1.520  14.621  0.2588  0.1815 -0.7393
 7448SOL     OW33802   1.287   3.973   7.244  0.1626  0.5666 -0.2356
 7448SOL    HW133803   1.342   3.917   7.189  1.3890  1.3176  0.2291
 7448SOL    HW233804   1.320   3.952   7.331  1.7953 -1.6351 -1.3631
 7449SOL     OW33805   0.425   0.330   2.064  0.1931 -0.0604 -0.0241
 7449SOL    HW133806   0.419   0.347   1.970  0.8334 -3.6225 -0.7023
 7449SOL    HW233807   0.358   0.264   2.079  0.8348 -0.8307 -0.5255
 7450SOL     OW33808   1.873   2.074   8.307 -0.8355  0.5876 -0.0685
 7450SOL    HW133809   1.825   2.155   8.325 -2.8513 -0.4672 -0.6541
 7450SOL    HW233810   1.876   2.076   8.211 -0.4478 -0.6565 -0.0789
 7451SOL     OW33811   1.873   3.837  17.568  0.1845  0.1265 -0.6553
 7451SOL    HW133812   1.892   3.863  17.478  1.2115  0.4535 -0.3450
 7451SOL    HW233813   1.893   3.743  17.577  0.5132  0.3564  0.9623
 7452SOL     OW33814   3.153   3.925  17.532  0.5497 -0.3269  0.3622
 7452SOL    HW133815   3.093   3.877  17.475 -0.4826 -0.7294  1.7643
 7452SOL    HW233816   3.184   4.002  17.484 -1.0040  0.2774  0.3348
 7453SOL     OW33817   0.332   3.767   2.365  0.0530  0.0662  0.1924
 7453SOL    HW133818   0.274   3.720   2.425 -0.0726  0.9049  0.7223
 7453SOL    HW233819   0.289   3.850   2.342  2.6185  1.9325  2.1981
 7454SOL     OW33820   0.481   0.486   3.134 -0.1307 -0.5325 -0.6099
 7454SOL    HW133821   0.412   0.421   3.124  0.0925 -0.8612 -0.0149
 7454SOL    HW233822   0.524   0.478   3.049  1.7912  1.9349  0.1132
 7455SOL     OW33823   2.212   1.535   7.709 -0.0545  0.4268 -0.0525
 7455SOL    HW133824   2.171   1.477   7.773  2.9522 -1.0927  0.4725
 7455SOL    HW233825   2.234   1.611   7.763  1.5841  0.2415 -0.4679
 7456SOL     OW33826   2.252   1.290  11.299 -0.2514  0.1186 -0.0529
 7456SOL    HW133827   2.213   1.205  11.319  0.0612 -0.5894 -2.4270
 7456SOL    HW233828   2.222   1.340  11.375  0.2137  2.4153 -1.3576
 7457SOL     OW33829   0.035   0.294   9.407 -0.4743  0.7063  0.1106
 7457SOL    HW133830   0.022   0.236   9.482 -1.7767  0.8423 -0.0063
 7457SOL    HW233831   0.111   0.333   9.450 -0.3696  1.7913 -1.0371
 7458SOL     OW33832   4.309   1.919   8.211 -0.3734  0.3631  0.5647
 7458SOL    HW133833   4.246   1.910   8.139  1.5909 -1.7626 -0.8965
 7458SOL    HW233834   4.394   1.913   8.166  0.7556 -2.9987  3.2001
 7459SOL     OW33835   1.996   3.983   0.899  0.4911  0.0342 -0.2688
 7459SOL    HW133836   1.989   3.938   0.984  0.5408  1.6822  0.6128
 7459SOL    HW233837   1.906   3.965   0.870 -0.6223  0.9870  2.4904
 7460SOL     OW33838   0.316   1.558   6.063 -0.7453  0.0525 -0.3014
 7460SOL    HW133839   0.284   1.648   6.069 -2.0165 -0.5093  1.4499
 7460SOL    HW233840   0.249   1.526   6.002 -0.3627  2.0804 -1.7914
 7461SOL     OW33841   3.527   1.045   2.784 -0.0318  0.1308 -0.8628
 7461SOL    HW133842   3.574   0.965   2.760 -0.5976  0.8837 -4.5596
 7461SOL    HW233843   3.546   1.103   2.710  0.0771  1.4181  0.1578
 7462SOL     OW33844   4.154   1.333   5.641  0.5363  1.0563 -0.1299
 7462SOL    HW133845   4.169   1.364   5.552  0.6023  1.3030 -0.0329
 7462SOL    HW233846   4.095   1.403   5.666 -0.8389 -0.5461  1.1618
 7463SOL     OW33847   0.786   3.359   2.621  0.4744  0.0517 -0.4291
 7463SOL    HW133848   0.789   3.333   2.529 -2.3129 -0.1457 -0.4420
 7463SOL    HW233849   0.770   3.452   2.606  3.8783  1.0270  1.9929
 7464SOL     OW33850   2.371   3.901   4.072  0.0848 -0.2091  0.1876
 7464SOL    HW133851   2.447   3.861   4.030 -0.2633 -0.4188 -0.2261
 7464SOL    HW233852   2.408   3.941   4.152  1.7659 -0.2943 -0.5513
 7465SOL     OW33853   3.316   4.513  15.283  0.1513  0.6054  0.7850
 7465SOL    HW133854   3.277   4.594  15.251 -0.2390 -0.1357 -0.6008
 7465SOL    HW233855   3.404   4.535  15.313  0.5477  2.1927 -1.5200
 7466SOL     OW33856   2.768   4.092   1.687 -0.0028  0.0954 -0.1492
 7466SOL    HW133857   2.775   4.038   1.766 -0.6939 -1.4212 -1.1271
 7466SOL    HW233858   2.714   4.038   1.631  0.8812  1.7081 -2.5552
 7467SOL     OW33859   0.451   0.365   5.980  0.4919 -0.0827  0.1583
 7467SOL    HW133860   0.406   0.289   5.945  1.7953 -1.2852  1.1101
 7467SOL    HW233861   0.406   0.382   6.063 -1.3713  1.7111 -1.2123
 7468SOL     OW33862   2.385   2.719   3.492 -0.5835  0.4813 -0.1093
 7468SOL    HW133863   2.450   2.790   3.491  1.5559 -1.5029 -0.2337
 7468SOL    HW233864   2.418   2.652   3.433 -1.6095 -2.2313  2.4222
 7469SOL     OW33865   1.025   0.507   2.414 -0.6606 -0.0413  0.0821
 7469SOL    HW133866   0.965   0.464   2.353 -4.9522  2.7378  2.2854
 7469SOL    HW233867   1.082   0.541   2.345  0.2178  0.0734  0.8760
 7470SOL     OW33868   3.891   1.903   9.022 -0.7025 -0.1318  0.4729
 7470SOL    HW133869   3.844   1.843   9.080  0.0156 -2.0894 -0.9777
 7470SOL    HW233870   3.869   1.881   8.932  1.2101 -0.8891  0.1896
 7471SOL     OW33871   3.181   3.118  14.133  0.0109 -0.0504  0.4210
 7471SOL    HW133872   3.102   3.069  14.152 -0.2786  0.5440  0.7526
 7471SOL    HW233873   3.242   3.047  14.112 -0.8774 -1.5382  2.9406
 7472SOL     OW33874   0.143   1.152   9.398  0.2175  0.5086  0.0495
 7472SOL    HW133875   0.092   1.105   9.332 -1.4559 -0.9661  2.3902
 7472SOL    HW233876   0.229   1.151   9.355 -1.0485 -0.3765 -2.4992
 7473SOL     OW33877   1.158   3.030  14.190  0.0378  0.3538  0.8010
 7473SOL    HW133878   1.086   2.977  14.156 -0.8396  0.5737  2.3410
 7473SOL    HW233879   1.225   3.021  14.122 -0.7137 -4.2000  0.7205
 7474SOL     OW33880   0.137   2.589  10.553  0.1744  0.1337  0.2489
 7474SOL    HW133881   0.127   2.640  10.634  0.4991  1.0074 -0.2653
 7474SOL    HW233882   0.063   2.624  10.504 -0.1707 -1.2590 -0.2462
 7475SOL     OW33883   3.077   2.036  14.505 -0.2438  0.4856 -0.0991
 7475SOL    HW133884   3.168   2.064  14.509 -1.5066  4.1499  2.4177
 7475SOL    HW233885   3.089   1.978  14.430 -0.5323  2.1234 -1.4313
 7476SOL     OW33886   2.656   2.577   4.780 -0.0523 -0.1095  0.0375
 7476SOL    HW133887   2.623   2.500   4.733  1.3876 -0.3178 -0.6104
 7476SOL    HW233888   2.711   2.531   4.843 -1.1188  0.9707  1.7617
 7477SOL     OW33889   0.434   1.226  11.260 -0.5158  0.0506  0.2013
 7477SOL    HW133890   0.408   1.254  11.347  1.3521  2.5901 -0.0562
 7477SOL    HW233891   0.361   1.180  11.219 -0.8127 -0.2223  1.0523
 7478SOL     OW33892   0.522   4.349   7.901 -0.3026 -0.7323 -0.7129
 7478SOL    HW133893   0.517   4.412   7.974  1.4204 -1.5482  0.1023
 7478SOL    HW233894   0.604   4.301   7.901 -1.3957 -2.6448  0.4396
 7479SOL     OW33895   1.454   0.661   3.790  0.1153 -0.3405 -0.0694
 7479SOL    HW133896   1.395   0.730   3.821  1.4201  1.2948 -1.2899
 7479SOL    HW233897   1.539   0.701   3.808 -0.0439  0.3163 -0.7986
 7480SOL     OW33898   0.421   1.288   2.847  0.3019 -0.9257  0.3074
 7480SOL    HW133899   0.425   1.192   2.844  0.8172 -0.9673  2.3278
 7480SOL    HW233900   0.408   1.309   2.939 -0.6548  2.9697 -0.7122
 7481SOL     OW33901   0.427   3.206   8.820 -0.3022  0.0389  0.1399
 7481SOL    HW133902   0.408   3.299   8.807  1.7025  0.0783 -2.6034
 7481SOL    HW233903   0.363   3.171   8.758  0.0021 -0.3231  0.0311
 7482SOL     OW33904   4.061   0.130   4.658  0.6138 -0.4365  0.3618
 7482SOL    HW133905   4.147   0.109   4.694  0.6500  2.0737  1.7316
 7482SOL    HW233906   4.088   0.207   4.607 -1.6599 -1.3522 -2.2836
 7483SOL     OW33907   0.781   3.746  16.667 -0.5414 -0.0597 -0.1887
 7483SOL    HW133908   0.694   3.738  16.628 -0.3336 -0.7193 -0.5206
 7483SOL    HW233909   0.814   3.821  16.616  0.8575 -0.0139  0.7763
 7484SOL     OW33910   3.889   4.601   6.754 -0.3105 -0.5067  0.1051
 7484SOL    HW133911   3.951   4.651   6.807  0.0254 -0.9519  0.1318
 7484SOL    HW233912   3.881   4.523   6.809 -1.2534 -0.6414 -0.2180
 7485SOL     OW33913   2.280   3.428  12.882 -0.4514 -0.0352 -0.0252
 7485SOL    HW133914   2.240   3.378  12.811  0.8133 -1.4782  0.2764
 7485SOL    HW233915   2.370   3.415  12.851  0.3418  0.4943  2.0278
 7486SOL     OW33916   1.223   1.217   2.580  0.1485 -0.0927 -0.0561
 7486SOL    HW133917   1.179   1.299   2.558  0.7502  0.4937  0.9510
 7486SOL    HW233918   1.230   1.169   2.498  0.1137 -1.1093  0.5364
 7487SOL     OW33919   1.522   2.304   9.085  0.0861  0.1589 -0.3776
 7487SOL    HW133920   1.498   2.393   9.111 -1.3005 -0.0848 -0.8584
 7487SOL    HW233921   1.589   2.319   9.018 -0.4889  1.3793 -0.6661
 7488SOL     OW33922   3.977   4.008   4.523  0.0715  0.4033 -0.4212
 7488SOL    HW133923   3.985   3.915   4.501 -1.5412  0.2097 -0.1742
 7488SOL    HW233924   3.965   4.046   4.436 -0.2265  1.2585 -0.0018
 7489SOL     OW33925   4.653   0.325   0.314  0.3326  0.3216  0.0222
 7489SOL    HW133926   0.022   0.331   0.329  0.4674  1.3659 -1.2129
 7489SOL    HW233927   4.632   0.403   0.365 -0.0958  0.2778 -0.0915
 7490SOL     OW33928   1.828   1.621   5.521  0.1292  0.6238 -0.4607
 7490SOL    HW133929   1.801   1.535   5.553  3.6009  0.1051  1.1482
 7490SOL    HW233930   1.819   1.606   5.427  0.2054 -0.8411 -0.2406
 7491SOL     OW33931   3.084   3.196   7.005 -0.3450 -0.0212  0.0965
 7491SOL    HW133932   3.155   3.207   7.068 -0.7720  1.6468  0.2847
 7491SOL    HW233933   3.027   3.158   7.072  0.3869 -0.0457  0.7096
 7492SOL     OW33934   0.901   1.079   7.926 -0.6004 -0.2206 -0.3737
 7492SOL    HW133935   0.993   1.053   7.915 -0.3076  0.2477  0.9636
 7492SOL    HW233936   0.870   0.998   7.967  2.1688 -0.7016  0.7474
 7493SOL     OW33937   0.389   3.553   7.692  0.4574 -1.0954 -0.3844
 7493SOL    HW133938   0.413   3.463   7.715  1.5816 -1.0072 -1.1896
 7493SOL    HW233939   0.346   3.571   7.776  1.9733 -0.4877  0.2577
 7494SOL     OW33940   2.102   0.590  16.866 -0.5658  0.4673 -0.2251
 7494SOL    HW133941   2.129   0.656  16.930 -0.8731 -0.4798  0.8768
 7494SOL    HW233942   2.037   0.647  16.823 -0.8510  0.2272 -0.1103
 7495SOL     OW33943   1.490   0.072   2.344  0.0925 -0.3571  0.2895
 7495SOL    HW133944   1.413   0.038   2.389 -0.9452  0.8251 -0.6015
 7495SOL    HW233945   1.541   4.725   2.308  1.6534  0.6083  0.5515
 7496SOL     OW33946   0.369   0.561   7.352  0.4945  0.4493  0.8678
 7496SOL    HW133947   0.441   0.501   7.334  0.8144  1.3910 -0.9521
 7496SOL    HW233948   0.385   0.620   7.278 -0.5619  0.4330  0.6223
 7497SOL     OW33949   2.494   3.990   3.606  0.4423 -0.2161  0.1363
 7497SOL    HW133950   2.578   4.027   3.632  0.6497  0.1541 -1.0535
 7497SOL    HW233951   2.514   3.949   3.522  1.8164 -1.3413  1.0357
 7498SOL     OW33952   1.726   4.724   1.288 -0.4180 -0.4209  0.4331
 7498SOL    HW133953   1.735   4.631   1.305  0.2500 -0.5092 -0.3849
 7498SOL    HW233954   1.686   0.027   1.370 -2.6416 -2.1830 -0.0503
 7499SOL     OW33955   2.245   2.647  16.530  0.3083 -0.3243 -0.3057
 7499SOL    HW133956   2.257   2.721  16.590  0.9280 -2.6022  2.4208
 7499SOL    HW233957   2.173   2.660  16.468  0.3457  0.6432 -0.1474
 7500SOL     OW33958   2.619   2.068   6.776 -0.5687 -0.4498  0.2722
 7500SOL    HW133959   2.556   2.093   6.709 -1.9983  0.8859  2.1379
 7500SOL    HW233960   2.570   2.091   6.855  2.4099 -0.9495  2.3128
 7501SOL     OW33961   1.301   2.008   6.909  0.5238 -0.1435 -0.1407
 7501SOL    HW133962   1.221   1.996   6.857  0.6735 -2.9090  0.2901
 7501SOL    HW233963   1.364   1.990   6.840 -0.6499 -0.4190 -1.1520
 7502SOL     OW33964   4.075   1.607   6.962 -0.4964 -0.1243  0.8752
 7502SOL    HW133965   4.074   1.677   7.027  1.6767  0.0650  0.7042
 7502SOL    HW233966   3.989   1.567   6.965 -0.5553 -0.2431 -2.3124
 7503SOL     OW33967   3.363   0.222   4.105  0.1250 -0.5275 -0.3584
 7503SOL    HW133968   3.456   0.224   4.129 -0.3269 -0.9347  1.4192
 7503SOL    HW233969   3.367   0.254   4.015 -0.6527  0.5076 -0.0143
 7504SOL     OW33970   0.299   0.675  14.111 -0.3987 -0.0525 -0.1413
 7504SOL    HW133971   0.328   0.758  14.149  2.2344 -0.7360 -0.6235
 7504SOL    HW233972   0.376   0.619  14.121 -0.2257  0.2717  0.3138
 7505SOL     OW33973   1.044   3.221   2.618 -0.5035  0.0522 -0.3154
 7505SOL    HW133974   0.997   3.204   2.536 -0.8651  0.9513 -0.3018
 7505SOL    HW233975   1.095   3.140   2.623  0.8071  1.0384  2.3372
 7506SOL     OW33976   0.775   2.585  11.786  0.1349  0.3845 -0.3331
 7506SOL    HW133977   0.713   2.647  11.747 -1.4299 -1.2060 -0.4018
 7506SOL    HW233978   0.738   2.582  11.874 -3.4904 -0.7197 -1.8973
 7507SOL     OW33979   2.580   4.625  11.074  0.2297 -0.4203  0.2492
 7507SOL    HW133980   2.560   4.654  10.985  0.2283 -0.3839  0.2612
 7507SOL    HW233981   2.567   4.706  11.123 -0.8396 -0.5219  0.1328
 7508SOL     OW33982   0.299   2.039   6.249  0.5241 -0.5915 -0.5256
 7508SOL    HW133983   0.248   1.984   6.309 -0.3248  0.1320 -0.5895
 7508SOL    HW233984   0.334   2.100   6.314  1.1132  0.4679 -1.8453
 7509SOL     OW33985   2.054   2.360   9.688  0.3247  0.4651 -0.2055
 7509SOL    HW133986   2.083   2.335   9.776  3.3313 -0.0038 -1.3217
 7509SOL    HW233987   2.136   2.402   9.662  0.9323 -1.0939 -0.7596
 7510SOL     OW33988   3.663   2.490   0.924  0.0246  0.6744 -0.9372
 7510SOL    HW133989   3.704   2.405   0.934  0.6582  1.2039  0.9150
 7510SOL    HW233990   3.740   2.539   0.895  1.1085 -0.5856 -0.1243
 7511SOL     OW33991   1.605   4.717   1.605  0.6325  0.1311  0.1282
 7511SOL    HW133992   1.539   0.019   1.668  0.5198 -1.4275  0.7107
 7511SOL    HW233993   1.546   4.665   1.552  0.0111  1.3324 -0.3579
 7512SOL     OW33994   3.114   2.698  11.749  0.3493 -0.6271  0.5822
 7512SOL    HW133995   3.059   2.620  11.763 -0.8009  0.5039  2.3277
 7512SOL    HW233996   3.112   2.731  11.838  0.5361  1.2003 -0.1038
 7513SOL     OW33997   3.600   1.123  14.729 -0.3455 -0.2429 -0.4461
 7513SOL    HW133998   3.645   1.054  14.777  0.6575  1.2513  0.7676
 7513SOL    HW233999   3.551   1.158  14.803  0.6371  2.2902 -0.9612
 7514SOL     OW34000   4.349   2.230   3.068 -0.0890  0.2074  0.0376
 7514SOL    HW134001   4.353   2.304   3.130  0.4344  1.3803 -1.4047
 7514SOL    HW234002   4.256   2.209   3.078 -0.6136  1.4064 -2.3960
 7515SOL     OW34003   0.314   1.379  16.863  0.5657  0.0430 -0.3711
 7515SOL    HW134004   0.227   1.409  16.839  0.0842 -1.3307 -0.3002
 7515SOL    HW234005   0.314   1.299  16.812  0.4546 -0.4347  0.3726
 7516SOL     OW34006   1.607   2.262   8.654  0.2971 -0.2318 -0.6516
 7516SOL    HW134007   1.555   2.251   8.733  0.0861 -2.1241 -1.0502
 7516SOL    HW234008   1.685   2.305   8.689 -0.4786  0.8254 -0.2244
 7517SOL     OW34009   0.900   1.875   0.393 -0.3595 -0.0373 -0.0754
 7517SOL    HW134010   0.936   1.929   0.464  0.4197 -0.3412 -0.2428
 7517SOL    HW234011   0.879   1.793   0.437  1.4346 -0.6945 -0.4181
 7518SOL     OW34012   3.301   2.751  11.323 -0.5494 -0.2173  0.2033
 7518SOL    HW134013   3.302   2.680  11.259 -2.8228 -0.1123  0.0580
 7518SOL    HW234014   3.263   2.825  11.275 -0.2854 -0.1946  0.0277
 7519SOL     OW34015   3.658   1.363   1.938  0.2725  0.5499 -0.3823
 7519SOL    HW134016   3.747   1.394   1.955  0.6170 -0.3523 -0.5839
 7519SOL    HW234017   3.659   1.346   1.844 -1.1552 -1.7986  0.0200
 7520SOL     OW34018   1.196   2.646   7.525  0.1004  0.4814 -0.0153
 7520SOL    HW134019   1.236   2.646   7.612  0.0281 -2.1087  0.0257
 7520SOL    HW234020   1.195   2.740   7.506 -0.1584  0.2894 -0.9433
 7521SOL     OW34021   0.390   3.606   3.377  0.0899 -0.1256 -0.2363
 7521SOL    HW134022   0.474   3.603   3.333  1.5300  0.4650  2.4554
 7521SOL    HW234023   0.369   3.698   3.389 -2.1241 -0.4183 -1.9132
 7522SOL     OW34024   3.860   1.321   7.643 -0.7501  0.6375 -0.6395
 7522SOL    HW134025   3.901   1.406   7.662 -2.4506  0.2879  4.6188
 7522SOL    HW234026   3.929   1.264   7.678  1.0611  2.1335 -1.7863
 7523SOL     OW34027   4.712   0.665   4.257  0.1079 -0.6654  0.2855
 7523SOL    HW134028   0.008   0.675   4.349 -0.0157  0.4005  0.2080
 7523SOL    HW234029   4.645   0.597   4.256  1.1425 -1.6156 -3.9641
 7524SOL     OW34030   2.683   3.283   3.944  0.0084 -0.0213 -0.3995
 7524SOL    HW134031   2.712   3.366   3.906 -3.2037  1.4425  0.3240
 7524SOL    HW234032   2.734   3.278   4.024 -0.1898  1.2928 -0.1932
 7525SOL     OW34033   0.804   3.526   2.270  0.1790  0.8031 -0.2803
 7525SOL    HW134034   0.854   3.585   2.214  0.8863 -0.6904 -1.2326
 7525SOL    HW234035   0.756   3.593   2.319 -1.1132  0.7766 -1.5040
 7526SOL     OW34036   3.563   3.842   0.159  0.4422 -0.2701 -0.5713
 7526SOL    HW134037   3.617   3.789   0.216 -0.1665 -1.5344 -1.1680
 7526SOL    HW234038   3.586   3.933   0.181  0.3166 -1.0043  2.4860
 7527SOL     OW34039   2.262   0.196  17.086 -0.1599  0.5694 -0.0008
 7527SOL    HW134040   2.324   0.147  17.032  1.5314  1.4088  1.1631
 7527SOL    HW234041   2.196   0.222  17.023  0.5782 -0.0443 -1.0211
 7528SOL     OW34042   0.419   4.300  13.442 -0.1354 -0.6528  0.0419
 7528SOL    HW134043   0.399   4.376  13.497  1.9246 -0.2305  0.2149
 7528SOL    HW234044   0.335   4.301  13.396 -0.3994  0.4294  0.5570
 7529SOL     OW34045   3.192   1.773   6.568 -0.2263  0.3846 -0.4679
 7529SOL    HW134046   3.221   1.796   6.480  0.6078 -0.2145 -0.3553
 7529SOL    HW234047   3.127   1.704   6.553 -0.1564 -0.1502  1.6398
 7530SOL     OW34048   2.483   4.533   9.949  1.1807 -0.0998 -0.1472
 7530SOL    HW134049   2.395   4.568   9.936  0.6189 -1.8476 -1.0730
 7530SOL    HW234050   2.526   4.617   9.964 -0.7654  0.6292  1.3702
 7531SOL     OW34051   0.977   3.330   7.774 -0.0449 -0.0778  0.7888
 7531SOL    HW134052   1.011   3.306   7.860  2.8130  1.5804  0.1222
 7531SOL    HW234053   1.001   3.247   7.732 -1.2158 -0.0279  0.0322
 7532SOL     OW34054   1.962   3.636   2.907 -0.7833 -0.6296  0.0350
 7532SOL    HW134055   2.047   3.668   2.877 -0.3408 -0.5839  1.3534
 7532SOL    HW234056   1.927   3.601   2.825  0.6696 -0.3360 -0.7182
 7533SOL     OW34057   1.430   0.978   2.416 -0.2300 -0.0546  0.2722
 7533SOL    HW134058   1.382   1.000   2.336 -0.3844 -1.1707  0.0552
 7533SOL    HW234059   1.358   0.950   2.473 -0.9969 -0.4332 -0.8816
 7534SOL     OW34060   2.362   2.419   6.532 -0.4376 -0.0402  0.1144
 7534SOL    HW134061   2.434   2.420   6.469 -1.2981 -1.0780 -0.8891
 7534SOL    HW234062   2.407   2.464   6.604 -0.9293  1.4393 -0.4956
 7535SOL     OW34063   3.828   1.799   4.381 -0.3028 -0.2646  0.0252
 7535SOL    HW134064   3.891   1.727   4.381  1.7902  1.5813  1.3744
 7535SOL    HW234065   3.875   1.875   4.415 -2.4626  0.6830  0.9095
 7536SOL     OW34066   4.543   0.939   1.298  0.0060  0.3555 -0.2339
 7536SOL    HW134067   4.474   0.887   1.255  0.3534 -0.6968  0.4914
 7536SOL    HW234068   4.612   0.880   1.329 -2.4507 -2.2419  0.3344
 7537SOL     OW34069   1.605   1.305   3.997  0.3126 -0.1397  0.5150
 7537SOL    HW134070   1.583   1.213   3.984  0.2404 -0.2527  1.4506
 7537SOL    HW234071   1.654   1.332   3.919 -0.4798  0.6094  0.2707
 7538SOL     OW34072   2.577   3.815  17.174  0.0049  0.3203  0.0723
 7538SOL    HW134073   2.615   3.743  17.124 -1.0480 -0.1719 -0.0198
 7538SOL    HW234074   2.590   3.792  17.266 -3.0607  1.0503  0.6888
 7539SOL     OW34075   1.921   3.356  10.851 -0.1313 -0.2443  0.5502
 7539SOL    HW134076   2.013   3.343  10.871  0.1314  2.0978  0.8863
 7539SOL    HW234077   1.898   3.400  10.933 -1.0288  0.4120 -0.0445
 7540SOL     OW34078   2.186   4.543  10.517 -0.2968 -0.0915 -0.2203
 7540SOL    HW134079   2.223   4.477  10.458  0.4030  0.5650 -0.5171
 7540SOL    HW234080   2.195   4.624  10.466 -3.2841 -0.1003 -0.7385
 7541SOL     OW34081   3.027   4.710  11.361 -0.5597  0.4198 -0.1416
 7541SOL    HW134082   3.117   4.705  11.331 -0.9760  2.1652 -1.6648
 7541SOL    HW234083   3.011   0.076  11.384  1.7319  0.1793  2.3087
 7542SOL     OW34084   2.543   0.319   4.090 -0.2445  0.6146 -0.1398
 7542SOL    HW134085   2.564   0.252   4.025 -1.4555  0.8544 -0.7734
 7542SOL    HW234086   2.598   0.298   4.165  0.8511 -2.3174 -1.7493
 7543SOL     OW34087   0.609   3.760   1.318  0.1403 -0.1036  0.0674
 7543SOL    HW134088   0.674   3.812   1.272  1.3109 -1.8264 -0.2233
 7543SOL    HW234089   0.657   3.749   1.400 -0.0002  1.0630  0.3000
 7544SOL     OW34090   4.146   4.303  12.457  0.2955  0.1462 -0.1231
 7544SOL    HW134091   4.171   4.277  12.546  0.8663 -1.2941 -0.7063
 7544SOL    HW234092   4.055   4.332  12.461  0.3153  0.0159  1.2598
 7545SOL     OW34093   1.967   2.921   1.606 -0.1923 -0.4899  0.2659
 7545SOL    HW134094   2.061   2.934   1.600 -0.0303 -1.9676 -0.3222
 7545SOL    HW234095   1.954   2.885   1.518 -4.0921  0.1560  0.5756
 7546SOL     OW34096   0.640   1.787   4.670 -0.3802  0.2324 -0.4018
 7546SOL    HW134097   0.552   1.755   4.692 -0.6951 -1.1030 -3.5123
 7546SOL    HW234098   0.639   1.872   4.714 -1.1061  1.2809 -2.4543
 7547SOL     OW34099   2.158   4.392  12.419 -0.5357  0.2022  0.1140
 7547SOL    HW134100   2.091   4.459  12.408  0.0777  0.5120 -1.7390
 7547SOL    HW234101   2.117   4.315  12.382 -1.3184  0.6906 -0.0264
 7548SOL     OW34102   3.985   4.402   0.703  0.1545 -0.3664  0.8234
 7548SOL    HW134103   3.955   4.481   0.658  0.7072 -1.1793 -0.9871
 7548SOL    HW234104   3.954   4.427   0.790  1.3155 -2.2009  1.7515
 7549SOL     OW34105   0.099   0.052   4.413  0.0356  0.4905 -0.3224
 7549SOL    HW134106   0.097   4.689   4.446  0.4138  0.3232 -0.7558
 7549SOL    HW234107   0.050   0.103   4.478  0.7060 -1.4328  1.6837
 7550SOL     OW34108   3.514   4.532   8.161  0.0691  0.4931  0.8000
 7550SOL    HW134109   3.427   4.549   8.198 -1.0274 -1.3666 -0.9756
 7550SOL    HW234110   3.513   4.436   8.153  1.3551  0.5604 -0.2887
 7551SOL     OW34111   4.528   3.776   6.744  0.3503  0.9102  0.3704
 7551SOL    HW134112   4.574   3.828   6.678  1.2910  2.9947  2.6545
 7551SOL    HW234113   4.474   3.719   6.690 -1.0001  0.5501  2.0742
 7552SOL     OW34114   0.295   1.487   8.679 -0.1206  0.0417 -0.0939
 7552SOL    HW134115   0.214   1.447   8.709 -2.4318  4.9413  0.0293
 7552SOL    HW234116   0.349   1.486   8.759 -1.6649 -1.4409  0.9301
 7553SOL     OW34117   1.825   2.587   2.580  0.0262 -0.6164  0.3004
 7553SOL    HW134118   1.800   2.619   2.494  1.3882 -1.8597 -0.5420
 7553SOL    HW234119   1.839   2.496   2.556  0.9135 -0.2562 -0.5459
 7554SOL     OW34120   1.106   4.495   6.853  0.1958 -0.0229  0.1294
 7554SOL    HW134121   1.040   4.512   6.919  0.2170 -2.2450  0.7386
 7554SOL    HW234122   1.103   4.579   6.807 -1.3675  0.0829  0.4389
 7555SOL     OW34123   3.023   2.587   5.970 -1.1798  0.2938  0.0909
 7555SOL    HW134124   3.001   2.643   6.044 -2.8902 -1.3252  0.7997
 7555SOL    HW234125   2.995   2.632   5.891 -1.3148 -0.5514 -0.3405
 7556SOL     OW34126   3.570   4.691   1.539 -1.1702 -0.0928  0.0284
 7556SOL    HW134127   3.619   0.047   1.537  0.0867 -0.8934 -2.1196
 7556SOL    HW234128   3.520   4.702   1.458  0.5910 -0.5378 -1.1165
 7557SOL     OW34129   0.296   3.557  15.041  0.1396 -0.1062  0.5152
 7557SOL    HW134130   0.317   3.486  14.980 -0.4481 -0.1528  0.3738
 7557SOL    HW234131   0.257   3.628  14.990  0.1495 -0.3683  0.1458
 7558SOL     OW34132   0.322   3.068   1.396  0.0904 -0.3787 -0.2937
 7558SOL    HW134133   0.368   3.046   1.315  0.2137 -0.4527 -0.2036
 7558SOL    HW234134   0.254   3.001   1.390 -0.5150  0.1824  0.3141
 7559SOL     OW34135   2.830   0.246  10.179  0.4162  0.6174 -0.7272
 7559SOL    HW134136   2.870   0.319  10.225 -1.1422  1.0039 -0.0282
 7559SOL    HW234137   2.909   0.199  10.151  0.1871 -0.6792  0.7710
 7560SOL     OW34138   0.594   0.866   5.742  0.0092  0.2681 -0.0551
 7560SOL    HW134139   0.541   0.905   5.673 -1.4171 -0.2543  0.7669
 7560SOL    HW234140   0.543   0.880   5.822  2.3065 -1.1569  1.6642
 7561SOL     OW34141   3.216   4.008  10.503 -0.0560  0.2816  0.3386
 7561SOL    HW134142   3.305   4.011  10.469 -0.1958  0.7668  0.0125
 7561SOL    HW234143   3.236   4.027  10.595 -0.4478  0.1358  0.4510
 7562SOL     OW34144   1.068   2.785   7.945 -0.2432 -0.3766  0.1787
 7562SOL    HW134145   1.059   2.739   8.028  0.8794 -1.1032 -0.1126
 7562SOL    HW234146   0.980   2.819   7.925 -1.6102 -1.7022  3.8930
 7563SOL     OW34147   0.400   2.027   3.784  0.0828 -0.2152  0.2678
 7563SOL    HW134148   0.412   2.084   3.709  0.6097 -1.2161 -0.4049
 7563SOL    HW234149   0.406   2.096   3.850  1.0004 -1.2706  1.3010
 7564SOL     OW34150   1.630   4.262   8.169  0.0489 -0.4266  0.3482
 7564SOL    HW134151   1.702   4.231   8.224 -0.0607  0.3857  0.9586
 7564SOL    HW234152   1.571   4.299   8.235  0.0194  0.3398 -0.1107
 7565SOL     OW34153   4.350   4.533  14.096 -0.7620  0.1358  0.1973
 7565SOL    HW134154   4.370   4.449  14.055 -1.0030  0.1392  0.0765
 7565SOL    HW234155   4.442   4.556  14.114 -1.3163  2.8692 -0.4686
 7566SOL     OW34156   1.118   4.168   1.814  0.4037  0.4568  0.0951
 7566SOL    HW134157   1.101   4.172   1.908  2.3342 -0.6719  0.4839
 7566SOL    HW234158   1.058   4.099   1.786 -0.8954  1.7987 -0.4780
 7567SOL     OW34159   3.349   1.916   6.102  0.2621  0.0752  0.8181
 7567SOL    HW134160   3.350   1.838   6.046  1.7719  1.7052 -1.4169
 7567SOL    HW234161   3.261   1.902   6.137  0.1356 -1.2178  0.0072
 7568SOL     OW34162   3.898   2.600   1.736  0.0425  0.2376 -0.3080
 7568SOL    HW134163   3.957   2.553   1.796  1.1028  0.7923 -0.9227
 7568SOL    HW234164   3.814   2.560   1.758  1.2172 -1.4961  1.1409
 7569SOL     OW34165   4.169   1.411   6.829 -0.0958  0.0501 -0.5323
 7569SOL    HW134166   4.158   1.487   6.885 -1.4992 -0.3063 -0.3337
 7569SOL    HW234167   4.085   1.413   6.783 -0.5408 -2.2391  0.1619
 7570SOL     OW34168   1.876   0.393   5.601 -0.0430 -0.0028  0.0216
 7570SOL    HW134169   1.971   0.393   5.614  0.0680  0.9612 -0.7687
 7570SOL    HW234170   1.862   0.299   5.610  1.1308 -0.2459 -0.6336
 7571SOL     OW34171   0.682   4.467   4.618 -0.0604  0.3619  0.3290
 7571SOL    HW134172   0.762   4.451   4.568 -0.3395 -1.6528  0.5226
 7571SOL    HW234173   0.700   4.548   4.666 -2.0618  0.5696  0.7032
 7572SOL     OW34174   2.807   3.001   6.300 -0.0723 -0.0955  0.4130
 7572SOL    HW134175   2.886   2.999   6.247 -0.9376  2.0364 -1.0039
 7572SOL    HW234176   2.752   2.949   6.241  1.1851  2.1668 -2.7298
 7573SOL     OW34177   0.785   4.232   2.782  0.0528  0.0039 -0.1183
 7573SOL    HW134178   0.843   4.159   2.764  0.2058 -0.2211  1.2925
 7573SOL    HW234179   0.783   4.231   2.878 -0.5133  0.4778 -0.1259
 7574SOL     OW34180   4.201   4.193   0.434 -0.1494  0.1819 -0.0347
 7574SOL    HW134181   4.223   4.106   0.467  2.0032  0.2533 -1.3315
 7574SOL    HW234182   4.236   4.256   0.497  1.2072  0.6950 -1.2993
 7575SOL     OW34183   0.876   0.243   6.910  0.2662 -0.2390  0.2234
 7575SOL    HW134184   0.783   0.223   6.895  0.1671 -0.1782  0.7518
 7575SOL    HW234185   0.892   0.208   6.997 -1.0864  2.1038  1.3942
 7576SOL     OW34186   0.818   0.761   2.635 -0.1078 -0.2860 -0.1829
 7576SOL    HW134187   0.849   0.821   2.568  0.5011 -1.5267 -1.0253
 7576SOL    HW234188   0.730   0.797   2.648 -0.5677 -1.8398  1.0376
 7577SOL     OW34189   4.080   1.047   5.702 -0.0447  0.7993 -0.0428
 7577SOL    HW134190   3.999   1.061   5.654 -1.8698 -3.8250  1.7325
 7577SOL    HW234191   4.119   1.133   5.682 -0.0491  0.4518 -1.5142
 7578SOL     OW34192   0.805   3.325   4.430 -0.3325  0.1657 -0.6502
 7578SOL    HW134193   0.848   3.405   4.459 -0.5916  0.2566 -0.5237
 7578SOL    HW234194   0.726   3.312   4.483  1.6970  1.2535  2.6302
 7579SOL     OW34195   3.083   3.830  12.696  0.3505  0.3615  0.2069
 7579SOL    HW134196   2.995   3.861  12.716 -0.0027  0.4612 -1.5418
 7579SOL    HW234197   3.081   3.734  12.706 -1.1399  0.4911  1.0700
 7580SOL     OW34198   3.873   2.016   7.061  0.0127  0.2499 -0.2717
 7580SOL    HW134199   3.829   2.016   7.147  0.9719 -1.2129  0.2295
 7580SOL    HW234200   3.868   2.106   7.029 -0.5331  0.1766 -0.4002
 7581SOL     OW34201   4.480   3.494   3.912  0.0403 -0.0597  0.3723
 7581SOL    HW134202   4.434   3.410   3.911  0.3448 -0.2218  0.0513
 7581SOL    HW234203   4.414   3.544   3.865 -0.0234  0.0789  0.6098
 7582SOL     OW34204   2.734   2.527   1.539  0.2428 -0.2214  0.6231
 7582SOL    HW134205   2.760   2.445   1.581 -1.3187 -0.9331  0.2129
 7582SOL    HW234206   2.801   2.544   1.473 -2.4186  0.7594 -1.8333
 7583SOL     OW34207   1.042   1.574  10.157 -0.5666  0.5644  0.1242
 7583SOL    HW134208   0.985   1.498  10.144 -0.5446  0.3837  1.0755
 7583SOL    HW234209   1.087   1.580  10.073 -2.0042  0.3556 -0.6673
 7584SOL     OW34210   4.284   4.379   0.241 -1.1362  0.7970 -0.1042
 7584SOL    HW134211   4.265   4.313   0.307  2.0790  0.4430  0.4528
 7584SOL    HW234212   4.202   4.430   0.244 -1.9922 -0.7566  1.9799
 7585SOL     OW34213   4.717   4.244   7.581 -0.5719 -0.3989  0.1619
 7585SOL    HW134214   0.073   4.282   7.549 -0.2604 -1.3444 -0.1720
 7585SOL    HW234215   4.674   4.210   7.502 -2.4277 -1.2362  1.5394
 7586SOL     OW34216   4.706   0.643  12.706  0.4758  0.1796 -0.1694
 7586SOL    HW134217   4.616   0.646  12.673  0.4897 -0.3134 -0.2524
 7586SOL    HW234218   4.723   0.561  12.752  1.1835  0.1527 -0.4785
 7587SOL     OW34219   2.859   3.539   9.642  0.3015 -0.2789  0.6102
 7587SOL    HW134220   2.771   3.544   9.681 -0.4186 -0.7757 -0.9548
 7587SOL    HW234221   2.856   3.608   9.576 -1.7920 -1.1412 -0.1996
 7588SOL     OW34222   3.732   3.900   7.517  0.0653  0.3222 -0.1678
 7588SOL    HW134223   3.685   3.949   7.584 -0.6016  2.5811 -2.2944
 7588SOL    HW234224   3.816   3.945   7.526  0.9551 -0.6656 -3.4510
 7589SOL     OW34225   3.084   4.224   0.338 -0.7604  0.5390  0.2789
 7589SOL    HW134226   3.145   4.160   0.301  1.2424  2.3252  0.4640
 7589SOL    HW234227   3.080   4.206   0.432 -2.7237 -1.0651 -0.1200
 7590SOL     OW34228   2.922   4.610   9.060  0.1160 -0.1799  0.7736
 7590SOL    HW134229   2.924   4.547   8.988  0.5473 -2.2638  2.6031
 7590SOL    HW234230   2.979   4.569   9.125  0.0890  0.8612  1.4648
 7591SOL     OW34231   0.109   1.715   6.939 -0.2580 -0.3146 -0.0674
 7591SOL    HW134232   0.158   1.651   6.888 -0.1406 -0.3920  0.1418
 7591SOL    HW234233   0.117   1.680   7.028  0.9633 -0.4009 -0.2136
 7592SOL     OW34234   0.401   2.456   9.002 -0.0951  0.0562  0.0320
 7592SOL    HW134235   0.353   2.385   8.958 -1.7879  1.9866 -1.1953
 7592SOL    HW234236   0.372   2.447   9.093 -1.3153 -1.1283 -0.4752
 7593SOL     OW34237   4.031   0.983   6.212 -0.2913  0.0238 -0.4734
 7593SOL    HW134238   4.069   0.988   6.300 -0.9765 -0.6761 -0.1375
 7593SOL    HW234239   3.944   1.021   6.223  0.1202  0.6209  0.7033
 7594SOL     OW34240   1.823   0.558  11.881 -0.4718 -0.2157  0.3716
 7594SOL    HW134241   1.839   0.557  11.975 -0.2566 -0.3919  0.3342
 7594SOL    HW234242   1.891   0.613  11.842  1.4733 -1.9676  1.2446
 7595SOL     OW34243   3.703   3.553  10.708 -0.0411  0.5222 -0.0622
 7595SOL    HW134244   3.718   3.566  10.614  1.2936  0.7434  0.1775
 7595SOL    HW234245   3.790   3.564  10.745 -0.0214 -0.7772  0.2737
 7596SOL     OW34246   3.559   4.433   6.500  0.0404 -0.2263 -0.3760
 7596SOL    HW134247   3.605   4.382   6.433  2.5768  1.4138  0.1089
 7596SOL    HW234248   3.530   4.365   6.561 -1.4148  2.3592  1.8215
 7597SOL     OW34249   3.004   2.907   7.090  0.5672  0.0374  0.4170
 7597SOL    HW134250   3.027   2.815   7.076 -1.9896 -0.7936  1.7891
 7597SOL    HW234251   3.058   2.954   7.026 -0.6318  0.8127 -0.0335
 7598SOL     OW34252   3.469   3.462  12.146  0.0744 -0.5869  0.2143
 7598SOL    HW134253   3.464   3.557  12.133  1.2233 -0.7839 -1.7143
 7598SOL    HW234254   3.429   3.460  12.233 -0.0430  0.2969  0.1824
 7599SOL     OW34255   2.170   2.081   6.041 -0.2311 -0.2896 -0.4511
 7599SOL    HW134256   2.215   2.056   5.960 -2.1854  0.1973 -1.6983
 7599SOL    HW234257   2.091   2.029   6.031 -2.1760  2.5186  0.2943
 7600SOL     OW34258   1.045   2.043  17.082 -0.1749 -0.2771 -0.3238
 7600SOL    HW134259   1.049   2.011  17.172 -2.0481 -0.2047 -0.2151
 7600SOL    HW234260   0.994   1.977  17.034 -0.4902 -0.0767 -0.2599
 7601SOL     OW34261   3.257   3.275   8.304 -0.6021 -0.6330 -0.2835
 7601SOL    HW134262   3.316   3.321   8.364  0.8604 -2.3411 -0.3983
 7601SOL    HW234263   3.289   3.188   8.325  1.4079  0.7661  2.4215
 7602SOL     OW34264   1.479   2.830  12.750  0.1268 -0.0752 -0.2803
 7602SOL    HW134265   1.479   2.787  12.836  3.3631  0.7019  0.0866
 7602SOL    HW234266   1.467   2.756  12.691 -2.2268  0.7279 -0.8022
 7603SOL     OW34267   1.102   2.618   1.237 -0.1010  0.1107  0.4989
 7603SOL    HW134268   1.176   2.630   1.176  2.0629  0.3790  3.1689
 7603SOL    HW234269   1.049   2.695   1.216 -1.0765  0.2978  3.6444
 7604SOL     OW34270   1.792   2.718   8.368  0.1935 -0.0783  0.2227
 7604SOL    HW134271   1.866   2.662   8.345  0.8971  0.4823  1.1324
 7604SOL    HW234272   1.743   2.650   8.416 -2.2998  0.1442 -1.9878
 7605SOL     OW34273   4.678   0.947   9.801 -0.4509 -0.0644 -0.3081
 7605SOL    HW134274   4.651   0.966   9.891 -1.8900 -1.3766 -0.4589
 7605SOL    HW234275   0.045   0.932   9.816 -1.2317 -1.5397  2.9530
 7606SOL     OW34276   2.448   0.151   8.211 -0.0610 -0.6299  1.0012
 7606SOL    HW134277   2.359   0.165   8.179 -0.0548  0.6734  1.5691
 7606SOL    HW234278   2.475   0.093   8.140 -0.7431 -0.8384  0.9196
 7607SOL     OW34279   1.529   4.683   7.807 -0.1663  0.1634 -0.1579
 7607SOL    HW134280   1.471   4.607   7.813  0.2973 -0.2082 -0.3673
 7607SOL    HW234281   1.586   4.674   7.884 -0.5259  0.8758  0.1974
 7608SOL     OW34282   4.057   0.679   6.946 -0.1698 -0.4488  0.6080
 7608SOL    HW134283   4.113   0.605   6.970  1.8873  0.9727  0.2396
 7608SOL    HW234284   4.098   0.696   6.861 -0.4924  1.0096  0.7479
 7609SOL     OW34285   3.225   1.309   2.749 -0.1714 -0.6346  0.0662
 7609SOL    HW134286   3.240   1.234   2.807  1.3187 -1.0993 -0.9276
 7609SOL    HW234287   3.279   1.377   2.788 -0.5399 -0.3758  0.1198
 7610SOL     OW34288   0.807   1.102   5.892  0.4157  0.1965  0.5612
 7610SOL    HW134289   0.786   1.182   5.844  0.7252  0.2615  0.5361
 7610SOL    HW234290   0.753   1.101   5.972 -0.8088  0.0333 -0.2602
 7611SOL     OW34291   2.432   0.679   3.852 -0.5474 -0.0919 -0.3178
 7611SOL    HW134292   2.412   0.756   3.798 -1.8977 -0.4117 -0.2852
 7611SOL    HW234293   2.342   0.656   3.875  0.0743 -1.8519  0.3150
 7612SOL     OW34294   3.776   3.653   6.684 -0.0856 -0.5038 -0.0940
 7612SOL    HW134295   3.817   3.683   6.603  3.1842 -1.6674  1.1387
 7612SOL    HW234296   3.685   3.650   6.654 -0.4789 -0.0196  1.0634
 7613SOL     OW34297   0.111   1.803  16.522  0.1718  0.6188 -0.1018
 7613SOL    HW134298   0.029   1.801  16.474 -0.0056  0.5531  0.2057
 7613SOL    HW234299   0.164   1.729  16.492 -0.2481  0.6080 -0.8163
 7614SOL     OW34300   0.463   2.812   9.185 -1.0609 -0.0393  0.0210
 7614SOL    HW134301   0.468   2.896   9.232  3.0552 -1.1733  1.6575
 7614SOL    HW234302   0.371   2.808   9.160 -0.8932 -0.5566 -0.4837
 7615SOL     OW34303   0.283   0.957  15.356  0.3162 -0.3279 -0.9064
 7615SOL    HW134304   0.302   1.049  15.378 -1.1338 -0.3550  0.4484
 7615SOL    HW234305   0.206   0.939  15.409  0.3918 -1.8056 -1.3062
 7616SOL     OW34306   2.716   2.619  10.870  0.1051  0.2694  0.5341
 7616SOL    HW134307   2.677   2.661  10.947 -0.3352  2.5229 -0.8984
 7616SOL    HW234308   2.678   2.678  10.804 -1.3377 -2.7458 -1.3373
 7617SOL     OW34309   0.951   4.056   4.015 -0.1483 -0.2542 -0.3237
 7617SOL    HW134310   0.998   4.039   3.934  0.7029  0.1267  0.0870
 7617SOL    HW234311   0.992   3.990   4.071  3.5261  1.5248 -0.9469
 7618SOL     OW34312   1.178   2.955   5.970  0.3732 -0.3656  0.0907
 7618SOL    HW134313   1.141   3.043   5.978 -1.7334 -1.2608  0.1028
 7618SOL    HW234314   1.111   2.889   5.987 -0.3448  0.7672  1.6181
 7619SOL     OW34315   3.384   3.130   4.825 -0.7393 -0.1258  0.7842
 7619SOL    HW134316   3.451   3.161   4.886 -0.6095 -1.6259  1.3982
 7619SOL    HW234317   3.350   3.210   4.786  0.0461  0.1938  0.7491
 7620SOL     OW34318   2.529   4.595   3.842 -0.0573 -0.0330  0.2192
 7620SOL    HW134319   2.587   4.590   3.766 -2.9113 -1.2441 -1.8626
 7620SOL    HW234320   2.553   4.684   3.870 -2.4880  0.4729  0.6711
 7621SOL     OW34321   2.155   0.806   8.601  0.2954  0.4886  0.7441
 7621SOL    HW134322   2.100   0.731   8.622 -0.6360  0.8858 -0.2394
 7621SOL    HW234323   2.234   0.766   8.564 -1.2389 -1.8839  0.0278
 7622SOL     OW34324   2.114   3.412   6.358  0.2449 -0.2813  0.5957
 7622SOL    HW134325   2.085   3.395   6.448  3.2387  0.6648  1.7395
 7622SOL    HW234326   2.034   3.408   6.306 -0.0296  0.7842  0.9510
 7623SOL     OW34327   4.696   2.236  10.043 -0.2585  0.7451  0.0867
 7623SOL    HW134328   4.611   2.221  10.002  0.8889 -1.5519 -1.4210
 7623SOL    HW234329   0.004   2.149  10.063  0.4797  1.0776  0.2937
 7624SOL     OW34330   2.808   4.221   6.789 -0.4695 -0.8112  0.3109
 7624SOL    HW134331   2.876   4.241   6.854 -2.3956 -0.0012  2.0656
 7624SOL    HW234332   2.843   4.252   6.705 -0.2224 -0.1433  0.6590
 7625SOL     OW34333   3.039   1.416   9.137 -0.0772 -0.0079 -0.5728
 7625SOL    HW134334   3.030   1.460   9.222 -0.8518  1.2005 -1.2863
 7625SOL    HW234335   3.088   1.480   9.087 -0.4595 -0.0235 -0.9718
 7626SOL     OW34336   3.205   1.486   5.355 -0.0901 -0.0227  0.2609
 7626SOL    HW134337   3.266   1.473   5.282  1.6590 -0.8307  1.8579
 7626SOL    HW234338   3.119   1.465   5.321  1.4484 -3.4001 -1.5302
 7627SOL     OW34339   4.349   3.101  12.945  0.2208 -0.4748  0.0483
 7627SOL    HW134340   4.425   3.082  13.000  0.7941 -1.2148 -0.9963
 7627SOL    HW234341   4.327   3.185  12.985  1.4811  0.4359 -1.1554
 7628SOL     OW34342   3.881   2.326   3.695  0.1224 -0.3142 -0.1435
 7628SOL    HW134343   3.896   2.245   3.648  0.6437  0.3675 -1.1437
 7628SOL    HW234344   3.805   2.362   3.650  1.0983  1.3945 -0.4218
 7629SOL     OW34345   3.659   0.619   5.711 -0.0776  0.1733 -0.2910
 7629SOL    HW134346   3.637   0.604   5.619  0.0252  0.8959 -0.4306
 7629SOL    HW234347   3.749   0.587   5.719  0.4081  1.5675 -0.2613
 7630SOL     OW34348   2.848   3.171   3.395  0.2373 -0.0542 -0.2062
 7630SOL    HW134349   2.910   3.228   3.440  3.0212 -0.8153 -3.0657
 7630SOL    HW234350   2.838   3.101   3.460  0.5091  1.0911  1.0637
 7631SOL     OW34351   2.827   0.766  15.654  0.0237  0.2226  0.3717
 7631SOL    HW134352   2.804   0.832  15.720 -1.4737  0.1097 -0.0455
 7631SOL    HW234353   2.870   0.810  15.581  0.5606 -0.9214 -0.0054
 7632SOL     OW34354   2.555   2.108   2.359  0.5098 -0.0617 -0.6362
 7632SOL    HW134355   2.524   2.199   2.350  0.8142  0.1997  1.0703
 7632SOL    HW234356   2.544   2.065   2.274  0.0643 -0.8835 -0.1608
 7633SOL     OW34357   0.273   1.884  15.206 -0.1099 -0.4385  0.0484
 7633SOL    HW134358   0.289   1.969  15.248  0.7131 -0.5620 -0.0231
 7633SOL    HW234359   0.360   1.869  15.168 -1.8074 -2.0594 -3.1520
 7634SOL     OW34360   4.565   0.719   6.414  0.5381  0.1888  0.3798
 7634SOL    HW134361   4.606   0.635   6.394 -2.0430 -1.0263  0.1839
 7634SOL    HW234362   4.633   0.768   6.460  1.7194  0.6343 -1.8695
 7635SOL     OW34363   3.886   0.986   1.280 -0.0711 -0.0931 -0.6075
 7635SOL    HW134364   3.939   1.003   1.358 -0.2467 -0.3206 -0.4385
 7635SOL    HW234365   3.925   0.910   1.236 -0.0023 -0.8866  0.8232
 7636SOL     OW34366   3.360   1.230   5.157 -0.7736  0.0767  0.1042
 7636SOL    HW134367   3.453   1.247   5.170 -0.7302  1.8369 -2.6569
 7636SOL    HW234368   3.350   1.261   5.067  0.5321  2.5374  0.8110
 7637SOL     OW34369   1.841   3.538  10.287  0.2717 -0.3287 -0.0801
 7637SOL    HW134370   1.788   3.617  10.298  0.5553 -0.0928 -0.4175
 7637SOL    HW234371   1.818   3.491  10.367 -0.8592  0.2568 -0.0673
 7638SOL     OW34372   3.662   0.597  14.933  0.0806  0.1558 -0.2117
 7638SOL    HW134373   3.583   0.543  14.924  1.1188 -0.9157 -2.6665
 7638SOL    HW234374   3.690   0.623  14.846 -1.9544 -0.0158 -0.9315
 7639SOL     OW34375   4.656   0.965   2.696  1.0533  0.3091  0.1471
 7639SOL    HW134376   4.685   0.973   2.787 -1.2291 -2.5433  1.1413
 7639SOL    HW234377   4.643   0.871   2.685 -1.6355  0.8625 -1.4154
 7640SOL     OW34378   3.246   3.683  16.285  0.0548 -0.7862  0.0285
 7640SOL    HW134379   3.268   3.595  16.317  0.2748 -0.6833  0.1591
 7640SOL    HW234380   3.333   3.715  16.262 -1.1662  1.4325 -1.5095
 7641SOL     OW34381   0.050   1.125   5.083  0.0382  0.2692 -0.6387
 7641SOL    HW134382   0.099   1.070   5.145 -0.0703  1.4039  0.4600
 7641SOL    HW234383   4.687   1.101   5.112  0.2015 -0.4158 -0.6991
 7642SOL     OW34384   2.202   3.641   7.617 -0.2836  0.4327 -0.0989
 7642SOL    HW134385   2.212   3.646   7.522  1.3027  1.5124  0.1365
 7642SOL    HW234386   2.284   3.682   7.645 -1.6060  2.1260  1.3159
 7643SOL     OW34387   2.412   3.644   6.650  0.1180  0.4274  0.5461
 7643SOL    HW134388   2.395   3.690   6.568 -2.5495  0.9427  1.3722
 7643SOL    HW234389   2.475   3.698   6.697 -0.9650  0.2024  2.2561
 7644SOL     OW34390   0.590   0.082   8.744 -0.7552 -0.1185 -0.0587
 7644SOL    HW134391   0.499   0.106   8.758  0.0343  1.7113  1.9353
 7644SOL    HW234392   0.641   0.164   8.742 -0.3193 -0.3774  0.6887
 7645SOL     OW34393   1.937   3.608   8.339 -0.5599 -0.7314  0.8580
 7645SOL    HW134394   2.025   3.643   8.330  0.3445 -3.4876 -1.2183
 7645SOL    HW234395   1.889   3.684   8.373 -0.5244 -0.3195  0.0026
 7646SOL     OW34396   2.809   3.314   6.269  0.1256 -0.2074  0.1906
 7646SOL    HW134397   2.775   3.241   6.218 -0.1809 -0.7076  1.1079
 7646SOL    HW234398   2.872   3.361   6.214  0.5521 -1.2727 -0.2241
 7647SOL     OW34399   4.281   0.730   7.301  0.8809  0.2400 -0.1514
 7647SOL    HW134400   4.282   0.692   7.388 -2.2100  1.2754  0.3528
 7647SOL    HW234401   4.363   0.779   7.296  0.6255  0.5189 -1.6749
 7648SOL     OW34402   4.619   2.805   8.131  0.1420 -0.5226  0.0370
 7648SOL    HW134403   4.548   2.825   8.192  0.2551  0.4045 -0.1332
 7648SOL    HW234404   4.689   2.800   8.196  0.0732 -0.6362  0.1011
 7649SOL     OW34405   4.724   0.655   2.521 -0.7551  0.0512 -0.1406
 7649SOL    HW134406   0.094   0.648   2.513 -0.7434  0.3835 -0.2922
 7649SOL    HW234407   4.696   0.588   2.459 -2.1860  0.0302  0.5318
 7650SOL     OW34408   3.801   0.855   2.008  0.2453 -0.0527  0.5567
 7650SOL    HW134409   3.823   0.854   2.102  0.8064 -1.9406  0.4092
 7650SOL    HW234410   3.892   0.850   1.979  0.3132  0.7807  0.6280
 7651SOL     OW34411   2.078   2.958   0.406 -0.3440 -0.6601  0.1270
 7651SOL    HW134412   2.100   3.005   0.326  0.9215  0.5973  1.2225
 7651SOL    HW234413   2.001   3.004   0.439  0.3774 -0.1705  1.1336
 7652SOL     OW34414   0.991   3.407   4.739  0.4687 -0.0038  0.3218
 7652SOL    HW134415   1.043   3.333   4.708  0.3550  0.5284 -1.1125
 7652SOL    HW234416   1.000   3.460   4.660  2.0454 -0.4057  0.2177
 7653SOL     OW34417   3.631   3.620   0.736 -0.3561 -0.3919 -0.3689
 7653SOL    HW134418   3.622   3.674   0.814  1.1776 -0.5420 -0.0957
 7653SOL    HW234419   3.696   3.663   0.680 -0.8587  2.8902  1.5835
 7654SOL     OW34420   0.739   3.020   5.977 -0.4986 -0.1617  0.5547
 7654SOL    HW134421   0.732   2.980   6.063  0.4086 -1.6074 -0.0497
 7654SOL    HW234422   0.717   2.944   5.923 -0.5892  1.1569 -1.2909
 7655SOL     OW34423   0.404   1.232  13.152 -0.1784 -0.5077 -0.1326
 7655SOL    HW134424   0.497   1.244  13.168 -0.2965 -0.9435  0.9197
 7655SOL    HW234425   0.362   1.276  13.226  0.1200 -2.1642  1.0432
 7656SOL     OW34426   2.361   0.260   1.090 -0.8019  0.1987 -0.1764
 7656SOL    HW134427   2.387   0.189   1.030  2.4353  2.3030 -1.2300
 7656SOL    HW234428   2.401   0.335   1.045 -0.9456 -0.1104 -0.8206
 7657SOL     OW34429   0.433   3.762   8.677 -0.1079  0.0156 -0.2929
 7657SOL    HW134430   0.444   3.823   8.750  0.4807 -0.8235  0.3104
 7657SOL    HW234431   0.490   3.794   8.606  1.4349 -0.5624  0.7100
 7658SOL     OW34432   0.278   3.735  16.256  0.0440 -0.2340 -0.0814
 7658SOL    HW134433   0.278   3.641  16.236  0.9627 -0.1731 -0.3295
 7658SOL    HW234434   0.192   3.758  16.221 -0.3823 -0.1994  0.9982
 7659SOL     OW34435   1.282   4.507   7.907 -0.3448 -0.5064  0.0024
 7659SOL    HW134436   1.310   4.415   7.905 -0.4376 -0.5763  1.7255
 7659SOL    HW234437   1.209   4.494   7.846 -0.1085  1.2852 -0.6584
 7660SOL     OW34438   0.013   0.425   2.360  0.1455 -0.7466  0.7101
 7660SOL    HW134439   0.103   0.405   2.331 -0.4066 -0.8738 -0.9131
 7660SOL    HW234440   4.726   0.345   2.411  0.2797 -1.2701 -0.0706
 7661SOL     OW34441   2.663   0.435  15.490 -0.6108  0.0222  0.1952
 7661SOL    HW134442   2.614   0.443  15.408 -1.0509  1.2697  0.5810
 7661SOL    HW234443   2.617   0.489  15.554 -1.7743 -1.0229  0.2595
 7662SOL     OW34444   2.141   0.410  10.466 -0.1459  0.5116 -0.1877
 7662SOL    HW134445   2.226   0.453  10.475  0.4240 -0.2268 -2.0295
 7662SOL    HW234446   2.081   0.483  10.474 -0.0556  0.5756 -0.1002
 7663SOL     OW34447   1.231   0.621   4.110 -0.2972  0.4767  0.7438
 7663SOL    HW134448   1.275   0.706   4.120  0.6511 -0.0362  0.9547
 7663SOL    HW234449   1.232   0.593   4.202  1.8776 -2.8818 -0.3344
 7664SOL     OW34450   1.354   2.540   5.280 -0.3587 -0.6782 -0.0365
 7664SOL    HW134451   1.424   2.488   5.240 -1.0604 -1.0232 -0.8199
 7664SOL    HW234452   1.352   2.616   5.222  0.9313 -1.2262 -0.7988
 7665SOL     OW34453   0.350   3.950  17.025 -0.0281 -0.3603  0.6665
 7665SOL    HW134454   0.343   3.881  16.959  0.9251  0.2575 -0.0855
 7665SOL    HW234455   0.268   3.957  17.073 -0.2478  1.6341  0.0175
 7666SOL     OW34456   0.631   4.577   7.314  0.1330  0.1756  0.4577
 7666SOL    HW134457   0.714   4.582   7.267 -0.0845  1.0745  0.1625
 7666SOL    HW234458   0.578   4.555   7.237 -0.2337  0.8152  0.5236
 7667SOL     OW34459   3.624   0.230   4.131 -0.3060 -0.3516 -0.7172
 7667SOL    HW134460   3.690   0.184   4.079  0.3331  1.0462 -1.1299
 7667SOL    HW234461   3.675   0.258   4.207 -0.0756 -0.8476 -0.6857
 7668SOL     OW34462   2.369   3.304  14.751 -0.0206 -0.1742 -0.6626
 7668SOL    HW134463   2.410   3.277  14.669  0.6199 -1.1005 -0.0331
 7668SOL    HW234464   2.447   3.322  14.803 -0.1044 -0.3376 -0.4811
 7669SOL     OW34465   4.385   1.592   0.987  0.4819 -0.2156  0.1082
 7669SOL    HW134466   4.420   1.640   1.062  0.5538  0.5609 -0.4192
 7669SOL    HW234467   4.296   1.569   1.015  0.4960  0.0578  0.3747
 7670SOL     OW34468   3.940   0.303  15.199  0.6401 -0.5194  0.3132
 7670SOL    HW134469   3.975   0.259  15.121  2.4632 -0.4011  1.0652
 7670SOL    HW234470   3.988   0.385  15.183  1.4123 -0.3400  3.5559
 7671SOL     OW34471   2.941   2.829   5.795  0.2834 -0.5783 -0.1416
 7671SOL    HW134472   3.015   2.815   5.735  1.8648  2.7545  1.0388
 7671SOL    HW234473   2.866   2.830   5.735  0.7488 -0.6570 -0.7280
 7672SOL     OW34474   3.432   0.993   7.832 -0.5676 -0.6724  0.4416
 7672SOL    HW134475   3.447   0.904   7.798 -0.1948  0.2193 -1.7577
 7672SOL    HW234476   3.522   1.021   7.843 -0.7417 -0.1178  0.4438
 7673SOL     OW34477   3.495   4.024   8.314 -0.0504 -0.0188  0.4004
 7673SOL    HW134478   3.469   3.947   8.365  0.8263 -0.3414  0.3606
 7673SOL    HW234479   3.553   3.978   8.254  0.4040  1.8844 -0.6205
 7674SOL     OW34480   3.116   2.990   3.065 -0.0867 -0.2297 -0.5359
 7674SOL    HW134481   3.101   2.933   3.140  0.0847 -0.5692 -0.7651
 7674SOL    HW234482   3.150   2.934   2.996 -1.2824 -0.1263 -1.2233
 7675SOL     OW34483   0.157   3.586   1.488  0.3254 -0.1186  0.1320
 7675SOL    HW134484   0.136   3.562   1.579 -0.3294  2.0463  0.5630
 7675SOL    HW234485   0.177   3.497   1.460 -1.1528 -0.7594  1.0799
 7676SOL     OW34486   4.173   1.755   6.091 -0.4228 -0.1153 -0.3276
 7676SOL    HW134487   4.267   1.753   6.110 -0.3300 -0.7633 -0.8694
 7676SOL    HW234488   4.149   1.663   6.077  0.7747 -0.9544  3.1284
 7677SOL     OW34489   3.806   3.434   4.085 -0.4401 -0.6795  1.0355
 7677SOL    HW134490   3.713   3.446   4.071 -0.1272 -1.4649 -1.7194
 7677SOL    HW234491   3.811   3.338   4.084  2.2376 -0.5328 -0.8184
 7678SOL     OW34492   3.935   2.420   0.250 -0.0841 -0.0217  0.0763
 7678SOL    HW134493   4.007   2.452   0.304  0.2528 -0.4025 -0.1471
 7678SOL    HW234494   3.870   2.484   0.279 -0.4060  0.0536 -0.8067
 7679SOL     OW34495   2.428   3.282   7.423 -0.8803 -0.1889 -0.5708
 7679SOL    HW134496   2.499   3.245   7.371  1.5989 -0.7810  3.2141
 7679SOL    HW234497   2.469   3.252   7.505 -1.5042  0.8281  0.1117
 7680SOL     OW34498   4.613   0.613   5.092  0.0212  0.1392 -0.4573
 7680SOL    HW134499   4.556   0.663   5.151  1.6110  0.4416  0.8251
 7680SOL    HW234500   4.700   0.627   5.128  0.3273 -3.7958  0.3645
 7681SOL     OW34501   1.001   1.530   2.693  0.0771  0.4447  0.6169
 7681SOL    HW134502   0.965   1.524   2.782  0.4112 -1.2504  0.6563
 7681SOL    HW234503   1.024   1.622   2.681 -0.9191  0.6341  0.1919
 7682SOL     OW34504   1.802   0.904   9.373  0.3826  0.5370  0.9637
 7682SOL    HW134505   1.880   0.919   9.426  0.8692  1.4663 -0.0261
 7682SOL    HW234506   1.793   0.992   9.338  1.8521 -0.3401 -1.6178
 7683SOL     OW34507   4.161   4.619  15.112 -0.0494 -0.0003  0.1486
 7683SOL    HW134508   4.073   4.627  15.074  0.0691 -1.1302 -0.3700
 7683SOL    HW234509   4.155   4.530  15.148 -0.3447  0.0449  0.2085
 7684SOL     OW34510   4.664   2.365   3.907 -0.3381 -0.0804  0.2629
 7684SOL    HW134511   4.601   2.359   3.979 -0.3740  0.5354  0.2862
 7684SOL    HW234512   4.713   2.440   3.941 -0.8469  0.4953 -0.2797
 7685SOL     OW34513   2.705   3.642   0.556 -0.9172  0.1936  0.1466
 7685SOL    HW134514   2.751   3.669   0.476 -1.7540  0.9746 -0.0724
 7685SOL    HW234515   2.716   3.727   0.599 -0.7444 -0.3383  1.1551
 7686SOL     OW34516   4.478   2.453   8.530  0.2666  0.2324 -0.2259
 7686SOL    HW134517   4.543   2.514   8.566  0.2409 -1.2774  2.3606
 7686SOL    HW234518   4.485   2.383   8.594  0.9029  0.4278 -0.0803
 7687SOL     OW34519   4.005   0.739   8.092  0.3048  0.2129 -0.3456
 7687SOL    HW134520   3.990   0.709   8.003 -2.4524 -0.0242  0.2029
 7687SOL    HW234521   4.083   0.691   8.120 -1.3617 -2.6300 -0.5062
 7688SOL     OW34522   3.107   0.487  11.158  0.3300  0.0464  0.0569
 7688SOL    HW134523   3.188   0.442  11.181 -0.2791 -0.3099  1.5163
 7688SOL    HW234524   3.144   0.575  11.150  0.5907 -0.1311 -0.6614
 7689SOL     OW34525   4.427   3.688   0.197 -0.3268 -0.3333  0.4276
 7689SOL    HW134526   4.382   3.772   0.206  0.2012  0.2259 -2.2841
 7689SOL    HW234527   4.434   3.688   0.102 -0.1156 -0.6312  0.4406
 7690SOL     OW34528   3.538   2.094   6.824  0.2241 -0.0728 -0.2485
 7690SOL    HW134529   3.543   2.062   6.734 -0.4068 -1.1465  0.0964
 7690SOL    HW234530   3.462   2.046   6.857 -2.1763  3.0920 -1.2501
 7691SOL     OW34531   4.048   2.064  16.125 -0.4236  0.3907 -0.3671
 7691SOL    HW134532   4.099   2.118  16.064  0.6883 -0.5831 -0.3158
 7691SOL    HW234533   3.975   2.037  16.069 -2.0310  0.6543  1.6096
 7692SOL     OW34534   0.400   4.322   7.317  0.5124  0.4425  0.4916
 7692SOL    HW134535   0.467   4.340   7.251 -0.4217  1.4684 -0.1897
 7692SOL    HW234536   0.439   4.371   7.389  2.5752 -0.7314  0.1556
 7693SOL     OW34537   0.994   4.402  12.200 -0.2886 -0.1535  0.3026
 7693SOL    HW134538   1.011   4.418  12.293  0.1157  1.3826 -0.0347
 7693SOL    HW234539   1.030   4.313  12.198  2.0009  0.7968 -0.7603
 7694SOL     OW34540   1.208   1.007   7.497 -0.2355 -0.5949  0.0634
 7694SOL    HW134541   1.302   1.001   7.477 -0.5132 -0.9721 -1.1552
 7694SOL    HW234542   1.171   0.950   7.429 -1.2100  0.8286 -0.6028
 7695SOL     OW34543   1.463   4.164  13.139  0.5895  0.2874 -0.1196
 7695SOL    HW134544   1.396   4.231  13.124  0.2286 -0.0606 -0.0682
 7695SOL    HW234545   1.497   4.172  13.050 -1.0857  1.7711 -0.6213
 7696SOL     OW34546   4.443   4.446   7.103 -0.4293  0.7307 -0.4118
 7696SOL    HW134547   4.525   4.401   7.083  1.1882  1.8816  3.6739
 7696SOL    HW234548   4.464   4.538   7.093 -1.7503  0.9356 -1.2944
 7697SOL     OW34549   3.446   0.327  13.842  0.1043 -0.0087  0.0237
 7697SOL    HW134550   3.456   0.255  13.779  1.4445 -0.7334  1.0724
 7697SOL    HW234551   3.413   0.279  13.918 -1.8794  0.5911 -0.4602
 7698SOL     OW34552   0.618   0.227   6.154 -0.0359 -0.5913 -0.2377
 7698SOL    HW134553   0.584   0.297   6.098 -0.4243 -0.3776  0.2771
 7698SOL    HW234554   0.678   0.183   6.093  0.6451 -1.2968  0.9468
 7699SOL     OW34555   4.444   0.063   9.700  0.2478  0.6330  0.8556
 7699SOL    HW134556   4.390   0.142   9.695 -0.0751  0.4287  1.0480
 7699SOL    HW234557   4.436   0.045   9.794 -0.6277 -1.2994  0.4228
 7700SOL     OW34558   2.238   0.872  12.052 -0.1774 -0.4793 -0.2267
 7700SOL    HW134559   2.245   0.962  12.020  0.5075  0.5217  2.7684
 7700SOL    HW234560   2.310   0.828  12.008  0.5353 -0.6689  1.1421
 7701SOL     OW34561   3.486   4.279   5.868  0.1820  0.5110  0.3905
 7701SOL    HW134562   3.452   4.300   5.955 -1.9353 -1.0825 -0.0620
 7701SOL    HW234563   3.467   4.360   5.822  0.4869  0.4724  0.1943
 7702SOL     OW34564   2.910   2.773   8.303 -0.0167  0.2462  0.7745
 7702SOL    HW134565   2.901   2.791   8.397  0.4924 -1.2546  1.1089
 7702SOL    HW234566   2.910   2.863   8.272 -0.9267 -0.6895 -1.9942
 7703SOL     OW34567   0.810   3.537   6.526  0.0586  0.8430  0.0140
 7703SOL    HW134568   0.823   3.601   6.596  0.4372 -3.6986  4.0470
 7703SOL    HW234569   0.844   3.460   6.572 -1.1311 -0.2836 -0.9971
 7704SOL     OW34570   2.296   1.863   4.874 -0.0600 -0.2229  0.1575
 7704SOL    HW134571   2.348   1.925   4.925 -0.5511  1.5660 -1.4972
 7704SOL    HW234572   2.304   1.780   4.922  0.6821  0.5317  1.3246
 7705SOL     OW34573   1.329   1.185   0.674 -0.1212 -0.6179  0.4576
 7705SOL    HW134574   1.287   1.107   0.637 -0.8736 -0.5305  1.1324
 7705SOL    HW234575   1.341   1.152   0.763  0.5394  0.9012  0.9186
 7706SOL     OW34576   4.114   4.686  16.695  0.1861  0.2478  0.3171
 7706SOL    HW134577   4.094   0.020  16.768 -1.3868 -0.8890  0.8294
 7706SOL    HW234578   4.039   4.697  16.637  1.3276  2.3970 -0.7473
 7707SOL     OW34579   0.717   2.488   9.818 -0.1960  0.9097  0.1287
 7707SOL    HW134580   0.641   2.480   9.760 -0.2961 -1.0544  0.5474
 7707SOL    HW234581   0.765   2.422   9.769  0.4538  0.7290  1.0063
 7708SOL     OW34582   0.581   2.550   2.950  0.1444  0.0929  0.2413
 7708SOL    HW134583   0.567   2.459   2.924 -1.5096  0.8529 -1.5284
 7708SOL    HW234584   0.543   2.586   2.870  0.1219 -2.6974 -0.9790
 7709SOL     OW34585   0.899   3.082  16.977  0.3060 -0.2530  0.1538
 7709SOL    HW134586   0.813   3.086  16.937  0.5828 -2.2175 -0.6607
 7709SOL    HW234587   0.889   3.050  17.067  2.1509  1.3598  0.9240
 7710SOL     OW34588   0.325   0.536   0.458  0.3261 -0.2950 -0.4938
 7710SOL    HW134589   0.384   0.607   0.433  0.4605 -1.2997 -3.0554
 7710SOL    HW234590   0.306   0.557   0.549  1.4445 -0.4398 -0.2234
 7711SOL     OW34591   1.947   0.510   4.162 -0.2790  0.1972 -0.0428
 7711SOL    HW134592   1.942   0.456   4.082 -1.8996  0.7205 -0.2939
 7711SOL    HW234593   1.868   0.483   4.210  0.4696 -1.2982  0.3482
 7712SOL     OW34594   2.499   4.231   2.395 -0.2232 -0.0517 -0.1308
 7712SOL    HW134595   2.430   4.297   2.399 -0.5895 -0.3632 -1.1406
 7712SOL    HW234596   2.565   4.266   2.335 -0.1315  0.2089  0.1248
 7713SOL     OW34597   0.631   3.194   7.148  0.5747 -0.0645 -0.2957
 7713SOL    HW134598   0.545   3.237   7.146  0.6286 -0.0610 -2.2164
 7713SOL    HW234599   0.621   3.144   7.229 -0.2385  0.0940 -0.2968
 7714SOL     OW34600   0.570   0.484   2.873 -0.1059 -0.2202 -0.4613
 7714SOL    HW134601   0.608   0.497   2.786  1.6843  0.5738  0.4372
 7714SOL    HW234602   0.479   0.467   2.849 -0.3702 -0.1093  0.4547
 7715SOL     OW34603   0.905   1.321   6.898  0.0068 -0.1774  0.2345
 7715SOL    HW134604   0.823   1.369   6.883 -2.2400 -2.7166  4.3953
 7715SOL    HW234605   0.943   1.390   6.953 -1.3406  0.5600  0.2520
 7716SOL     OW34606   0.265   1.764  10.976 -0.1274 -0.2222 -0.6702
 7716SOL    HW134607   0.230   1.796  10.893  1.8747  0.0699 -1.4021
 7716SOL    HW234608   0.301   1.685  10.934 -2.3349 -1.7095  0.2224
 7717SOL     OW34609   1.862   2.738  12.917  0.7875  0.0458  0.3461
 7717SOL    HW134610   1.931   2.744  12.852 -1.8595  0.3448 -2.4437
 7717SOL    HW234611   1.799   2.695  12.859  1.6347 -2.6815  1.4488
 7718SOL     OW34612   2.553   2.047   1.678 -0.2297  0.8427 -0.3420
 7718SOL    HW134613   2.579   2.135   1.705  0.6707  0.7098 -0.7515
 7718SOL    HW234614   2.527   2.012   1.763  1.1413 -1.7328 -0.9800
 7719SOL     OW34615   1.196   4.004   2.584 -0.0336 -0.3368 -0.0063
 7719SOL    HW134616   1.215   4.001   2.678 -0.3184  4.1154  0.2019
 7719SOL    HW234617   1.267   4.050   2.539 -0.1977  0.5393  0.6465
 7720SOL     OW34618   3.681   1.216   4.312 -0.5499  0.3603  0.4027
 7720SOL    HW134619   3.589   1.241   4.303 -1.1103 -2.3846 -1.5709
 7720SOL    HW234620   3.683   1.171   4.228 -1.3138 -0.8436  1.0173
 7721SOL     OW34621   3.754   2.714   8.779 -0.1291 -0.3246  0.1909
 7721SOL    HW134622   3.784   2.629   8.749  2.5198  0.3258  1.0586
 7721SOL    HW234623   3.837   2.733   8.822  1.5852 -1.8375 -2.4450
 7722SOL     OW34624   2.307   3.025  10.001  0.0748 -0.2846  0.1300
 7722SOL    HW134625   2.354   2.972  10.065 -0.0818 -0.5139  0.0571
 7722SOL    HW234626   2.273   2.957   9.942  0.5570  0.9570 -1.5690
 7723SOL     OW34627   1.808   1.252   8.398 -0.0376  0.4856 -0.0089
 7723SOL    HW134628   1.803   1.161   8.428  0.7460  0.5067  0.1895
 7723SOL    HW234629   1.720   1.281   8.423  0.0871  1.4856 -0.7475
 7724SOL     OW34630   0.400   3.310  11.428  0.0581 -0.1725 -0.8007
 7724SOL    HW134631   0.431   3.352  11.348  0.1398  0.8868 -0.2189
 7724SOL    HW234632   0.452   3.230  11.433  0.8187  0.2652 -1.6846
 7725SOL     OW34633   0.041   3.819  16.125  0.3531 -0.2080  0.3697
 7725SOL    HW134634   0.023   3.905  16.088  2.2904  0.2108  0.3657
 7725SOL    HW234635   0.007   3.761  16.058 -1.7290  0.3333  0.9620
 7726SOL     OW34636   2.052   4.299  13.192  0.5668 -0.4880  0.0628
 7726SOL    HW134637   2.111   4.224  13.191 -1.7034 -2.3025  0.2730
 7726SOL    HW234638   2.086   4.340  13.270  3.5070 -2.8340  0.0097
 7727SOL     OW34639   0.527   0.294  16.026  0.5404  0.4221  0.2452
 7727SOL    HW134640   0.530   0.379  16.069  2.5497  1.0440 -1.1146
 7727SOL    HW234641   0.454   0.254  16.074  0.1863 -0.1504 -0.7765
 7728SOL     OW34642   2.905   4.129   7.793  0.1638  0.6300  0.5789
 7728SOL    HW134643   2.978   4.081   7.754 -1.7578 -0.5743 -1.5183
 7728SOL    HW234644   2.949   4.204   7.833  0.6634  1.1842 -1.0163
 7729SOL     OW34645   1.390   2.237   8.823  0.1701  0.2495  0.6953
 7729SOL    HW134646   1.395   2.292   8.901 -0.7283  0.6880  0.4547
 7729SOL    HW234647   1.407   2.155   8.870  1.6086  0.2735  0.2046
 7730SOL     OW34648   2.028   1.159  16.618  0.1895 -0.2104 -0.0742
 7730SOL    HW134649   2.076   1.082  16.585  1.0088 -0.4171  1.6044
 7730SOL    HW234650   1.958   1.123  16.672  0.3595 -1.8096 -0.9191
 7731SOL     OW34651   3.642   3.949   3.808 -0.2115  0.4517  0.0447
 7731SOL    HW134652   3.618   3.959   3.716  0.8332  0.5613 -0.2185
 7731SOL    HW234653   3.672   3.858   3.806  0.3171  0.5773  2.0873
 7732SOL     OW34654   4.645   2.087   6.212 -0.0026  0.1618  0.3241
 7732SOL    HW134655   0.004   2.042   6.217 -0.2162 -0.6969 -3.4463
 7732SOL    HW234656   4.650   2.151   6.141  1.4524 -0.1306  0.1555
 7733SOL     OW34657   1.181   2.918   7.432  0.0900 -0.5074 -0.1694
 7733SOL    HW134658   1.214   2.967   7.357  0.1137 -0.4755 -0.1376
 7733SOL    HW234659   1.087   2.919   7.413 -0.1616 -1.3362  1.0365
 7734SOL     OW34660   1.082   0.264  13.674  0.2502 -0.7644  0.0623
 7734SOL    HW134661   1.070   0.278  13.580 -0.8497  0.9959  0.4739
 7734SOL    HW234662   0.998   0.229  13.702 -1.6984  2.1041 -2.2319
 7735SOL     OW34663   0.881   4.414   3.521 -0.0189  0.1579 -0.9857
 7735SOL    HW134664   0.844   4.493   3.483 -1.6510 -2.2279 -4.3495
 7735SOL    HW234665   0.804   4.384   3.570  0.0608  0.4659 -0.6727
 7736SOL     OW34666   0.402   0.005   6.884  0.0103 -0.1232 -0.1454
 7736SOL    HW134667   0.322   0.044   6.918 -0.3118 -1.1416  0.2826
 7736SOL    HW234668   0.384   4.638   6.902  1.5225  0.5197  4.4395
 7737SOL     OW34669   2.219   1.609   5.019 -0.5289 -0.0486 -0.0277
 7737SOL    HW134670   2.213   1.608   5.115  1.9265 -0.5919  0.1225
 7737SOL    HW234671   2.125   1.621   5.001 -0.2806  1.2247 -0.5212
 7738SOL     OW34672   0.869   2.359   7.494 -0.1501  0.3091  0.6228
 7738SOL    HW134673   0.911   2.345   7.579 -0.5478  0.5506  0.8580
 7738SOL    HW234674   0.948   2.344   7.441 -0.3770 -2.4223  1.0486
 7739SOL     OW34675   2.383   0.694   2.214 -0.0770  0.5338  0.5424
 7739SOL    HW134676   2.401   0.665   2.125  0.7135  0.9449  0.5669
 7739SOL    HW234677   2.298   0.655   2.236  0.1968 -0.4102 -0.0748
 7740SOL     OW34678   3.058   4.567   6.743 -0.5528 -0.4443  0.1280
 7740SOL    HW134679   3.137   4.594   6.695  0.8441  2.7234  4.1825
 7740SOL    HW234680   2.987   4.624   6.716  0.1972 -0.3737 -1.6569
 7741SOL     OW34681   0.792   3.443  17.332 -0.2403  0.5667  0.6213
 7741SOL    HW134682   0.747   3.501  17.271  3.0669  0.8307 -1.5918
 7741SOL    HW234683   0.824   3.510  17.391  0.5533  0.9655 -0.2608
 7742SOL     OW34684   2.533   2.934   3.513  0.3170  0.1517  0.5988
 7742SOL    HW134685   2.531   3.010   3.455  3.4321 -0.1577  0.1015
 7742SOL    HW234686   2.614   2.945   3.563 -0.2348  2.0507  1.0900
 7743SOL     OW34687   2.744   2.238   9.928  0.2609 -0.0183 -0.0403
 7743SOL    HW134688   2.691   2.192   9.863 -0.6682 -1.1504  1.5016
 7743SOL    HW234689   2.713   2.184  10.001  0.0557  0.1004 -0.0397
 7744SOL     OW34690   0.452   4.585  16.261  0.5100 -0.2069  0.2945
 7744SOL    HW134691   0.509   4.660  16.278  0.1340  0.0960  0.2076
 7744SOL    HW234692   0.374   4.591  16.316 -0.3286 -0.7414 -0.8478
 7745SOL     OW34693   3.043   2.298  13.070  0.1731 -0.0594 -0.4283
 7745SOL    HW134694   3.129   2.275  13.105 -0.5592  0.5635  1.7497
 7745SOL    HW234695   3.053   2.249  12.988  0.1908  0.2937 -0.6353
 7746SOL     OW34696   2.717   2.028   7.564  0.5330  0.7335 -0.8295
 7746SOL    HW134697   2.807   2.009   7.536 -0.0211 -0.1012 -2.0554
 7746SOL    HW234698   2.662   2.035   7.486  0.6367  0.9017 -0.8854
 7747SOL     OW34699   2.679   3.314  13.901  0.2148  0.5741 -0.6369
 7747SOL    HW134700   2.748   3.283  13.960  1.3693  0.2611 -2.1244
 7747SOL    HW234701   2.641   3.228  13.882 -2.9727  1.5104  1.6713
 7748SOL     OW34702   3.180   3.489  17.642  0.1983 -0.3349 -0.0609
 7748SOL    HW134703   3.237   3.419  17.611 -0.3223  0.2774 -2.4225
 7748SOL    HW234704   3.147   3.448   0.017 -0.1431 -1.9253 -1.0152
 7749SOL     OW34705   1.969   2.055   0.914 -0.0714 -0.0529  0.5357
 7749SOL    HW134706   1.996   1.987   0.852 -0.5874 -1.3853  1.7780
 7749SOL    HW234707   1.967   2.000   0.992  0.7068 -1.9786 -0.7918
 7750SOL     OW34708   1.056   1.969   7.825  0.1412 -0.0520  0.2640
 7750SOL    HW134709   1.082   2.021   7.750 -0.9051  3.5540  2.3697
 7750SOL    HW234710   1.135   1.919   7.847  0.4951  1.3857  2.2737
 7751SOL     OW34711   0.253   4.393   9.629  0.7591  0.1234  0.1674
 7751SOL    HW134712   0.172   4.442   9.645  0.3505  0.0521 -1.6323
 7751SOL    HW234713   0.312   4.450   9.581  1.6370 -0.6963  0.2809
 7752SOL     OW34714   2.630   1.994  12.273  0.5200  0.7663  0.2015
 7752SOL    HW134715   2.555   1.981  12.332  0.3595 -0.3507 -0.2489
 7752SOL    HW234716   2.610   2.083  12.243  0.0217  0.8030  0.6306
 7753SOL     OW34717   4.067   1.978   5.213  0.2217  0.3581 -0.3251
 7753SOL    HW134718   4.151   1.944   5.243 -0.3152 -1.3181 -0.7526
 7753SOL    HW234719   4.034   2.002   5.300 -1.5366 -0.6943 -0.7021
 7754SOL     OW34720   3.321   3.748   2.087 -0.4703  0.2781  0.2849
 7754SOL    HW134721   3.290   3.834   2.057 -0.8963 -0.7609 -2.1820
 7754SOL    HW234722   3.413   3.766   2.103 -0.6340 -0.0680  1.6389
 7755SOL     OW34723   2.210   3.981  11.191  0.2746 -0.3867  0.4030
 7755SOL    HW134724   2.268   4.038  11.140  0.3132  0.8828  1.8633
 7755SOL    HW234725   2.149   3.960  11.120 -0.5310  0.7799  0.7444
 7756SOL     OW34726   0.239   0.678   7.750 -0.0836 -0.1890 -0.1840
 7756SOL    HW134727   0.178   0.606   7.738  0.1850 -0.9258  2.8519
 7756SOL    HW234728   0.233   0.681   7.845 -3.1004  2.3238 -0.4449
 7757SOL     OW34729   1.491   2.752  11.412 -0.5878 -0.6287 -0.6363
 7757SOL    HW134730   1.583   2.726  11.423 -0.9703 -2.4991 -1.8941
 7757SOL    HW234731   1.485   2.762  11.317  1.2752 -0.1410 -0.7053
 7758SOL     OW34732   0.006   2.605   5.195  0.0362  0.1880 -0.3587
 7758SOL    HW134733   0.045   2.681   5.152  2.7866 -0.7889  0.4296
 7758SOL    HW234734   0.051   2.535   5.148  2.5454  1.0333  0.7529
 7759SOL     OW34735   2.307   1.803   4.268 -0.4235 -0.3590 -0.0737
 7759SOL    HW134736   2.337   1.851   4.346  2.0194 -2.9861  0.6049
 7759SOL    HW234737   2.280   1.876   4.212 -0.1614  0.6782  1.1476
 7760SOL     OW34738   2.673   3.910   0.626 -0.2407  0.3235 -0.0340
 7760SOL    HW134739   2.608   3.972   0.659 -0.5101 -0.4768  0.9523
 7760SOL    HW234740   2.740   3.970   0.596  0.0891 -0.0577 -0.0628
 7761SOL     OW34741   1.555   2.251   6.626 -0.2265 -0.7756 -0.1399
 7761SOL    HW134742   1.616   2.177   6.625  0.9101  0.1307  0.7649
 7761SOL    HW234743   1.618   2.322   6.608 -0.2376 -0.5354  0.7592
 7762SOL     OW34744   1.850   1.833  11.064  0.2083 -0.0491  0.1393
 7762SOL    HW134745   1.829   1.910  11.117  0.8846 -0.2630  0.7215
 7762SOL    HW234746   1.761   1.818  11.033  0.8060 -0.3199 -1.4340
 7763SOL     OW34747   3.645   4.291  16.956 -0.1234 -0.2499  0.1068
 7763SOL    HW134748   3.650   4.298  16.861 -1.5079 -3.2094 -0.1840
 7763SOL    HW234749   3.714   4.356  16.972  1.0306 -1.4036 -0.1907
 7764SOL     OW34750   4.432   3.805  16.160  0.0365  0.7249 -0.3046
 7764SOL    HW134751   4.344   3.842  16.157 -0.7324 -1.1061 -0.9218
 7764SOL    HW234752   4.434   3.758  16.076  0.1666 -1.0910  0.7001
 7765SOL     OW34753   3.427   1.972   8.760 -0.1101 -0.6589  0.3075
 7765SOL    HW134754   3.428   2.067   8.750  0.7385 -0.3523  3.0758
 7765SOL    HW234755   3.470   1.949   8.678 -3.1743 -1.3734 -1.0541
 7766SOL     OW34756   1.760   3.873   2.151  0.0791 -0.0639 -0.3703
 7766SOL    HW134757   1.814   3.798   2.179  0.9862 -0.1764 -2.3910
 7766SOL    HW234758   1.818   3.898   2.079 -0.0346 -1.5290 -0.9839
 7767SOL     OW34759   0.502   1.349  11.039 -0.1731  0.4283  0.4604
 7767SOL    HW134760   0.482   1.263  11.002  0.5069  0.3306  0.3298
 7767SOL    HW234761   0.493   1.335  11.134 -4.0932 -0.3974 -0.0424
 7768SOL     OW34762   0.850   2.811  12.617 -0.6425  0.1726 -0.4001
 7768SOL    HW134763   0.821   2.732  12.572 -3.9096  0.3153  1.4494
 7768SOL    HW234764   0.771   2.837  12.664 -0.7163  2.1916 -1.6551
 7769SOL     OW34765   4.537   3.712  17.638 -0.1564 -0.0781 -0.3964
 7769SOL    HW134766   4.462   3.764  17.608 -0.6117  1.1402  2.9237
 7769SOL    HW234767   4.606   3.738  17.577 -0.4049 -1.1838 -1.1468
 7770SOL     OW34768   4.590   4.000   7.833 -0.1791  0.2716 -0.0185
 7770SOL    HW134769   4.569   4.093   7.844 -1.2088 -0.0312  0.6272
 7770SOL    HW234770   4.507   3.973   7.793  0.9118  0.5181 -2.4394
 7771SOL     OW34771   2.452   4.694   7.237 -0.4514  0.4239 -0.1779
 7771SOL    HW134772   2.479   4.668   7.325  0.0474  2.0524  0.1403
 7771SOL    HW234773   2.360   4.667   7.240  0.0990 -1.3168  1.0445
 7772SOL     OW34774   3.275   2.382   8.234  0.1919  0.5850 -0.5564
 7772SOL    HW134775   3.220   2.455   8.204  0.4750  1.9076  2.1336
 7772SOL    HW234776   3.254   2.373   8.326  0.2407 -1.8191 -0.7760
 7773SOL     OW34777   0.118   3.833   5.706 -0.3072 -0.0332  0.1374
 7773SOL    HW134778   0.207   3.840   5.740 -0.8928 -0.0342  1.6607
 7773SOL    HW234779   0.066   3.817   5.785  1.6110 -1.7070  1.0558
 7774SOL     OW34780   0.923   3.842   4.238  0.2061  0.2098  0.0712
 7774SOL    HW134781   0.842   3.829   4.189  0.8403 -0.7769 -0.7290
 7774SOL    HW234782   0.976   3.764   4.225  0.6202  0.4018  0.5896
 7775SOL     OW34783   4.227   2.046   2.337  0.1549 -0.2594  0.0531
 7775SOL    HW134784   4.310   2.086   2.313 -0.0122  1.5407  2.4459
 7775SOL    HW234785   4.211   1.968   2.284  2.5004 -0.3916 -0.4691
 7776SOL     OW34786   3.109   0.335   1.977 -0.1350 -0.1012  0.3464
 7776SOL    HW134787   3.118   0.240   1.983 -3.2096 -0.5246 -1.4185
 7776SOL    HW234788   3.035   0.339   1.916  0.2600  0.4090 -0.0992
 7777SOL     OW34789   3.131   2.333   8.464  0.9556  0.1483 -0.1506
 7777SOL    HW134790   3.064   2.394   8.494  0.6657  0.3968 -1.3104
 7777SOL    HW234791   3.075   2.260   8.439 -0.7051  1.6489 -0.7687
 7778SOL     OW34792   3.608   3.396   7.211  0.0194  0.7920  0.5552
 7778SOL    HW134793   3.687   3.344   7.231  0.2114  0.3138 -1.4444
 7778SOL    HW234794   3.594   3.364   7.122 -1.2797 -1.1263  1.4443
 7779SOL     OW34795   4.003   0.361   7.984 -0.2307  0.6336 -0.2039
 7779SOL    HW134796   3.976   0.278   7.944  0.8413 -1.1234  2.6797
 7779SOL    HW234797   3.929   0.375   8.043  1.3251 -0.4938  2.0314
 7780SOL     OW34798   3.310   2.246  11.309  0.2659  0.5644  0.1481
 7780SOL    HW134799   3.360   2.198  11.243 -0.8288 -1.6479  0.9253
 7780SOL    HW234800   3.337   2.204  11.391 -2.8304  1.0765  1.4537
 7781SOL     OW34801   1.514   1.836   3.182  0.6324  0.0928  0.1351
 7781SOL    HW134802   1.464   1.905   3.225  0.5906  1.5146 -2.1484
 7781SOL    HW234803   1.496   1.869   3.094 -2.3371 -1.6348  0.1134
 7782SOL     OW34804   0.341   3.145   4.549  0.0676  0.4872 -0.3439
 7782SOL    HW134805   0.357   3.156   4.456 -0.9277 -0.9447 -0.6630
 7782SOL    HW234806   0.282   3.070   4.553  0.5308  0.0020 -2.9116
 7783SOL     OW34807   4.652   3.217   6.009  0.1036  0.2869  0.2222
 7783SOL    HW134808   4.711   3.176   5.946 -0.4241 -0.2117  0.0448
 7783SOL    HW234809   4.718   3.276   6.045  0.2841 -0.4351  1.0669
 7784SOL     OW34810   4.587   2.820   5.962  0.2905 -0.9192 -0.0418
 7784SOL    HW134811   4.527   2.866   5.903 -0.5541 -2.3696 -0.3147
 7784SOL    HW234812   4.596   2.868   6.045 -0.6011 -0.0722 -0.4402
 7785SOL     OW34813   1.614   3.083   9.752 -0.0933 -0.6567 -0.2006
 7785SOL    HW134814   1.533   3.031   9.759 -0.0696 -0.6916 -0.1836
 7785SOL    HW234815   1.596   3.146   9.682  0.1922 -0.9723 -0.5561
 7786SOL     OW34816   0.756   0.624   5.912 -0.3152 -0.0143 -0.0451
 7786SOL    HW134817   0.750   0.533   5.883  0.5840  0.5740 -2.1041
 7786SOL    HW234818   0.734   0.663   5.827 -1.6770 -1.1844 -0.2390
 7787SOL     OW34819   3.217   4.589  14.539 -0.1777 -0.4229  0.3798
 7787SOL    HW134820   3.192   4.681  14.546  0.1501 -0.3325  0.3728
 7787SOL    HW234821   3.185   4.561  14.625 -0.8317  0.9094  0.5721
 7788SOL     OW34822   3.454   1.166  10.474  0.7142 -0.6074  0.3046
 7788SOL    HW134823   3.514   1.140  10.404 -1.2175  1.2280 -2.0630
 7788SOL    HW234824   3.496   1.114  10.542 -0.5328 -2.7134 -0.5100
 7789SOL     OW34825   3.515   2.822   7.716  0.6733 -0.0485 -0.2217
 7789SOL    HW134826   3.600   2.851   7.749 -0.0307  0.3900  1.1802
 7789SOL    HW234827   3.534   2.736   7.677  0.3769 -0.9653  1.6483
 7790SOL     OW34828   0.624   4.558   8.653  0.0523  0.0085  1.1954
 7790SOL    HW134829   0.625   4.647   8.688  0.7128 -0.1090  1.4777
 7790SOL    HW234830   0.529   4.553   8.646  0.1641  3.3602 -2.6499
 7791SOL     OW34831   4.093   1.975   8.009  0.5275 -0.2692  0.5351
 7791SOL    HW134832   4.152   2.039   7.969  0.1266 -0.0138  0.3480
 7791SOL    HW234833   4.028   1.968   7.939  2.5885  1.2974 -1.5476
 7792SOL     OW34834   0.439   0.054   9.642 -0.2683  0.1146  0.0848
 7792SOL    HW134835   0.408   0.112   9.711  0.0638  3.3660 -2.5241
 7792SOL    HW234836   0.438   4.698   9.692 -0.5621  0.7404  1.1080
 7793SOL     OW34837   4.399   3.339   6.722  0.1015 -0.2260  1.0326
 7793SOL    HW134838   4.304   3.335   6.733  0.3081  1.5639  3.2911
 7793SOL    HW234839   4.419   3.246   6.730 -0.3361 -0.5783 -1.7959
 7794SOL     OW34840   3.993   0.522   4.696  0.2870  0.1628  0.2236
 7794SOL    HW134841   3.927   0.486   4.636 -0.7468 -1.2602  2.2161
 7794SOL    HW234842   3.978   0.476   4.779 -1.2805 -0.7181 -0.5497
 7795SOL     OW34843   3.336   0.966  15.198 -0.0762  0.7449  0.1096
 7795SOL    HW134844   3.269   0.951  15.265 -0.4240 -1.3697 -0.7238
 7795SOL    HW234845   3.390   1.038  15.232  1.3803 -0.1892 -0.2684
 7796SOL     OW34846   3.443   1.410   0.478 -0.3041 -0.1959  0.4131
 7796SOL    HW134847   3.509   1.430   0.543 -0.9925  3.3462  0.0409
 7796SOL    HW234848   3.417   1.322   0.503 -1.7834  0.1583  0.1278
 7797SOL     OW34849   3.851   3.854   5.852  0.0758  0.0858  0.0950
 7797SOL    HW134850   3.803   3.800   5.916  0.2429 -2.3243 -1.7906
 7797SOL    HW234851   3.908   3.786   5.816 -0.3094 -0.3917  0.3643
 7798SOL     OW34852   2.339   4.391   6.437 -0.0864  0.3083 -0.1428
 7798SOL    HW134853   2.320   4.451   6.365  0.2624  0.1181 -0.3895
 7798SOL    HW234854   2.266   4.411   6.496  0.3366  1.5148 -0.0202
 7799SOL     OW34855   4.462   3.914  15.291 -0.2832  0.0835  0.0040
 7799SOL    HW134856   4.415   3.835  15.320  0.7302  0.0860  1.6431
 7799SOL    HW234857   4.398   3.981  15.313  0.3798  0.8381 -0.3750
 7800SOL     OW34858   2.076   1.251   8.853 -0.1622  0.8985  0.1324
 7800SOL    HW134859   2.132   1.187   8.808 -1.1281 -1.3325  2.0647
 7800SOL    HW234860   2.005   1.247   8.789  0.4249 -1.2521 -0.4113
 7801SOL     OW34861   1.425   3.123   3.437  0.1024 -0.0254  0.2408
 7801SOL    HW134862   1.411   3.058   3.367 -2.8659  1.6006 -0.6873
 7801SOL    HW234863   1.495   3.174   3.397 -1.8263  1.9174 -0.6602
 7802SOL     OW34864   1.213   3.308   6.578 -0.6809  0.1112  0.5885
 7802SOL    HW134865   1.247   3.224   6.548  0.0929 -0.2350  2.4755
 7802SOL    HW234866   1.269   3.320   6.654  1.1495  0.1644 -0.7672
 7803SOL     OW34867   2.468   3.079   8.491 -0.5411 -0.5608 -0.2682
 7803SOL    HW134868   2.401   3.044   8.433  0.0344 -0.8502 -0.7551
 7803SOL    HW234869   2.525   3.135   8.439 -0.1587 -1.0061 -0.3318
 7804SOL     OW34870   1.939   2.777   9.267  0.6537  0.0850  0.0941
 7804SOL    HW134871   1.988   2.717   9.212 -0.7230 -1.1669  0.2221
 7804SOL    HW234872   1.853   2.738   9.251 -0.0016  1.5186  0.0360
 7805SOL     OW34873   4.495   3.792   7.129 -0.0415 -0.0278 -0.0147
 7805SOL    HW134874   4.530   3.718   7.078  0.7245  0.1441  0.2756
 7805SOL    HW234875   4.458   3.751   7.207 -1.9978  1.3564 -0.2137
 7806SOL     OW34876   3.613   0.920   4.954 -0.3860 -0.9291 -0.3180
 7806SOL    HW134877   3.538   0.907   5.013  0.2247  0.3540  0.7458
 7806SOL    HW234878   3.690   0.913   5.010 -0.1523 -1.3373 -0.6907
 7807SOL     OW34879   3.745   1.561   6.617 -0.2616 -0.4781  0.4134
 7807SOL    HW134880   3.766   1.651   6.639 -0.6433 -1.0230  3.1095
 7807SOL    HW234881   3.833   1.524   6.610 -0.1348 -0.1451  0.2767
 7808SOL     OW34882   4.592   1.721   8.452 -0.1561  0.0871  0.0917
 7808SOL    HW134883   4.660   1.765   8.503  0.0809 -0.3318  0.1292
 7808SOL    HW234884   4.618   1.629   8.452  0.5766  0.2977 -0.1402
 7809SOL     OW34885   1.982   0.814   5.738  0.0205  0.4164  0.8577
 7809SOL    HW134886   2.006   0.779   5.652 -0.4115 -0.8388  1.2490
 7809SOL    HW234887   1.931   0.740   5.769  1.9046 -0.8459  0.9405
 7810SOL     OW34888   4.386   0.278   6.363 -0.2159  0.1219  0.0627
 7810SOL    HW134889   4.455   0.288   6.429  0.3227 -1.6276 -0.2406
 7810SOL    HW234890   4.378   0.363   6.320  3.1909  1.1965  1.5587
 7811SOL     OW34891   4.224   3.530   0.065 -0.1380 -0.3255  0.1254
 7811SOL    HW134892   4.268   3.559   0.145  1.1023 -1.3923 -0.1587
 7811SOL    HW234893   4.297   3.513   0.006  0.1929  0.0647  0.4242
 7812SOL     OW34894   3.258   4.002   2.360 -0.0857 -0.0955 -0.0903
 7812SOL    HW134895   3.336   3.950   2.380  0.4260  0.1690 -1.3830
 7812SOL    HW234896   3.281   4.035   2.273  0.8158 -2.3053 -0.6891
 7813SOL     OW34897   1.186   4.484   2.258  0.0880 -0.2302 -0.2885
 7813SOL    HW134898   1.255   4.419   2.272 -0.6836 -1.1328 -0.6418
 7813SOL    HW234899   1.179   4.528   2.343 -0.1174 -2.0505  0.6319
 7814SOL     OW34900   3.074   4.678   2.529  0.0762 -0.3521 -0.5689
 7814SOL    HW134901   3.168   4.692   2.542 -0.3041 -0.2607  1.9981
 7814SOL    HW234902   3.052   0.045   2.518 -1.9910 -0.7774  0.1060
 7815SOL     OW34903   0.274   3.906   6.243 -0.0578  0.3646  0.0504
 7815SOL    HW134904   0.195   3.950   6.211 -1.7279 -2.1682  0.7288
 7815SOL    HW234905   0.244   3.878   6.329 -0.6950 -0.6429 -0.4894
 7816SOL     OW34906   0.672   4.324   4.200 -0.5058 -0.5340 -0.0327
 7816SOL    HW134907   0.668   4.336   4.105  3.6811  0.9906 -0.0174
 7816SOL    HW234908   0.666   4.228   4.206  0.8799 -0.7183 -1.4116
 7817SOL     OW34909   2.130   2.775   4.539  0.4048  0.9252 -0.0198
 7817SOL    HW134910   2.066   2.713   4.505  1.0501 -0.8621  2.0583
 7817SOL    HW234911   2.098   2.777   4.629  0.0086 -0.6200 -0.1325
 7818SOL     OW34912   0.549   0.378   4.760 -0.1566 -0.2939  0.8032
 7818SOL    HW134913   0.620   0.319   4.788  0.9325  0.3314 -0.6504
 7818SOL    HW234914   0.493   0.394   4.836  1.0355 -1.1010  1.8768
 7819SOL     OW34915   1.586   1.840   5.725 -0.5282  0.6865 -0.4116
 7819SOL    HW134916   1.565   1.801   5.810 -1.4826  0.3376 -0.8077
 7819SOL    HW234917   1.527   1.787   5.671 -0.6724 -1.6747  2.0516
 7820SOL     OW34918   4.046   3.033   2.078  0.6126 -0.2059 -0.1000
 7820SOL    HW134919   4.018   2.950   2.115  1.1702  0.2233  1.2676
 7820SOL    HW234920   4.058   2.998   1.990  0.5873 -1.1114  0.2620
 7821SOL     OW34921   2.952   0.826   5.795  0.4772  0.2663  0.7957
 7821SOL    HW134922   2.954   0.744   5.746 -0.5315  2.8332 -3.5225
 7821SOL    HW234923   3.034   0.868   5.770 -1.2275  1.4270 -2.7528
 7822SOL     OW34924   1.285   3.833   5.143  0.5215  0.4981  0.0768
 7822SOL    HW134925   1.318   3.886   5.071  0.0129 -0.1491 -0.6321
 7822SOL    HW234926   1.361   3.780   5.166 -0.7594 -0.9839  0.8933
 7823SOL     OW34927   3.136   3.493  15.209  0.2497 -0.1242  0.6066
 7823SOL    HW134928   3.069   3.494  15.277 -0.2406  1.4479  0.1036
 7823SOL    HW234929   3.114   3.567  15.154  1.1689 -0.1923  0.1471
 7824SOL     OW34930   3.581   4.594  10.702  0.1448 -0.3402 -0.6908
 7824SOL    HW134931   3.646   4.571  10.768  0.0814  1.2419 -0.0728
 7824SOL    HW234932   3.594   4.688  10.692 -0.6162 -0.0140  1.3759
 7825SOL     OW34933   3.249   1.973   1.079 -0.0408 -0.3866  0.7952
 7825SOL    HW134934   3.206   1.888   1.086 -1.1332  0.1132  0.1326
 7825SOL    HW234935   3.253   1.985   0.984  0.1902 -3.1280  0.4552
 7826SOL     OW34936   4.454   1.712   8.800  0.4222 -0.1047  0.4818
 7826SOL    HW134937   4.407   1.641   8.756 -0.6901  0.8467  0.1257
 7826SOL    HW234938   4.538   1.718   8.755 -0.0180  0.6445 -0.2302
 7827SOL     OW34939   4.590   0.702  17.300  0.1129  0.1028  0.0191
 7827SOL    HW134940   4.496   0.687  17.304  0.1989 -0.4694 -0.1397
 7827SOL    HW234941   4.608   0.731  17.390  1.6762 -0.8115  0.0083
 7828SOL     OW34942   3.123   2.987   6.372  0.3827 -0.6969 -0.0773
 7828SOL    HW134943   3.089   3.062   6.421 -0.3382 -1.0452 -0.0451
 7828SOL    HW234944   3.169   3.023   6.297  0.5075 -0.6048  0.0432
 7829SOL     OW34945   0.990   4.435   6.335  0.7477  0.0841 -0.0218
 7829SOL    HW134946   1.020   4.394   6.254 -0.6670 -0.5542 -0.2115
 7829SOL    HW234947   0.939   4.502   6.291 -0.1736 -0.3339  0.4217
 7830SOL     OW34948   4.341   1.580   8.991 -0.7205 -0.0457  0.0312
 7830SOL    HW134949   4.394   1.633   8.932 -0.9800  0.6051  0.3733
 7830SOL    HW234950   4.273   1.644   9.015  0.8312  2.3197 -1.8391
 7831SOL     OW34951   0.249   0.816   2.420 -0.5916 -0.2761  0.6266
 7831SOL    HW134952   0.242   0.723   2.396 -1.2610 -0.6833  2.4218
 7831SOL    HW234953   0.294   0.801   2.503 -1.9580  2.6305  1.8700
 7832SOL     OW34954   2.873   0.378  11.286 -0.2537 -0.5362  0.0379
 7832SOL    HW134955   2.793   0.401  11.240  0.7181 -0.1047 -1.4511
 7832SOL    HW234956   2.943   0.406  11.227  0.6751  0.2112  1.4652
 7833SOL     OW34957   2.245   1.471   6.761 -0.0436  0.1724  0.0245
 7833SOL    HW134958   2.183   1.432   6.700 -0.4497 -1.9404  1.7848
 7833SOL    HW234959   2.321   1.486   6.704 -0.9226  1.0848 -0.9056
 7834SOL     OW34960   3.197   3.692   3.486  0.0107 -0.1987 -0.0207
 7834SOL    HW134961   3.226   3.712   3.575 -0.3735  2.6332 -0.5210
 7834SOL    HW234962   3.102   3.688   3.497  0.1026  0.6448  1.0978
 7835SOL     OW34963   4.114   2.621   0.998 -0.7622 -0.0983 -0.3283
 7835SOL    HW134964   4.182   2.677   0.959 -0.0631 -1.5344 -1.1635
 7835SOL    HW234965   4.165   2.540   1.009 -2.0270 -0.5561  2.2485
 7836SOL     OW34966   3.878   2.351   2.172 -0.1915  0.3075  0.5012
 7836SOL    HW134967   3.961   2.345   2.219  0.5466 -1.8545 -1.1242
 7836SOL    HW234968   3.839   2.272   2.208 -0.5474  0.4325  0.3884
 7837SOL     OW34969   1.255   0.025  13.452 -0.7722  0.0146 -0.1524
 7837SOL    HW134970   1.166   4.724  13.426 -0.8432 -0.2882  0.4075
 7837SOL    HW234971   1.258   4.721  13.543  0.2472 -1.7136 -0.7471
 7838SOL     OW34972   4.387   1.114  13.489  0.1299 -0.2649 -0.5270
 7838SOL    HW134973   4.295   1.139  13.477  0.2298  1.1600  1.6867
 7838SOL    HW234974   4.374   1.051  13.560  1.9718  1.0876  0.9907
 7839SOL     OW34975   4.354   2.939   5.003  0.6176 -0.3804 -0.0876
 7839SOL    HW134976   4.292   2.866   4.999 -1.2969  1.3162 -0.9689
 7839SOL    HW234977   4.377   2.941   4.910 -0.4806 -2.1670 -0.4065
 7840SOL     OW34978   1.392   4.468   9.095 -0.1480 -0.3050  0.3360
 7840SOL    HW134979   1.370   4.499   9.183  0.2589 -1.4559  0.8426
 7840SOL    HW234980   1.339   4.520   9.034  0.1272  0.5262  0.8073
 7841SOL     OW34981   0.115   4.115   3.198 -0.0944  0.0932 -0.4747
 7841SOL    HW134982   0.188   4.064   3.163 -0.0479 -0.9214  1.1182
 7841SOL    HW234983   0.064   4.042   3.232  0.1488  0.0144 -0.2827
 7842SOL     OW34984   0.594   1.331   8.182 -0.2799 -0.0336 -0.0562
 7842SOL    HW134985   0.656   1.390   8.224 -0.1962 -0.6863  0.7366
 7842SOL    HW234986   0.522   1.331   8.245  0.0852 -0.6471  0.3565
 7843SOL     OW34987   2.284   3.196   9.118  0.0215  0.4474  0.2644
 7843SOL    HW134988   2.258   3.232   9.203  2.4749 -0.2445  1.2937
 7843SOL    HW234989   2.217   3.131   9.096 -1.7451  1.7017  1.8626
 7844SOL     OW34990   4.146   1.332  13.957  0.0715  0.7548  0.2128
 7844SOL    HW134991   4.195   1.328  13.875 -1.2237 -0.2030 -0.5124
 7844SOL    HW234992   4.198   1.269  14.008 -2.1263  0.2099  1.7705
 7845SOL     OW34993   2.611   2.283   7.629  0.1981  0.2538 -0.5396
 7845SOL    HW134994   2.662   2.359   7.601 -0.9827  1.9298  1.7532
 7845SOL    HW234995   2.659   2.213   7.585  0.3278  1.3234 -2.1177
 7846SOL     OW34996   3.961   2.443   3.907  0.1632 -0.4571 -0.8104
 7846SOL    HW134997   3.944   2.391   3.829 -1.9146 -2.2278  0.8255
 7846SOL    HW234998   3.997   2.518   3.861  0.8468 -0.3707 -0.1393
 7847SOL     OW34999   1.558   4.288  10.678 -0.5220 -0.0347  0.4007
 7847SOL    HW135000   1.546   4.207  10.727 -0.2626  0.0062  0.5283
 7847SOL    HW235001   1.563   4.354  10.747 -3.4644 -0.2413  0.8426
 7848SOL     OW35002   4.713   1.956   4.559 -0.3643 -0.0598 -0.4864
 7848SOL    HW135003   4.725   1.921   4.471  0.6473 -1.4395  0.2142
 7848SOL    HW235004   4.624   1.990   4.545 -1.0466 -1.3001  0.7879
 7849SOL     OW35005   0.805   0.336   4.167 -0.0285  0.0065 -0.0274
 7849SOL    HW135006   0.755   0.254   4.168 -0.1901  0.1138  0.8040
 7849SOL    HW235007   0.875   0.308   4.227  1.3081  1.7523 -0.7873
 7850SOL     OW35008   0.333   0.182  16.417  0.6702  0.4848  0.0822
 7850SOL    HW135009   0.281   0.232  16.479 -0.7925 -3.9225  2.4010
 7850SOL    HW235010   0.418   0.197  16.458  0.6991  3.1244 -0.9453
 7851SOL     OW35011   0.643   3.778  16.931  0.0183  0.5966 -0.0057
 7851SOL    HW135012   0.565   3.815  16.891 -1.2567 -0.7195  1.2569
 7851SOL    HW235013   0.715   3.806  16.875  2.1827 -1.1595  1.8571
 7852SOL     OW35014   4.350   3.601  14.751  0.4049 -0.5206  0.0271
 7852SOL    HW135015   4.408   3.539  14.706 -0.9841 -0.7436 -1.4811
 7852SOL    HW235016   4.263   3.584  14.714 -0.0820  0.8909  0.5381
 7853SOL     OW35017   2.342   3.296   9.638 -0.3074  0.2442 -0.1307
 7853SOL    HW135018   2.293   3.373   9.610  2.3135  1.0211 -2.5726
 7853SOL    HW235019   2.326   3.293   9.733  0.6789 -1.7892 -0.0092
 7854SOL     OW35020   1.429   1.393  12.072 -0.2673  0.0724  0.2123
 7854SOL    HW135021   1.494   1.462  12.062  1.3646 -1.8584 -2.5186
 7854SOL    HW235022   1.470   1.322  12.122  2.6959  0.7047 -1.3541
 7855SOL     OW35023   3.445   3.603   3.394 -0.3942  0.6162 -0.1925
 7855SOL    HW135024   3.491   3.567   3.470 -0.7212  1.7145  0.5228
 7855SOL    HW235025   3.362   3.635   3.428 -0.7130 -0.0948 -0.2892
 7856SOL     OW35026   1.251   2.280   2.719  0.0848 -0.8312 -0.0056
 7856SOL    HW135027   1.265   2.355   2.777  2.4385 -1.6124  0.4341
 7856SOL    HW235028   1.157   2.264   2.724 -0.1758  1.0428  1.1317
 7857SOL     OW35029   1.727   3.409   6.972 -0.2228 -0.0559 -0.8391
 7857SOL    HW135030   1.666   3.362   6.915 -0.2125 -1.6718  0.4930
 7857SOL    HW235031   1.715   3.366   7.057 -3.2314  0.4186 -1.0262
 7858SOL     OW35032   0.483   4.659  10.271 -0.4795 -0.0541  0.1222
 7858SOL    HW135033   0.415   4.691  10.330 -1.4867  1.3190 -1.7744
 7858SOL    HW235034   0.559   4.668  10.329 -1.0720 -1.0017  1.0382
 7859SOL     OW35035   0.959   0.831   1.760 -0.0151 -0.6478 -0.6679
 7859SOL    HW135036   0.924   0.806   1.675  0.6473  0.1210 -1.1585
 7859SOL    HW235037   1.049   0.849   1.732  0.3130 -1.2991 -0.0451
 7860SOL     OW35038   2.607   4.630   0.184 -0.0463 -0.1438 -0.0198
 7860SOL    HW135039   2.587   4.584   0.265  1.2724 -0.5198  0.0883
 7860SOL    HW235040   2.697   4.606   0.161  0.1215 -1.2070  1.7940
 7861SOL     OW35041   4.103   2.549   5.536  0.4511  0.1380 -0.0841
 7861SOL    HW135042   4.191   2.532   5.502  0.7522  0.3372  0.5909
 7861SOL    HW235043   4.052   2.561   5.457  1.1305  0.7018 -0.4424
 7862SOL     OW35044   1.720   3.526   9.995  0.0131  0.2346 -0.0256
 7862SOL    HW135045   1.657   3.455   9.987  1.0455 -0.3187 -3.0899
 7862SOL    HW235046   1.663   3.600  10.015  0.1099 -0.1694  1.8147
 7863SOL     OW35047   0.090   2.529   8.137 -0.0501  0.7690  0.1508
 7863SOL    HW135048   0.090   2.610   8.188 -0.5867  0.0295  1.3261
 7863SOL    HW235049   0.047   2.466   8.195 -1.0649  2.7955  1.6005
 7864SOL     OW35050   2.048   4.525  16.261  0.3383  0.6316  0.2290
 7864SOL    HW135051   2.110   4.584  16.218  1.6194 -0.4889  0.5296
 7864SOL    HW235052   1.976   4.577  16.296  0.4565  0.8003  0.2203
 7865SOL     OW35053   0.313   1.377   9.931  0.0080  0.2978  0.2021
 7865SOL    HW135054   0.248   1.448   9.934  1.7741  1.8704  1.8335
 7865SOL    HW235055   0.356   1.393  10.016 -0.8411 -0.9206  0.8464
 7866SOL     OW35056   0.384   0.156  13.586  0.3557  0.3544 -0.4646
 7866SOL    HW135057   0.418   0.207  13.659 -2.0455  0.7710  0.3432
 7866SOL    HW235058   0.386   0.213  13.509  0.3623  0.9138 -0.0532
 7867SOL     OW35059   1.734   0.983   2.159  0.3770  0.1310  0.2006
 7867SOL    HW135060   1.707   1.058   2.211  2.5719 -1.6496  3.9388
 7867SOL    HW235061   1.702   1.006   2.071 -0.8312  1.1573  0.9077
 7868SOL     OW35062   0.440   2.090  11.892  0.0079  0.4523 -0.5251
 7868SOL    HW135063   0.453   2.006  11.848 -2.7863  1.0628 -2.4771
 7868SOL    HW235064   0.446   2.069  11.985 -2.4454 -1.0579 -0.7205
 7869SOL     OW35065   1.410   0.003   2.631 -0.1045  0.0053 -0.2964
 7869SOL    HW135066   1.468   4.656   2.650  1.5099  1.1236 -0.8954
 7869SOL    HW235067   1.403   0.058   2.709 -3.1332  2.0598 -2.0210
 7870SOL     OW35068   0.917   3.594  16.039  0.4236  0.2019 -0.6160
 7870SOL    HW135069   0.975   3.597  15.963  0.5391 -0.3606 -0.5466
 7870SOL    HW235070   0.944   3.509  16.073  1.6269  0.5825 -0.6344
 7871SOL     OW35071   4.450   1.440   4.688  0.1869  0.7635 -0.7262
 7871SOL    HW135072   4.483   1.361   4.645  1.3800  1.4392 -1.0340
 7871SOL    HW235073   4.464   1.508   4.622  0.5217  0.3085 -1.1199
 7872SOL     OW35074   3.271   1.977   4.599  0.0076  0.5315  0.6384
 7872SOL    HW135075   3.329   2.045   4.634  0.6906  0.9635 -1.3270
 7872SOL    HW235076   3.200   2.030   4.562  2.1327  1.1184 -2.4988
 7873SOL     OW35077   3.514   2.580  13.416 -0.2104  0.4693  0.0585
 7873SOL    HW135078   3.515   2.564  13.510  0.5521  1.2651  0.1812
 7873SOL    HW235079   3.580   2.648  13.404 -1.7963  1.7701 -1.3116
 7874SOL     OW35080   4.048   1.783  11.682  0.6265  0.0153  0.3057
 7874SOL    HW135081   3.975   1.789  11.620  1.1076  1.5218 -0.1345
 7874SOL    HW235082   4.118   1.733  11.640  0.3647  1.0280 -1.3580
 7875SOL     OW35083   2.120   3.914   2.652 -0.2591 -0.4873  0.0521
 7875SOL    HW135084   2.039   3.920   2.702  0.4642 -1.1157  1.3065
 7875SOL    HW235085   2.109   3.968   2.574  0.3379 -0.5207 -0.0597
 7876SOL     OW35086   1.631   4.637   0.874 -0.2978 -0.2267  0.3748
 7876SOL    HW135087   1.661   4.565   0.817 -0.1744 -0.0344  0.1952
 7876SOL    HW235088   1.572   4.682   0.814 -1.0579  1.1933  2.1963
 7877SOL     OW35089   1.285   3.329   2.365 -0.0678  0.0219 -0.1167
 7877SOL    HW135090   1.209   3.292   2.321 -0.1367 -1.6500  1.4250
 7877SOL    HW235091   1.295   3.415   2.325  2.3658 -1.2780 -2.3224
 7878SOL     OW35092   2.668   3.058  13.875 -0.0396  0.2854 -0.4336
 7878SOL    HW135093   2.597   3.061  13.938  1.3766  1.4701  1.1208
 7878SOL    HW235094   2.715   2.997  13.932 -1.6738 -0.8190 -0.2607
 7879SOL     OW35095   1.569   2.823   4.578  0.3574  0.5103 -0.0502
 7879SOL    HW135096   1.577   2.731   4.603 -0.0668 -0.3985 -3.1716
 7879SOL    HW235097   1.474   2.830   4.576  0.3385 -0.5428 -2.7862
 7880SOL     OW35098   4.135   1.437   4.405 -0.1669  0.4773  0.3398
 7880SOL    HW135099   4.091   1.429   4.320  1.1159  2.0513 -0.4739
 7880SOL    HW235100   4.090   1.366   4.452 -1.9760  0.5320 -1.2943
 7881SOL     OW35101   2.129   0.543   4.889  0.2429 -0.3138  0.3011
 7881SOL    HW135102   2.209   0.570   4.844  1.1026 -0.0432  1.9972
 7881SOL    HW235103   2.075   0.506   4.820  0.5392  1.4579 -0.8785
 7882SOL     OW35104   2.600   3.875   5.739 -0.4996 -0.3665 -0.2414
 7882SOL    HW135105   2.661   3.859   5.667 -3.9447 -3.2673 -2.4701
 7882SOL    HW235106   2.558   3.791   5.756  0.4100 -0.4730  1.5882
 7883SOL     OW35107   1.182   1.129  14.829 -0.8383  0.5018  0.3822
 7883SOL    HW135108   1.217   1.066  14.766 -1.4865  0.6655 -0.1458
 7883SOL    HW235109   1.119   1.169  14.769 -2.3312 -0.6649  1.1570
 7884SOL     OW35110   4.703   3.734  10.356 -0.2840  0.2622 -0.6994
 7884SOL    HW135111   4.628   3.707  10.303  1.1324  0.4865 -2.8145
 7884SOL    HW235112   4.700   3.667  10.424 -3.6023 -1.0635 -2.1719
 7885SOL     OW35113   2.640   0.513   2.947 -0.4644 -0.4335 -0.2918
 7885SOL    HW135114   2.631   0.503   2.853  0.9368 -2.2790 -0.2121
 7885SOL    HW235115   2.710   0.579   2.944 -1.2075  0.4131  0.7095
 7886SOL     OW35116   1.983   2.164   6.468  0.6356 -0.0218  0.1381
 7886SOL    HW135117   2.036   2.096   6.428  1.7973  0.1868  1.3401
 7886SOL    HW235118   2.001   2.242   6.415  0.5068  0.2886  0.5557
 7887SOL     OW35119   3.841   0.189   1.735  0.5461 -0.7143  0.0963
 7887SOL    HW135120   3.777   0.205   1.666 -0.6717 -0.0876  1.3712
 7887SOL    HW235121   3.781   0.142   1.793  0.6146  2.6255  2.9144
 7888SOL     OW35122   4.159   2.222   1.883  0.0347  0.0713 -0.4315
 7888SOL    HW135123   4.244   2.190   1.913 -0.2243  0.1382  0.3929
 7888SOL    HW235124   4.107   2.148   1.914  2.5380 -1.5488 -0.1080
 7889SOL     OW35125   2.019   3.661   6.064 -0.0170  1.1275  0.0422
 7889SOL    HW135126   2.001   3.581   6.115 -0.7242  0.3331 -1.4644
 7889SOL    HW235127   1.974   3.652   5.980 -1.8117  0.7409  1.0519
 7890SOL     OW35128   4.429   3.436  14.995 -0.1163 -0.1077  0.3208
 7890SOL    HW135129   4.348   3.426  15.044  0.6112 -0.2149  1.5238
 7890SOL    HW235130   4.398   3.509  14.942 -1.5146 -0.2861  0.9032
 7891SOL     OW35131   1.243   1.040   3.330  0.2508  0.0442 -0.2498
 7891SOL    HW135132   1.306   1.004   3.392 -0.6477  0.1549  0.7389
 7891SOL    HW235133   1.261   1.133   3.348 -2.0725  0.4629 -0.0521
 7892SOL     OW35134   4.265   0.043   6.412  0.4290 -0.3601  0.2471
 7892SOL    HW135135   4.310   0.123   6.386 -0.9208 -0.5888 -2.7696
 7892SOL    HW235136   4.177   0.070   6.385 -0.4782 -0.8906  2.6548
 7893SOL     OW35137   1.471   4.049   6.996 -0.3299 -0.1385  0.1346
 7893SOL    HW135138   1.461   3.956   7.016  0.2478 -0.0154  0.9941
 7893SOL    HW235139   1.498   4.048   6.904 -1.1920 -0.8883 -0.1070
 7894SOL     OW35140   2.203   3.912   9.073 -1.0059  0.3503  0.6932
 7894SOL    HW135141   2.259   3.946   9.004  2.6239 -0.0555  3.4467
 7894SOL    HW235142   2.146   3.858   9.018  1.8835 -2.3170  0.2792
 7895SOL     OW35143   3.570   0.816   4.526  0.4432 -0.3300 -0.2433
 7895SOL    HW135144   3.508   0.756   4.484  0.8153  0.2005 -1.5818
 7895SOL    HW235145   3.535   0.820   4.614 -1.7533 -1.5219 -1.0746
 7896SOL     OW35146   0.490   4.423   4.374  0.0857  0.1866  0.7442
 7896SOL    HW135147   0.527   4.460   4.454  0.4395 -0.3316  0.8295
 7896SOL    HW235148   0.568   4.388   4.330  0.2064  1.1286  0.2180
 7897SOL     OW35149   4.661   4.089   5.817 -0.6517  0.2046 -0.1050
 7897SOL    HW135150   4.572   4.054   5.817 -1.1354  1.4170  1.0569
 7897SOL    HW235151   4.704   4.026   5.760 -0.4989  1.4081 -1.3041
 7898SOL     OW35152   1.937   2.345  12.809  0.5118 -0.6149 -0.1413
 7898SOL    HW135153   1.956   2.394  12.729 -1.3674 -0.8885 -0.7590
 7898SOL    HW235154   1.866   2.395  12.847  2.1980  2.2464 -0.7652
 7899SOL     OW35155   3.541   3.511   3.164 -0.0443  0.4525  0.1634
 7899SOL    HW135156   3.534   3.582   3.100  0.3311  0.6170  0.3059
 7899SOL    HW235157   3.496   3.549   3.239  1.1669  1.6126  0.2982
 7900SOL     OW35158   1.044   3.565   6.905  0.1310  0.4244  0.5551
 7900SOL    HW135159   1.020   3.601   6.820  1.7093 -0.1727 -0.1518
 7900SOL    HW235160   1.138   3.554   6.892 -0.1853 -0.2942 -1.1484
 7901SOL     OW35161   0.438   3.690   6.658  0.2230 -0.0236 -0.3282
 7901SOL    HW135162   0.468   3.606   6.621 -0.9943 -0.2183 -0.8638
 7901SOL    HW235163   0.513   3.712   6.714  0.1006 -1.7367  0.5191
 7902SOL     OW35164   3.220   3.723  12.465  0.3768  0.4772 -0.6082
 7902SOL    HW135165   3.207   3.774  12.545  0.0436  0.1224 -0.4339
 7902SOL    HW235166   3.130   3.700  12.442 -0.3730 -0.8683  3.5890
 7903SOL     OW35167   0.944   3.936   1.789 -0.3709 -0.2257  0.4783
 7903SOL    HW135168   0.935   3.914   1.697 -1.9812 -0.6585  0.7394
 7903SOL    HW235169   0.919   3.858   1.839 -0.0976  0.4136  1.6119
 7904SOL     OW35170   3.773   3.957  12.119  0.3840 -0.5945 -0.1118
 7904SOL    HW135171   3.828   3.905  12.061 -0.9608 -0.2299 -1.7252
 7904SOL    HW235172   3.728   4.018  12.060  0.0123  0.9442  1.7734
 7905SOL     OW35173   3.568   3.535  17.663  0.1168  0.2070 -0.5657
 7905SOL    HW135174   3.486   3.486  17.667  0.3489 -0.0384  1.1374
 7905SOL    HW235175   3.625   3.471  17.620  0.6481  0.3821 -0.1102
 7906SOL     OW35176   2.286   3.755   7.921  0.2082 -0.3240  0.0743
 7906SOL    HW135177   2.318   3.845   7.908 -1.3673  0.2905  0.4443
 7906SOL    HW235178   2.337   3.715   7.850 -0.8765 -2.5861  0.5760
 7907SOL     OW35179   3.235   3.947   3.165 -0.3152  0.4558  0.4476
 7907SOL    HW135180   3.208   3.857   3.151  1.2008  0.0974 -0.1378
 7907SOL    HW235181   3.156   3.993   3.192 -0.3225  0.3308  0.6394
 7908SOL     OW35182   4.194   1.033   5.978 -0.3145  0.3630 -0.3598
 7908SOL    HW135183   4.130   1.024   6.048 -0.2624 -0.2464 -0.3927
 7908SOL    HW235184   4.138   1.018   5.902  0.1419 -0.2130 -0.5843
 7909SOL     OW35185   0.878   3.382   5.235  0.4202  0.1434 -0.0046
 7909SOL    HW135186   0.850   3.473   5.242  3.2485  1.0989 -0.8083
 7909SOL    HW235187   0.793   3.338   5.242 -0.5041  1.8034 -1.0129
 7910SOL     OW35188   3.524   2.320   7.527 -0.3860 -0.6575 -0.0643
 7910SOL    HW135189   3.548   2.309   7.435 -0.1345 -1.1827  0.0674
 7910SOL    HW235190   3.532   2.228   7.552  1.0846 -0.1343  1.4082
 7911SOL     OW35191   3.263   2.378   7.901  0.4310 -0.0462 -0.1624
 7911SOL    HW135192   3.310   2.302   7.866 -0.7306 -0.8199 -0.0450
 7911SOL    HW235193   3.292   2.374   7.992 -0.0565  0.7484  0.0273
 7912SOL     OW35194   3.976   4.530   8.942  0.0432  0.6947 -0.2837
 7912SOL    HW135195   3.969   4.469   9.016 -2.5868  1.6126  0.2198
 7912SOL    HW235196   3.885   4.522   8.912 -0.1916 -0.3519  0.7082
 7913SOL     OW35197   2.606   1.472   1.768 -0.1326 -0.2143 -0.0525
 7913SOL    HW135198   2.615   1.380   1.791 -0.4959 -0.4144 -0.7259
 7913SOL    HW235199   2.652   1.518   1.838  0.4675  0.1795 -0.7005
 7914SOL     OW35200   1.935   3.337   2.691  0.6215  0.8772 -0.5613
 7914SOL    HW135201   2.012   3.377   2.650  0.5351  0.7840 -0.8132
 7914SOL    HW235202   1.879   3.404   2.651 -0.3954 -0.3005 -1.0822
 7915SOL     OW35203   1.763   1.928   6.943  0.3776 -0.0811  0.0099
 7915SOL    HW135204   1.855   1.952   6.934  0.1101  0.8572 -0.1636
 7915SOL    HW235205   1.763   1.834   6.961  0.4983 -0.0250  0.2994
 7916SOL     OW35206   2.002   3.546   5.184 -0.0765 -0.3797 -0.7426
 7916SOL    HW135207   1.952   3.499   5.251 -1.3652  0.8076 -0.8640
 7916SOL    HW235208   2.054   3.473   5.151  0.5451 -1.1728  2.0018
 7917SOL     OW35209   3.668   3.032   7.015  0.2806 -0.0222 -0.0118
 7917SOL    HW135210   3.636   3.006   7.101 -0.7107 -0.9953 -0.6664
 7917SOL    HW235211   3.587   3.056   6.970  0.3660 -0.3895 -0.3646
 7918SOL     OW35212   3.825   1.209   9.108  0.1314  0.4054 -0.5492
 7918SOL    HW135213   3.881   1.136   9.082  0.6711 -0.1562  2.0952
 7918SOL    HW235214   3.856   1.286   9.061  1.3928 -0.0756 -0.4969
 7919SOL     OW35215   2.474   0.741  12.178 -0.0018 -0.6216 -0.0847
 7919SOL    HW135216   2.499   0.832  12.163 -0.2053 -0.9952 -2.5713
 7919SOL    HW235217   2.497   0.738  12.271 -0.6077  1.6233  0.1636
 7920SOL     OW35218   0.162   1.277   5.550 -0.3664 -0.0602  0.1428
 7920SOL    HW135219   0.199   1.343   5.492  0.5857 -0.2254  0.5748
 7920SOL    HW235220   0.068   1.298   5.546 -0.3938  0.5517  3.4188
 7921SOL     OW35221   4.202   1.988   0.817 -0.2865  0.3366 -0.7003
 7921SOL    HW135222   4.241   1.901   0.811  0.7510  0.8348 -1.0687
 7921SOL    HW235223   4.268   2.024   0.877 -0.2559  1.0763 -1.1895
 7922SOL     OW35224   4.486   2.195   8.097  0.5036 -0.4426  0.1019
 7922SOL    HW135225   4.422   2.254   8.137  1.0259 -0.3028  0.7217
 7922SOL    HW235226   4.474   2.215   8.004 -0.5824  1.8911  0.7381
 7923SOL     OW35227   1.010   1.785   4.884 -0.1491  0.2216  0.2630
 7923SOL    HW135228   1.023   1.745   4.970  1.0268 -1.2314 -0.5827
 7923SOL    HW235229   0.947   1.725   4.843 -0.4275  0.1702  0.7757
 7924SOL     OW35230   2.373   3.625   1.739 -0.0879 -0.4577  0.3964
 7924SOL    HW135231   2.344   3.645   1.650 -0.5749 -2.2228  0.1464
 7924SOL    HW235232   2.320   3.546   1.750  0.4897 -0.7884  0.8529
 7925SOL     OW35233   0.696   1.601  13.941 -0.3530 -0.4760  0.2962
 7925SOL    HW135234   0.676   1.535  14.007  1.8273 -2.6541 -1.1852
 7925SOL    HW235235   0.790   1.584  13.928  0.0370  1.0158  1.1675
 7926SOL     OW35236   3.084   4.645   5.366 -0.2508 -0.1269  0.1425
 7926SOL    HW135237   3.146   4.573   5.377  2.5568  2.1081 -1.1192
 7926SOL    HW235238   3.010   4.599   5.405 -1.5282  1.7256 -0.0817
 7927SOL     OW35239   0.241   1.043  15.714 -0.2590 -0.1786 -0.0310
 7927SOL    HW135240   0.209   0.988  15.643 -2.6467 -0.6367  1.4267
 7927SOL    HW235241   0.185   1.120  15.710 -0.2642 -0.2443 -1.1543
 7928SOL     OW35242   3.563   4.680   8.479 -0.1685  0.4449 -1.0691
 7928SOL    HW135243   3.567   0.049   8.490 -2.1356  0.4824 -0.6852
 7928SOL    HW235244   3.469   4.664   8.468  0.2390 -1.2884 -2.0590
 7929SOL     OW35245   3.199   0.896   5.747 -0.0970 -0.4976 -0.2352
 7929SOL    HW135246   3.236   0.977   5.783  0.0299 -1.2517  1.3606
 7929SOL    HW235247   3.272   0.859   5.698  1.2517  2.3405 -0.3652
 7930SOL     OW35248   0.363   3.494   5.559 -0.1747 -0.4487  0.1038
 7930SOL    HW135249   0.293   3.551   5.528  0.2749 -0.1307 -0.3202
 7930SOL    HW235250   0.385   3.531   5.645 -0.1599 -1.3396  0.4933
 7931SOL     OW35251   1.986   2.958  12.623 -0.1570 -0.0496  0.7795
 7931SOL    HW135252   1.918   2.891  12.630  1.1408 -1.6289 -1.8750
 7931SOL    HW235253   2.064   2.906  12.641 -0.3992 -0.2225  1.3394
 7932SOL     OW35254   1.708   2.610   5.398  0.1332 -0.0552 -0.2731
 7932SOL    HW135255   1.674   2.695   5.369  0.2577 -0.1990 -0.8321
 7932SOL    HW235256   1.795   2.612   5.360 -1.4130 -2.2821 -3.9616
 7933SOL     OW35257   0.673   2.975   6.820  0.0457  0.1083 -0.0711
 7933SOL    HW135258   0.606   2.976   6.888  1.1860  0.3414  1.0658
 7933SOL    HW235259   0.682   3.065   6.790 -1.4788  1.3040  3.1052
 7934SOL     OW35260   1.461   2.573   1.328 -0.3958  0.2918  0.2601
 7934SOL    HW135261   1.442   2.497   1.272  0.1455  0.8707 -0.6999
 7934SOL    HW235262   1.553   2.590   1.310 -0.3907  0.8169  0.7684
 7935SOL     OW35263   0.029   2.155   8.556 -0.4847  0.7027 -0.3147
 7935SOL    HW135264   4.679   2.099   8.542  0.9804 -0.5741 -2.9807
 7935SOL    HW235265   4.722   2.204   8.632  1.1887 -1.2244  1.6457
 7936SOL     OW35266   1.957   2.236   6.001  0.6202 -0.4241  0.1538
 7936SOL    HW135267   1.897   2.162   5.994 -2.4281  1.7838  2.1439
 7936SOL    HW235268   2.038   2.197   6.033  1.6646  0.0369 -1.9554
 7937SOL     OW35269   3.123   0.961   5.419  0.2662  0.2683 -0.2844
 7937SOL    HW135270   3.137   1.040   5.367  0.0791  0.3847 -0.1564
 7937SOL    HW235271   3.168   0.989   5.499 -0.6220  0.1435  0.2520
 7938SOL     OW35272   1.798   2.673   7.175  0.2774  0.1737  0.5863
 7938SOL    HW135273   1.827   2.612   7.243  0.4200  0.3234  0.6597
 7938SOL    HW235274   1.826   2.621   7.099  0.5778  1.1981 -0.0018
 7939SOL     OW35275   0.525   2.505   2.375  0.7652 -0.9584  0.1555
 7939SOL    HW135276   0.454   2.448   2.347 -0.3952  0.4267  0.2912
 7939SOL    HW235277   0.497   2.591   2.342 -2.0478 -1.5920  0.8929
 7940SOL     OW35278   4.493   1.650   4.487  0.1873 -0.3207 -0.4977
 7940SOL    HW135279   4.408   1.681   4.517  1.1269  0.3044  1.5487
 7940SOL    HW235280   4.501   1.695   4.403  1.0932 -0.7509 -0.6439
 7941SOL     OW35281   3.735   2.626   7.892  0.3540 -0.0862  0.5315
 7941SOL    HW135282   3.657   2.611   7.945  0.8447 -0.5819  1.1148
 7941SOL    HW235283   3.782   2.543   7.883  1.1901  0.2590  1.7747
 7942SOL     OW35284   1.683   2.992  17.616 -0.5380 -0.6666  0.3876
 7942SOL    HW135285   1.748   2.983  17.546  0.6866  1.0230  1.3013
 7942SOL    HW235286   1.616   2.950  17.561 -0.5681 -0.1301  0.0185
 7943SOL     OW35287   4.628   3.465  14.194 -0.3099 -0.1211 -0.2042
 7943SOL    HW135288   4.555   3.507  14.240 -0.5805 -2.9393  1.9538
 7943SOL    HW235289   4.692   3.536  14.191  0.9298 -1.1776  1.2018
 7944SOL     OW35290   4.705   2.439   0.252 -0.6414 -0.2539  0.0124
 7944SOL    HW135291   4.689   2.384   0.329  0.6092  0.4027  0.7405
 7944SOL    HW235292   4.649   2.514   0.270 -0.3988 -0.5527  1.9643
 7945SOL     OW35293   3.081   2.806  13.662  0.4878  0.4602 -0.7476
 7945SOL    HW135294   3.067   2.711  13.668  2.8160 -0.0155 -2.7478
 7945SOL    HW235295   2.992   2.835  13.679  0.6041 -0.5076  1.5503
 7946SOL     OW35296   0.271   0.531  17.130  0.3301  0.0033  0.1292
 7946SOL    HW135297   0.291   0.484  17.211 -2.1125 -0.3364  0.5307
 7946SOL    HW235298   0.184   0.507  17.101 -0.3940  2.1566  0.5342
 7947SOL     OW35299   0.752   3.960  11.170 -0.2075 -0.0884 -0.5739
 7947SOL    HW135300   0.719   3.943  11.258  1.1238 -2.1756 -0.4858
 7947SOL    HW235301   0.720   4.048  11.152  0.2047  0.5059  1.7161
 7948SOL     OW35302   3.117   1.242  11.758 -0.3850 -0.3098  0.4260
 7948SOL    HW135303   3.139   1.153  11.785  0.4582  0.2108  1.4220
 7948SOL    HW235304   3.053   1.261  11.827  1.8218 -0.1051  2.3949
 7949SOL     OW35305   1.443   1.192   5.233 -0.0740  0.1718  0.7890
 7949SOL    HW135306   1.423   1.142   5.154  1.9283  0.4116  0.1338
 7949SOL    HW235307   1.388   1.270   5.222  0.5497  0.2247 -1.9914
 7950SOL     OW35308   1.792   2.460   4.033 -0.2032  0.6944  0.8082
 7950SOL    HW135309   1.791   2.474   4.127 -1.9765 -0.0077  0.9016
 7950SOL    HW235310   1.747   2.376   4.026  0.7864  0.1708  0.6545
 7951SOL     OW35311   1.761   4.443   7.994  0.4489 -0.4172  0.2726
 7951SOL    HW135312   1.728   4.532   8.002  1.8697  0.0728  0.7531
 7951SOL    HW235313   1.716   4.394   8.063  0.1110  0.9920  1.0408
 7952SOL     OW35314   1.650   4.097   7.196  0.1670 -0.2533 -0.2487
 7952SOL    HW135315   1.735   4.089   7.152  0.5050  1.1253  0.1421
 7952SOL    HW235316   1.595   4.071   7.122 -0.5860  0.4808  0.0561
 7953SOL     OW35317   2.758   2.355   2.002  0.0008  0.4672  0.2470
 7953SOL    HW135318   2.781   2.309   2.083  0.4262  0.2199 -0.0186
 7953SOL    HW235319   2.843   2.373   1.961 -0.2603  0.7413 -0.1748
 7954SOL     OW35320   2.858   3.073   7.500  0.5713  0.4534 -0.4999
 7954SOL    HW135321   2.926   3.007   7.487  0.2623 -0.4109  2.4625
 7954SOL    HW235322   2.878   3.078   7.593 -2.1252  2.5537 -0.0381
 7955SOL     OW35323   4.200   4.172   7.892 -0.1794 -0.5206 -0.5276
 7955SOL    HW135324   4.209   4.163   7.797 -0.2214  1.1599 -0.7018
 7955SOL    HW235325   4.152   4.090   7.905 -0.1080  0.1065  3.5942
 7956SOL     OW35326   0.117   3.193   4.303 -0.0870 -0.0680  0.2452
 7956SOL    HW135327   0.107   3.185   4.208  0.0020 -1.2955  0.3474
 7956SOL    HW235328   0.056   3.261   4.332  0.6377  1.4330 -1.7181
 7957SOL     OW35329   0.998   4.631   7.881 -0.0746 -0.3066  0.1032
 7957SOL    HW135330   0.906   4.646   7.860  0.4316 -0.4976 -2.2211
 7957SOL    HW235331   1.016   4.715   7.925  1.6513 -0.7979  0.3588
 7958SOL     OW35332   2.931   1.907   8.881  0.3518  0.6119  0.0112
 7958SOL    HW135333   2.890   1.881   8.964  0.9988  0.2558  0.2162
 7958SOL    HW235334   3.020   1.906   8.916  1.0514 -0.2637 -1.7905
 7959SOL     OW35335   2.976   4.538  10.505  1.2929  0.0857  0.1917
 7959SOL    HW135336   2.910   4.497  10.562 -0.1650 -0.1284 -1.6472
 7959SOL    HW235337   3.040   4.561  10.572  1.6432  1.8824 -0.7759
 7960SOL     OW35338   1.687   4.412   0.738  0.2219 -0.4534 -0.3701
 7960SOL    HW135339   1.641   4.403   0.654 -0.6804  0.7662 -0.0090
 7960SOL    HW235340   1.657   4.336   0.787 -1.3530 -1.5298 -2.9742
 7961SOL     OW35341   4.200   4.498   6.871 -0.3442  0.1458 -0.1570
 7961SOL    HW135342   4.273   4.511   6.810  1.2748 -1.4042  1.4364
 7961SOL    HW235343   4.173   4.407   6.856  0.8447 -0.3497  0.6633
 7962SOL     OW35344   4.317   3.637   8.277 -0.3778  0.2426  0.5719
 7962SOL    HW135345   4.289   3.614   8.188  1.0453  1.6743 -0.2486
 7962SOL    HW235346   4.410   3.651   8.260 -0.2922  0.1538  0.9668
 7963SOL     OW35347   3.838   4.286   3.485  0.0839 -0.5319 -0.3540
 7963SOL    HW135348   3.771   4.218   3.488  0.4467 -0.9136 -0.8045
 7963SOL    HW235349   3.882   4.267   3.568 -1.0941  1.2831  0.6632
 7964SOL     OW35350   0.994   0.720   4.988 -0.1794 -0.1094  0.0762
 7964SOL    HW135351   1.045   0.680   4.918  1.3633  3.1950 -0.6536
 7964SOL    HW235352   0.913   0.733   4.937 -1.2500 -0.3580  1.7055
 7965SOL     OW35353   1.398   2.901   7.591 -0.3626 -0.2324  0.0527
 7965SOL    HW135354   1.335   2.918   7.521  0.3010 -1.0286 -0.7284
 7965SOL    HW235355   1.405   2.982   7.642  0.3398  0.2885 -0.8859
 7966SOL     OW35356   2.043   2.221   7.414 -0.2630  0.3577  0.4634
 7966SOL    HW135357   2.006   2.217   7.326  0.2661  1.8907  0.1751
 7966SOL    HW235358   1.979   2.266   7.469  0.8501  0.3881  1.7404
 7967SOL     OW35359   4.087   3.145   6.213  0.1776 -0.1352  0.0684
 7967SOL    HW135360   4.056   3.125   6.302  0.5955  0.9062  0.4599
 7967SOL    HW235361   4.011   3.156   6.156  1.5372  1.5306 -1.4325
 7968SOL     OW35362   4.661   3.444  14.825  0.1593 -0.2870 -0.1805
 7968SOL    HW135363   4.602   3.508  14.864  0.1337 -0.1868 -0.3847
 7968SOL    HW235364   4.620   3.432  14.739 -0.6439 -0.2738  0.2015
 7969SOL     OW35365   2.194   1.237   5.825 -0.2866  0.5446  0.4383
 7969SOL    HW135366   2.283   1.227   5.860  0.3291  3.2267 -0.3553
 7969SOL    HW235367   2.172   1.167   5.763 -0.7867 -0.0253  1.2647
 7970SOL     OW35368   2.230   2.538   3.077  0.3292 -0.1123  0.1624
 7970SOL    HW135369   2.244   2.590   2.997 -0.9085  1.9943  1.3178
 7970SOL    HW235370   2.198   2.605   3.137 -1.2954  0.8938 -1.8080
 7971SOL     OW35371   4.574   2.892   3.811  0.1498 -0.2031  0.3436
 7971SOL    HW135372   4.562   2.797   3.806 -0.7027 -0.1126  0.6395
 7971SOL    HW235373   4.654   2.892   3.864  0.7339  2.2056 -0.5584
 7972SOL     OW35374   1.887   0.047   0.566  0.6115 -0.5165  0.2470
 7972SOL    HW135375   1.842   0.054   0.651  0.5986  1.2739  0.1003
 7972SOL    HW235376   1.825   0.101   0.516  1.3586 -2.2200 -2.4920
 7973SOL     OW35377   1.131   4.266  15.813 -0.2272 -0.0393  0.4962
 7973SOL    HW135378   1.198   4.324  15.778  1.4395 -2.0527  0.3474
 7973SOL    HW235379   1.067   4.267  15.741 -2.7513 -0.5871  2.7349
 7974SOL     OW35380   0.023   2.928   2.084  0.0608 -0.5749 -0.3095
 7974SOL    HW135381   4.724   2.839   2.111 -1.4984 -0.0851 -0.0768
 7974SOL    HW235382   4.695   2.949   2.008 -0.5787  0.4837  0.4284
 7975SOL     OW35383   0.137   3.203  11.310  0.6621  0.6748  0.0588
 7975SOL    HW135384   0.132   3.231  11.401 -0.6456  0.9396 -0.0898
 7975SOL    HW235385   0.061   3.249  11.275 -0.6410  0.2574  2.3727
 7976SOL     OW35386   1.058   0.336   5.457 -0.3451 -0.4895 -0.2700
 7976SOL    HW135387   1.088   0.413   5.505  0.0969 -1.1922  0.6095
 7976SOL    HW235388   0.967   0.362   5.444 -0.5702 -0.2750  1.6918
 7977SOL     OW35389   1.655   1.017   3.249 -0.3627  0.2069 -0.1146
 7977SOL    HW135390   1.618   1.105   3.258  2.5166  1.4684 -0.3723
 7977SOL    HW235391   1.577   0.974   3.215  2.4618 -2.5111 -3.2065
 7978SOL     OW35392   1.160   3.088   5.098 -0.2832  0.6198  0.2432
 7978SOL    HW135393   1.220   3.082   5.024 -1.6221 -0.2757 -0.7639
 7978SOL    HW235394   1.175   3.179   5.124 -0.0179  0.8007 -0.5420
 7979SOL     OW35395   0.778   1.527   8.033 -0.6044  0.1919  0.4662
 7979SOL    HW135396   0.786   1.445   8.081  3.4630 -0.6037 -1.5415
 7979SOL    HW235397   0.701   1.508   7.979 -1.2042 -0.3558  1.5221
 7980SOL     OW35398   1.801   3.246   5.565  0.0582  0.9572  1.0386
 7980SOL    HW135399   1.728   3.293   5.606 -0.8142  2.4581 -2.2207
 7980SOL    HW235400   1.794   3.157   5.600 -2.3441  0.8034  0.1954
 7981SOL     OW35401   4.294   0.431   4.252 -0.4852  0.1491 -0.1026
 7981SOL    HW135402   4.275   0.341   4.224  0.4198 -0.3008  0.7583
 7981SOL    HW235403   4.382   0.418   4.286 -0.1975  1.6876 -0.2528
 7982SOL     OW35404   3.257   3.530   5.821  0.4150 -0.1495 -0.7532
 7982SOL    HW135405   3.241   3.624   5.815 -0.3102 -0.0708  2.5030
 7982SOL    HW235406   3.282   3.519   5.913 -0.5747 -1.7949 -0.6894
 7983SOL     OW35407   4.340   4.267   4.780 -0.1794 -0.1720  0.8281
 7983SOL    HW135408   4.432   4.242   4.774 -0.3659 -0.9867  1.3328
 7983SOL    HW235409   4.330   4.279   4.875 -0.9536  0.5738  0.6470
 7984SOL     OW35410   4.120   0.129   9.859  0.0754 -0.0144  0.5324
 7984SOL    HW135411   4.088   0.049   9.816 -0.3310 -0.0080  0.8295
 7984SOL    HW235412   4.153   0.090   9.940  3.6625 -0.5714 -1.1765
 7985SOL     OW35413   2.231   4.198   1.172  0.2508  0.9987  0.6400
 7985SOL    HW135414   2.157   4.220   1.115 -0.3579  2.1637  1.8806
 7985SOL    HW235415   2.193   4.172   1.256 -0.2883  0.6581  0.2954
 7986SOL     OW35416   3.276   1.460   2.303 -0.0705  0.4157  0.0289
 7986SOL    HW135417   3.346   1.443   2.240 -0.0001 -1.1095  0.5144
 7986SOL    HW235418   3.207   1.406   2.264  3.3028 -1.9978 -2.5774
 7987SOL     OW35419   2.830   3.585   6.884  0.0611  0.0211  0.2138
 7987SOL    HW135420   2.751   3.622   6.923 -0.6171 -1.4608  0.2492
 7987SOL    HW235421   2.831   3.505   6.937  0.0038  1.1339  1.8707
 7988SOL     OW35422   4.652   0.457   6.473 -0.0507  0.3540 -0.1205
 7988SOL    HW135423   4.630   0.370   6.506  0.8467 -0.1319 -0.7860
 7988SOL    HW235424   0.002   0.476   6.529 -0.9569  2.1407  0.4815
 7989SOL     OW35425   2.356   1.569   2.475 -0.0281  0.3982  0.3283
 7989SOL    HW135426   2.307   1.487   2.475  1.4983 -0.5237  0.9422
 7989SOL    HW235427   2.425   1.546   2.537  0.9765  3.3820  0.3324
 7990SOL     OW35428   4.285   2.675   2.657 -0.0507  0.0313 -0.6333
 7990SOL    HW135429   4.329   2.742   2.710 -3.3521  0.3195  1.7639
 7990SOL    HW235430   4.229   2.629   2.720 -1.0900 -0.5936 -2.0394
 7991SOL     OW35431   3.297   3.343   2.159  0.2661 -0.2478 -0.4946
 7991SOL    HW135432   3.367   3.313   2.101  1.6219  1.7856  0.0768
 7991SOL    HW235433   3.324   3.322   2.248  0.3110  0.5756 -0.3104
 7992SOL     OW35434   1.459   4.216   8.510  0.2631  0.5254  0.1233
 7992SOL    HW135435   1.447   4.310   8.493 -0.8578  0.9159  2.9691
 7992SOL    HW235436   1.396   4.194   8.579 -0.2651 -3.8227 -1.7423
 7993SOL     OW35437   3.615   0.173   6.769  0.1834 -0.3050 -0.2469
 7993SOL    HW135438   3.565   0.193   6.690 -1.2939 -0.6965  0.5843
 7993SOL    HW235439   3.646   0.083   6.757  1.2780 -0.1128  1.1224
 7994SOL     OW35440   0.958   4.024   2.737  0.1568  0.4681  0.1240
 7994SOL    HW135441   0.951   3.931   2.756 -1.4988  0.4535 -0.5331
 7994SOL    HW235442   1.025   4.028   2.668 -0.6397  0.6018 -0.6458
 7995SOL     OW35443   3.549   0.108   7.409  0.5175  0.1247  0.1186
 7995SOL    HW135444   3.538   0.158   7.327  0.0250 -1.9680 -1.0885
 7995SOL    HW235445   3.475   0.148   7.455  0.5087  1.6592 -1.2083
 7996SOL     OW35446   2.868   2.410  16.933  0.4355 -0.4981  0.0802
 7996SOL    HW135447   2.827   2.352  16.868 -0.5960 -0.1455  0.4091
 7996SOL    HW235448   2.921   2.337  16.965 -1.7133 -1.0803  2.3655
 7997SOL     OW35449   1.500   3.274   5.419  0.4161 -0.8040 -0.7990
 7997SOL    HW135450   1.411   3.239   5.420 -1.0689  2.9689  1.1669
 7997SOL    HW235451   1.514   3.275   5.514  1.3145 -0.9060 -0.9316
 7998SOL     OW35452   3.961   0.492   7.461  0.2123 -0.2642  0.0070
 7998SOL    HW135453   3.888   0.453   7.412 -0.2461  0.1305  0.3808
 7998SOL    HW235454   4.036   0.483   7.402  1.0817 -0.3640  1.1175
 7999SOL     OW35455   2.726   1.333  11.292 -0.1662  0.5878  0.0920
 7999SOL    HW135456   2.640   1.374  11.282 -0.5786  0.1031  1.5893
 7999SOL    HW235457   2.697   1.243  11.311 -4.1739  1.5985 -1.0885
 8000SOL     OW35458   1.806   1.799  16.974 -0.0174 -0.3096  0.1810
 8000SOL    HW135459   1.873   1.804  17.043 -0.8031  1.2475  0.8394
 8000SOL    HW235460   1.728   1.816  17.026  0.2998 -0.8108  0.8262
 8001SOL     OW35461   2.635   3.905   3.245 -0.6332  0.1958  0.5552
 8001SOL    HW135462   2.611   3.997   3.259 -1.2348  0.2327 -0.6526
 8001SOL    HW235463   2.638   3.906   3.149 -0.6128 -0.8341  0.5476
 8002SOL     OW35464   2.504   0.360   6.560 -0.1153 -0.5524  0.2763
 8002SOL    HW135465   2.562   0.347   6.635  1.2863  1.2663 -0.4865
 8002SOL    HW235466   2.442   0.288   6.572 -1.8060  1.3743  2.9271
 8003SOL     OW35467   3.623   1.324   8.002  0.1360 -0.0226  0.3031
 8003SOL    HW135468   3.699   1.355   8.051 -0.8764 -0.7087  2.2765
 8003SOL    HW235469   3.629   1.229   8.010  3.2023  0.2530  1.3100
 8004SOL     OW35470   2.912   1.816   6.978  0.1612  0.2282 -0.1949
 8004SOL    HW135471   2.819   1.798   6.996  0.7834 -4.9780 -2.2262
 8004SOL    HW235472   2.956   1.748   7.029  1.0771 -0.6919 -2.2175
 8005SOL     OW35473   1.350   4.504   1.558  0.4732 -0.0069  0.3613
 8005SOL    HW135474   1.262   4.492   1.594  0.3352  1.5750  0.5705
 8005SOL    HW235475   1.399   4.436   1.604  2.3296 -0.6587 -2.6006
 8006SOL     OW35476   2.292   3.073   2.769 -0.3368  0.2852 -0.4591
 8006SOL    HW135477   2.319   3.123   2.692 -0.8493  1.0102 -0.1697
 8006SOL    HW235478   2.217   3.023   2.737 -0.4510 -0.2483  0.6408
 8007SOL     OW35479   4.655   1.453   8.507 -0.6080  0.1512 -0.5038
 8007SOL    HW135480   4.584   1.454   8.572  0.4538  0.1114  0.6541
 8007SOL    HW235481   4.700   1.371   8.525 -1.4654 -0.8807 -3.0706
 8008SOL     OW35482   3.186   3.445   4.478  0.2260  0.3562 -0.3502
 8008SOL    HW135483   3.125   3.378   4.509 -0.2354  0.5190 -0.9186
 8008SOL    HW235484   3.152   3.525   4.518 -0.7453  0.2128 -0.8810
 8009SOL     OW35485   4.212   4.656   4.391 -0.1787 -0.1340  0.0925
 8009SOL    HW135486   4.215   4.562   4.373 -0.3851  0.0933 -1.1675
 8009SOL    HW235487   4.303   4.664   4.419  0.5574 -0.8128 -2.0905
 8010SOL     OW35488   3.577   0.780   1.887  0.0561  0.2147 -0.1096
 8010SOL    HW135489   3.613   0.702   1.847  0.4873  0.3505  0.0077
 8010SOL    HW235490   3.653   0.813   1.935 -0.3908 -0.2634  0.9239
 8011SOL     OW35491   3.919   4.099   7.186  0.6261  0.0233 -0.3450
 8011SOL    HW135492   3.961   4.167   7.239 -2.1305 -0.8084  2.8833
 8011SOL    HW235493   3.993   4.092   7.125  0.6647  1.0536 -0.4239
 8012SOL     OW35494   1.302   4.646   8.149  0.6447 -0.7854  0.1725
 8012SOL    HW135495   1.297   0.012   8.122 -1.1306 -1.3057 -1.2512
 8012SOL    HW235496   1.294   4.602   8.065  0.5837  0.2544 -0.3760
 8013SOL     OW35497   1.040   2.838   3.097 -0.2615  0.3839 -0.2424
 8013SOL    HW135498   0.956   2.825   3.142 -1.1796 -0.2074 -2.1505
 8013SOL    HW235499   1.094   2.777   3.148 -1.3221 -1.3577 -1.2299
 8014SOL     OW35500   2.199   0.587   7.298 -0.5396 -0.1779  0.0949
 8014SOL    HW135501   2.214   0.681   7.304 -1.4623  0.1002 -2.1381
 8014SOL    HW235502   2.131   0.584   7.231 -0.3271  0.3034 -0.1405
 8015SOL     OW35503   3.043   2.164   3.549  0.2320 -0.0882 -0.0650
 8015SOL    HW135504   2.997   2.210   3.479  1.6509  0.4465 -0.6402
 8015SOL    HW235505   2.973   2.163   3.614 -1.7141  0.9849 -2.1468
 8016SOL     OW35506   2.061   1.862   3.938  0.3389  0.3438 -0.4921
 8016SOL    HW135507   2.016   1.940   3.968 -0.2405 -1.2918  2.8673
 8016SOL    HW235508   2.048   1.802   4.012  2.1292  2.5390  1.6231
 8017SOL     OW35509   0.873   3.016  12.956  0.9296  0.0051  0.1653
 8017SOL    HW135510   0.814   3.090  12.940 -2.1141 -2.1010  1.6972
 8017SOL    HW235511   0.912   3.033  13.042  2.1976 -1.2353 -0.1690
 8018SOL     OW35512   0.317   2.794   2.554 -0.2567  0.0171 -0.1811
 8018SOL    HW135513   0.259   2.743   2.610 -0.3908  0.9062  0.4910
 8018SOL    HW235514   0.308   2.884   2.584 -0.4203  0.5920 -1.9973
 8019SOL     OW35515   2.655   3.122   2.189 -0.0137  0.3391 -0.3310
 8019SOL    HW135516   2.748   3.123   2.212  0.2697 -2.7886 -1.3072
 8019SOL    HW235517   2.661   3.117   2.093 -1.9039 -0.8526 -0.3686
 8020SOL     OW35518   3.401   4.320  17.397  0.5639  0.2456 -0.2943
 8020SOL    HW135519   3.420   4.362  17.313 -0.2653  0.8222 -0.1951
 8020SOL    HW235520   3.488   4.318  17.437 -0.7375 -0.8200  2.5082
 8021SOL     OW35521   1.624   2.006   0.710  0.1886  0.5539  0.0397
 8021SOL    HW135522   1.633   1.939   0.643 -0.0454  0.5505  0.0120
 8021SOL    HW235523   1.538   1.980   0.743  1.7789 -2.6453  1.6438
 8022SOL     OW35524   1.127   2.739   5.424  0.2015  0.8601  0.0631
 8022SOL    HW135525   1.096   2.744   5.515 -0.2266 -1.5821  0.0556
 8022SOL    HW235526   1.089   2.821   5.393 -1.7669  0.1424  0.5787
 8023SOL     OW35527   4.716   1.313   4.029 -0.7332  0.1901 -0.0079
 8023SOL    HW135528   0.025   1.224   4.019  0.4544  0.5332  1.0279
 8023SOL    HW235529   0.071   1.335   4.076 -0.7260  0.2967 -0.0713
 8024SOL     OW35530   3.821   1.966   4.694 -0.4926  0.2155 -0.1516
 8024SOL    HW135531   3.802   2.012   4.612  0.8828 -1.6036 -1.4932
 8024SOL    HW235532   3.908   2.002   4.710 -0.3029 -0.8350  1.1708
 8025SOL     OW35533   1.996   3.700   4.114  0.3955  0.7051  0.1675
 8025SOL    HW135534   2.063   3.640   4.082 -0.3454 -0.0213 -0.0477
 8025SOL    HW235535   2.016   3.783   4.071  1.1851  0.5097  0.1686
 8026SOL     OW35536   1.604   0.333   6.538  0.7108 -0.2170 -0.1888
 8026SOL    HW135537   1.574   0.312   6.626 -0.1385  2.0806  0.0478
 8026SOL    HW235538   1.696   0.307   6.546  0.6002 -0.9539 -1.2912
 8027SOL     OW35539   1.186   2.858   7.100 -0.1484  0.5822  0.0088
 8027SOL    HW135540   1.236   2.917   7.155  0.4729 -0.3873  0.4808
 8027SOL    HW235541   1.218   2.775   7.136  1.8457  1.7799  1.0067
 8028SOL     OW35542   4.201   1.282  16.567 -0.1326  0.5916  0.6594
 8028SOL    HW135543   4.270   1.297  16.631  0.8080 -1.5697  0.1535
 8028SOL    HW235544   4.120   1.275  16.618  0.4444  0.7748  1.6016
 8029SOL     OW35545   1.080   3.471   0.758 -0.0590  0.5355  0.0664
 8029SOL    HW135546   1.050   3.560   0.777 -1.8010 -0.2727  1.1079
 8029SOL    HW235547   1.173   3.481   0.779 -0.2618 -3.2180  2.7424
 8030SOL     OW35548   4.159   2.706   7.054  0.0334  0.4316  0.0283
 8030SOL    HW135549   4.131   2.713   6.963  0.6735  1.8939 -0.0482
 8030SOL    HW235550   4.180   2.798   7.071  1.3811  0.2168 -0.5177
 8031SOL     OW35551   0.858   2.883  15.009 -0.7251  0.3762 -0.3526
 8031SOL    HW135552   0.927   2.825  14.976 -0.2907  1.0249 -0.5750
 8031SOL    HW235553   0.912   2.934  15.069 -1.0632 -0.2643  0.5079
 8032SOL     OW35554   0.687   3.961   4.430 -0.4270 -0.1688 -0.5402
 8032SOL    HW135555   0.710   3.999   4.345  0.6542  1.3635  0.4422
 8032SOL    HW235556   0.592   3.973   4.438 -0.2260  1.5494 -0.7687
 8033SOL     OW35557   3.376   4.315   7.799  0.2415  0.2727 -0.3389
 8033SOL    HW135558   3.410   4.235   7.839  0.1394  0.7817  0.7753
 8033SOL    HW235559   3.376   4.284   7.709 -1.6174 -0.0663 -0.2183
 8034SOL     OW35560   0.972   4.102   8.102  0.1793  0.9608  0.0858
 8034SOL    HW135561   0.906   4.055   8.050 -0.8081  1.5333  0.8083
 8034SOL    HW235562   0.974   4.043   8.177 -0.5375  1.0688  0.1980
 8035SOL     OW35563   3.571   3.822   6.497 -0.0146 -0.5075  0.4508
 8035SOL    HW135564   3.477   3.811   6.479 -0.0400 -1.1864  1.0014
 8035SOL    HW235565   3.572   3.880   6.573  1.3461  1.7916 -1.3269
 8036SOL     OW35566   1.608   1.753   9.502  0.5343  0.0021 -0.2137
 8036SOL    HW135567   1.592   1.743   9.595 -0.6340  0.6748 -0.3464
 8036SOL    HW235568   1.659   1.834   9.498 -0.4702  0.6166 -0.5697
 8037SOL     OW35569   2.012   0.802   4.190  0.0157  0.4025 -0.3122
 8037SOL    HW135570   1.977   0.716   4.168 -0.8210  0.4825  0.7161
 8037SOL    HW235571   2.033   0.829   4.101  0.7725  0.4391 -0.1267
 8038SOL     OW35572   2.197   4.473   3.389  0.3874  0.2595  0.0650
 8038SOL    HW135573   2.220   4.424   3.310  0.2707  0.8209 -0.3128
 8038SOL    HW235574   2.282   4.481   3.432 -0.1687  1.2274  0.9730
 8039SOL     OW35575   1.150   0.776   4.427  0.0813 -0.0383 -0.2858
 8039SOL    HW135576   1.072   0.731   4.459 -0.4591  0.9388 -0.2299
 8039SOL    HW235577   1.143   0.867   4.456  3.3554 -0.3681  1.5133
 8040SOL     OW35578   2.052   3.994  13.132 -0.2581 -0.1446 -0.4407
 8040SOL    HW135579   2.071   3.994  13.226 -0.2805 -2.5786 -0.4513
 8040SOL    HW235580   2.020   3.904  13.122  0.6908 -0.3628 -1.4992
 8041SOL     OW35581   3.691   2.949  14.427 -0.2775 -0.0958 -0.0631
 8041SOL    HW135582   3.612   2.909  14.463  0.3890 -0.8638  0.5276
 8041SOL    HW235583   3.750   2.924  14.497 -0.4254 -0.3627 -0.0374
 8042SOL     OW35584   2.016   3.400  15.827 -0.0707 -0.6536  0.5882
 8042SOL    HW135585   1.921   3.392  15.823 -0.1240 -0.9561  2.5473
 8042SOL    HW235586   2.026   3.487  15.866 -0.0886 -0.4458  0.1268
 8043SOL     OW35587   3.044   4.101  15.154  0.1440  0.1467  0.1114
 8043SOL    HW135588   3.043   4.038  15.226 -1.1424 -0.4280 -0.4127
 8043SOL    HW235589   3.129   4.143  15.166  0.0796 -0.3713  2.4599
 8044SOL     OW35590   4.116   3.442   8.401 -0.1601  0.0712  0.4011
 8044SOL    HW135591   4.189   3.381   8.387  0.0551  0.5103 -0.4264
 8044SOL    HW235592   4.167   3.521   8.380 -1.5049  0.6212 -0.7942
 8045SOL     OW35593   3.712   3.449   2.867 -0.3367 -0.1520  0.3741
 8045SOL    HW135594   3.747   3.530   2.903 -1.3322  0.7086 -0.6228
 8045SOL    HW235595   3.739   3.389   2.938  1.0432  0.6783  0.5430
 8046SOL     OW35596   4.015   3.905   7.546  0.0272  0.3469  0.3650
 8046SOL    HW135597   3.994   3.854   7.624  0.8745  0.1510  0.4702
 8046SOL    HW235598   4.046   3.986   7.586 -2.2785  2.1741 -1.5484
 8047SOL     OW35599   0.377   3.190  17.426  0.3538 -0.3566  0.4733
 8047SOL    HW135600   0.322   3.214  17.500 -0.7718  0.9241 -0.7810
 8047SOL    HW235601   0.318   3.132  17.377 -0.4605 -0.7164  1.8829
 8048SOL     OW35602   1.104   0.023   7.489 -0.4881  0.4475 -0.0404
 8048SOL    HW135603   1.170   0.025   7.558  0.1337  0.8635 -0.6411
 8048SOL    HW235604   1.052   0.100   7.515  0.8944  0.9294  1.3118
 8049SOL     OW35605   1.403   4.065   9.657  0.5968  0.2060  0.5892
 8049SOL    HW135606   1.316   4.029   9.640  0.9052 -0.2709  0.0127
 8049SOL    HW235607   1.454   3.986   9.677  1.6102  1.0353  1.3121
 8050SOL     OW35608   1.259   3.469   9.858 -0.0929  0.0657 -0.3706
 8050SOL    HW135609   1.202   3.459   9.934  3.4005 -0.3417  2.1867
 8050SOL    HW235610   1.255   3.387   9.810 -0.4710  1.1294 -2.1698
 8051SOL     OW35611   4.621   4.449  16.720 -0.1598 -0.3076  0.0156
 8051SOL    HW135612   4.621   4.544  16.718  2.4444 -0.3959 -3.9272
 8051SOL    HW235613   4.530   4.427  16.700  0.6962 -1.9818 -2.0864
 8052SOL     OW35614   3.404   1.874   9.427  0.5391 -0.5647 -0.3158
 8052SOL    HW135615   3.439   1.785   9.429 -3.0818 -1.9866 -0.6034
 8052SOL    HW235616   3.479   1.932   9.442  0.8645 -0.9574 -0.4093
 8053SOL     OW35617   3.155   0.321   3.613  0.9570  0.0687  0.0882
 8053SOL    HW135618   3.247   0.317   3.641 -0.2985 -0.5180  4.1872
 8053SOL    HW235619   3.157   0.343   3.520 -1.1441  0.6437  0.1762
 8054SOL     OW35620   1.795   3.749   0.173  0.1104  0.4629 -0.6334
 8054SOL    HW135621   1.779   3.774   0.082  2.4412 -0.5448 -1.3327
 8054SOL    HW235622   1.758   3.661   0.172 -0.1153  0.5489  0.5367
 8055SOL     OW35623   1.790   1.643  11.270 -0.5825  0.0721  0.7605
 8055SOL    HW135624   1.812   1.719  11.215  0.7826 -0.6992  0.2454
 8055SOL    HW235625   1.796   1.569  11.210  2.4348 -0.7268  2.0367
 8056SOL     OW35626   3.952   1.536  13.939 -0.2032  0.1709 -0.1548
 8056SOL    HW135627   4.029   1.480  13.941  1.6967  2.6442 -2.6727
 8056SOL    HW235628   3.887   1.498  13.879  0.6766  0.9493 -1.6022
 8057SOL     OW35629   2.954   1.705  13.783 -0.3339 -0.1815  0.6114
 8057SOL    HW135630   2.912   1.627  13.818  1.2858 -1.2883  0.0735
 8057SOL    HW235631   2.937   1.688  13.691  0.6728 -0.3242  0.4506
 8058SOL     OW35632   2.821   0.946   1.619 -0.2662 -0.2062  0.5364
 8058SOL    HW135633   2.897   0.993   1.653 -0.9626  0.7474  0.7557
 8058SOL    HW235634   2.751   1.000   1.656  0.5473  0.7224  0.7325
 8059SOL     OW35635   1.151   4.139   8.458  0.1723 -0.6169 -0.3334
 8059SOL    HW135636   1.151   4.050   8.494 -0.6676 -0.7969 -0.7766
 8059SOL    HW235637   1.244   4.149   8.438  0.4760 -2.3603  0.1967
 8060SOL     OW35638   2.084   3.928   7.592  0.0018 -0.4403 -0.5069
 8060SOL    HW135639   2.085   3.844   7.546 -2.0689 -0.2923 -0.8200
 8060SOL    HW235640   2.005   3.900   7.638 -1.7055  1.5678 -2.2354
 8061SOL     OW35641   2.577   2.760   8.494  0.1504  0.3128  0.4230
 8061SOL    HW135642   2.514   2.727   8.558 -1.4713  0.8463 -0.9074
 8061SOL    HW235643   2.661   2.739   8.535 -0.3808 -0.7826  0.9611
 8062SOL     OW35644   1.929   3.809   5.582  0.0203 -0.1426  0.1926
 8062SOL    HW135645   1.967   3.797   5.496  2.6874 -1.0159  1.4901
 8062SOL    HW235646   1.990   3.784   5.651 -0.6964 -1.4656  0.3603
 8063SOL     OW35647   1.831   4.185   6.610 -0.2763 -0.0362 -0.3541
 8063SOL    HW135648   1.867   4.100   6.636  0.1075 -0.0500 -0.9258
 8063SOL    HW235649   1.793   4.162   6.525 -2.5856 -0.5713  0.8350
 8064SOL     OW35650   1.729   2.784   7.604  0.2445  0.2941  0.4805
 8064SOL    HW135651   1.791   2.804   7.534  0.5656  0.1096  0.7132
 8064SOL    HW235652   1.652   2.767   7.550  0.2725 -3.0633  1.4777
 8065SOL     OW35653   4.455   1.812   6.225  0.3109 -0.1791  0.4920
 8065SOL    HW135654   4.547   1.797   6.202  0.3738  0.5133  0.2773
 8065SOL    HW235655   4.436   1.745   6.291  1.2513 -1.0137 -0.0819
 8066SOL     OW35656   4.170   0.541   9.313 -0.1256  0.5314  0.0719
 8066SOL    HW135657   4.185   0.491   9.233 -1.2864  1.3829 -0.7020
 8066SOL    HW235658   4.255   0.537   9.356  0.9753 -0.0182 -2.1933
 8067SOL     OW35659   4.706   1.471  16.545 -0.0989 -0.6339  0.3095
 8067SOL    HW135660   0.051   1.509  16.492  0.3433  0.4634  1.6715
 8067SOL    HW235661   4.644   1.446  16.476 -1.9381 -1.1281  2.1368
 8068SOL     OW35662   3.795   3.944  10.613  0.2885  0.2927  0.7639
 8068SOL    HW135663   3.716   3.993  10.634  1.4431  1.4562  2.3859
 8068SOL    HW235664   3.849   3.961  10.690  2.6112  0.1429 -0.8194
 8069SOL     OW35665   2.600   1.054   1.728  0.4103  0.4235 -0.4327
 8069SOL    HW135666   2.614   1.115   1.801  0.1585 -0.3094  0.2331
 8069SOL    HW235667   2.504   1.055   1.728  0.4033  1.1261  1.9145
 8070SOL     OW35668   0.598   1.544   3.005  0.2676  0.4772 -0.0356
 8070SOL    HW135669   0.536   1.547   2.932  0.6160  1.2490 -0.2976
 8070SOL    HW235670   0.669   1.602   2.976  0.9861 -0.4257 -0.0579
 8071SOL     OW35671   2.619   1.397   7.574 -0.2775  0.2392 -0.2008
 8071SOL    HW135672   2.621   1.492   7.566  0.4506  0.0976 -1.6968
 8071SOL    HW235673   2.693   1.380   7.515 -0.5106  0.5081 -0.5765
 8072SOL     OW35674   4.295   1.307   8.969 -0.5836 -0.2527 -0.0264
 8072SOL    HW135675   4.341   1.389   8.986 -0.5416  0.0962 -1.7867
 8072SOL    HW235676   4.204   1.319   8.995 -0.4075  2.4321 -0.6349
 8073SOL     OW35677   4.358   0.020   7.672 -0.6864 -0.3037  0.0989
 8073SOL    HW135678   4.452   0.029   7.690 -0.2608 -3.6635 -0.4030
 8073SOL    HW235679   4.346   0.078   7.597 -1.1280 -0.6451 -0.0964
 8074SOL     OW35680   0.534   1.898   7.248 -0.7128 -0.1148 -0.5428
 8074SOL    HW135681   0.545   1.985   7.209  0.2527  0.3559  0.7804
 8074SOL    HW235682   0.492   1.923   7.330 -0.0508 -1.7975  0.3225
 8075SOL     OW35683   0.639   1.576   2.112 -0.0099 -0.1264 -0.4023
 8075SOL    HW135684   0.600   1.592   2.198 -0.3693 -0.9595 -0.4060
 8075SOL    HW235685   0.725   1.541   2.135 -0.5486 -0.4672  1.0954
 8076SOL     OW35686   1.151   3.101   3.491  0.7203  0.5919 -0.5103
 8076SOL    HW135687   1.245   3.085   3.491  0.2793 -1.9791 -2.0523
 8076SOL    HW235688   1.142   3.180   3.437 -1.1711  0.8317  0.1358
 8077SOL     OW35689   0.763   2.666  10.333  0.0826 -0.1180  0.1972
 8077SOL    HW135690   0.817   2.743  10.351 -0.6573  0.6810 -0.9721
 8077SOL    HW235691   0.710   2.700  10.261 -1.4430  2.0546  2.3475
 8078SOL     OW35692   0.970   4.063   3.434  0.4212  0.0555  0.5595
 8078SOL    HW135693   0.999   4.065   3.343 -0.5349  0.0978  0.2571
 8078SOL    HW235694   1.045   4.112   3.469  0.4229  0.2880  0.2274
 8079SOL     OW35695   4.545   2.571  13.221 -0.4319  0.0039  0.7486
 8079SOL    HW135696   4.591   2.623  13.287 -1.0540  0.9712  0.4251
 8079SOL    HW235697   4.566   2.609  13.136  0.3325 -1.6544  0.1925
 8080SOL     OW35698   1.604   2.387   2.929  0.1232  0.0962  0.1494
 8080SOL    HW135699   1.537   2.319   2.924  1.6773 -1.3561 -0.7790
 8080SOL    HW235700   1.669   2.351   2.869 -0.7847 -1.0677 -0.1367
 8081SOL     OW35701   0.530   3.424   2.833  0.3676  0.1236  0.0873
 8081SOL    HW135702   0.600   3.420   2.768  1.4825  0.8901  1.2643
 8081SOL    HW235703   0.518   3.331   2.852 -0.2466  0.2058  0.1259
 8082SOL     OW35704   0.739   0.342   8.287  0.0972  0.3118  0.5706
 8082SOL    HW135705   0.700   0.378   8.367 -0.0209  0.1570  0.5836
 8082SOL    HW235706   0.665   0.356   8.227  1.3541  1.9650 -0.5999
 8083SOL     OW35707   4.697   4.498   6.255  0.0836 -0.2900 -0.6760
 8083SOL    HW135708   4.679   4.418   6.304 -1.6972  0.3416 -0.2987
 8083SOL    HW235709   0.067   4.499   6.254  0.1203 -1.0981  1.0776
 8084SOL     OW35710   3.817   4.389   7.141 -0.1250 -0.6744  0.0895
 8084SOL    HW135711   3.799   4.481   7.162 -0.0629 -0.4597 -0.7869
 8084SOL    HW235712   3.895   4.377   7.193 -0.6521 -1.0524  0.7879
 8085SOL     OW35713   2.751   1.484   3.089  0.4959 -0.4415  0.9854
 8085SOL    HW135714   2.660   1.501   3.065  0.9051  3.4734  2.2226
 8085SOL    HW235715   2.780   1.575   3.094  1.3012 -0.6761  0.6188
 8086SOL     OW35716   0.456   3.843   8.952  0.6068  0.4269  0.4888
 8086SOL    HW135717   0.364   3.829   8.933  1.1435 -3.6138  0.8620
 8086SOL    HW235718   0.450   3.938   8.962  1.8981  0.2422  2.8717
 8087SOL     OW35719   2.766   0.353   1.003 -0.7126 -0.4222 -0.3028
 8087SOL    HW135720   2.702   0.283   1.018 -1.0042 -0.3998 -1.5042
 8087SOL    HW235721   2.754   0.375   0.911 -0.2542 -1.9975 -0.7503
 8088SOL     OW35722   0.942   0.548  15.403  0.0549  0.5632 -0.0889
 8088SOL    HW135723   0.873   0.584  15.457 -0.5166 -0.8025  0.0894
 8088SOL    HW235724   0.985   0.501  15.475 -2.8889  0.9808  1.8929
 8089SOL     OW35725   1.620   1.785  17.511 -0.2811  0.0175 -0.4626
 8089SOL    HW135726   1.630   1.850  17.441  0.4798 -1.6281 -1.8628
 8089SOL    HW235727   1.623   1.699  17.470  1.1438  0.2567 -0.8622
 8090SOL     OW35728   4.702   2.530   9.537 -0.1584  0.0313 -0.4894
 8090SOL    HW135729   4.681   2.525   9.631  0.7150 -1.2888 -0.3673
 8090SOL    HW235730   4.654   2.452   9.508  0.0953 -0.5480  0.6141
 8091SOL     OW35731   1.730   0.494   3.043  0.0968 -0.3388 -0.0208
 8091SOL    HW135732   1.801   0.553   3.019  1.0471 -1.4321  0.1110
 8091SOL    HW235733   1.773   0.409   3.049  0.0312 -0.3889 -0.2657
 8092SOL     OW35734   2.239   1.247  15.516 -0.0508 -0.5118 -0.6231
 8092SOL    HW135735   2.334   1.242  15.525  0.1846  2.5870 -1.2220
 8092SOL    HW235736   2.227   1.292  15.599 -1.4816 -3.5519  0.8234
 8093SOL     OW35737   2.029   1.306  16.145 -0.2573 -0.9710  0.0074
 8093SOL    HW135738   1.953   1.275  16.095  0.0516  1.6915 -2.0870
 8093SOL    HW235739   1.999   1.302  16.236 -1.4542 -0.0269 -0.3328
 8094SOL     OW35740   1.411   0.213   8.363 -0.0399  0.8004 -0.8785
 8094SOL    HW135741   1.326   0.258   8.366 -0.5825 -0.2059 -0.9762
 8094SOL    HW235742   1.460   0.282   8.409  0.8470 -1.2420  1.2166
 8095SOL     OW35743   3.550   3.354   9.261 -0.3871  0.1344 -1.0093
 8095SOL    HW135744   3.522   3.262   9.266 -1.8904  0.6052 -1.0326
 8095SOL    HW235745   3.482   3.393   9.315 -1.6110 -0.1004 -2.3648
 8096SOL     OW35746   4.676   2.565   2.418  0.0811  0.0143 -0.4114
 8096SOL    HW135747   4.722   2.602   2.494  0.9770 -2.9297  0.4833
 8096SOL    HW235748   0.026   2.530   2.372 -0.0052  0.9419 -1.2532
 8097SOL     OW35749   1.037   2.241   3.314  0.1547 -0.1717 -0.3051
 8097SOL    HW135750   1.065   2.332   3.305  0.1084 -0.1334 -0.0604
 8097SOL    HW235751   0.943   2.258   3.314 -0.2529 -2.4695 -0.7789
 8098SOL     OW35752   0.462   3.319   7.867  0.0456 -0.0216 -0.4886
 8098SOL    HW135753   0.554   3.339   7.883 -0.3905  1.2893  0.3925
 8098SOL    HW235754   0.440   3.286   7.955 -0.3420 -1.7139 -1.2134
 8099SOL     OW35755   0.647   1.799   1.487 -0.2479 -0.2547  0.2484
 8099SOL    HW135756   0.587   1.861   1.529 -0.9899 -1.1493  0.5137
 8099SOL    HW235757   0.597   1.718   1.500 -4.3114  1.7972 -2.6387
 8100SOL     OW35758   1.138   4.566  10.224  0.3776  0.6652  0.2293
 8100SOL    HW135759   1.091   4.493  10.183  0.9393 -1.0227  2.5912
 8100SOL    HW235760   1.230   4.558  10.200  0.3622  0.9697  0.0700
 8101SOL     OW35761   2.732   0.414   3.205  0.2782 -0.0453  0.0821
 8101SOL    HW135762   2.705   0.451   3.121  0.6801 -1.3930 -0.6444
 8101SOL    HW235763   2.672   0.341   3.222 -0.1710  0.3189  0.0578
 8102SOL     OW35764   3.992   3.686  16.121 -0.5046 -0.0830 -0.0459
 8102SOL    HW135765   3.909   3.642  16.106  0.9988 -2.4111 -1.4925
 8102SOL    HW235766   3.963   3.762  16.171 -0.4178 -0.7446  1.0146
 8103SOL     OW35767   4.587   2.005   9.045 -0.5778  0.9493  0.0953
 8103SOL    HW135768   4.547   1.939   9.100 -0.4080  0.0231 -0.9050
 8103SOL    HW235769   4.519   2.006   8.978  1.4675  2.3573 -1.9595
 8104SOL     OW35770   3.609   0.348  14.584  0.4736 -0.0986 -0.0821
 8104SOL    HW135771   3.519   0.364  14.554  0.1458 -1.3358  0.2450
 8104SOL    HW235772   3.591   0.276  14.643  0.8079 -0.3246 -0.2585
 8105SOL     OW35773   2.567   2.089   8.984  0.2188  0.5531  1.0126
 8105SOL    HW135774   2.619   2.149   9.038  0.2935  0.3368  1.1788
 8105SOL    HW235775   2.631   2.020   8.970  0.3012  0.9511 -0.6066
 8106SOL     OW35776   4.507   4.497  11.509 -0.4694  0.0670 -0.0592
 8106SOL    HW135777   4.467   4.472  11.592 -0.6293  2.0778  0.4661
 8106SOL    HW235778   4.461   4.447  11.442 -0.4272 -0.1382  0.0679
 8107SOL     OW35779   2.090   3.768   4.861  0.4156  0.3610 -0.2686
 8107SOL    HW135780   2.043   3.788   4.942  0.5570  1.8356 -0.5371
 8107SOL    HW235781   2.180   3.791   4.885  0.3664  0.5331 -0.2451
 8108SOL     OW35782   0.234   2.144   1.896  0.4759 -0.2847  0.4344
 8108SOL    HW135783   0.183   2.066   1.875 -3.0238  0.9750  4.2930
 8108SOL    HW235784   0.194   2.152   1.983 -1.5055 -0.2832 -0.4750
 8109SOL     OW35785   3.841   2.932  11.727  0.4935  0.1016 -0.7488
 8109SOL    HW135786   3.867   3.024  11.728  1.6621 -0.2307 -0.4948
 8109SOL    HW235787   3.803   2.927  11.814  0.1027 -1.9046 -1.0363
 8110SOL     OW35788   0.936   0.053  16.103 -0.0473 -0.5105  0.0042
 8110SOL    HW135789   0.854   0.016  16.136  0.0402 -2.0289 -1.4492
 8110SOL    HW235790   0.905   0.083  16.018 -0.1866  0.7346  0.4969
 8111SOL     OW35791   1.214   4.578   8.904 -0.6576  0.8757 -0.2627
 8111SOL    HW135792   1.249   4.597   8.818  0.3139  1.0428  0.1703
 8111SOL    HW235793   1.174   4.665   8.912  0.3500  1.4499 -1.4880
 8112SOL     OW35794   1.331   2.222  15.481  0.2308 -0.0650  0.9975
 8112SOL    HW135795   1.389   2.294  15.456 -2.6448  1.6565 -0.7702
 8112SOL    HW235796   1.280   2.205  15.401 -0.7277 -2.5250  2.1201
 8113SOL     OW35797   0.931   3.707  11.917 -0.5654 -0.3383  0.2050
 8113SOL    HW135798   0.970   3.742  11.997 -1.7437  2.4861 -0.4797
 8113SOL    HW235799   0.982   3.626  11.922  2.0304  0.8854 -6.2309
 8114SOL     OW35800   1.916   3.291  17.618  0.2242  0.5792 -0.8045
 8114SOL    HW135801   1.919   3.228  17.690  1.2200 -0.6740 -1.9393
 8114SOL    HW235802   1.889   3.233  17.546  1.8315 -0.0932 -0.8566
 8115SOL     OW35803   3.296   3.864   4.496  0.4137 -0.4096 -0.6035
 8115SOL    HW135804   3.385   3.851   4.465  0.0954 -1.6462 -1.0140
 8115SOL    HW235805   3.287   3.956   4.469 -0.9948 -0.2234  0.5110
 8116SOL     OW35806   1.207   2.245  13.447 -0.2150 -0.1443 -0.1854
 8116SOL    HW135807   1.257   2.322  13.475 -0.6594  0.0706  0.0216
 8116SOL    HW235808   1.259   2.219  13.372  0.5493 -0.2647  0.3823
 8117SOL     OW35809   4.245   1.791   7.418 -0.4192  0.1755 -0.0023
 8117SOL    HW135810   4.330   1.770   7.379 -0.7385  0.7048 -0.9848
 8117SOL    HW235811   4.271   1.865   7.472  1.9612 -1.9209  1.6837
 8118SOL     OW35812   4.106   2.339   2.331  0.0127 -0.3264  0.2609
 8118SOL    HW135813   4.185   2.330   2.278  0.1397  1.2983  0.1731
 8118SOL    HW235814   4.111   2.264   2.390  0.8265 -0.6482 -0.2272
 8119SOL     OW35815   3.485   2.112  11.105 -0.2446 -0.1483 -0.4235
 8119SOL    HW135816   3.574   2.139  11.084 -0.5235  1.1788  0.0818
 8119SOL    HW235817   3.499   2.018  11.111  1.0220  0.1386  0.8512
 8120SOL     OW35818   1.755   4.723   7.236  0.2011  0.2101  0.1706
 8120SOL    HW135819   1.686   0.014   7.300 -0.8536  1.6354 -1.3301
 8120SOL    HW235820   1.831   4.722   7.294  1.7689  2.4130 -1.8481
 8121SOL     OW35821   4.597   1.761  10.992 -0.4727  0.3784  0.4402
 8121SOL    HW135822   4.634   1.839  11.033 -0.4592  1.1438 -1.0292
 8121SOL    HW235823   4.518   1.797  10.951 -2.4590 -1.1035  2.9606
 8122SOL     OW35824   0.837   2.162   8.436 -0.8042 -0.5714  0.0611
 8122SOL    HW135825   0.781   2.134   8.363 -0.1111 -0.9970 -0.3065
 8122SOL    HW235826   0.921   2.169   8.391 -0.8305 -0.4186  0.0361
 8123SOL     OW35827   3.789   3.759  15.338  0.3101 -0.3376  0.2737
 8123SOL    HW135828   3.845   3.764  15.415 -1.1331 -1.8686  1.4348
 8123SOL    HW235829   3.724   3.826  15.361  0.9789  0.0825  0.9067
 8124SOL     OW35830   0.965   0.235  16.285 -0.6466  0.1806 -0.5214
 8124SOL    HW135831   0.912   0.226  16.365  0.2266 -0.8206 -0.0636
 8124SOL    HW235832   0.941   0.150  16.248  0.7237 -0.0485 -0.8533
 8125SOL     OW35833   0.422   0.065   2.265  0.6055 -0.1179  0.1971
 8125SOL    HW135834   0.500   0.106   2.226 -0.7709  3.4127  1.1933
 8125SOL    HW235835   0.456   4.710   2.304  0.3740 -0.3881 -0.1691
 8126SOL     OW35836   3.971   0.258  15.580  0.1039 -0.3520 -1.0260
 8126SOL    HW135837   3.927   0.199  15.642  0.3726 -0.9946 -1.4430
 8126SOL    HW235838   4.037   0.202  15.539  2.8179  2.4060 -0.3862
 8127SOL     OW35839   2.616   0.298   6.789 -0.9413  0.4263  0.1454
 8127SOL    HW135840   2.603   0.328   6.879 -1.3061  0.7673 -0.0190
 8127SOL    HW235841   2.711   0.288   6.780 -0.9265  0.3356  0.4050
 8128SOL     OW35842   2.310   4.490  10.778  0.7786 -0.3071 -0.3342
 8128SOL    HW135843   2.267   4.490  10.693  1.2546 -0.9776 -0.5724
 8128SOL    HW235844   2.238   4.510  10.839  0.8933  1.2389 -0.7049
 8129SOL     OW35845   3.984   2.644   1.461  0.0659  0.0733 -0.0998
 8129SOL    HW135846   4.062   2.596   1.487  0.2961  1.7869  2.3941
 8129SOL    HW235847   3.937   2.646   1.545 -0.7236 -0.8770 -0.5110
 8130SOL     OW35848   2.775   3.192  12.559 -0.2806  0.1544  0.6539
 8130SOL    HW135849   2.822   3.191  12.475  0.8819 -0.1512  1.3001
 8130SOL    HW235850   2.818   3.271  12.591  0.1954 -0.0128  0.4304
 8131SOL     OW35851   2.736   4.057  17.260  0.3857  0.4204  0.8147
 8131SOL    HW135852   2.669   4.016  17.205  1.3305  0.2395 -0.1979
 8131SOL    HW235853   2.722   4.008  17.341  1.9959  0.0822  0.8935
 8132SOL     OW35854   1.598   3.633   8.692 -0.0294 -0.0657 -0.3823
 8132SOL    HW135855   1.678   3.682   8.713 -0.4501 -0.5193  2.2676
 8132SOL    HW235856   1.642   3.575   8.629 -1.9004 -0.5858 -1.1920
 8133SOL     OW35857   0.013   1.871   6.012 -0.9367 -0.3723  0.2916
 8133SOL    HW135858   4.714   1.779   6.002  0.8889 -0.7503 -0.9317
 8133SOL    HW235859   4.657   1.909   5.980 -0.1097  0.8460 -0.4116
 8134SOL     OW35860   4.412   2.729  10.269 -0.0159 -0.1219  0.9331
 8134SOL    HW135861   4.423   2.637  10.247  1.2602  0.1547  0.3894
 8134SOL    HW235862   4.332   2.724  10.321 -0.7229  0.9552 -0.0497
 8135SOL     OW35863   3.740   4.329   5.273 -0.0539 -0.3825 -0.0026
 8135SOL    HW135864   3.771   4.288   5.193 -1.4099 -0.1335 -0.6566
 8135SOL    HW235865   3.737   4.421   5.245 -2.4663 -0.2941  0.5598
 8136SOL     OW35866   4.101   0.681   3.696 -0.4145  0.0912 -0.2092
 8136SOL    HW135867   4.116   0.731   3.777 -0.0601 -1.0401  0.4224
 8136SOL    HW235868   4.055   0.607   3.735  1.2704  0.4077  2.4093
 8137SOL     OW35869   3.107   0.251  14.302  0.0704  0.5637 -0.2039
 8137SOL    HW135870   3.029   0.197  14.294  0.2018  0.5844 -1.6826
 8137SOL    HW235871   3.167   0.189  14.260  0.1372  1.6254 -1.7017
 8138SOL     OW35872   3.087   0.677   1.968 -0.4243 -0.2194 -0.6573
 8138SOL    HW135873   3.086   0.770   1.945  2.3502  0.1306  0.5825
 8138SOL    HW235874   3.179   0.660   1.991 -0.1907  2.7386  0.5633
 8139SOL     OW35875   3.733   2.145   2.745 -0.1456 -0.1546 -0.2082
 8139SOL    HW135876   3.671   2.077   2.719 -1.8837  2.2256 -2.3955
 8139SOL    HW235877   3.673   2.200   2.796 -0.6713 -3.1804  2.3515
 8140SOL     OW35878   0.993   2.630   4.601  0.0693  0.1399 -0.7434
 8140SOL    HW135879   0.974   2.544   4.565  0.8456  0.1092 -1.0683
 8140SOL    HW235880   1.069   2.604   4.653 -0.9996  1.8138  1.6922
 8141SOL     OW35881   3.941   0.004   4.452 -0.5825 -0.2606  0.7206
 8141SOL    HW135882   4.013   4.679   4.415 -0.1512  1.6529 -1.0673
 8141SOL    HW235883   3.987   0.053   4.520  0.2414 -0.6428  0.4402
 8142SOL     OW35884   4.091   1.818   7.165 -0.3951  0.0018  0.2971
 8142SOL    HW135885   4.104   1.912   7.151  0.9666  0.0752  2.0875
 8142SOL    HW235886   4.156   1.813   7.236  1.2516 -2.9388 -1.4233
 8143SOL     OW35887   4.136   1.636   8.783  0.0460  0.5020  0.4403
 8143SOL    HW135888   4.058   1.580   8.775  1.6722 -2.0896  2.7260
 8143SOL    HW235889   4.198   1.576   8.823 -0.0160 -0.0642 -0.3193
 8144SOL     OW35890   3.883   0.878   2.508  0.2832 -0.1406 -0.4352
 8144SOL    HW135891   3.827   0.891   2.431 -0.1616  1.0686  0.0956
 8144SOL    HW235892   3.967   0.857   2.468 -1.5150 -3.8716 -2.3132
 8145SOL     OW35893   2.456   3.984   4.323 -0.0748 -0.1682  0.4349
 8145SOL    HW135894   2.431   3.929   4.397  0.6673 -1.3756 -0.2244
 8145SOL    HW235895   2.535   4.027   4.356 -0.0613  0.0155  0.1598
 8146SOL     OW35896   2.349   3.170   2.148  0.0303 -0.2639  0.2074
 8146SOL    HW135897   2.380   3.190   2.059 -1.8848 -2.0842 -0.8637
 8146SOL    HW235898   2.429   3.182   2.198  0.1327  0.0171 -0.0242
 8147SOL     OW35899   3.283   2.042   7.052  0.1787  0.6278 -0.1234
 8147SOL    HW135900   3.290   1.946   7.054 -1.1158  0.5376  0.4724
 8147SOL    HW235901   3.349   2.046   7.120 -0.5540 -0.6225  0.6804
 8148SOL     OW35902   1.537   4.341   7.032 -0.1142  0.2808 -0.3650
 8148SOL    HW135903   1.532   4.249   7.009 -1.1985  0.6013 -1.3738
 8148SOL    HW235904   1.456   4.366   6.987 -0.2843 -0.1650 -0.3026
 8149SOL     OW35905   2.157   3.958   7.227  0.1133 -0.2381  0.3450
 8149SOL    HW135906   2.192   4.039   7.263  0.9443 -0.8806  0.9814
 8149SOL    HW235907   2.196   3.895   7.288 -0.2845 -0.7558  0.0654
 8150SOL     OW35908   1.696   0.450   9.718  0.1708 -0.0500  0.1231
 8150SOL    HW135909   1.776   0.398   9.718 -0.0712 -0.4227 -1.6741
 8150SOL    HW235910   1.638   0.405   9.658 -0.4205  1.1337 -0.1975
 8151SOL     OW35911   1.794   0.757   9.142  0.2117 -0.2651  0.1953
 8151SOL    HW135912   1.864   0.697   9.167 -1.1634 -1.4278  1.3049
 8151SOL    HW235913   1.799   0.819   9.215  0.2694  0.3702 -0.3503
 8152SOL     OW35914   4.092   1.118  13.517  0.3920 -0.7317 -0.4155
 8152SOL    HW135915   4.035   1.149  13.587 -0.2023 -0.5462 -0.9778
 8152SOL    HW235916   4.069   1.025  13.524 -0.3641 -0.4387  1.0002
 8153SOL     OW35917   0.897   2.291   8.163 -0.2149 -0.0521  0.5666
 8153SOL    HW135918   0.853   2.217   8.122 -0.9886 -0.8666  2.8516
 8153SOL    HW235919   0.977   2.301   8.111 -0.2065 -1.8454  0.2203
 8154SOL     OW35920   0.750   2.706   6.086 -0.1210 -0.5089  0.3128
 8154SOL    HW135921   0.722   2.707   5.995  0.5352  0.8383  0.1365
 8154SOL    HW235922   0.697   2.632   6.118 -1.2516  0.7894  1.4356
 8155SOL     OW35923   0.462   3.622  16.612 -0.6574 -0.3147 -0.1831
 8155SOL    HW135924   0.406   3.681  16.561 -0.0427  1.5008  1.2264
 8155SOL    HW235925   0.444   3.538  16.570  0.8716  0.2478 -2.0215
 8156SOL     OW35926   4.145   3.519  15.992 -0.1841 -0.1696 -0.0239
 8156SOL    HW135927   4.080   3.516  15.921 -0.6238  1.0391  0.3180
 8156SOL    HW235928   4.107   3.586  16.049  0.4643  1.0003 -0.9516
 8157SOL     OW35929   0.691   2.367   3.466 -0.0529 -1.2121  0.0078
 8157SOL    HW135930   0.644   2.283   3.469 -0.7851 -0.7895  0.3434
 8157SOL    HW235931   0.734   2.350   3.382  0.1959  0.7377 -0.2597
 8158SOL     OW35932   3.638   1.208  12.420  0.3361  0.2301  0.5872
 8158SOL    HW135933   3.652   1.214  12.326 -0.9044 -3.1572  0.1869
 8158SOL    HW235934   3.669   1.291  12.455  1.3771  1.0516 -2.2680
 8159SOL     OW35935   0.045   3.471   8.640  0.5268 -0.1614  0.3904
 8159SOL    HW135936   0.021   3.499   8.728  0.1531  0.2992  0.1404
 8159SOL    HW235937   0.081   3.544   8.590  1.6841 -2.0428 -1.5221
 8160SOL     OW35938   0.592   3.737   7.626 -0.0420 -0.2042 -0.5044
 8160SOL    HW135939   0.637   3.701   7.702  1.0572 -0.0423 -1.0764
 8160SOL    HW235940   0.527   3.668   7.612  0.6558 -0.8147 -0.7523
 8161SOL     OW35941   2.208   4.364   8.032  0.2031 -0.3513 -0.0737
 8161SOL    HW135942   2.177   4.274   8.028  0.4928 -0.3890 -1.7367
 8161SOL    HW235943   2.152   4.408   8.096 -0.1546 -2.5396  1.0838
 8162SOL     OW35944   0.146   3.899  16.719 -0.1357  0.0344  0.1589
 8162SOL    HW135945   0.194   3.895  16.636  0.2039  1.2876  0.3041
 8162SOL    HW235946   0.065   3.855  16.693 -0.5341  1.1634 -0.4875
 8163SOL     OW35947   2.070   3.071   5.539  0.3023  0.0362 -0.5136
 8163SOL    HW135948   2.014   3.055   5.615 -0.4278 -0.1451 -1.0976
 8163SOL    HW235949   2.111   2.985   5.531 -1.5881 -0.9382  0.3353
 8164SOL     OW35950   2.895   0.579   3.779  0.5719  0.0991  0.1299
 8164SOL    HW135951   2.810   0.545   3.805 -0.0481  1.7311  0.2254
 8164SOL    HW235952   2.886   0.595   3.685 -1.2028  0.3954  0.3481
 8165SOL     OW35953   2.347   1.510   7.455  0.5117  0.0923  0.6492
 8165SOL    HW135954   2.322   1.468   7.538  0.3707  0.7274  0.9272
 8165SOL    HW235955   2.312   1.451   7.388  3.3851 -0.9873  0.1112
 8166SOL     OW35956   4.118   1.081   7.028 -0.0034 -0.4863 -0.2377
 8166SOL    HW135957   4.055   1.149   7.003 -0.5442 -1.1126 -0.5981
 8166SOL    HW235958   4.064   1.020   7.078  0.3345 -2.2038 -1.9851
 8167SOL     OW35959   3.971   1.007   9.410 -0.1568  0.1260  0.5343
 8167SOL    HW135960   3.997   1.026   9.319 -0.9933 -0.8095  0.1057
 8167SOL    HW235961   4.044   0.959   9.449  1.0312  1.4420 -0.0698
 8168SOL     OW35962   4.178   1.876  15.353  0.8578 -0.5169 -0.0815
 8168SOL    HW135963   4.273   1.867  15.366  0.6744 -3.3771 -0.5480
 8168SOL    HW235964   4.169   1.970  15.363  1.2263 -0.3797 -0.9777
 8169SOL     OW35965   4.070   2.927   3.751 -0.6545  0.0901 -0.5801
 8169SOL    HW135966   4.045   2.905   3.661  2.9905 -2.6298 -0.9159
 8169SOL    HW235967   4.090   2.841   3.785 -4.4376 -0.7385 -0.4056
 8170SOL     OW35968   3.671   4.067   3.535  0.1400  0.0729 -0.1281
 8170SOL    HW135969   3.715   3.982   3.524 -1.0321 -0.0696 -3.9656
 8170SOL    HW235970   3.579   4.041   3.521  0.6595 -1.7536 -0.2391
 8171SOL     OW35971   3.803   3.798   0.596 -0.8524  0.0861 -0.5742
 8171SOL    HW135972   3.894   3.828   0.593 -1.0557  0.7264 -0.4243
 8171SOL    HW235973   3.747   3.861   0.642 -1.5862 -1.0249  0.0497
 8172SOL     OW35974   3.302   0.756   3.081 -0.4800 -0.0047  0.1782
 8172SOL    HW135975   3.355   0.687   3.120  0.9827  0.4697 -0.9529
 8172SOL    HW235976   3.312   0.723   2.992 -1.2385 -1.8430  0.7804
 8173SOL     OW35977   2.794   3.977  12.069 -0.3033  0.0208  0.3922
 8173SOL    HW135978   2.861   4.017  12.013  0.0632  0.8669  1.4292
 8173SOL    HW235979   2.717   4.004  12.019  0.2229  2.4560  0.8691
 8174SOL     OW35980   3.673   3.125   4.365  0.5159  0.1920  0.5027
 8174SOL    HW135981   3.589   3.082   4.350  1.5233 -1.8861  0.8012
 8174SOL    HW235982   3.695   3.135   4.272 -1.9865 -1.8590 -0.3119
 8175SOL     OW35983   2.937   4.685   0.148 -0.6393  0.1776 -0.3379
 8175SOL    HW135984   2.959   0.042   0.191 -1.0752  1.0503 -1.8129
 8175SOL    HW235985   3.006   4.630   0.185 -0.0091  0.1871 -1.4925
 8176SOL     OW35986   3.279   2.527   4.462  0.3598  0.6511 -0.1665
 8176SOL    HW135987   3.329   2.585   4.405  1.2754  1.5429  1.5284
 8176SOL    HW235988   3.240   2.460   4.406 -0.6364  1.9672 -1.0471
 8177SOL     OW35989   0.609   4.560   9.031  0.0829  0.7496 -0.1580
 8177SOL    HW135990   0.615   4.641   9.081 -0.5868  1.0175 -0.5231
 8177SOL    HW235991   0.518   4.536   9.048  0.6518 -2.3011 -1.3197
 8178SOL     OW35992   1.240   0.007   3.059 -0.3681 -0.2657 -0.1826
 8178SOL    HW135993   1.145   0.016   3.062 -0.3582 -0.2694  0.1383
 8178SOL    HW235994   1.279   0.073   3.117 -0.3926  0.1723 -0.6655
 8179SOL     OW35995   0.108   4.182   4.623  0.8626 -0.2623 -0.0460
 8179SOL    HW135996   0.134   4.090   4.614 -1.5494 -0.6973 -2.8198
 8179SOL    HW235997   0.191   4.227   4.637  2.2563 -2.5027 -1.0334
 8180SOL     OW35998   4.517   2.643   6.300  0.5071 -0.2745  0.1958
 8180SOL    HW135999   4.427   2.660   6.272  1.3304  1.1562 -1.5862
 8180SOL    HW236000   4.498   2.640   6.394  0.8181  2.5561  0.3647
 8181SOL     OW36001   3.942   2.061   5.448 -0.0616  0.2148  0.6808
 8181SOL    HW136002   3.967   2.148   5.477 -1.9683  0.5209  1.4117
 8181SOL    HW236003   3.867   2.034   5.502 -0.0588 -1.8444 -0.3063
 8182SOL     OW36004   2.554   0.649   9.476  0.0452  0.0242  0.5938
 8182SOL    HW136005   2.588   0.565   9.445  2.2719  0.8348  0.7815
 8182SOL    HW236006   2.606   0.712   9.426 -0.1158  0.5933  1.1536
 8183SOL     OW36007   2.885   4.513   5.544  0.0321 -0.1144  0.1376
 8183SOL    HW136008   2.875   4.471   5.630  2.7233 -0.7371  0.1400
 8183SOL    HW236009   2.847   4.598   5.565  0.8152  0.0922  0.7516
 8184SOL     OW36010   1.388   1.200  12.476  0.1352 -0.2898  0.0835
 8184SOL    HW136011   1.348   1.286  12.489 -1.4965 -1.2109  1.1637
 8184SOL    HW236012   1.431   1.208  12.391  0.4925 -2.0136  0.0960
 8185SOL     OW36013   3.336   2.270   8.632 -0.0834 -0.0782  0.7118
 8185SOL    HW136014   3.249   2.276   8.594 -0.1625 -1.7028  0.6628
 8185SOL    HW236015   3.365   2.361   8.620 -2.5501  0.4797 -1.0594
 8186SOL     OW36016   0.396   4.393   2.471 -0.2684 -0.0841 -0.3760
 8186SOL    HW136017   0.357   4.336   2.538  1.5618 -0.0699  0.6939
 8186SOL    HW236018   0.473   4.338   2.456 -0.2983 -0.2023 -0.0955
 8187SOL     OW36019   2.523   3.686   3.061  0.3744 -0.0754  0.3494
 8187SOL    HW136020   2.536   3.703   2.968 -0.3445 -1.5037 -0.0191
 8187SOL    HW236021   2.477   3.767   3.083  0.6539  0.5349 -1.3695
 8188SOL     OW36022   2.530   1.866   8.063 -0.3381 -0.4183  0.3063
 8188SOL    HW136023   2.527   1.771   8.049  2.4017 -0.4969  0.3132
 8188SOL    HW236024   2.480   1.895   7.986  0.2323  1.7530  0.7604
 8189SOL     OW36025   0.972   1.062   6.909 -0.2717 -0.1361  0.1510
 8189SOL    HW136026   0.939   1.151   6.897  2.6296  0.9282 -0.1202
 8189SOL    HW236027   1.032   1.060   6.834 -2.3642  1.0179 -1.5236
 8190SOL     OW36028   0.901   4.392   4.501  0.4371 -0.4951 -0.7096
 8190SOL    HW136029   0.938   4.319   4.551 -0.8867 -1.2862 -0.9070
 8190SOL    HW236030   0.983   4.437   4.477  0.6691 -0.8116 -0.5084
 8191SOL     OW36031   4.558   3.733   3.074  0.0896  0.2754  1.0956
 8191SOL    HW136032   4.471   3.714   3.109  0.5103  1.0548  2.5588
 8191SOL    HW236033   4.571   3.825   3.094 -2.5189  0.5280  1.5946
 8192SOL     OW36034   3.848   2.848  11.344 -0.4236 -0.2252  0.3194
 8192SOL    HW136035   3.775   2.826  11.402 -1.8305  0.9938 -0.9506
 8192SOL    HW236036   3.890   2.921  11.390 -0.6198 -0.2543  0.5464
 8193SOL     OW36037   2.530   2.448   5.581 -0.1132  0.4108 -0.1170
 8193SOL    HW136038   2.613   2.419   5.542  1.4928 -0.8411  4.2011
 8193SOL    HW236039   2.541   2.452   5.676 -2.2602  0.5477  0.1268
 8194SOL     OW36040   3.033   2.362   1.965 -0.1829 -0.4991  0.5294
 8194SOL    HW136041   3.050   2.342   1.873 -1.8044  0.3588  0.0502
 8194SOL    HW236042   3.073   2.285   2.006  0.9059 -1.5207 -2.5179
 8195SOL     OW36043   1.415   0.862   8.898 -0.5495  0.0737  0.2108
 8195SOL    HW136044   1.394   0.850   8.990  3.2590  0.9744  1.1815
 8195SOL    HW236045   1.497   0.912   8.902 -0.9466  0.8470 -1.1894
 8196SOL     OW36046   0.444   3.178   5.837 -0.2004 -0.7370  0.2546
 8196SOL    HW136047   0.538   3.195   5.839 -0.6076  2.1785 -4.1968
 8196SOL    HW236048   0.422   3.153   5.747 -0.4417 -0.4642  0.2385
 8197SOL     OW36049   2.263   1.229   5.048 -0.2363  0.9461  0.5587
 8197SOL    HW136050   2.356   1.252   5.051  0.6548 -2.3874 -0.9299
 8197SOL    HW236051   2.268   1.162   5.116  0.5870  1.2244  0.7771
 8198SOL     OW36052   3.100   3.778   2.831 -0.1009  0.5611 -0.3017
 8198SOL    HW136053   3.082   3.752   2.922  1.2624 -1.1794 -0.5266
 8198SOL    HW236054   3.144   3.862   2.844 -0.6754  0.7079  0.6663
 8199SOL     OW36055   3.667   2.927   5.834 -0.3886 -0.3433 -0.7977
 8199SOL    HW136056   3.701   2.850   5.880  1.6530  0.0331 -1.6606
 8199SOL    HW236057   3.743   2.986   5.828 -0.2257 -0.5368 -0.6543
 8200SOL     OW36058   0.701   3.255   5.730  0.2617 -0.6573  0.0973
 8200SOL    HW136059   0.759   3.330   5.714  2.5118 -1.9330  2.2294
 8200SOL    HW236060   0.642   3.266   5.656  0.2129  1.3497  0.4426
 8201SOL     OW36061   4.379   2.730   8.548 -0.6381  0.1469  0.2614
 8201SOL    HW136062   4.377   2.635   8.563  0.7558  0.2511  1.0886
 8201SOL    HW236063   4.455   2.746   8.603  0.4568  0.1466 -1.2488
 8202SOL     OW36064   1.085   3.889  15.579  0.4898  0.0729 -0.5353
 8202SOL    HW136065   1.056   3.962  15.526 -0.6772 -0.5568 -0.7623
 8202SOL    HW236066   1.113   3.823  15.516  0.3307  0.0129 -0.5409
 8203SOL     OW36067   1.257   4.570   1.178  0.7729  0.1399 -0.2330
 8203SOL    HW136068   1.164   4.572   1.203  0.2088 -0.8644 -2.2630
 8203SOL    HW236069   1.279   4.663   1.190 -0.4721  0.3812  0.2741
 8204SOL     OW36070   2.118   1.483   8.593 -0.2324  0.1841  0.3396
 8204SOL    HW136071   2.136   1.512   8.503  2.4002  0.2493  0.8967
 8204SOL    HW236072   2.046   1.420   8.585  0.0989 -0.1934  0.3384
 8205SOL     OW36073   2.195   3.465   2.061 -0.5753  0.0141  0.3347
 8205SOL    HW136074   2.128   3.411   2.019 -1.0363 -0.0386  1.1373
 8205SOL    HW236075   2.275   3.428   2.023  0.5219  1.2311  1.4619
 8206SOL     OW36076   3.457   1.831  11.096 -0.2022  0.6262  0.1269
 8206SOL    HW136077   3.405   1.758  11.132  0.2775  1.0696  1.7182
 8206SOL    HW236078   3.500   1.786  11.023  0.2038 -1.6535  1.7702
 8207SOL     OW36079   2.727   2.162   2.817 -0.5551  0.2576 -0.1854
 8207SOL    HW136080   2.632   2.171   2.828 -0.3267 -1.0512  2.6566
 8207SOL    HW236081   2.725   2.157   2.721 -2.5300  1.9848 -0.2222
 8208SOL     OW36082   2.427   4.225   4.732 -0.7380  0.6090  0.0936
 8208SOL    HW136083   2.453   4.304   4.685 -0.7112  1.5976  1.7660
 8208SOL    HW236084   2.336   4.241   4.758  0.2051  1.6266  2.8374
 8209SOL     OW36085   3.981   1.950  14.379  0.3759 -0.0405 -0.0977
 8209SOL    HW136086   4.071   1.926  14.402  0.0017 -1.1313  0.2415
 8209SOL    HW236087   3.999   1.992  14.294 -0.1647  2.2087  0.8903
 8210SOL     OW36088   2.880   3.898   3.445 -0.4353  0.2258  0.4057
 8210SOL    HW136089   2.925   3.837   3.503  1.9961  0.3861 -1.2871
 8210SOL    HW236090   2.819   3.837   3.404 -0.7207  0.3717  0.6157
 8211SOL     OW36091   0.302   4.239  12.004  0.2435  0.3534 -0.0540
 8211SOL    HW136092   0.366   4.269  11.939  0.8970  0.5377  0.6622
 8211SOL    HW236093   0.350   4.264  12.084 -0.8737  0.7612  0.4907
 8212SOL     OW36094   1.377   1.461  12.797 -0.6134  1.0406 -0.0278
 8212SOL    HW136095   1.373   1.430  12.887  1.3791 -1.0344 -0.6541
 8212SOL    HW236096   1.290   1.440  12.762  0.2584  0.1403 -1.6693
 8213SOL     OW36097   0.123   4.360   4.211 -0.0832  0.4666  0.1672
 8213SOL    HW136098   0.109   4.422   4.139 -1.1042 -0.5024 -0.4726
 8213SOL    HW236099   0.057   4.294   4.190 -1.1773  1.6931 -0.2225
 8214SOL     OW36100   0.132   4.470  15.751 -0.3153  0.6911 -0.6026
 8214SOL    HW136101   0.184   4.405  15.702 -1.5770 -0.1107 -0.8825
 8214SOL    HW236102   0.111   4.538  15.687 -2.4409 -0.0089 -0.6556
 8215SOL     OW36103   2.716   0.477   6.079  0.0299 -0.4005 -0.1143
 8215SOL    HW136104   2.733   0.561   6.037  2.2405 -0.9531 -0.3235
 8215SOL    HW236105   2.661   0.510   6.150  1.7259  0.4573  0.7920
 8216SOL     OW36106   3.563   1.656   3.006 -0.2402 -0.4355  0.0704
 8216SOL    HW136107   3.547   1.665   3.100  0.5473  0.8853  0.0657
 8216SOL    HW236108   3.657   1.670   3.012 -0.6346  1.7747  1.2643
 8217SOL     OW36109   3.945   2.951   7.199  0.3444  0.0759  0.2814
 8217SOL    HW136110   3.992   2.997   7.130  0.0649  1.8327  1.2750
 8217SOL    HW236111   4.018   2.919   7.251 -1.0989 -1.3138  1.4643
 8218SOL     OW36112   0.776   4.725  14.456  0.2255 -0.3076  0.1884
 8218SOL    HW136113   0.743   4.653  14.403 -1.3039  1.7083 -1.6010
 8218SOL    HW236114   0.820   4.679  14.527  1.9454 -1.1739 -1.4432
 8219SOL     OW36115   3.569   0.202  12.021 -0.2546 -0.0996 -0.2953
 8219SOL    HW136116   3.492   0.167  11.977 -2.6676  0.1584  3.7009
 8219SOL    HW236117   3.582   0.294  11.999  0.1541 -0.2128 -0.5142
 8220SOL     OW36118   3.835   0.858   5.117  0.1406 -0.6445  0.4461
 8220SOL    HW136119   3.894   0.902   5.056 -2.5909  0.1779 -1.6187
 8220SOL    HW236120   3.871   0.770   5.101  0.7392 -0.0084 -1.7390
 8221SOL     OW36121   3.844   1.651   2.975 -0.5615  0.2481 -0.9591
 8221SOL    HW136122   3.884   1.716   2.918  0.2074 -0.1827 -0.9101
 8221SOL    HW236123   3.865   1.571   2.927 -0.5218  1.0674 -2.2844
 8222SOL     OW36124   2.779   4.434   4.613  0.3800 -0.2049  0.2185
 8222SOL    HW136125   2.813   4.521   4.594 -0.2341 -0.4588 -2.0489
 8222SOL    HW236126   2.685   4.441   4.594  1.1427  0.1069 -3.3675
 8223SOL     OW36127   0.366   4.183  16.633  0.1505  0.0479 -0.2033
 8223SOL    HW136128   0.356   4.203  16.726 -1.4177  1.0164 -0.5816
 8223SOL    HW236129   0.299   4.236  16.590 -1.6837 -1.1024  1.2104
 8224SOL     OW36130   2.888   3.562   1.923  0.5081 -0.3994  0.1990
 8224SOL    HW136131   2.886   3.466   1.922 -2.0298 -0.3810  2.0630
 8224SOL    HW236132   2.920   3.579   1.835  0.1708  1.6123  0.4728
 8225SOL     OW36133   2.771   3.519  11.425  0.1741 -0.2785  0.6934
 8225SOL    HW136134   2.785   3.512  11.519 -0.4512 -0.5390  0.7704
 8225SOL    HW236135   2.676   3.520  11.414  0.1111  0.1932  1.2793
 8226SOL     OW36136   3.110   1.906   6.797 -0.0070 -0.0240  0.2775
 8226SOL    HW136137   3.042   1.860   6.846 -1.5759 -1.6260 -3.4345
 8226SOL    HW236138   3.140   1.845   6.730 -3.1311  0.4364 -1.5309
 8227SOL     OW36139   0.993   4.703  13.432  0.3513  0.0224 -0.4686
 8227SOL    HW136140   0.906   4.674  13.461  0.4759  1.5888  1.4621
 8227SOL    HW236141   0.973   0.069  13.418  1.1725  0.2414 -0.2337
 8228SOL     OW36142   3.713   3.370   0.751  0.0973  0.5987  0.0647
 8228SOL    HW136143   3.664   3.315   0.812  0.4306  0.0691 -0.1524
 8228SOL    HW236144   3.663   3.452   0.753  1.2488  1.3260 -1.3498
 8229SOL     OW36145   3.087   1.001   8.513 -0.4424  0.2571  0.0719
 8229SOL    HW136146   3.108   0.919   8.468  0.7850  1.2159 -1.1121
 8229SOL    HW236147   3.058   0.978   8.601  0.1254 -0.9770 -0.0638
 8230SOL     OW36148   3.768   0.234  15.400 -0.0736 -0.5293 -0.1422
 8230SOL    HW136149   3.830   0.264  15.333 -0.8609  0.5322 -0.3940
 8230SOL    HW236150   3.835   0.228  15.468  0.4885  2.0067 -0.4824
 8231SOL     OW36151   2.522   0.123   5.931  0.5423  0.6101 -0.3177
 8231SOL    HW136152   2.510   0.168   5.847 -0.5434  1.0122  0.0520
 8231SOL    HW236153   2.511   0.032   5.905 -2.5984  0.4029  1.8022
 8232SOL     OW36154   0.148   2.673   7.500  0.1899 -0.2462 -0.1177
 8232SOL    HW136155   0.198   2.702   7.576  0.6343 -0.6948 -0.2406
 8232SOL    HW236156   0.065   2.640   7.535  0.3368  0.4395  0.8778
 8233SOL     OW36157   0.315   4.179   6.441 -0.8270  0.7816 -0.1564
 8233SOL    HW136158   0.340   4.150   6.353 -1.4324  1.0378 -0.4104
 8233SOL    HW236159   0.386   4.149   6.498 -0.4268 -0.6361 -1.3954
 8234SOL     OW36160   2.696   0.567   8.214 -0.1153  0.4697 -0.2903
 8234SOL    HW136161   2.685   0.654   8.174 -1.5869  0.5805  0.3821
 8234SOL    HW236162   2.609   0.530   8.204 -0.6445  1.2318  1.4645
 8235SOL     OW36163   4.543   4.417  13.548 -0.3849 -0.3819 -0.0781
 8235SOL    HW136164   4.513   4.327  13.537  0.1910 -0.5770 -0.0835
 8235SOL    HW236165   4.483   4.443  13.618  2.0887  2.4862  1.0017
 8236SOL     OW36166   0.253   2.585   4.797 -0.1250  0.3228 -0.2917
 8236SOL    HW136167   0.320   2.625   4.853  1.9140 -1.7474 -1.2570
 8236SOL    HW236168   0.225   2.657   4.741 -0.5198 -0.3523 -0.9607
 8237SOL     OW36169   1.712   4.251  14.218 -0.1498 -0.2105 -0.0619
 8237SOL    HW136170   1.710   4.212  14.305  0.1429  0.3277  0.1866
 8237SOL    HW236171   1.703   4.345  14.235 -1.3573 -0.2699 -0.4207
 8238SOL     OW36172   1.427   1.557  11.732  0.8430 -0.0433 -0.0005
 8238SOL    HW136173   1.509   1.594  11.701  0.7467  0.4476  0.3205
 8238SOL    HW236174   1.355   1.581  11.673  0.1517 -0.0663  0.8365
 8239SOL     OW36175   4.091   0.869   2.308  0.5974  0.2988 -0.1541
 8239SOL    HW136176   4.131   0.955   2.293  1.0158  0.2080  0.4608
 8239SOL    HW236177   4.057   0.855   2.219  1.4935  0.1764 -0.4818
 8240SOL     OW36178   1.273   1.788  14.430 -0.1437  0.1939 -0.2820
 8240SOL    HW136179   1.181   1.805  14.409 -0.2940 -2.5609 -1.8328
 8240SOL    HW236180   1.319   1.797  14.347  0.9147 -1.0175  0.1751
 8241SOL     OW36181   3.225   1.984   5.685  0.8670  0.1219 -0.7554
 8241SOL    HW136182   3.294   1.918   5.688 -0.1430 -0.8837  0.1451
 8241SOL    HW236183   3.207   1.986   5.591  2.1680  1.9672 -0.9637
 8242SOL     OW36184   0.552   3.934   2.231  0.6018 -0.1087  0.1109
 8242SOL    HW136185   0.538   4.009   2.289 -1.8867 -0.4878 -0.0018
 8242SOL    HW236186   0.494   3.958   2.158  0.1928  1.3598  0.9315
 8243SOL     OW36187   0.890   1.105   4.637  0.4765 -0.0587  0.0628
 8243SOL    HW136188   0.815   1.106   4.578 -0.0853  1.3838  0.7954
 8243SOL    HW236189   0.955   1.144   4.580 -0.2031  2.3009  0.9000
 8244SOL     OW36190   3.805   4.680   8.613 -0.1952  0.5510  0.3094
 8244SOL    HW136191   3.790   4.613   8.681  0.0810 -0.8497 -1.0124
 8244SOL    HW236192   3.719   4.679   8.573  0.4106 -1.6701 -0.9519
 8245SOL     OW36193   1.774   0.720   2.695 -0.2063 -0.2704  0.6903
 8245SOL    HW136194   1.839   0.689   2.758 -1.4700 -4.0359  0.1399
 8245SOL    HW236195   1.751   0.638   2.651 -3.8267  1.7687 -1.2075
 8246SOL     OW36196   0.400   1.869   6.984 -0.6025  0.4586  0.0562
 8246SOL    HW136197   0.374   1.780   6.963  0.9388 -0.0012  0.1279
 8246SOL    HW236198   0.449   1.856   7.065 -1.6311  0.0558  0.6191
 8247SOL     OW36199   2.827   1.382  11.044 -0.6034 -0.0248 -0.2157
 8247SOL    HW136200   2.810   1.313  10.980  0.0003 -0.1423 -0.2455
 8247SOL    HW236201   2.767   1.361  11.116 -1.9917 -0.2705 -1.4463
 8248SOL     OW36202   3.525   1.608   1.731 -0.0278  0.0203 -0.4434
 8248SOL    HW136203   3.602   1.664   1.722  1.1331 -1.4216  0.5607
 8248SOL    HW236204   3.573   1.527   1.715 -3.2214 -1.6390 -1.7479
 8249SOL     OW36205   0.720   3.161   6.477  0.1192  0.6160 -0.2143
 8249SOL    HW136206   0.795   3.102   6.482 -0.6564 -0.5413 -1.9538
 8249SOL    HW236207   0.752   3.222   6.411  1.9119 -0.2288 -0.1352
 8250SOL     OW36208   3.352   0.330  14.893 -0.0535 -0.0215 -0.4618
 8250SOL    HW136209   3.259   0.342  14.873 -0.4897  0.8755  2.0284
 8250SOL    HW236210   3.382   0.408  14.847 -0.0998  0.2777  0.0134
 8251SOL     OW36211   4.496   0.743   3.196  0.4270 -0.2096 -0.1993
 8251SOL    HW136212   4.532   0.710   3.278 -0.7186 -1.2203 -0.1096
 8251SOL    HW236213   4.415   0.692   3.191 -0.6065  1.5646 -1.8268
 8252SOL     OW36214   3.071   2.564   4.628  0.2336 -0.3021 -0.0414
 8252SOL    HW136215   3.138   2.564   4.559  1.1452 -1.6511  0.8421
 8252SOL    HW236216   2.997   2.600   4.580  0.9242  0.6580 -0.3910
 8253SOL     OW36217   2.998   3.833   0.566  0.3065  0.1086  0.1977
 8253SOL    HW136218   3.084   3.875   0.567 -0.9399  2.6029  3.9956
 8253SOL    HW236219   3.015   3.739   0.572 -2.5266 -0.2989  1.8371
 8254SOL     OW36220   1.589   3.956   1.537  0.0794 -0.1229  0.1347
 8254SOL    HW136221   1.568   4.023   1.472  3.2474  3.1532  2.4856
 8254SOL    HW236222   1.527   3.972   1.607  0.5266  1.8209  0.0871
 8255SOL     OW36223   1.780   4.513   1.610 -0.3789  0.3905 -0.2478
 8255SOL    HW136224   1.728   4.590   1.632 -0.9059  0.1758 -0.7347
 8255SOL    HW236225   1.751   4.487   1.522 -0.8558  4.8414 -1.4027
 8256SOL     OW36226   1.402   4.277  14.067  0.1528 -0.0091 -0.3068
 8256SOL    HW136227   1.351   4.268  14.148  1.8224 -0.3525  0.7134
 8256SOL    HW236228   1.480   4.225  14.088 -0.4466 -2.3987 -4.1326
 8257SOL     OW36229   2.530   2.489   9.926  0.0267  0.2010 -0.1289
 8257SOL    HW136230   2.582   2.469   9.848  0.7821  1.7881 -0.0355
 8257SOL    HW236231   2.606   2.513   9.980  0.1666 -1.0998  0.2512
 8258SOL     OW36232   1.021   1.705   4.491 -0.3558 -0.4217 -0.1287
 8258SOL    HW136233   1.093   1.650   4.462 -0.0230 -0.4273  0.6898
 8258SOL    HW236234   0.946   1.663   4.449 -1.7230  0.3186  1.5443
 8259SOL     OW36235   2.841   3.719   8.836  0.5704 -0.1024 -0.1586
 8259SOL    HW136236   2.864   3.810   8.850 -2.3123  0.6102 -0.1564
 8259SOL    HW236237   2.761   3.728   8.785  0.8962 -1.1779 -0.8751
 8260SOL     OW36238   0.154   0.386   8.280 -0.3453  0.3829  0.0510
 8260SOL    HW136239   0.175   0.293   8.275  1.5423  0.8067  0.2402
 8260SOL    HW236240   0.139   0.402   8.186  3.2194 -0.4281 -0.6424
 8261SOL     OW36241   1.686   1.991  15.769  0.3308  0.1951 -0.0466
 8261SOL    HW136242   1.648   2.029  15.848 -2.4529 -2.4772 -0.0700
 8261SOL    HW236243   1.608   1.976  15.715  0.9065  0.0621 -0.8362
 8262SOL     OW36244   4.372   1.270   3.569 -0.1857 -0.0294  0.7324
 8262SOL    HW136245   4.292   1.218   3.561 -0.0723  0.5697 -3.8963
 8262SOL    HW236246   4.378   1.306   3.481  0.5803 -0.7681  0.4840
 8263SOL     OW36247   0.360   2.209   9.739  0.2783  0.0465 -0.0882
 8263SOL    HW136248   0.402   2.175   9.660  1.4185  1.3250 -0.0370
 8263SOL    HW236249   0.418   2.283   9.759 -0.1162  0.9037 -2.0120
 8264SOL     OW36250   1.721   0.316  15.719  0.1332 -0.2813  0.2817
 8264SOL    HW136251   1.722   0.411  15.707  3.8551 -0.4993 -1.0777
 8264SOL    HW236252   1.630   0.304  15.748  0.3049 -0.6228  0.6768
 8265SOL     OW36253   0.751   2.197   5.002 -0.7282 -0.4780 -0.1251
 8265SOL    HW136254   0.806   2.261   5.048  0.2086 -1.2670 -0.1449
 8265SOL    HW236255   0.793   2.201   4.916  1.0239  1.1759  0.8064
 8266SOL     OW36256   3.447   4.595   7.904  0.2755 -0.1159  0.5247
 8266SOL    HW136257   3.438   4.503   7.878  1.6430 -0.7735  2.4063
 8266SOL    HW236258   3.493   4.595   7.988 -0.1583 -0.9525  0.7649
 8267SOL     OW36259   4.437   4.384   7.380 -0.1064  0.2824  0.0736
 8267SOL    HW136260   4.502   4.455   7.383  0.3609 -0.0902 -1.0292
 8267SOL    HW236261   4.405   4.384   7.289  0.0516  0.8369  0.0206
 8268SOL     OW36262   3.821   2.441   8.684  0.7509 -0.0450 -0.4503
 8268SOL    HW136263   3.823   2.352   8.650  2.1795 -0.5350  0.9012
 8268SOL    HW236264   3.910   2.453   8.718 -0.2129  2.7877  1.1081
 8269SOL     OW36265   3.019   2.784   4.821  0.0974 -0.2290  0.0296
 8269SOL    HW136266   3.095   2.841   4.813  0.0535 -0.3989 -1.6087
 8269SOL    HW236267   3.034   2.720   4.751  1.0975 -0.0028  0.0344
 8270SOL     OW36268   3.072   0.773   1.543 -0.1028 -0.0598  0.8183
 8270SOL    HW136269   3.015   0.846   1.567  0.1936  0.6060 -0.5007
 8270SOL    HW236270   3.052   0.711   1.613 -0.6085 -0.7709  0.0452
 8271SOL     OW36271   4.004   0.118   2.957  0.5040  0.7766 -0.2464
 8271SOL    HW136272   4.003   0.022   2.953  0.4684  0.8102 -1.1866
 8271SOL    HW236273   4.087   0.139   2.914  0.8869  0.7725  0.5003
 8272SOL     OW36274   2.389   0.002   4.461  0.2469  1.4213 -0.0689
 8272SOL    HW136275   2.306   4.699   4.499  0.7549 -0.9115 -0.7185
 8272SOL    HW236276   2.368   0.039   4.375  1.5256  1.2808 -0.4395
 8273SOL     OW36277   0.604   3.821   5.793 -0.7995 -0.8053 -0.0312
 8273SOL    HW136278   0.628   3.824   5.700  0.8488 -1.6928  0.3641
 8273SOL    HW236279   0.528   3.880   5.802  0.1444  0.1841  1.5721
 8274SOL     OW36280   1.929   3.158   5.333 -0.1106 -0.5141  0.8985
 8274SOL    HW136281   1.980   3.116   5.403  0.3966 -0.6161  0.4649
 8274SOL    HW236282   1.869   3.208   5.388 -1.7402 -1.2751 -0.2017
 8275SOL     OW36283   4.500   1.844  12.557 -0.1594 -0.3255  0.0754
 8275SOL    HW136284   4.491   1.758  12.598  1.5106 -1.3377 -1.6201
 8275SOL    HW236285   4.520   1.886  12.640  0.3688  0.3218 -0.3746
 8276SOL     OW36286   0.158   0.485  13.754 -0.3905 -0.2139 -0.5016
 8276SOL    HW136287   0.143   0.530  13.837  3.2348  0.5902 -0.2590
 8276SOL    HW236288   0.118   0.398  13.754  0.7971 -0.7664  0.3299
 8277SOL     OW36289   0.487   3.169   4.297  0.0796 -0.1550 -0.0198
 8277SOL    HW136290   0.479   3.136   4.207 -2.2765  0.6114 -0.0714
 8277SOL    HW236291   0.561   3.112   4.321  0.0290 -0.3354 -0.2941
 8278SOL     OW36292   2.239   4.135   4.297  0.1815 -0.5454  0.0879
 8278SOL    HW136293   2.316   4.086   4.327  0.6342 -1.7160 -3.0103
 8278SOL    HW236294   2.176   4.063   4.289 -2.8992  2.5191 -2.6824
 8279SOL     OW36295   1.718   3.681   7.011 -0.6547 -0.2669 -0.1516
 8279SOL    HW136296   1.706   3.587   6.999  0.3120 -0.2884 -0.9472
 8279SOL    HW236297   1.803   3.690   6.969 -0.3130  0.2971  0.6636
 8280SOL     OW36298   2.798   4.420   7.039  0.0515  0.5836 -0.1146
 8280SOL    HW136299   2.806   4.481   6.966 -1.8061 -0.9048 -1.5526
 8280SOL    HW236300   2.871   4.362   7.017  0.1418  0.8714 -0.5759
 8281SOL     OW36301   4.235   0.676  15.679  0.1364 -0.6747 -0.0444
 8281SOL    HW136302   4.179   0.606  15.646  1.6746 -0.9959 -1.9882
 8281SOL    HW236303   4.205   0.748  15.624  0.4877 -0.9963 -0.6621
 8282SOL     OW36304   3.399   4.435  14.262 -0.1806 -0.9705  0.9649
 8282SOL    HW136305   3.460   4.437  14.335 -1.2575 -0.8361  1.8745
 8282SOL    HW236306   3.415   4.522  14.226 -0.0029 -2.2580 -2.0708
 8283SOL     OW36307   2.159   2.388   2.397 -0.3537 -0.5057  0.3470
 8283SOL    HW136308   2.228   2.424   2.341  0.3695 -1.6366  0.5343
 8283SOL    HW236309   2.179   2.430   2.480  1.0108 -0.0237 -0.2204
 8284SOL     OW36310   3.859   1.791   5.591 -0.6094 -0.2761  0.3743
 8284SOL    HW136311   3.823   1.871   5.630  0.7439  0.3084  0.4448
 8284SOL    HW236312   3.783   1.734   5.599  0.4804 -1.8714 -0.7609
 8285SOL     OW36313   1.547   1.285   8.483 -0.3403 -0.0714 -0.0757
 8285SOL    HW136314   1.485   1.274   8.410  0.9147  0.7141 -1.2498
 8285SOL    HW236315   1.500   1.356   8.526  0.6798  1.5135 -1.6113
 8286SOL     OW36316   3.148   0.911  15.395 -0.5711 -0.4764 -0.5665
 8286SOL    HW136317   3.079   0.862  15.351  0.8565 -1.5724 -1.6022
 8286SOL    HW236318   3.151   0.865  15.479 -0.3477 -0.2144 -0.4306
 8287SOL     OW36319   1.043   2.011   6.796  0.6816  0.4633  0.2562
 8287SOL    HW136320   1.035   1.988   6.703  1.6073 -2.8925  0.9978
 8287SOL    HW236321   1.052   2.106   6.790  1.0716  0.3171 -1.4870
 8288SOL     OW36322   2.502   3.058   1.921 -0.2001 -0.1299 -0.0368
 8288SOL    HW136323   2.563   3.084   1.852  0.8412  1.8732  1.6146
 8288SOL    HW236324   2.492   2.967   1.895  2.9179  0.0283 -1.7470
 8289SOL     OW36325   1.238   3.223  10.095  0.4410  0.3222  0.0838
 8289SOL    HW136326   1.229   3.153  10.030 -0.0056  1.5434 -1.1795
 8289SOL    HW236327   1.228   3.168  10.172  2.6323 -1.0379 -0.5918
 8290SOL     OW36328   2.751   1.747  13.557  0.1611  0.3879  0.0333
 8290SOL    HW136329   2.664   1.735  13.595  0.2849 -2.5873 -0.6429
 8290SOL    HW236330   2.736   1.682  13.489  0.5707 -0.7198  1.0087
 8291SOL     OW36331   3.835   3.979   9.402  0.1569  0.5997  0.2172
 8291SOL    HW136332   3.745   4.008   9.411 -0.5692 -1.3420 -0.8610
 8291SOL    HW236333   3.819   3.884   9.404 -1.3879  0.8829  0.9049
 8292SOL     OW36334   2.281   0.825   0.079  0.2082  0.5003 -0.4829
 8292SOL    HW136335   2.244   0.817  17.696 -2.1316 -2.4385  0.7398
 8292SOL    HW236336   2.367   0.784   0.072  1.6013  3.3556 -0.1297
 8293SOL     OW36337   2.623   3.840   5.082  0.4103  0.4590 -0.5480
 8293SOL    HW136338   2.654   3.880   5.163 -1.7472  1.9775 -0.5024
 8293SOL    HW236339   2.622   3.920   5.029 -0.7298  2.4707  2.5688
 8294SOL     OW36340   1.170   0.905   5.078  0.0320  0.6527  0.3676
 8294SOL    HW136341   1.246   0.848   5.085 -0.7066 -0.0591  2.5879
 8294SOL    HW236342   1.105   0.845   5.042  1.6356 -0.9869  0.2031
 8295SOL     OW36343   4.239   3.668  16.903  0.1338 -0.5444 -0.5543
 8295SOL    HW136344   4.312   3.729  16.910  0.0756 -0.2482 -2.3258
 8295SOL    HW236345   4.237   3.628  16.990  1.3420  0.1685 -0.2037
 8296SOL     OW36346   2.085   3.914   4.322 -0.0563  0.5144 -0.2022
 8296SOL    HW136347   2.150   3.855   4.284 -2.3189 -2.0043 -0.2136
 8296SOL    HW236348   2.060   3.863   4.399 -1.3096  0.8789 -0.3732
 8297SOL     OW36349   3.665   2.508   8.462 -0.5753 -0.5558 -0.3254
 8297SOL    HW136350   3.714   2.499   8.543  0.2410  0.8811 -0.6522
 8297SOL    HW236351   3.731   2.536   8.399 -2.5037  0.4757 -1.8897
 8298SOL     OW36352   4.066   2.958   6.546  0.1540  0.1486 -0.2002
 8298SOL    HW136353   4.048   2.865   6.535  0.0370  0.2682 -1.0667
 8298SOL    HW236354   4.162   2.963   6.545  0.0928  0.7194 -3.1382
 8299SOL     OW36355   0.439   4.550   3.864 -0.8894  0.0972  0.2946
 8299SOL    HW136356   0.385   4.600   3.925  0.3471  0.9739  0.6761
 8299SOL    HW236357   0.494   4.627   3.849 -0.5713 -0.6145 -2.2553
 8300SOL     OW36358   3.273   0.381  17.152  0.5413 -0.6137 -0.3912
 8300SOL    HW136359   3.269   0.448  17.084  0.5773  0.4355  0.6359
 8300SOL    HW236360   3.317   0.311  17.103 -2.8791 -2.8914 -0.2449
 8301SOL     OW36361   3.328   0.327   2.400 -0.0340 -0.0047 -0.2862
 8301SOL    HW136362   3.421   0.314   2.420  0.0756 -1.3476 -1.6514
 8301SOL    HW236363   3.303   0.250   2.349  1.1089 -1.1140  0.8236
 8302SOL     OW36364   3.789   0.030   5.883  0.5767  0.9267  0.0960
 8302SOL    HW136365   3.727   0.055   5.816  0.9739 -1.4856 -1.1575
 8302SOL    HW236366   3.758   0.086   5.954 -0.3769  0.3627  0.1265
 8303SOL     OW36367   2.029   1.975   3.174 -0.6233 -0.3220  0.0857
 8303SOL    HW136368   1.996   2.052   3.221 -1.9564 -1.8663  1.6496
 8303SOL    HW236369   2.054   1.922   3.250  2.0121 -0.4268 -0.8584
 8304SOL     OW36370   0.974   0.913   3.427  0.1895  0.3277  0.1478
 8304SOL    HW136371   0.946   0.918   3.519 -2.4077  2.5764 -0.7647
 8304SOL    HW236372   0.932   0.831   3.400 -0.9019  1.3887 -1.3753
 8305SOL     OW36373   3.622   4.098  11.920 -0.1014 -0.0238  0.0398
 8305SOL    HW136374   3.689   4.166  11.910 -1.0520  0.6255 -2.1226
 8305SOL    HW236375   3.631   4.052  11.837 -0.6602  0.0720 -0.0727
 8306SOL     OW36376   0.522   1.462   7.919 -0.6173 -0.5739  0.9702
 8306SOL    HW136377   0.448   1.523   7.928 -0.0324  0.2761  0.1175
 8306SOL    HW236378   0.499   1.401   7.988  0.1755  0.8469  2.4801
 8307SOL     OW36379   0.772   0.600   4.213 -0.4606 -0.1253  0.1595
 8307SOL    HW136380   0.762   0.506   4.199  0.9073 -0.4525  1.2882
 8307SOL    HW236381   0.845   0.607   4.275  1.4148  1.9768 -2.2621
 8308SOL     OW36382   4.272   0.380   8.610 -0.0810  0.0276  0.2716
 8308SOL    HW136383   4.188   0.400   8.653 -0.5555 -1.6092  0.1035
 8308SOL    HW236384   4.234   0.350   8.528 -0.5898  0.8709  0.1991
 8309SOL     OW36385   4.720   3.439   3.449  0.3997  0.5058 -0.4383
 8309SOL    HW136386   4.709   3.434   3.354  0.1549 -0.8660 -0.3421
 8309SOL    HW236387   0.087   3.416   3.447  0.0292 -0.9301 -1.0210
 8310SOL     OW36388   3.044   3.281   2.815  0.0455 -0.3395  0.3814
 8310SOL    HW136389   3.043   3.372   2.845  3.1843  0.2055 -1.1900
 8310SOL    HW236390   3.130   3.290   2.774  0.2411 -1.5212  0.5144
 8311SOL     OW36391   0.434   2.957   6.987  0.1950  0.6192  0.3018
 8311SOL    HW136392   0.446   2.972   7.080  2.3573 -1.7566  0.3966
 8311SOL    HW236393   0.339   2.959   6.973  0.2286 -0.5594 -0.1578
 8312SOL     OW36394   4.256   0.344   8.056  0.4670  0.5609  0.5200
 8312SOL    HW136395   4.258   0.248   8.054  1.4671  0.6021 -0.7473
 8312SOL    HW236396   4.166   0.361   8.028 -0.1571  0.2881  2.3558
 8313SOL     OW36397   3.689   1.390   3.665  0.0454 -0.2887 -0.4733
 8313SOL    HW136398   3.630   1.396   3.590  0.4096 -0.0963 -0.7438
 8313SOL    HW236399   3.727   1.478   3.657  1.2370 -0.8431 -0.7949
 8314SOL     OW36400   4.713   4.067   5.336 -0.0936  0.1130 -0.1373
 8314SOL    HW136401   0.001   3.983   5.380  1.2971  0.8873  0.9257
 8314SOL    HW236402   0.077   4.101   5.328  0.0502  0.1288  1.5584
 8315SOL     OW36403   2.697   0.818  15.992 -0.1007 -0.4262 -0.3103
 8315SOL    HW136404   2.716   0.903  15.953 -2.7319 -0.6751 -2.1371
 8315SOL    HW236405   2.618   0.845  16.040 -1.3855  0.6740 -3.0742
 8316SOL     OW36406   4.675   4.114   9.127 -0.0982  0.2335 -0.5163
 8316SOL    HW136407   4.629   4.117   9.043 -1.1493  0.7308  0.0763
 8316SOL    HW236408   4.648   4.024   9.144  1.0573 -0.0562 -0.1631
 8317SOL     OW36409   2.327   0.894   3.671 -0.2980  0.0960  0.0948
 8317SOL    HW136410   2.316   0.986   3.696  1.9567  0.5284 -0.5317
 8317SOL    HW236411   2.417   0.880   3.641 -0.1911 -0.9874  0.9067
 8318SOL     OW36412   1.640   3.037  12.939 -0.8480  0.4061 -0.4545
 8318SOL    HW136413   1.707   3.104  12.925 -0.8053  0.3684 -0.4288
 8318SOL    HW236414   1.653   2.982  12.862 -0.1778  0.6345 -0.5020
 8319SOL     OW36415   0.986   1.284   6.511 -0.0616  0.2946 -0.4692
 8319SOL    HW136416   0.932   1.359   6.535 -1.9455 -1.0989 -0.3540
 8319SOL    HW236417   0.916   1.238   6.465  1.1076 -1.9876  0.0390
 8320SOL     OW36418   4.364   1.604   3.532  0.4642 -0.3499  0.1464
 8320SOL    HW136419   4.294   1.601   3.467  0.2425  0.0623  0.3660
 8320SOL    HW236420   4.342   1.690   3.565  0.1374 -0.8290  1.1773
 8321SOL     OW36421   2.359   1.165  12.426  0.2592 -0.4987  0.0976
 8321SOL    HW136422   2.381   1.143  12.516 -0.3874  0.4593  0.4788
 8321SOL    HW236423   2.320   1.083  12.395 -1.1724 -0.3355  1.4814
 8322SOL     OW36424   2.169   4.368  15.270 -0.3140 -0.2719 -0.6526
 8322SOL    HW136425   2.154   4.286  15.224  0.6661 -0.8315  0.0199
 8322SOL    HW236426   2.247   4.347  15.321 -1.3833  1.1140  1.5617
 8323SOL     OW36427   0.583   2.813   4.195  0.7429 -0.2636  0.2668
 8323SOL    HW136428   0.487   2.809   4.188  0.7708  0.9505 -0.8352
 8323SOL    HW236429   0.607   2.722   4.182  0.5258 -0.0117 -1.8302
 8324SOL     OW36430   0.560   0.878   8.311  0.1299  0.1307  0.0050
 8324SOL    HW136431   0.554   0.949   8.375 -2.6941  0.0363 -0.1685
 8324SOL    HW236432   0.542   0.801   8.365  1.6124  0.3595  0.8364
 8325SOL     OW36433   3.490   0.428  13.514 -0.0764 -0.3501  0.2947
 8325SOL    HW136434   3.556   0.397  13.576  0.8770  0.4290 -0.3217
 8325SOL    HW236435   3.494   0.364  13.443  0.8714 -1.5547  1.4163
 8326SOL     OW36436   1.157   2.368   7.474 -0.3739  0.5947  0.3923
 8326SOL    HW136437   1.215   2.342   7.403 -1.5825 -1.3402  0.1133
 8326SOL    HW236438   1.178   2.461   7.481  1.4741  0.3221 -1.6704
 8327SOL     OW36439   3.217   4.126  17.386  0.1307 -0.1951  0.0460
 8327SOL    HW136440   3.243   4.134  17.294  0.1290 -3.0328 -0.1852
 8327SOL    HW236441   3.266   4.202  17.417  0.2407  0.0528 -0.7207
 8328SOL     OW36442   3.918   4.642  14.954 -0.2808  0.1416  0.0047
 8328SOL    HW136443   3.882   4.643  14.865 -2.4419  0.5166  0.8940
 8328SOL    HW236444   3.951   0.005  14.965 -2.5657  1.0133 -0.1404
 8329SOL     OW36445   0.800   2.725   6.762 -0.2585 -0.5280 -0.0241
 8329SOL    HW136446   0.807   2.818   6.741 -1.3513 -0.7061 -1.1693
 8329SOL    HW236447   0.890   2.700   6.782  0.2780  0.2648 -1.4685
 8330SOL     OW36448   3.978   1.727  11.225  0.1699 -0.3333 -0.0623
 8330SOL    HW136449   4.065   1.704  11.193  1.5593  2.0160  1.9287
 8330SOL    HW236450   4.008   1.793  11.288  0.5241 -0.9696  0.4394
 8331SOL     OW36451   1.759   2.446  13.025 -0.2174 -0.1345 -0.3630
 8331SOL    HW136452   1.670   2.483  13.020 -0.0888  0.3768  1.1193
 8331SOL    HW236453   1.769   2.433  13.119  1.7351  1.8454 -0.3113
 8332SOL     OW36454   2.419   0.554   1.927 -0.5762 -0.0495 -0.3027
 8332SOL    HW136455   2.394   0.521   1.841 -2.5961 -3.2494  1.5192
 8332SOL    HW236456   2.387   0.643   1.915 -0.5744  0.2697  2.0423
 8333SOL     OW36457   0.247   0.660   3.626 -0.5721 -0.3116 -0.1090
 8333SOL    HW136458   0.261   0.734   3.567  1.2658 -1.0514 -0.6086
 8333SOL    HW236459   0.320   0.601   3.602  2.4322  2.1606  3.0008
 8334SOL     OW36460   4.343   0.516   6.132  0.4623  0.1763  0.4253
 8334SOL    HW136461   4.282   0.446   6.109  0.5271  0.5109 -0.7664
 8334SOL    HW236462   4.291   0.593   6.108  0.6736  0.5738  1.2473
 8335SOL     OW36463   4.137   0.036   8.830  0.4033  0.6106  0.3737
 8335SOL    HW136464   4.077   0.111   8.828  0.5541  0.6587 -2.1249
 8335SOL    HW236465   4.072   4.692   8.826  1.5820 -0.4789  0.1443
 8336SOL     OW36466   4.327   3.583   7.273  0.0188  0.2421 -0.4417
 8336SOL    HW136467   4.283   3.658   7.313  0.7967  0.2145  0.4540
 8336SOL    HW236468   4.269   3.512   7.299 -0.0314  1.1161  1.8400
 8337SOL     OW36469   1.896   1.313   8.654 -0.1952 -0.0778  0.3350
 8337SOL    HW136470   1.813   1.361   8.663  0.3515  1.1729 -1.3226
 8337SOL    HW236471   1.873   1.264   8.575  1.7921 -0.6027  0.0719
 8338SOL     OW36472   3.020   0.555   5.646  0.3504 -0.4663  0.1870
 8338SOL    HW136473   3.064   0.579   5.564 -1.7165  1.0784 -0.4783
 8338SOL    HW236474   2.950   0.514   5.594  0.5655  1.1241 -1.3739
 8339SOL     OW36475   4.661   4.265   0.542 -0.9489 -0.1977 -0.1218
 8339SOL    HW136476   4.653   4.354   0.576  2.3868  0.5775 -1.3806
 8339SOL    HW236477   4.673   4.210   0.619 -1.1455 -0.6292 -0.4007
 8340SOL     OW36478   2.140   3.837  10.114  0.8329  0.1786  0.1915
 8340SOL    HW136479   2.103   3.899  10.177 -1.0678 -0.3721 -0.3849
 8340SOL    HW236480   2.211   3.896  10.091 -0.1767  0.9955 -0.7936
 8341SOL     OW36481   2.874   3.726   4.927  0.1264  0.0251  0.3710
 8341SOL    HW136482   2.864   3.812   4.887 -1.0741 -0.4988 -0.4696
 8341SOL    HW236483   2.786   3.690   4.915 -0.1647  0.5186  1.0308
 8342SOL     OW36484   0.891   1.630   9.074  0.5201 -0.3952  0.1077
 8342SOL    HW136485   0.984   1.619   9.055  0.1971 -1.3832 -0.9145
 8342SOL    HW236486   0.895   1.726   9.072  3.8346 -0.5755 -1.8215
 8343SOL     OW36487   3.608   0.331   6.345  0.1929 -0.0522 -0.6507
 8343SOL    HW136488   3.573   0.406   6.297  0.7201 -0.4759 -1.6863
 8343SOL    HW236489   3.681   0.312   6.287  0.8542 -1.2052  0.5565
 8344SOL     OW36490   1.982   0.394   2.360 -0.3508  0.1273 -0.1223
 8344SOL    HW136491   2.032   0.366   2.283 -0.3848  1.0935 -0.4990
 8344SOL    HW236492   1.896   0.370   2.324 -0.0660 -1.4122  0.2329
 8345SOL     OW36493   2.882   3.547   0.883  0.3898  0.5061 -0.0479
 8345SOL    HW136494   2.815   3.478   0.892 -0.0101  0.7140 -1.4384
 8345SOL    HW236495   2.873   3.560   0.789  2.1420 -0.2054 -0.3037
 8346SOL     OW36496   4.263   2.937   7.177  0.1285  0.1999  0.7871
 8346SOL    HW136497   4.236   2.901   7.261 -1.5511  0.2467  0.2592
 8346SOL    HW236498   4.356   2.913   7.181 -0.0100 -0.5024 -0.2817
 8347SOL     OW36499   3.093   0.152  16.777  0.0539 -0.5690 -0.4891
 8347SOL    HW136500   3.039   0.223  16.813  0.4750 -0.6876  0.3855
 8347SOL    HW236501   3.169   0.205  16.752 -0.0095  0.3244  1.1368
 8348SOL     OW36502   2.011   3.305   7.529 -0.0038 -0.1104 -0.2610
 8348SOL    HW136503   1.936   3.247   7.516 -1.8621  1.5837  2.7622
 8348SOL    HW236504   2.026   3.351   7.447 -0.2452 -0.3854 -0.4562
 8349SOL     OW36505   0.848   2.606  12.469 -0.4572 -0.5621 -0.4476
 8349SOL    HW136506   0.942   2.594  12.481 -0.3207  0.3723 -0.5922
 8349SOL    HW236507   0.846   2.626  12.375 -2.6087  2.9065  0.3172
 8350SOL     OW36508   1.337   3.084   4.845 -0.9094 -0.6841 -0.1182
 8350SOL    HW136509   1.265   3.046   4.794 -0.3382 -3.0318  0.8071
 8350SOL    HW236510   1.414   3.060   4.794 -0.3042  0.6992  0.1463
 8351SOL     OW36511   4.509   4.109  16.179 -0.1201  0.0261 -0.0317
 8351SOL    HW136512   4.591   4.072  16.147 -0.7068 -1.0836 -0.2530
 8351SOL    HW236513   4.440   4.051  16.147  0.8179  0.0729 -2.1463
 8352SOL     OW36514   1.650   0.553   8.100 -0.8511  0.0890  0.4644
 8352SOL    HW136515   1.733   0.516   8.073 -1.1493  0.6946 -1.2876
 8352SOL    HW236516   1.677   0.618   8.165  2.4793 -0.2065 -0.6557
 8353SOL     OW36517   2.133   2.762  10.531  0.1686  0.1728 -0.0900
 8353SOL    HW136518   2.183   2.844  10.525 -1.7947  1.3322 -0.4100
 8353SOL    HW236519   2.112   2.759  10.625 -3.0023 -0.8479 -0.8384
 8354SOL     OW36520   4.488   1.372   5.767  0.0566 -0.1517 -0.0502
 8354SOL    HW136521   4.447   1.429   5.702 -0.4238  0.4613  0.7837
 8354SOL    HW236522   4.415   1.347   5.824  1.3769 -0.0780  1.6522
 8355SOL     OW36523   3.276   2.182  11.877 -0.0116 -0.1659  0.0701
 8355SOL    HW136524   3.325   2.197  11.958 -1.0795  0.9626  0.4934
 8355SOL    HW236525   3.203   2.128  11.908 -0.9655  1.7258  1.0807
 8356SOL     OW36526   1.338   0.585  16.229  0.9056 -0.0990 -0.2157
 8356SOL    HW136527   1.290   0.534  16.294 -0.8908 -1.0728 -2.3266
 8356SOL    HW236528   1.425   0.589  16.269  1.4601 -0.7370 -1.3491
 8357SOL     OW36529   4.485   0.052  11.682  0.2869 -0.3554 -0.2902
 8357SOL    HW136530   4.554   0.023  11.741  0.1019  0.6548  0.4012
 8357SOL    HW236531   4.414   0.073  11.742  0.7693 -0.9436  0.4749
 8358SOL     OW36532   4.469   1.577  14.806 -0.0403  0.4736 -0.3724
 8358SOL    HW136533   4.388   1.533  14.829  1.0853 -2.0979 -1.1994
 8358SOL    HW236534   4.442   1.627  14.729 -1.1668 -1.5574 -1.2911
 8359SOL     OW36535   4.581   1.828   5.375 -0.1233  0.2754  0.1282
 8359SOL    HW136536   4.598   1.891   5.445 -0.7391  2.1825 -1.4187
 8359SOL    HW236537   4.560   1.748   5.423 -2.7744  0.6461 -0.4168
 8360SOL     OW36538   3.625   0.183   1.924  0.1321  0.0960 -0.7160
 8360SOL    HW136539   3.544   0.229   1.903  0.4435  1.5793  1.3662
 8360SOL    HW236540   3.658   0.223   2.004  0.0035  0.3351 -0.7822
 8361SOL     OW36541   1.915   2.412   7.618  0.0829  0.3740  0.0016
 8361SOL    HW136542   1.888   2.475   7.684  0.2253  1.0663 -0.6039
 8361SOL    HW236543   1.974   2.359   7.673 -0.0707  0.3461  0.1394
 8362SOL     OW36544   2.666   0.209   7.857  0.2091  0.0457  0.4247
 8362SOL    HW136545   2.704   0.176   7.775  0.1829  1.1068 -0.0189
 8362SOL    HW236546   2.638   0.296   7.829 -4.1600  0.0778  4.9716
 8363SOL     OW36547   1.060   3.555  15.790  0.5616  0.2930 -0.4998
 8363SOL    HW136548   1.040   3.633  15.739 -1.4828  1.4005  2.0559
 8363SOL    HW236549   1.155   3.568  15.801  0.5135 -0.9179  1.3629
 8364SOL     OW36550   0.373   4.639   5.497 -0.3161  0.3460 -0.0129
 8364SOL    HW136551   0.355   4.558   5.449  2.5049  0.1447 -0.6922
 8364SOL    HW236552   0.446   4.673   5.446  0.6448 -1.7297  0.0043
 8365SOL     OW36553   1.950   2.660   8.051 -0.4988  0.1475 -0.2614
 8365SOL    HW136554   1.856   2.656   8.066 -0.3079 -0.4696  0.7904
 8365SOL    HW236555   1.990   2.651   8.138  0.9471  1.3216 -0.8023
 8366SOL     OW36556   3.760   3.885   7.169 -0.2368  0.0166  0.1956
 8366SOL    HW136557   3.802   3.807   7.205  0.2370  1.2588  2.3564
 8366SOL    HW236558   3.821   3.954   7.194  0.3877 -1.2396  2.1909
 8367SOL     OW36559   4.308   2.297  13.908 -0.4265  0.4861 -0.6002
 8367SOL    HW136560   4.301   2.210  13.947  1.0902  0.1933 -0.9826
 8367SOL    HW236561   4.382   2.336  13.956 -1.1061 -0.4335  1.1939
 8368SOL     OW36562   4.315   1.355  13.746  0.2006  0.4523  0.1830
 8368SOL    HW136563   4.330   1.448  13.763  0.4070  0.4363  0.0816
 8368SOL    HW236564   4.359   1.344  13.662 -0.8623  1.3098 -0.4889
 8369SOL     OW36565   4.083   4.010  15.852 -0.1271  0.3220 -0.3283
 8369SOL    HW136566   4.042   4.048  15.930  2.5537 -1.7916  2.1234
 8369SOL    HW236567   4.023   4.036  15.782 -2.2352 -0.8877  1.0160
 8370SOL     OW36568   4.590   3.543   7.369 -0.4131  0.2202 -0.0673
 8370SOL    HW136569   4.495   3.558   7.371 -0.4191 -0.0667  1.6120
 8370SOL    HW236570   4.595   3.493   7.287  2.6242  0.8102 -0.2309
 8371SOL     OW36571   3.593   0.279   0.918 -0.0657 -0.2973  0.3051
 8371SOL    HW136572   3.613   0.327   0.998  1.9240 -0.6662  0.0436
 8371SOL    HW236573   3.657   0.328   0.866  0.2032 -0.7796  0.1827
 8372SOL     OW36574   2.772   2.399  11.040 -0.4826  0.3081 -0.1209
 8372SOL    HW136575   2.728   2.469  10.992 -0.3446  0.5606  0.1224
 8372SOL    HW236576   2.811   2.354  10.965  1.4168 -1.6332  2.0227
 8373SOL     OW36577   1.788   1.790  11.505  0.1301 -0.5754  0.6858
 8373SOL    HW136578   1.773   1.727  11.434  0.6491  0.9038 -0.7190
 8373SOL    HW236579   1.852   1.852  11.470 -2.3016  1.9642  0.7833
 8374SOL     OW36580   1.520   1.148   9.032 -0.4504  0.3094  0.2821
 8374SOL    HW136581   1.455   1.125   9.098 -1.5380 -0.8129 -1.1980
 8374SOL    HW236582   1.470   1.198   8.968 -0.9795 -1.3637 -0.6046
 8375SOL     OW36583   0.308   4.138   7.092  0.0780  0.8136 -0.0984
 8375SOL    HW136584   0.317   4.054   7.047  0.2992  1.1667 -0.7138
 8375SOL    HW236585   0.346   4.121   7.178 -2.8504  0.5898  1.1404
 8376SOL     OW36586   2.313   1.646   8.881  0.2660  0.3664 -0.1257
 8376SOL    HW136587   2.405   1.668   8.863 -0.2316  2.7756  0.2144
 8376SOL    HW236588   2.323   1.553   8.899 -1.0299  0.7828  2.7249
 8377SOL     OW36589   4.721   2.285  17.318  0.2531 -0.1162 -0.0727
 8377SOL    HW136590   4.720   2.230  17.397  1.1061 -1.1947 -0.8104
 8377SOL    HW236591   0.005   2.213  17.256  0.0481 -0.2514  0.0504
 8378SOL     OW36592   3.322   2.881   3.630  0.1308 -0.4364 -0.0589
 8378SOL    HW136593   3.286   2.828   3.701 -0.2778  2.2328  1.7377
 8378SOL    HW236594   3.376   2.940   3.682 -0.0998  0.1701 -0.5111
 8379SOL     OW36595   1.293   4.485   6.545  0.1897 -0.3017  0.0215
 8379SOL    HW136596   1.317   4.541   6.619 -1.6952 -1.5150  1.5398
 8379SOL    HW236597   1.266   4.555   6.486 -2.0972 -0.1633  1.2440
 8380SOL     OW36598   1.879   4.678   3.941  0.1031  0.5022  0.3262
 8380SOL    HW136599   1.945   4.613   3.966 -0.6026  0.1099  1.1650
 8380SOL    HW236600   1.926   4.711   3.864  0.5309 -1.9815 -0.4988
 8381SOL     OW36601   1.405   0.780   4.535  0.1774 -0.5759 -0.1049
 8381SOL    HW136602   1.317   0.781   4.497  0.2765 -0.9696 -0.3481
 8381SOL    HW236603   1.394   0.801   4.628 -1.7836  0.1069 -0.5075
 8382SOL     OW36604   2.195   2.367   8.101 -0.2724 -0.0878 -0.1711
 8382SOL    HW136605   2.257   2.298   8.125 -0.7691 -0.2612  0.6126
 8382SOL    HW236606   2.160   2.394   8.186  1.2921 -0.2723  0.5284
 8383SOL     OW36607   2.467   3.054   1.389  0.3192 -0.0991  0.1943
 8383SOL    HW136608   2.483   3.126   1.451  0.7376 -1.3238  1.5231
 8383SOL    HW236609   2.523   3.092   1.321  0.5542 -1.2169 -0.2311
 8384SOL     OW36610   1.217   0.659   2.298 -0.1179 -0.5841  0.4216
 8384SOL    HW136611   1.242   0.643   2.207 -2.1428  0.7289 -0.3879
 8384SOL    HW236612   1.155   0.731   2.283 -1.7893 -1.9646  0.6170
 8385SOL     OW36613   3.948   4.691   3.616  0.3452  0.5193 -0.3408
 8385SOL    HW136614   3.869   4.639   3.632 -0.4582  2.1910  1.0481
 8385SOL    HW236615   3.968   4.680   3.523 -0.3314 -1.0215 -0.3151
 8386SOL     OW36616   4.230   0.063   5.336 -0.4492  0.0613  0.4392
 8386SOL    HW136617   4.297   0.029   5.277 -2.1636 -0.9522 -0.9622
 8386SOL    HW236618   4.166   4.718   5.324 -0.8083  0.0332  2.4522
 8387SOL     OW36619   0.771   2.064   8.885 -0.1799 -0.3964 -0.8334
 8387SOL    HW136620   0.809   2.043   8.970  1.9585  2.4133 -1.0798
 8387SOL    HW236621   0.692   2.010   8.884 -0.6904  0.3255  1.5019
 8388SOL     OW36622   0.532   3.456   6.547  0.2693 -0.0262  0.0651
 8388SOL    HW136623   0.557   3.379   6.598 -3.2419 -1.6372 -0.6654
 8388SOL    HW236624   0.607   3.477   6.491  0.6441 -2.0869 -0.1892
 8389SOL     OW36625   1.657   1.473   6.947 -0.3550  0.0605 -0.1646
 8389SOL    HW136626   1.570   1.503   6.923 -0.5358  1.2719  1.9742
 8389SOL    HW236627   1.679   1.531   7.020  0.9125 -0.3096 -0.2410
 8390SOL     OW36628   4.097   3.984   6.963 -0.0333  0.2929 -0.6952
 8390SOL    HW136629   4.155   4.003   6.890 -1.0083  3.2815 -0.7070
 8390SOL    HW236630   4.152   3.951   7.034 -0.5293  0.6934 -0.1191
 8391SOL     OW36631   0.179   2.590  16.207 -0.5356  0.6358  0.2109
 8391SOL    HW136632   0.118   2.549  16.146 -1.2292  0.1400  1.2178
 8391SOL    HW236633   0.132   2.671  16.224  1.0797  1.2643  1.6809
 8392SOL     OW36634   0.028   2.536   8.590  0.3862  0.0602 -0.8199
 8392SOL    HW136635   4.706   2.600   8.643 -0.3979 -0.6973 -0.6115
 8392SOL    HW236636   0.088   2.511   8.661 -0.6496  0.8580  0.3298
 8393SOL     OW36637   0.532   3.246  17.172 -0.0476  0.4397  0.1947
 8393SOL    HW136638   0.623   3.277  17.182  0.3623 -0.8807  0.5523
 8393SOL    HW236639   0.515   3.199  17.253  1.5433 -0.0760  0.2510
 8394SOL     OW36640   1.366   1.488   8.564  0.8418 -0.3030 -0.6409
 8394SOL    HW136641   1.343   1.538   8.486 -0.3751 -0.5112 -0.4232
 8394SOL    HW236642   1.393   1.561   8.621  0.6233 -1.3487  0.8009
 8395SOL     OW36643   0.718   0.077   4.166  0.2526  0.9731  0.3791
 8395SOL    HW136644   0.760   4.720   4.190 -0.3006  1.1888  2.0864
 8395SOL    HW236645   0.647   0.047   4.110  0.5378 -2.5637  1.8720
 8396SOL     OW36646   4.402   2.321  14.395  0.3099 -0.1308  0.3709
 8396SOL    HW136647   4.327   2.263  14.380  0.6352 -0.3423 -0.4348
 8396SOL    HW236648   4.367   2.393  14.447 -1.5027 -0.9948  0.3679
 8397SOL     OW36649   4.361   1.171   8.351 -0.1000 -0.3668 -0.3426
 8397SOL    HW136650   4.403   1.200   8.269 -0.9036  0.4182 -0.4774
 8397SOL    HW236651   4.339   1.256   8.390 -0.8441  1.0871 -3.8827
 8398SOL     OW36652   4.463   1.275   8.114 -0.4644 -0.4378  0.0544
 8398SOL    HW136653   4.523   1.201   8.103 -0.0523  0.2583 -2.4732
 8398SOL    HW236654   4.427   1.293   8.027 -1.2332  3.3975  1.1432
 8399SOL     OW36655   3.080   4.667   0.813  0.2070 -0.0843  0.4175
 8399SOL    HW136656   3.036   4.582   0.816  1.8369 -0.9594 -0.1553
 8399SOL    HW236657   3.008   0.000   0.794  1.7245  1.4736 -0.4929
 8400SOL     OW36658   3.266   0.217   8.601  0.7847 -0.1679 -0.4875
 8400SOL    HW136659   3.192   0.182   8.551 -0.1101  0.6246  0.2857
 8400SOL    HW236660   3.292   0.292   8.547  0.4175  3.3298  4.1834
 8401SOL     OW36661   4.595   0.360   3.689  0.2713  0.4769  0.0873
 8401SOL    HW136662   4.627   0.270   3.680 -4.5445 -1.1204 -1.4336
 8401SOL    HW236663   4.500   0.356   3.676  0.1398 -1.8104  1.7094
 8402SOL     OW36664   3.328   2.652  17.139 -1.0769  0.1123  0.4010
 8402SOL    HW136665   3.332   2.566  17.181  1.0975 -0.1306 -0.2899
 8402SOL    HW236666   3.237   2.680  17.148 -0.7542  1.6808 -1.0990
 8403SOL     OW36667   0.146   0.807   4.091 -0.1604 -0.3318 -0.4046
 8403SOL    HW136668   0.088   0.741   4.130  1.3465 -1.2344  0.2773
 8403SOL    HW236669   0.233   0.778   4.118  0.2204  0.5227 -0.7411
 8404SOL     OW36670   0.016   1.213   0.818 -0.1191  0.0715  0.2346
 8404SOL    HW136671   4.652   1.247   0.824 -0.4414 -1.0933  2.1998
 8404SOL    HW236672   0.032   1.197   0.911  3.4521 -2.1222 -0.7691
 8405SOL     OW36673   0.027   3.850   3.315  0.8527  0.3798  0.0077
 8405SOL    HW136674   0.024   3.761   3.348 -4.0684  0.9759  1.2163
 8405SOL    HW236675   4.681   3.887   3.367  1.4993 -1.0350  1.8665
 8406SOL     OW36676   3.328   2.909   8.935 -0.0738  0.1740 -0.4148
 8406SOL    HW136677   3.385   2.849   8.982 -0.8351  0.2050  0.5329
 8406SOL    HW236678   3.386   2.958   8.876 -2.4835  0.5167 -2.5035
 8407SOL     OW36679   3.255   3.574  14.180 -0.7364  0.6417  0.1888
 8407SOL    HW136680   3.347   3.595  14.167 -0.9159  1.0260 -0.4582
 8407SOL    HW236681   3.249   3.597  14.272 -1.2078  2.9470 -0.4369
 8408SOL     OW36682   0.248   4.596   4.782 -0.7418 -0.0977  0.2269
 8408SOL    HW136683   0.285   4.516   4.818 -0.9372 -0.1610  0.2881
 8408SOL    HW236684   0.325   4.652   4.774  0.2723 -1.3102  1.6155
 8409SOL     OW36685   3.113   4.419  11.527  0.4162  0.1127 -0.2884
 8409SOL    HW136686   3.160   4.352  11.478 -0.1189 -1.7142  1.6808
 8409SOL    HW236687   3.037   4.438  11.471  1.0512 -0.7621 -1.4563
 8410SOL     OW36688   3.536   3.857   4.682 -0.7506  0.1844 -0.3248
 8410SOL    HW136689   3.630   3.851   4.700 -1.0379 -0.4315  0.9806
 8410SOL    HW236690   3.501   3.779   4.725 -3.9472  1.3943 -0.8078
 8411SOL     OW36691   3.509   3.805   3.196 -0.1250  0.3152  0.4683
 8411SOL    HW136692   3.492   3.776   3.285 -1.5234 -1.1638 -0.2549
 8411SOL    HW236693   3.432   3.862   3.185 -0.5021 -0.5772 -1.6838
 8412SOL     OW36694   0.914   4.201   5.872  0.4339  0.1276  0.4132
 8412SOL    HW136695   0.916   4.109   5.896 -0.3390  0.2075  0.7853
 8412SOL    HW236696   0.823   4.229   5.875  0.5123  0.3798  0.5394
 8413SOL     OW36697   0.928   0.863  10.257 -0.0459  0.1091  0.2836
 8413SOL    HW136698   0.924   0.775  10.293  0.2379 -0.1926 -0.4250
 8413SOL    HW236699   0.922   0.854  10.162 -0.1960  4.4097 -0.1255
 8414SOL     OW36700   1.158   4.397   5.372  0.1989 -0.2026  0.3961
 8414SOL    HW136701   1.096   4.342   5.325  1.6881 -0.9686 -0.6916
 8414SOL    HW236702   1.236   4.341   5.368 -1.1598 -2.0094 -0.7929
 8415SOL     OW36703   2.041   0.647  17.296  0.3471 -0.1661  0.1729
 8415SOL    HW136704   2.074   0.577  17.351 -2.6594 -1.5283  0.2555
 8415SOL    HW236705   1.964   0.682  17.341 -0.1801  0.1058 -0.9278
 8416SOL     OW36706   4.323   3.930   4.371  0.7087  0.2954 -0.8589
 8416SOL    HW136707   4.268   3.865   4.329  1.6486 -1.3712  0.4727
 8416SOL    HW236708   4.368   3.962   4.293  1.1623  0.0458 -0.7011
 8417SOL     OW36709   2.822   0.748   6.979 -0.0011 -1.0335 -0.9589
 8417SOL    HW136710   2.914   0.742   7.006 -0.6044  0.8379  1.5162
 8417SOL    HW236711   2.780   0.671   7.016  0.7803 -1.1373 -0.2890
 8418SOL     OW36712   2.747   3.110   6.860  0.3182 -0.0240 -0.0795
 8418SOL    HW136713   2.734   3.158   6.778  2.4461  0.1926 -0.2858
 8418SOL    HW236714   2.685   3.037   6.856 -1.6757  1.6113  1.1911
 8419SOL     OW36715   3.569   2.376   3.158 -0.1057 -0.1124 -0.4232
 8419SOL    HW136716   3.557   2.301   3.100  1.0390  0.2111 -1.0919
 8419SOL    HW236717   3.479   2.393   3.185 -0.0580 -0.0832 -0.2847
 8420SOL     OW36718   3.013   0.858  11.880  0.0701  0.1750 -0.3601
 8420SOL    HW136719   3.035   0.882  11.970  1.6334 -2.3161 -0.0931
 8420SOL    HW236720   2.918   0.853  11.874  0.0989 -1.3360  0.5328
 8421SOL     OW36721   3.978   1.273   3.727 -0.1543 -0.0925  0.5627
 8421SOL    HW136722   4.058   1.278   3.779  0.9932  2.3465 -1.4433
 8421SOL    HW236723   3.911   1.321   3.776 -1.6463 -0.9609 -0.6464
 8422SOL     OW36724   0.226   1.372   4.175  0.1042 -0.0120 -0.0188
 8422SOL    HW136725   0.321   1.384   4.180 -0.2055  2.1714  0.6720
 8422SOL    HW236726   0.209   1.398   4.266  0.8250 -2.3405  0.7906
 8423SOL     OW36727   3.080   2.158   4.519 -0.5786  0.2981 -0.0335
 8423SOL    HW136728   3.022   2.190   4.450 -1.7747 -2.1684 -0.1423
 8423SOL    HW236729   3.053   2.198   4.602 -1.4382 -1.3361  0.4766
 8424SOL     OW36730   3.596   0.273   2.468  0.0871 -0.2349  0.0673
 8424SOL    HW136731   3.684   0.291   2.501 -0.8496 -0.3089  2.6476
 8424SOL    HW236732   3.578   0.195   2.521  2.4113  0.1293  1.3840
 8425SOL     OW36733   3.399   3.093   6.534 -0.0468 -0.1065  0.3553
 8425SOL    HW136734   3.305   3.099   6.553  0.5046 -0.6102  3.2126
 8425SOL    HW236735   3.414   3.022   6.597 -1.4086  1.0402  1.9763
 8426SOL     OW36736   4.717   3.500   3.746 -0.0928  0.0311 -0.1638
 8426SOL    HW136737   0.038   3.422   3.719 -0.7644 -0.6272  0.5919
 8426SOL    HW236738   4.634   3.471   3.784 -1.2700  3.7137  0.1199
 8427SOL     OW36739   3.663   2.476   5.559  0.1771  0.1940  0.3918
 8427SOL    HW136740   3.617   2.559   5.569 -0.5762 -0.2874  0.9195
 8427SOL    HW236741   3.640   2.459   5.468  1.4578 -0.4896  0.1960
 8428SOL     OW36742   1.673   0.031   5.862  0.2723  0.3700 -0.1477
 8428SOL    HW136743   1.666   0.027   5.957  0.5050 -0.8859 -0.1858
 8428SOL    HW236744   1.617   0.108   5.855 -0.9908 -0.8926 -3.6790
 8429SOL     OW36745   3.629   4.022   6.698 -0.0151 -0.0294 -0.1580
 8429SOL    HW136746   3.704   3.999   6.752  1.1631  0.4901 -1.5583
 8429SOL    HW236747   3.567   4.047   6.766  0.8812  1.2972  0.1658
 8430SOL     OW36748   1.237   3.668  14.975  0.2420 -0.0412  0.3668
 8430SOL    HW136749   1.234   3.572  14.969 -0.3467  0.0415 -0.6257
 8430SOL    HW236750   1.191   3.686  14.893  0.2843  0.6368  0.4985
 8431SOL     OW36751   0.429   1.371  10.168 -0.6421 -0.2600  0.4774
 8431SOL    HW136752   0.408   1.283  10.199  1.9079 -0.6855  0.9318
 8431SOL    HW236753   0.517   1.372  10.204  0.1513 -0.5076 -1.4590
 8432SOL     OW36754   3.828   0.940  12.451 -0.9066  0.4877 -0.0829
 8432SOL    HW136755   3.793   1.026  12.474  1.6826  1.2736  0.8714
 8432SOL    HW236756   3.889   0.925  12.523 -2.5703  2.3874  1.7339
 8433SOL     OW36757   4.032   2.561   7.662 -0.1763  0.2736 -0.0822
 8433SOL    HW136758   3.946   2.526   7.687 -0.2874  1.0126  0.5513
 8433SOL    HW236759   4.001   2.607   7.584 -2.0491  0.3358  0.6795
 8434SOL     OW36760   3.198   0.285  16.083 -0.3414  0.5793 -0.0976
 8434SOL    HW136761   3.141   0.209  16.074  0.1177  0.0005  1.9268
 8434SOL    HW236762   3.136   0.346  16.123  0.1014  1.7597 -1.1981
 8435SOL     OW36763   2.640   1.356   5.804  0.3292 -0.0710 -0.3966
 8435SOL    HW136764   2.728   1.391   5.817  0.4562 -0.1260 -1.1079
 8435SOL    HW236765   2.650   1.309   5.722  1.8203 -0.1290 -0.1861
 8436SOL     OW36766   2.759   4.572   6.077 -1.2504 -0.4470 -0.3047
 8436SOL    HW136767   2.816   4.648   6.087 -0.9326 -0.3701 -2.8814
 8436SOL    HW236768   2.825   4.509   6.106 -1.3811 -0.7001 -0.5649
 8437SOL     OW36769   2.889   4.251   9.206 -0.0619  0.5280  0.6119
 8437SOL    HW136770   2.939   4.330   9.187 -0.5915  0.8306  0.4757
 8437SOL    HW236771   2.956   4.182   9.204  0.8232  1.4053  0.1949
 8438SOL     OW36772   2.925   2.369   2.354 -0.2530  0.4604  0.3005
 8438SOL    HW136773   2.889   2.299   2.299 -0.0937  1.6009 -1.2597
 8438SOL    HW236774   2.979   2.312   2.410 -3.5298  0.9322  3.9044
 8439SOL     OW36775   1.976   4.398   8.697  0.0813  0.6959 -0.5682
 8439SOL    HW136776   1.888   4.397   8.734  0.9665  1.5340  1.5523
 8439SOL    HW236777   2.028   4.345   8.757  1.9942  3.2550  0.0684
 8440SOL     OW36778   1.755   2.349   3.412  0.4038  0.4522 -0.3372
 8440SOL    HW136779   1.724   2.415   3.475  2.0119  1.4523 -0.5954
 8440SOL    HW236780   1.828   2.392   3.368  1.0155 -0.8500 -0.5955
 8441SOL     OW36781   4.024   0.792   7.287 -0.6000 -0.2780 -0.1098
 8441SOL    HW136782   4.116   0.774   7.268 -0.9644 -1.5714 -0.7091
 8441SOL    HW236783   4.013   0.790   7.382 -1.6006  1.6703 -0.1813
 8442SOL     OW36784   0.898   4.169   5.374 -0.6004  0.4366 -0.3988
 8442SOL    HW136785   0.884   4.111   5.449  0.5992  0.7274  0.0561
 8442SOL    HW236786   0.962   4.117   5.323  0.4653 -0.2070  1.6002
 8443SOL     OW36787   1.339   3.878  13.619  0.3862  0.0679 -0.3211
 8443SOL    HW136788   1.359   3.926  13.539 -1.6991  1.0747 -0.2334
 8443SOL    HW236789   1.429   3.870  13.651  0.8272 -0.6324 -1.6919
 8444SOL     OW36790   3.792   2.044  14.552 -0.0935  0.4214  0.3238
 8444SOL    HW136791   3.702   2.013  14.542  0.0317  0.0719  0.2527
 8444SOL    HW236792   3.841   1.998  14.484 -0.5377 -0.6640  0.7251
 8445SOL     OW36793   2.990   3.835  16.301 -0.2659 -0.0682 -0.0232
 8445SOL    HW136794   3.043   3.817  16.378 -0.2498  0.9303  0.1956
 8445SOL    HW236795   3.021   3.923  16.277  0.4271 -0.4340 -0.4980
 8446SOL     OW36796   3.387   4.341   6.736 -0.4312  0.2433 -0.3305
 8446SOL    HW136797   3.306   4.297   6.711 -0.0954 -0.6566  0.1599
 8446SOL    HW236798   3.441   4.274   6.777  0.2631  0.3506 -1.0549
 8447SOL     OW36799   2.710   0.876   5.053  0.1112  0.3511  0.3471
 8447SOL    HW136800   2.795   0.912   5.078 -0.1867  0.0526  1.8449
 8447SOL    HW236801   2.742   0.808   4.995  1.6012 -1.8605  3.7592
 8448SOL     OW36802   0.626   1.319   8.650 -0.1182  0.0534  0.0708
 8448SOL    HW136803   0.583   1.373   8.583 -2.1123 -2.2252 -0.4789
 8448SOL    HW236804   0.715   1.351   8.634  0.3568 -1.9593 -1.3229
 8449SOL     OW36805   1.214   1.127   2.288 -0.2495 -0.4000 -0.4954
 8449SOL    HW136806   1.119   1.119   2.289 -0.3369  0.5951 -0.2567
 8449SOL    HW236807   1.236   1.181   2.212 -2.7281  0.1904 -0.7808
 8450SOL     OW36808   4.660   2.832  10.433  0.4372  0.5227  0.5611
 8450SOL    HW136809   4.676   2.852  10.341 -1.3929 -1.2520 -0.1243
 8450SOL    HW236810   4.569   2.803  10.423  0.4118  0.5429  0.7299
 8451SOL     OW36811   2.044   0.129   3.115 -0.5412  0.2580 -0.3321
 8451SOL    HW136812   2.120   0.166   3.070  1.1593 -1.4012  1.2064
 8451SOL    HW236813   2.033   0.193   3.185  1.3731 -0.2751  0.4487
 8452SOL     OW36814   3.869   0.848  13.766 -0.9667  0.8389 -0.6025
 8452SOL    HW136815   3.792   0.901  13.745 -0.5396  1.5941 -0.2489
 8452SOL    HW236816   3.917   0.915  13.815 -2.0169  0.0199  1.5523
 8453SOL     OW36817   1.528   2.258  14.014  0.0684 -0.1673  0.0939
 8453SOL    HW136818   1.515   2.198  14.087  1.1544 -2.9284 -1.9621
 8453SOL    HW236819   1.438   2.291  14.008  0.1474  0.1119  0.4661
 8454SOL     OW36820   3.759   0.783   4.292  0.0800  0.3952  0.3227
 8454SOL    HW136821   3.718   0.787   4.206 -0.4449  0.0058  0.5545
 8454SOL    HW236822   3.688   0.800   4.355  0.0317  0.2767  0.2994
 8455SOL     OW36823   3.779   3.036   3.836  0.0840  0.2805  0.7219
 8455SOL    HW136824   3.828   3.006   3.760 -3.7567 -0.8565 -1.2934
 8455SOL    HW236825   3.756   2.952   3.875 -2.2570  0.4778 -0.2485
 8456SOL     OW36826   1.944   4.458   5.441 -0.3772 -0.6843 -0.1527
 8456SOL    HW136827   1.853   4.459   5.470  0.0607  2.6054  1.0321
 8456SOL    HW236828   1.924   4.495   5.355  0.7021  2.9394  1.1517
 8457SOL     OW36829   3.162   0.630   7.280 -0.7139  0.5421  0.6358
 8457SOL    HW136830   3.229   0.687   7.317  0.3673 -0.0221 -0.4303
 8457SOL    HW236831   3.119   0.595   7.358 -0.1058  0.7027  1.0365
 8458SOL     OW36832   2.813   2.779  10.047 -0.2822 -0.2034 -0.1874
 8458SOL    HW136833   2.746   2.783   9.978  2.5137 -3.1256 -3.0411
 8458SOL    HW236834   2.807   2.686  10.070 -0.7361  0.1063  0.9565
 8459SOL     OW36835   4.477   2.045   3.596  0.6011 -0.0584  0.1750
 8459SOL    HW136836   4.550   2.081   3.646 -0.5314 -0.0608  1.8475
 8459SOL    HW236837   4.517   1.970   3.551  1.8500  0.2171  0.8194
 8460SOL     OW36838   2.006   1.340   4.200 -0.4634 -0.4011  0.3504
 8460SOL    HW136839   2.018   1.413   4.261 -1.6879 -0.6018  0.8300
 8460SOL    HW236840   2.052   1.264   4.236 -0.8554 -1.2797 -0.9990
 8461SOL     OW36841   0.191   0.494  10.608 -0.5119 -0.0257  0.1531
 8461SOL    HW136842   0.109   0.537  10.585 -0.0127  0.4836 -0.6637
 8461SOL    HW236843   0.173   0.478  10.701 -1.8891 -0.5051 -0.1976
 8462SOL     OW36844   0.202   2.337   6.628 -0.1747 -0.2724 -0.0331
 8462SOL    HW136845   0.192   2.282   6.706  1.8233 -2.2335 -1.1488
 8462SOL    HW236846   0.292   2.369   6.640 -0.3269  0.4628 -0.8599
 8463SOL     OW36847   1.482   0.543   2.358  0.2960 -0.3374 -0.0232
 8463SOL    HW136848   1.392   0.572   2.341  0.8837  1.6876  0.3409
 8463SOL    HW236849   1.529   0.620   2.389  1.4642 -0.9647 -0.2283
 8464SOL     OW36850   1.877   0.476  10.039 -0.4433 -0.1751 -0.3920
 8464SOL    HW136851   1.832   0.545  10.088 -0.1772 -1.5601  1.8233
 8464SOL    HW236852   1.909   0.530   9.967 -1.7906  2.3565  0.9197
 8465SOL     OW36853   2.933   4.228   4.988 -0.0160 -0.4390  0.9666
 8465SOL    HW136854   2.934   4.217   5.083 -1.0095  2.5078  1.3513
 8465SOL    HW236855   2.908   4.321   4.983  0.5085 -0.2941  1.0550
 8466SOL     OW36856   3.107   2.713   3.775 -0.1196  0.2173 -0.0464
 8466SOL    HW136857   3.166   2.648   3.812  0.6173  0.4673 -0.7723
 8466SOL    HW236858   3.069   2.747   3.856 -0.0904  1.0590 -0.3856
 8467SOL     OW36859   4.262   1.306   7.325  0.1973  0.0271  0.3951
 8467SOL    HW136860   4.210   1.385   7.337  0.1786  0.2741 -1.2593
 8467SOL    HW236861   4.235   1.245   7.393  1.7505 -0.8689  0.2236
 8468SOL     OW36862   3.105   1.720   1.976 -0.3521 -0.1989 -0.1264
 8468SOL    HW136863   3.130   1.802   2.020 -0.6206  0.7227 -1.7026
 8468SOL    HW236864   3.192   1.689   1.954 -0.8779 -2.5719  1.2033
 8469SOL     OW36865   1.936   3.809   5.114  0.5751 -0.2411 -0.5730
 8469SOL    HW136866   1.845   3.791   5.136  0.5977  0.8716  0.4505
 8469SOL    HW236867   1.957   3.716   5.104  0.0308 -0.2318 -1.8078
 8470SOL     OW36868   2.151   1.926   8.314 -0.4673 -0.4166  0.1596
 8470SOL    HW136869   2.058   1.931   8.334 -0.5898 -0.1088 -0.4922
 8470SOL    HW236870   2.188   1.932   8.402 -1.6801 -0.1729  0.6482
 8471SOL     OW36871   0.915   3.269  17.494 -0.6654 -0.0004  0.5398
 8471SOL    HW136872   0.861   3.318  17.433 -0.4842 -1.7521 -1.0312
 8471SOL    HW236873   0.854   3.246  17.564 -0.8861 -0.2702  0.2548
 8472SOL     OW36874   4.323   2.068  17.403  0.4343  0.1305 -0.0949
 8472SOL    HW136875   4.291   2.050  17.491 -0.5754 -0.9230 -0.6717
 8472SOL    HW236876   4.247   2.042  17.350  0.8909  0.7260 -1.0475
 8473SOL     OW36877   1.268   3.528   6.135 -0.3377  0.1703 -0.2979
 8473SOL    HW136878   1.177   3.559   6.142 -0.4152  0.4815 -2.6452
 8473SOL    HW236879   1.322   3.606   6.148  0.3983 -0.9418  3.2265
 8474SOL     OW36880   4.721   4.650   4.841 -0.1527 -0.3697  0.2195
 8474SOL    HW136881   0.087   4.626   4.830  0.0666  0.9296 -0.7437
 8474SOL    HW236882   4.712   0.002   4.786  1.6305 -1.4283 -1.5618
 8475SOL     OW36883   3.788   1.899  13.699 -0.4478 -0.3803 -0.0629
 8475SOL    HW136884   3.720   1.833  13.710 -1.2148  0.0737 -2.2438
 8475SOL    HW236885   3.754   1.968  13.757 -2.5969 -2.7408  1.4844
 8476SOL     OW36886   0.143   1.970   7.134 -0.3299  0.3829  0.1461
 8476SOL    HW136887   0.166   1.912   7.207  0.4098  0.3087 -0.1355
 8476SOL    HW236888   0.212   1.953   7.068 -1.1085 -0.2476 -0.5090
 8477SOL     OW36889   4.336   2.507   4.760  0.0186  0.6211 -0.9201
 8477SOL    HW136890   4.245   2.515   4.789  0.3697 -1.7708  0.8191
 8477SOL    HW236891   4.391   2.546   4.829  0.5479 -0.2430 -0.8552
 8478SOL     OW36892   1.024   3.612   2.487  0.2540  0.3505 -0.0390
 8478SOL    HW136893   1.075   3.669   2.430  1.4854 -0.9878 -0.3032
 8478SOL    HW236894   0.967   3.562   2.428 -0.0651 -1.3011  1.6677
 8479SOL     OW36895   4.052   0.762   7.580 -0.2688  0.5528  0.0823
 8479SOL    HW136896   4.083   0.672   7.567 -0.0005  0.2932  2.4046
 8479SOL    HW236897   4.133   0.804   7.608  0.6364 -0.7282 -0.6413
 8480SOL     OW36898   2.252   4.149   7.395 -0.1827  0.1014  0.0543
 8480SOL    HW136899   2.251   4.106   7.480 -0.0909 -1.0051 -0.5013
 8480SOL    HW236900   2.342   4.178   7.378  0.2975 -2.5530 -2.0890
 8481SOL     OW36901   1.954   0.685   1.992  0.2558 -0.7509  0.6346
 8481SOL    HW136902   1.947   0.596   1.958  0.2458 -0.9083  1.0432
 8481SOL    HW236903   1.864   0.677   2.022  0.3531  0.0204  1.1338
 8482SOL     OW36904   3.435   2.631   6.183  0.7122  0.2578 -0.8896
 8482SOL    HW136905   3.371   2.572   6.142  0.9674  0.7950 -2.0544
 8482SOL    HW236906   3.518   2.590   6.158  0.7541 -0.0605 -0.2314
 8483SOL     OW36907   0.857   0.915   5.692 -0.1250  0.0740  0.4046
 8483SOL    HW136908   0.835   0.949   5.779  1.8499  0.2922  0.8167
 8483SOL    HW236909   0.772   0.879   5.668  0.1442 -1.4937  1.7621
 8484SOL     OW36910   1.590   0.643   9.854 -0.3850 -0.1077  0.4372
 8484SOL    HW136911   1.652   0.716   9.839  0.2755 -0.7353  0.1065
 8484SOL    HW236912   1.645   0.567   9.835 -0.7364 -0.1138 -0.5646
 8485SOL     OW36913   0.664   3.898  16.284  0.1119  0.0161  0.9357
 8485SOL    HW136914   0.578   3.930  16.311 -0.8785 -1.0791 -0.9309
 8485SOL    HW236915   0.658   3.808  16.316 -1.6425  0.0728  0.7936
 8486SOL     OW36916   0.066   2.081  17.131  0.7895  0.6419 -0.4168
 8486SOL    HW136917   0.072   2.104  17.038 -0.0618 -0.0099 -0.6382
 8486SOL    HW236918   0.083   1.986  17.130 -0.2509  0.4633 -1.1319
 8487SOL     OW36919   1.270   3.653   1.970 -0.1979 -0.0901  0.2028
 8487SOL    HW136920   1.361   3.636   1.948 -0.5979 -1.1717 -0.6009
 8487SOL    HW236921   1.237   3.651   1.880 -0.3447 -1.0945  0.2773
 8488SOL     OW36922   2.807   0.703  12.398 -0.0467 -0.2800  0.1462
 8488SOL    HW136923   2.788   0.748  12.481  1.0435  2.5602 -1.1203
 8488SOL    HW236924   2.720   0.666  12.389  0.2603 -1.2009  0.9583
 8489SOL     OW36925   1.993   1.071  10.133  0.4122  0.5501  0.3487
 8489SOL    HW136926   2.061   1.136  10.115  1.2140  0.1038  1.7939
 8489SOL    HW236927   1.986   1.017  10.054  0.7584 -1.0120  1.4059
 8490SOL     OW36928   2.891   4.651   6.420  0.0603  0.1677  0.1792
 8490SOL    HW136929   2.888   4.653   6.324 -0.9690 -0.3747  0.1948
 8490SOL    HW236930   2.967   4.706   6.436 -0.4991  1.1976 -0.7810
 8491SOL     OW36931   1.703   3.707   1.486  0.7812  0.2883  0.8647
 8491SOL    HW136932   1.671   3.793   1.514  0.0316 -0.5117  2.4785
 8491SOL    HW236933   1.645   3.681   1.414  0.8073 -1.6083  1.5277
 8492SOL     OW36934   0.709   3.871   8.601  0.4241  0.0453  0.3406
 8492SOL    HW136935   0.654   3.936   8.559 -2.6414 -2.2699  0.8067
 8492SOL    HW236936   0.774   3.932   8.636  0.8193 -0.2918  0.2014
 8493SOL     OW36937   0.007   3.062  13.961 -0.3857 -0.3592 -0.0264
 8493SOL    HW136938   0.028   3.142  13.913 -0.7801 -0.2773 -0.0648
 8493SOL    HW236939   4.682   3.091  14.037  0.7942  0.8044  0.3155
 8494SOL     OW36940   0.069   4.261   5.973 -0.5754  0.1527  0.2117
 8494SOL    HW136941   0.019   4.205   5.913  0.9363 -0.8014 -0.1432
 8494SOL    HW236942   0.014   4.340   5.975  1.0355  1.2537  0.8375
 8495SOL     OW36943   1.574   1.270   7.216  0.5193  0.0400 -0.3128
 8495SOL    HW136944   1.502   1.320   7.176 -0.1861 -2.0595 -1.6655
 8495SOL    HW236945   1.542   1.268   7.307  1.9508 -1.8183  0.1520
 8496SOL     OW36946   2.830   3.790   4.133 -0.7120  0.0587  0.0488
 8496SOL    HW136947   2.874   3.722   4.184 -0.4792  0.0147 -0.2127
 8496SOL    HW236948   2.825   3.863   4.194  0.4342  1.8256 -1.9750
 8497SOL     OW36949   1.372   3.959   1.715 -0.0326 -0.2948  0.2873
 8497SOL    HW136950   1.304   3.916   1.663 -0.2947  3.0712 -2.1602
 8497SOL    HW236951   1.343   3.965   1.806 -0.0339  0.1638  0.2589
 8498SOL     OW36952   2.315   4.002   6.751 -0.1698  0.0990  0.9853
 8498SOL    HW136953   2.397   3.994   6.702 -0.6238  0.0236  0.2395
 8498SOL    HW236954   2.341   3.951   6.828  0.9920 -0.3831  0.2831
 8499SOL     OW36955   3.999   0.986   4.294  0.8298  0.7970  0.8276
 8499SOL    HW136956   4.036   0.971   4.381  0.1899  2.5503  1.3976
 8499SOL    HW236957   3.916   0.939   4.291  2.0805 -1.3496 -0.6129
 8500SOL     OW36958   4.477   2.920   4.108  0.2722 -0.2913  0.4928
 8500SOL    HW136959   4.400   2.895   4.057 -0.2192  1.1724  0.5237
 8500SOL    HW236960   4.546   2.869   4.066  0.4529  1.4920 -1.4014
 8501SOL     OW36961   1.873   1.415   7.165 -0.2553 -0.0520  0.0277
 8501SOL    HW136962   1.903   1.409   7.256 -0.3885 -3.4226 -0.1630
 8501SOL    HW236963   1.836   1.503   7.159  0.8962  0.3218 -1.7814
 8502SOL     OW36964   1.805   0.113   9.016 -0.3865 -0.0672 -0.0048
 8502SOL    HW136965   1.711   0.105   9.003 -0.2040 -0.3510 -1.1197
 8502SOL    HW236966   1.802   0.079   9.106  2.5610  0.2145  0.2080
 8503SOL     OW36967   3.753   0.419   8.832  0.2497  0.1163 -0.5812
 8503SOL    HW136968   3.723   0.487   8.772  0.9500 -0.0953 -1.1743
 8503SOL    HW236969   3.680   0.414   8.894  0.6878 -1.5681 -0.1967
 8504SOL     OW36970   0.394   2.880   0.807 -0.1454  0.4710  0.7238
 8504SOL    HW136971   0.480   2.853   0.776 -0.0008 -0.3136  1.8101
 8504SOL    HW236972   0.342   2.811   0.765 -0.6791  1.1314  0.3030
 8505SOL     OW36973   4.275   0.940  12.151  0.2214  0.0248  0.2981
 8505SOL    HW136974   4.218   0.998  12.201 -0.1702 -0.2924  0.2130
 8505SOL    HW236975   4.221   0.861  12.153  0.3948 -0.1795 -2.9853
 8506SOL     OW36976   2.738   3.559   3.865 -0.1174  0.3552 -0.0533
 8506SOL    HW136977   2.817   3.604   3.836 -0.1425  0.0604 -0.5673
 8506SOL    HW236978   2.674   3.587   3.799  0.1660 -0.7227 -0.7833
 8507SOL     OW36979   2.668   4.692  17.472  0.3039  0.3091  0.3946
 8507SOL    HW136980   2.612   4.620  17.501 -0.4285  0.9911  0.6823
 8507SOL    HW236981   2.672   4.690  17.377 -0.4113  0.7292  0.3568
 8508SOL     OW36982   1.750   3.957   5.901 -0.2380  0.1518  0.8617
 8508SOL    HW136983   1.820   4.015   5.873 -0.5543  0.2774  0.3356
 8508SOL    HW236984   1.796   3.873   5.906  3.8241  2.3996  0.9954
 8509SOL     OW36985   1.817   4.454   0.333 -0.1077  0.0543 -0.4032
 8509SOL    HW136986   1.832   4.531   0.277  0.7661  0.0534 -0.1620
 8509SOL    HW236987   1.835   4.386   0.268 -2.0604  0.2935 -1.2246
 8510SOL     OW36988   0.678   3.690   7.895 -0.2837  0.1536 -0.4710
 8510SOL    HW136989   0.623   3.759   7.932  0.8652 -0.7289  2.8967
 8510SOL    HW236990   0.676   3.624   7.965  0.8118 -1.5962 -2.0793
 8511SOL     OW36991   1.170   3.870   8.567  0.5452 -0.2431 -0.1945
 8511SOL    HW136992   1.129   3.788   8.539  1.4437 -0.5317 -0.6528
 8511SOL    HW236993   1.192   3.844   8.657  0.2984 -1.7445 -0.5682
 8512SOL     OW36994   2.321   3.403   2.821  0.0695  0.8313  0.5333
 8512SOL    HW136995   2.382   3.423   2.750  2.1970  0.3066  2.2129
 8512SOL    HW236996   2.331   3.309   2.834 -1.7666  0.5445 -0.0925
 8513SOL     OW36997   0.586   1.019   5.489  0.0377  0.0421  0.4372
 8513SOL    HW136998   0.517   1.059   5.436 -0.3124 -0.5779  0.4150
 8513SOL    HW236999   0.653   1.086   5.475  0.1050 -0.3186 -0.9850
 8514SOL     OW37000   0.897   4.491   1.513  0.3088 -0.0615  0.2039
 8514SOL    HW137001   0.898   4.432   1.438  0.6506  0.1200  0.0650
 8514SOL    HW237002   0.890   4.574   1.464  0.3864 -0.0671  0.1840
 8515SOL     OW37003   3.824   3.579   5.646 -0.1983 -0.3237 -0.3882
 8515SOL    HW137004   3.793   3.497   5.608  2.3541 -0.5922 -1.8704
 8515SOL    HW237005   3.871   3.623   5.575  0.4388  2.1177  1.5649
 8516SOL     OW37006   2.364   4.205   5.123  0.0401 -0.1650 -0.3703
 8516SOL    HW137007   2.372   4.285   5.070  0.6949 -1.1366 -1.7424
 8516SOL    HW237008   2.270   4.205   5.143  0.7469 -0.7911  2.8019
 8517SOL     OW37009   4.179   1.088   3.446 -0.2223 -0.2836 -0.4291
 8517SOL    HW137010   4.262   1.052   3.412  0.2312 -0.9925  1.4308
 8517SOL    HW237011   4.170   1.047   3.532 -0.5254  1.1081  0.2023
 8518SOL     OW37012   3.156   4.005   7.775 -0.1486  0.3099 -0.9349
 8518SOL    HW137013   3.210   3.951   7.717  0.5551 -2.6875  2.4813
 8518SOL    HW237014   3.133   3.931   7.831  1.4987 -0.3146 -1.0862
 8519SOL     OW37015   2.972   1.277  11.988  0.5868  0.1927 -0.1399
 8519SOL    HW137016   2.965   1.260  12.082 -2.1728 -1.1636 -0.5738
 8519SOL    HW237017   2.975   1.372  11.996  0.8583  0.1384  0.3986
 8520SOL     OW37018   0.748   3.824  12.200 -0.1987 -0.5139  0.0339
 8520SOL    HW137019   0.745   3.784  12.287  0.6749  0.6669  0.6014
 8520SOL    HW237020   0.832   3.788  12.172  0.2880  0.4141  0.3004
 8521SOL     OW37021   1.880   4.021   8.768 -0.1024 -0.3625 -0.3197
 8521SOL    HW137022   1.796   4.027   8.722 -0.3639  2.5772  0.5231
 8521SOL    HW237023   1.940   4.020   8.693 -1.4555 -0.5480 -1.4125
 8522SOL     OW37024   3.621   0.247  13.335  0.6107  0.2917  0.9710
 8522SOL    HW137025   3.572   0.178  13.291  2.8353 -0.1197 -0.9157
 8522SOL    HW237026   3.664   0.204  13.409  0.4877  1.4916  1.7386
 8523SOL     OW37027   3.738   1.973   6.011  0.5813  0.0971  0.0065
 8523SOL    HW137028   3.801   2.031   5.968 -1.5086  1.1159 -1.6674
 8523SOL    HW237029   3.768   1.978   6.102 -0.9445 -0.5238  0.5333
 8524SOL     OW37030   2.724   4.019   2.142  0.1898 -0.1594  0.1818
 8524SOL    HW137031   2.730   3.993   2.234 -1.0827 -1.4619 -0.0945
 8524SOL    HW237032   2.784   4.092   2.153  0.7536 -0.3039 -1.9801
 8525SOL     OW37033   4.567   2.224   7.491 -0.3534 -0.1480 -0.9388
 8525SOL    HW137034   4.594   2.289   7.556 -1.3277 -0.0622 -0.6218
 8525SOL    HW237035   4.506   2.280   7.443  0.9372  1.5240 -0.6324
 8526SOL     OW37036   2.182   0.332   7.386  0.1000 -0.7589 -0.1991
 8526SOL    HW137037   2.170   0.424   7.361 -1.9656 -0.0061  3.5971
 8526SOL    HW237038   2.196   0.281   7.306  1.9141  2.1544 -1.7507
 8527SOL     OW37039   1.607   0.698   3.242 -0.1462 -0.5380  0.3775
 8527SOL    HW137040   1.548   0.683   3.316  0.0237  1.6326  0.9312
 8527SOL    HW237041   1.686   0.742   3.271 -0.8122  1.0197 -0.1694
 8528SOL     OW37042   4.244   3.412   5.842  0.7344  0.1343 -0.0543
 8528SOL    HW137043   4.209   3.392   5.929  0.9783 -0.3047 -0.0548
 8528SOL    HW237044   4.300   3.336   5.824  0.2396 -0.4906  1.0457
 8529SOL     OW37045   2.910   1.206   8.181 -0.2310 -0.1441  0.9341
 8529SOL    HW137046   2.945   1.117   8.174 -0.6170 -0.1654 -0.7776
 8529SOL    HW237047   2.977   1.255   8.135  0.6385 -0.7252  1.5679
 8530SOL     OW37048   1.052   1.539  10.697 -0.1380 -0.4774 -0.3852
 8530SOL    HW137049   1.138   1.578  10.717  0.0516 -0.6392 -0.9016
 8530SOL    HW237050   1.034   1.593  10.620  2.1783  1.7899  0.6336
 8531SOL     OW37051   3.204   0.453   6.783 -0.3705 -0.0050  0.5240
 8531SOL    HW137052   3.208   0.384   6.850  1.7158 -2.4977 -2.2020
 8531SOL    HW237053   3.295   0.453   6.755 -0.4258  1.6942  0.3341
 8532SOL     OW37054   3.655   2.953   6.373 -0.1190 -0.1164 -0.1305
 8532SOL    HW137055   3.609   2.895   6.434  0.1728  0.2104  0.3908
 8532SOL    HW237056   3.733   2.969   6.425 -0.5820 -0.0679  0.5584
 8533SOL     OW37057   1.857   3.449  12.560  0.0153  0.2543  0.1203
 8533SOL    HW137058   1.788   3.478  12.619 -1.8627  1.5867 -2.7627
 8533SOL    HW237059   1.899   3.377  12.607  1.5946  0.4590 -0.9716
 8534SOL     OW37060   0.316   2.541   7.976  0.7564  0.0197 -0.4646
 8534SOL    HW137061   0.241   2.536   8.035  1.4430  0.2356  0.4204
 8534SOL    HW237062   0.389   2.554   8.036  1.0787 -3.9059 -0.0288
 8535SOL     OW37063   4.531   0.190   6.839  0.7399  0.4833 -0.4596
 8535SOL    HW137064   4.600   0.239   6.883  3.3073 -2.0336 -1.6370
 8535SOL    HW237065   4.520   0.109   6.888 -1.3053  0.5434 -0.8210
 8536SOL     OW37066   3.541   3.530   6.693 -0.0903  0.0189  0.5662
 8536SOL    HW137067   3.553   3.456   6.753 -0.5409  0.4185  1.1517
 8536SOL    HW237068   3.539   3.497   6.604  0.6190 -2.2199  1.3793
 8537SOL     OW37069   0.854   1.689   7.169  0.2328  0.5450  0.4297
 8537SOL    HW137070   0.835   1.766   7.115 -0.7902  1.1069  1.5849
 8537SOL    HW237071   0.769   1.663   7.203  0.6965  0.0479  1.2172
 8538SOL     OW37072   0.159   3.286   4.959 -0.3408 -0.3095  0.5277
 8538SOL    HW137073   0.118   3.368   4.986  3.2785  0.9720  2.1614
 8538SOL    HW237074   0.157   3.298   4.864  1.0389  0.1553  0.5506
 8539SOL     OW37075   2.121   3.405   7.752  0.1419 -0.0789  0.3112
 8539SOL    HW137076   2.135   3.494   7.719 -1.0010 -0.6455 -1.6902
 8539SOL    HW237077   2.104   3.356   7.671 -0.5497  0.5548  0.0791
 8540SOL     OW37078   4.579   3.172   5.565  0.0998 -0.3241  0.1307
 8540SOL    HW137079   4.543   3.225   5.636  1.4551  0.3910  0.2862
 8540SOL    HW237080   4.661   3.221   5.560  0.0351 -0.1013  1.2906
 8541SOL     OW37081   0.303   3.001   2.908 -0.3628  0.1079 -0.3704
 8541SOL    HW137082   0.360   3.072   2.939  0.9484  0.0076 -2.5312
 8541SOL    HW237083   0.327   2.999   2.816 -1.6034 -1.9327 -0.6631
 8542SOL     OW37084   3.161   4.602   4.947  0.1974  0.0378 -0.5224
 8542SOL    HW137085   3.204   4.632   4.867  1.1534 -0.9824 -0.3971
 8542SOL    HW237086   3.144   4.510   4.924  1.1376 -0.9119  2.6222
 8543SOL     OW37087   0.140   0.769   8.042  0.6311 -0.1205  0.0316
 8543SOL    HW137088   0.162   0.784   8.134 -1.7382 -0.5386  0.6710
 8543SOL    HW237089   0.158   0.675   8.038  0.0932 -0.1476 -1.7888
 8544SOL     OW37090   3.305   0.304   6.276 -0.4626 -0.2332 -0.2010
 8544SOL    HW137091   3.299   0.247   6.353 -2.8069 -1.6174 -1.3921
 8544SOL    HW237092   3.308   0.387   6.323 -1.1493  0.1663 -0.8694
 8545SOL     OW37093   1.615   2.036  10.887  0.0333  0.1442 -0.2706
 8545SOL    HW137094   1.587   1.948  10.910  1.9949 -0.6376 -0.9045
 8545SOL    HW237095   1.692   2.013  10.834 -0.0798 -1.2198  0.1587
 8546SOL     OW37096   1.223   3.285  12.563 -0.4925  1.2417 -0.1477
 8546SOL    HW137097   1.174   3.349  12.614 -1.4406  0.5528 -0.2025
 8546SOL    HW237098   1.195   3.200  12.597  1.9125  0.6105  0.2938
 8547SOL     OW37099   1.790   0.434   6.255  0.5221 -0.6194 -0.3153
 8547SOL    HW137100   1.740   0.460   6.333 -0.1175 -0.8921 -0.6294
 8547SOL    HW237101   1.726   0.426   6.184 -1.4295 -1.1323  1.5078
 8548SOL     OW37102   1.131   0.436  12.762 -0.5436  0.0439 -0.3954
 8548SOL    HW137103   1.191   0.454  12.834 -1.7599 -1.9580  1.0839
 8548SOL    HW237104   1.186   0.380  12.708  0.9048 -0.7435  1.8958
 8549SOL     OW37105   0.493   3.115  16.916 -0.2015  0.2694 -0.3476
 8549SOL    HW137106   0.570   3.087  16.868  1.7838  0.7471  2.5485
 8549SOL    HW237107   0.531   3.152  16.996  0.8335 -0.4468 -0.5153
 8550SOL     OW37108   0.094   2.605   3.164  0.1275 -0.1805  0.2368
 8550SOL    HW137109   0.154   2.677   3.148 -0.7117  0.5170  0.2204
 8550SOL    HW237110   0.086   2.574   3.074  1.1816  2.7922 -0.8694
 8551SOL     OW37111   3.850   0.497   9.613 -0.4429 -0.1815 -0.3121
 8551SOL    HW137112   3.935   0.469   9.646  0.4142  1.9202 -0.7637
 8551SOL    HW237113   3.854   0.461   9.524  0.4706  0.6431 -0.5890
 8552SOL     OW37114   2.840   3.879   5.549  0.0909 -0.4896 -0.2508
 8552SOL    HW137115   2.903   3.934   5.597  0.8192 -0.5475 -1.1265
 8552SOL    HW237116   2.888   3.796   5.545 -0.7340 -0.9892  0.3523
 8553SOL     OW37117   1.787   2.756   8.651 -0.3475 -0.8688 -0.1572
 8553SOL    HW137118   1.767   2.818   8.581  1.8685  1.1498  0.9991
 8553SOL    HW237119   1.715   2.695   8.634 -0.6622 -0.3174 -0.8205
 8554SOL     OW37120   0.391   1.534  10.893  0.1662  0.7449  0.0613
 8554SOL    HW137121   0.407   1.465  10.958  2.4914  0.0166 -1.2694
 8554SOL    HW237122   0.472   1.584  10.901  1.0208 -0.9208  1.6759
 8555SOL     OW37123   3.747   4.638   8.267 -0.0328  0.0445  0.0947
 8555SOL    HW137124   3.669   4.619   8.215 -1.1078 -1.1163  2.0806
 8555SOL    HW237125   3.720   4.609   8.355  2.8388 -1.4362  0.4975
 8556SOL     OW37126   2.541   4.029  11.971 -0.3250  0.0802 -0.6976
 8556SOL    HW137127   2.477   3.983  12.025  1.0089 -0.0065  0.8443
 8556SOL    HW237128   2.501   4.110  11.941 -2.5662 -1.1287 -0.9515
 8557SOL     OW37129   4.215   3.931  16.117  0.1382 -0.6237  0.3810
 8557SOL    HW137130   4.166   3.930  16.035 -2.0837  2.0059  1.6437
 8557SOL    HW237131   4.149   3.921  16.186 -0.0539 -0.1255  0.2686
 8558SOL     OW37132   1.472   0.172  12.869  0.1121 -0.5120  0.2348
 8558SOL    HW137133   1.548   0.187  12.813  1.6591 -1.3507  2.1378
 8558SOL    HW237134   1.443   0.094  12.821 -2.4194  0.8878 -0.5353
 8559SOL     OW37135   3.383   4.432  16.698  0.1188  0.4785  0.1128
 8559SOL    HW137136   3.361   4.521  16.670  0.2351  0.2064 -0.8492
 8559SOL    HW237137   3.460   4.413  16.645 -0.4332  0.5936 -0.7444
 8560SOL     OW37138   1.308   1.621   5.748 -0.3153  0.5719  0.2326
 8560SOL    HW137139   1.240   1.627   5.815 -0.6530  0.7881 -0.1315
 8560SOL    HW237140   1.311   1.533   5.711 -1.0387  1.5430 -2.1281
 8561SOL     OW37141   4.359   4.635  13.335  0.0697  0.0123  0.9157
 8561SOL    HW137142   4.342   4.713  13.282  0.7404 -0.2414  0.3215
 8561SOL    HW237143   4.391   4.572  13.270 -0.1762  2.3782 -1.4717
 8562SOL     OW37144   0.804   0.274  12.559 -0.2414  0.1648 -0.2374
 8562SOL    HW137145   0.728   0.272  12.500  1.7501  1.4918 -2.8496
 8562SOL    HW237146   0.771   0.230  12.637 -1.7119  0.7831 -0.5211
 8563SOL     OW37147   2.662   4.092   7.957  0.6009  0.3169  0.6123
 8563SOL    HW137148   2.672   4.000   7.983  1.7218  0.1345 -0.4704
 8563SOL    HW237149   2.737   4.104   7.898  0.6494  0.9108  0.7922
 8564SOL     OW37150   1.933   1.369  15.138 -0.0044 -0.2688 -0.4948
 8564SOL    HW137151   1.839   1.353  15.145  0.9121 -4.4880  1.8259
 8564SOL    HW237152   1.972   1.305  15.197 -2.3766  0.8266  2.2785
 8565SOL     OW37153   1.057   0.444  15.638 -0.0160 -0.1791 -0.7408
 8565SOL    HW137154   1.106   0.449  15.720  0.8123 -0.6775 -1.2033
 8565SOL    HW237155   0.987   0.387  15.670 -0.2713 -1.0420 -2.8193
 8566SOL     OW37156   2.561   1.362   6.818 -0.0137  0.1590 -0.5869
 8566SOL    HW137157   2.637   1.321   6.860  0.7415  0.8928 -1.2442
 8566SOL    HW237158   2.496   1.291   6.814  1.0602 -0.8580  0.1020
 8567SOL     OW37159   1.987   4.565  12.315  0.3180  0.2485 -0.4289
 8567SOL    HW137160   1.936   4.567  12.234  0.7358  0.8960 -0.6675
 8567SOL    HW237161   1.973   4.656  12.340  1.4846  0.1689  0.5039
 8568SOL     OW37162   3.859   4.104  16.827 -0.3300 -0.8227 -0.0885
 8568SOL    HW137163   3.772   4.099  16.787 -0.2115 -1.9955 -0.1857
 8568SOL    HW237164   3.905   4.022  16.809  1.4479  0.1392  0.0618
 8569SOL     OW37165   4.690   0.828   7.005 -0.1096 -0.2920  0.3885
 8569SOL    HW137166   4.675   0.776   6.926 -0.7240 -0.3857  0.5688
 8569SOL    HW237167   4.598   0.834   7.033 -0.9869 -0.9935 -2.3680
 8570SOL     OW37168   3.887   2.852  13.197 -0.0440 -0.1646 -0.1092
 8570SOL    HW137169   3.930   2.916  13.252  0.5759  0.1000 -0.8969
 8570SOL    HW237170   3.830   2.802  13.255 -0.0012  0.4948  0.4899
 8571SOL     OW37171   0.628   3.022   3.706 -0.1084  0.3272  0.3033
 8571SOL    HW137172   0.631   2.943   3.651  2.7094 -0.5989  1.7736
 8571SOL    HW237173   0.713   3.065   3.695 -0.6117  1.5061  1.0804
 8572SOL     OW37174   2.504   4.042   7.161  0.3622 -0.1620 -0.2261
 8572SOL    HW137175   2.524   4.120   7.109 -1.9783  0.8117  0.3040
 8572SOL    HW237176   2.498   4.080   7.248 -1.3847 -0.2935 -0.2958
 8573SOL     OW37177   1.468   2.589   6.982 -0.0463 -0.3796  0.5165
 8573SOL    HW137178   1.435   2.531   6.914 -1.9277  0.6452  0.5403
 8573SOL    HW237179   1.546   2.614   6.934  1.1338 -2.8047  1.1445
 8574SOL     OW37180   1.207   2.543   4.768 -0.0696  0.1877 -1.1056
 8574SOL    HW137181   1.174   2.567   4.854 -1.0352  0.4654 -1.5540
 8574SOL    HW237182   1.248   2.463   4.801 -0.7832  0.0334 -0.5913
 8575SOL     OW37183   1.152   2.026  11.896 -0.0630  0.3133  0.0380
 8575SOL    HW137184   1.135   1.959  11.830  0.0985  1.7815 -1.4656
 8575SOL    HW237185   1.246   2.031  11.882 -0.5574  2.7622 -2.2432
 8576SOL     OW37186   1.356   0.192   5.459  0.6588  0.2961 -0.3468
 8576SOL    HW137187   1.291   0.150   5.402 -1.4033  0.9877  1.4894
 8576SOL    HW237188   1.308   0.214   5.538  0.2472 -0.1374 -0.4788
 8577SOL     OW37189   4.481   0.293   2.590  0.1199  0.1217 -0.3513
 8577SOL    HW137190   4.485   0.239   2.668  0.2486 -1.7631 -1.6567
 8577SOL    HW237191   4.564   0.270   2.549 -0.6522 -1.8739 -0.8048
 8578SOL     OW37192   0.319   1.106  10.990 -0.4167 -0.2959 -0.2465
 8578SOL    HW137193   0.255   1.164  10.949 -2.6501 -2.0842  0.6833
 8578SOL    HW237194   0.303   1.031  10.933 -0.5995 -0.7058  0.3317
 8579SOL     OW37195   0.445   0.179   6.609 -0.6753 -0.5622  0.4979
 8579SOL    HW137196   0.480   0.188   6.698 -1.4704  0.5874  0.6931
 8579SOL    HW237197   0.352   0.159   6.617 -0.6705 -0.6037  0.4555
 8580SOL     OW37198   0.365   1.397   6.586  1.1249  0.1242 -0.2565
 8580SOL    HW137199   0.334   1.399   6.495  0.7492  1.1516 -0.1070
 8580SOL    HW237200   0.391   1.305   6.594 -2.4485 -1.1648 -3.5122
 8581SOL     OW37201   0.195   3.251   5.342 -0.0281 -0.4102  0.0220
 8581SOL    HW137202   0.233   3.266   5.429 -1.2595  1.7646  0.1776
 8581SOL    HW237203   0.263   3.211   5.288 -0.2442 -0.3963 -0.2568
 8582SOL     OW37204   0.254   1.015   6.362 -0.4740  0.5247 -0.2297
 8582SOL    HW137205   0.202   1.095   6.356 -1.4812 -0.0265  1.0279
 8582SOL    HW237206   0.289   1.024   6.451 -0.1987 -0.9593 -0.1826
 8583SOL     OW37207   1.395   1.923   7.600 -0.5930  0.6364 -0.1072
 8583SOL    HW137208   1.480   1.964   7.585 -0.1258 -1.0975 -2.2569
 8583SOL    HW237209   1.352   1.961   7.523 -1.5993  0.7718  0.5215
 8584SOL     OW37210   3.187   1.215   3.467  0.5321 -0.1645 -0.5901
 8584SOL    HW137211   3.279   1.199   3.443  0.8423  0.3842  0.2368
 8584SOL    HW237212   3.142   1.133   3.445  1.5669 -1.1908  1.1277
 8585SOL     OW37213   4.102   2.427   7.927 -0.0737  0.0701  0.0822
 8585SOL    HW137214   4.173   2.367   7.903  1.9154  2.1410  0.8483
 8585SOL    HW237215   4.088   2.465   7.840  1.9320 -2.0934 -1.1838
 8586SOL     OW37216   0.798   0.421   5.410 -0.0070  0.3188  0.1501
 8586SOL    HW137217   0.772   0.506   5.445  0.6704  1.0142 -1.0396
 8586SOL    HW237218   0.849   0.442   5.332 -2.8611 -0.7522 -1.9908
 8587SOL     OW37219   3.775   0.220   4.377  0.0493 -0.7125  0.4323
 8587SOL    HW137220   3.692   0.185   4.410 -0.1096  1.9860  2.9486
 8587SOL    HW237221   3.835   0.149   4.397  0.7247 -0.5563 -1.0819
 8588SOL     OW37222   0.566   4.715   5.945 -0.6240  0.6453  0.4416
 8588SOL    HW137223   0.636   0.055   5.943 -2.2756  2.3586 -1.6877
 8588SOL    HW237224   0.492   0.050   5.937 -1.5204 -0.3483  1.1166
 8589SOL     OW37225   2.860   0.058   6.693  0.1491  0.2911  0.0804
 8589SOL    HW137226   2.789   0.000   6.664  2.2249 -1.4257 -1.4826
 8589SOL    HW237227   2.859   0.118   6.618 -2.0207  0.4966  0.2526
 8590SOL     OW37228   0.275   1.592   3.839 -0.0680 -0.0310  0.1382
 8590SOL    HW137229   0.195   1.580   3.890 -1.7315  0.6049 -2.3468
 8590SOL    HW237230   0.334   1.641   3.897  2.5455 -0.8193 -1.8457
 8591SOL     OW37231   3.628   2.384  11.658  0.2193 -0.1459 -0.2463
 8591SOL    HW137232   3.602   2.323  11.589  2.7287  0.6515 -1.9039
 8591SOL    HW237233   3.580   2.350  11.733 -1.2897  0.8549 -0.7582
 8592SOL     OW37234   2.409   3.846  11.024 -0.4631 -0.6878  0.7663
 8592SOL    HW137235   2.347   3.907  11.065 -0.0311  0.7613 -0.6950
 8592SOL    HW237236   2.482   3.901  10.993 -1.6779  1.1013  1.0465
 8593SOL     OW37237   3.372   2.875   6.052  0.2939  0.7066  0.0123
 8593SOL    HW137238   3.389   2.828   5.970  1.1175  2.3522 -0.7449
 8593SOL    HW237239   3.395   2.803   6.111  0.8536  1.4310  0.6723
 8594SOL     OW37240   4.106   1.989  15.781 -0.5510  0.3702  0.8784
 8594SOL    HW137241   4.165   1.952  15.847 -0.3222 -3.9774 -1.7781
 8594SOL    HW237242   4.160   2.031  15.714  1.6107 -3.1872  0.3966
 8595SOL     OW37243   4.621   1.058   8.148  0.4019  0.1999 -0.1059
 8595SOL    HW137244   4.607   0.978   8.199  0.6708 -0.3749 -0.9416
 8595SOL    HW237245   4.707   1.077   8.185 -0.8097  1.9681  1.7459
 8596SOL     OW37246   1.496   1.478  15.259  0.6333 -0.2243 -0.5145
 8596SOL    HW137247   1.539   1.423  15.325  0.1488 -1.2042 -0.9996
 8596SOL    HW237248   1.505   1.415  15.187 -0.3602  0.2048 -1.0083
 8597SOL     OW37249   0.840   1.942   9.141  0.2490 -0.9148 -0.5453
 8597SOL    HW137250   0.893   1.989   9.206 -1.4762 -0.1372  0.3103
 8597SOL    HW237251   0.758   1.975   9.179  1.7803  0.4650  1.5925
 8598SOL     OW37252   0.639   4.339  16.324  0.4895 -0.4146  0.4418
 8598SOL    HW137253   0.657   4.311  16.414  1.4995  3.0178  1.3081
 8598SOL    HW237254   0.599   4.425  16.338 -0.3181 -0.9505  1.4542
 8599SOL     OW37255   0.700   1.147   3.698 -0.0411  0.5251 -0.2773
 8599SOL    HW137256   0.752   1.074   3.664 -0.9832 -0.4804  0.4451
 8599SOL    HW237257   0.715   1.127   3.790 -0.6305 -1.2119 -0.5570
 8600SOL     OW37258   2.443   2.795   3.143 -0.1543 -0.4698 -0.3075
 8600SOL    HW137259   2.526   2.841   3.157 -0.2030 -1.4123  2.9668
 8600SOL    HW237260   2.436   2.798   3.047  0.7677 -0.4416 -0.3761
 8601SOL     OW37261   4.187   1.385  16.312  0.3207 -0.3679 -0.0261
 8601SOL    HW137262   4.258   1.449  16.312 -0.6097  0.6749 -1.1379
 8601SOL    HW237263   4.178   1.348  16.400  1.4265  0.2672  0.3579
 8602SOL     OW37264   4.349   0.521   7.024 -0.1242 -0.4707 -0.0260
 8602SOL    HW137265   4.329   0.480   6.940  0.7435  1.1449 -1.0236
 8602SOL    HW237266   4.407   0.592   6.997 -0.2976 -0.7013 -1.0203
 8603SOL     OW37267   4.010   0.572   3.202  0.0433  0.3471 -0.1027
 8603SOL    HW137268   3.947   0.639   3.228  0.2348  0.4270  0.1591
 8603SOL    HW237269   3.987   0.565   3.109  1.9252  2.1705 -0.6906
 8604SOL     OW37270   1.918   3.737   7.693  0.1520  0.0642 -0.0400
 8604SOL    HW137271   1.826   3.713   7.709 -0.2032  1.4335 -0.0424
 8604SOL    HW237272   1.948   3.741   7.784  0.9275  1.3891 -0.3578
 8605SOL     OW37273   4.615   3.864   7.453  0.0163  0.4824  0.1588
 8605SOL    HW137274   4.524   3.835   7.458 -0.6408  2.5002 -0.0997
 8605SOL    HW237275   4.612   3.940   7.394 -2.2134 -1.0991 -1.7804
 8606SOL     OW37276   0.460   1.090   2.215 -0.2151  0.0211 -0.0677
 8606SOL    HW137277   0.400   1.040   2.159 -0.9913 -0.0646  0.8509
 8606SOL    HW237278   0.531   1.119   2.158  0.3785 -1.9425 -0.3214
 8607SOL     OW37279   0.866   2.181  15.774 -0.5096  0.2667 -0.4369
 8607SOL    HW137280   0.959   2.202  15.783 -0.7415  1.1450 -0.1032
 8607SOL    HW237281   0.867   2.090  15.744 -0.1616  0.4926 -1.1131
 8608SOL     OW37282   2.398   1.949   5.871  0.3845 -0.7747 -0.8107
 8608SOL    HW137283   2.431   1.949   5.961 -2.5577  3.4406  0.2773
 8608SOL    HW237284   2.441   2.029   5.843 -0.2870  0.2777  1.1520
 8609SOL     OW37285   2.074   2.457   3.888 -0.1872  0.4531 -0.1170
 8609SOL    HW137286   2.122   2.505   3.955 -1.3833 -0.7182  1.5876
 8609SOL    HW237287   1.990   2.504   3.893 -1.7824 -2.4603  0.2473
 8610SOL     OW37288   1.378   0.579   2.628 -0.0295  0.3878 -0.6806
 8610SOL    HW137289   1.451   0.556   2.685 -0.5778 -0.4477 -0.3232
 8610SOL    HW237290   1.412   0.545   2.545 -0.3923 -0.4485 -0.4875
 8611SOL     OW37291   1.548   1.054  11.502  0.3632  0.1973  0.0186
 8611SOL    HW137292   1.468   1.106  11.506  1.0639  1.4085 -1.6604
 8611SOL    HW237293   1.516   0.971  11.467  0.5181 -0.1809  0.7923
 8612SOL     OW37294   0.260   3.957   6.699 -0.4979  0.0911  0.4192
 8612SOL    HW137295   0.178   4.005   6.713 -0.7211  0.3511 -1.7668
 8612SOL    HW237296   0.315   4.026   6.663  0.5138 -0.2814  1.2535
 8613SOL     OW37297   4.013   0.780   5.880  0.0926 -0.7491 -0.0014
 8613SOL    HW137298   4.100   0.771   5.840  0.9352  0.7837  1.5040
 8613SOL    HW237299   3.958   0.721   5.828 -3.1693  0.4416  2.1361
 8614SOL     OW37300   1.710   3.695   4.214 -0.0659 -0.1212 -0.4203
 8614SOL    HW137301   1.688   3.771   4.269  0.6372  1.8602 -2.8941
 8614SOL    HW237302   1.799   3.714   4.185  0.0712 -0.0188  0.0607
 8615SOL     OW37303   1.283   3.417  16.901 -0.1147  0.0642  0.7339
 8615SOL    HW137304   1.329   3.360  16.963 -0.2360  1.8398  2.4378
 8615SOL    HW237305   1.309   3.499  16.943 -0.3034  0.3970  0.2067
 8616SOL     OW37306   3.905   4.172   6.708 -0.2930 -0.1506  0.2733
 8616SOL    HW137307   3.833   4.222   6.669  0.6337 -1.3553 -2.9402
 8616SOL    HW237308   3.869   4.086   6.730  0.2482 -0.2635  0.7093
 8617SOL     OW37309   1.895   2.315   6.784  0.5043  0.4926 -0.2021
 8617SOL    HW137310   1.868   2.229   6.814 -2.1689  1.5821  0.5158
 8617SOL    HW237311   1.984   2.299   6.752  0.1165 -1.0839 -0.4511
 8618SOL     OW37312   3.719   1.129   8.286 -0.3906 -0.0287 -0.1897
 8618SOL    HW137313   3.691   1.211   8.327 -0.9228  0.2182 -1.0605
 8618SOL    HW237314   3.687   1.143   8.197  0.8268 -0.1472 -0.6478
 8619SOL     OW37315   2.479   1.439   2.975  0.2008 -0.6354 -0.6399
 8619SOL    HW137316   2.553   1.404   2.927  1.9690 -1.1199  2.3921
 8619SOL    HW237317   2.406   1.390   2.938 -0.8355 -0.3254  0.9558
 8620SOL     OW37318   2.411   2.950  15.002  0.1480  0.0471  0.4239
 8620SOL    HW137319   2.345   3.017  14.983  0.3044 -0.5063 -2.0040
 8620SOL    HW237320   2.476   2.953  14.932 -0.4980 -2.3112 -0.2742
 8621SOL     OW37321   0.665   1.451  12.330 -0.0772 -0.7401  0.7462
 8621SOL    HW137322   0.680   1.475  12.239  0.8776 -0.1916  1.0448
 8621SOL    HW237323   0.574   1.422  12.323 -0.6050  1.1108 -0.0569
 8622SOL     OW37324   3.745   4.307   7.494  0.3742 -0.4133 -0.8024
 8622SOL    HW137325   3.830   4.350   7.500  0.2712  0.0275 -2.2513
 8622SOL    HW237326   3.679   4.375   7.509 -0.1250 -0.6964 -1.7177
 8623SOL     OW37327   3.615   1.539  16.754  0.1089 -0.1669  0.2490
 8623SOL    HW137328   3.637   1.452  16.787  1.6936 -0.1302 -0.7320
 8623SOL    HW237329   3.582   1.521  16.666  0.8809 -2.7950  0.5214
 8624SOL     OW37330   3.718   3.140   7.777  0.0111  0.1790  0.5388
 8624SOL    HW137331   3.746   3.172   7.691 -2.7649 -0.6471 -0.6474
 8624SOL    HW237332   3.806   3.120   7.810 -0.6020 -1.5838  1.0489
 8625SOL     OW37333   2.053   1.804   5.371 -0.3881  0.0469  0.1205
 8625SOL    HW137334   2.130   1.859   5.355 -0.0125 -0.1705  1.1871
 8625SOL    HW237335   2.092   1.733   5.423  0.0906  0.8230  0.8227
 8626SOL     OW37336   1.210   1.212   8.799  0.1878  0.2351 -0.2985
 8626SOL    HW137337   1.270   1.276   8.839 -2.6142  2.1838  0.7952
 8626SOL    HW237338   1.128   1.224   8.848 -0.5597 -1.0169 -1.2559
 8627SOL     OW37339   2.686   3.471  10.820  0.0836 -0.5265  0.3359
 8627SOL    HW137340   2.739   3.396  10.847  2.2423  1.1889  0.8327
 8627SOL    HW237341   2.634   3.427  10.753 -0.5133  1.1020 -0.2797
 8628SOL     OW37342   1.735   1.262  11.534 -0.2829  0.2223 -0.0062
 8628SOL    HW137343   1.666   1.202  11.560  0.0855 -1.0432 -1.9329
 8628SOL    HW237344   1.691   1.330  11.484 -0.0833  0.7702  0.5593
 8629SOL     OW37345   0.029   4.579   6.780  0.2031  0.0666 -0.5086
 8629SOL    HW137346   4.677   4.530   6.754 -0.4253  1.6466 -1.5822
 8629SOL    HW237347   0.047   4.605   6.689  2.0135  2.0022  0.4203
 8630SOL     OW37348   3.300   2.752   7.062  0.2271 -0.3843 -0.4664
 8630SOL    HW137349   3.277   2.820   6.998 -0.4678  0.3448  0.5641
 8630SOL    HW237350   3.281   2.673   7.011  1.8641 -1.6438  0.8767
 8631SOL     OW37351   2.513   2.687  13.951  0.3035  0.2710 -0.2327
 8631SOL    HW137352   2.488   2.643  13.870  1.5217 -1.0663  0.1120
 8631SOL    HW237353   2.598   2.649  13.971 -0.3755 -1.3750 -0.4857
 8632SOL     OW37354   3.790   2.597  11.634 -0.4699  0.1273  0.3064
 8632SOL    HW137355   3.743   2.522  11.669 -0.8739 -0.6602 -1.9349
 8632SOL    HW237356   3.714   2.646  11.600 -0.8465 -0.7309 -0.0770
 8633SOL     OW37357   1.960   0.547   3.377 -0.0529  0.3615  0.2363
 8633SOL    HW137358   1.938   0.457   3.398  1.1755  0.3219  1.3051
 8633SOL    HW237359   1.984   0.534   3.285 -0.6538  0.9924 -0.0159
 8634SOL     OW37360   1.590   0.384  11.943 -0.5265  0.0495  0.3025
 8634SOL    HW137361   1.684   0.397  11.954 -0.2617  0.9484 -2.9938
 8634SOL    HW237362   1.570   0.451  11.877 -1.1063 -0.7462 -0.3372
 8635SOL     OW37363   0.710   0.189   2.156  0.7143  0.2926 -0.0636
 8635SOL    HW137364   0.761   0.117   2.119  3.8764  2.0608  0.8302
 8635SOL    HW237365   0.734   0.265   2.103  2.2461  0.9734  1.6143
 8636SOL     OW37366   4.622   1.092   8.934 -0.1064  0.2191 -0.0355
 8636SOL    HW137367   4.651   1.043   8.857  1.7041  1.4253 -0.1200
 8636SOL    HW237368   4.529   1.072   8.931  0.3681 -1.6326 -1.9381
 8637SOL     OW37369   2.173   3.640   3.747  0.5147  0.1697  0.4169
 8637SOL    HW137370   2.129   3.694   3.682  1.0849  1.1338  0.8233
 8637SOL    HW237371   2.190   3.559   3.700 -1.7000  0.0994 -0.2255
 8638SOL     OW37372   2.681   4.226   4.099  0.5087  0.3928  0.3210
 8638SOL    HW137373   2.670   4.252   4.007 -0.1621  1.4266  0.6927
 8638SOL    HW237374   2.598   4.247   4.141  2.1416  3.7735  1.9172
 8639SOL     OW37375   0.528   3.301  15.828  0.0718 -0.3688 -0.6510
 8639SOL    HW137376   0.586   3.258  15.890 -0.2328  0.5648  0.2794
 8639SOL    HW237377   0.445   3.258  15.849 -0.8505  0.7348 -1.9809
 8640SOL     OW37378   3.163   3.447  10.819 -0.0777  0.2897 -0.4409
 8640SOL    HW137379   3.090   3.480  10.767  0.5820  1.6759 -0.4768
 8640SOL    HW237380   3.199   3.375  10.767  0.1497  0.2180 -0.1846
 8641SOL     OW37381   2.303   1.055  14.256 -0.2214  0.0516  0.3671
 8641SOL    HW137382   2.263   1.137  14.283 -0.9316 -0.3988  0.6809
 8641SOL    HW237383   2.294   1.049  14.161  1.4119 -0.2777  0.2301
 8642SOL     OW37384   3.490   2.126   6.013 -0.9340 -0.4078  0.0097
 8642SOL    HW137385   3.437   2.047   6.030  1.4849 -2.0982 -0.2598
 8642SOL    HW237386   3.575   2.081   6.016 -0.9653 -0.5471 -1.4590
 8643SOL     OW37387   2.367   2.878   1.633 -0.5396 -0.0736  0.1070
 8643SOL    HW137388   2.412   2.795   1.641 -0.0812  0.2031  0.3839
 8643SOL    HW237389   2.380   2.886   1.538  1.8886 -2.2577  0.2669
 8644SOL     OW37390   0.385   1.843  14.883 -0.1782  0.1804  0.2130
 8644SOL    HW137391   0.364   1.749  14.891  3.6967 -0.7328 -0.1872
 8644SOL    HW237392   0.423   1.850  14.795  0.4204  1.9479  0.6232
 8645SOL     OW37393   1.887   1.303  17.617 -0.1620 -0.2708 -0.3358
 8645SOL    HW137394   1.818   1.323  17.680  0.0300 -1.3333  0.2191
 8645SOL    HW237395   1.843   1.243  17.558 -0.3444 -0.6639  0.1999
 8646SOL     OW37396   1.778   2.438  10.717 -0.2758  0.2439  0.4919
 8646SOL    HW137397   1.779   2.438  10.621 -2.0447 -0.2301  0.4720
 8646SOL    HW237398   1.690   2.471  10.734 -0.9432 -2.4161  2.1623
 8647SOL     OW37399   1.465   1.941   6.685  0.0058  0.3650  0.5532
 8647SOL    HW137400   1.416   1.942   6.602 -0.5233 -0.0772  0.8579
 8647SOL    HW237401   1.546   1.986   6.663 -0.1194 -0.1266 -0.9178
 8648SOL     OW37402   3.184   0.538  10.834  0.6252 -0.3350 -0.0368
 8648SOL    HW137403   3.094   0.563  10.853 -0.1426 -2.3153 -1.0870
 8648SOL    HW237404   3.232   0.607  10.880  0.9247 -0.1654 -0.6096
 8649SOL     OW37405   3.019   3.704   9.217  0.3475 -0.1535  0.6965
 8649SOL    HW137406   3.067   3.629   9.181  0.7996  0.9913 -1.1010
 8649SOL    HW237407   3.070   3.776   9.182  1.6201 -1.9280 -1.1236
 8650SOL     OW37408   3.328   1.648   7.817 -0.2843 -0.4655 -0.5612
 8650SOL    HW137409   3.359   1.557   7.810 -1.0976 -0.6975 -1.1631
 8650SOL    HW237410   3.360   1.671   7.904 -3.3987  0.8384  0.2379
 8651SOL     OW37411   1.519   1.380   7.698 -0.0110 -0.0169  0.3845
 8651SOL    HW137412   1.537   1.457   7.644 -0.4418  1.7151  2.7166
 8651SOL    HW237413   1.483   1.419   7.778  1.0451  2.9310 -0.5960
 8652SOL     OW37414   2.627   1.820  17.579 -0.0046 -0.0717 -0.2384
 8652SOL    HW137415   2.602   1.764  17.653 -2.1221  1.1311 -0.0389
 8652SOL    HW237416   2.722   1.817  17.584 -0.0086 -0.2845 -0.2651
 8653SOL     OW37417   2.769   3.395   4.238 -0.7676  0.5314  0.2220
 8653SOL    HW137418   2.830   3.454   4.195  1.7698 -1.2117  1.3859
 8653SOL    HW237419   2.773   3.423   4.330  1.4587 -0.4800  0.4527
 8654SOL     OW37420   1.361   1.847   4.041 -0.1665 -0.1037  0.0250
 8654SOL    HW137421   1.395   1.812   4.123 -1.0495 -0.1607  0.3608
 8654SOL    HW237422   1.424   1.813   3.976  0.5061  0.5286  0.3469
 8655SOL     OW37423   1.572   4.154   1.363 -0.0299 -0.0799 -0.1560
 8655SOL    HW137424   1.652   4.178   1.316  0.8343 -0.4131  1.1587
 8655SOL    HW237425   1.508   4.218   1.331 -0.3350 -1.0074 -1.4063
 8656SOL     OW37426   3.219   1.020  16.649  0.3864  0.4470 -0.4528
 8656SOL    HW137427   3.126   0.995  16.649  0.2348  1.0404  0.1772
 8656SOL    HW237428   3.213   1.104  16.603 -1.5756  0.4247 -0.2572
 8657SOL     OW37429   1.944   4.436   0.799  0.1401  0.0605 -0.2097
 8657SOL    HW137430   1.855   4.437   0.765  0.8760  0.3712 -2.1270
 8657SOL    HW237431   1.984   4.371   0.742 -0.8858  1.3486 -2.3840
 8658SOL     OW37432   4.013   0.544  15.615  0.7055  0.0076 -0.4522
 8658SOL    HW137433   3.986   0.452  15.611  1.1598 -0.2353  1.8245
 8658SOL    HW237434   3.963   0.581  15.543 -0.1537 -0.7858 -0.2708
 8659SOL     OW37435   1.801   2.053  16.202  0.3138  0.4147  0.1436
 8659SOL    HW137436   1.733   2.095  16.255 -2.4140 -1.8676 -1.5577
 8659SOL    HW237437   1.843   2.001  16.271  0.8886 -0.3071 -0.7477
 8660SOL     OW37438   2.390   3.981   8.874 -0.0917  0.3875  0.1330
 8660SOL    HW137439   2.463   3.920   8.884  1.3882  2.1147 -0.0680
 8660SOL    HW237440   2.418   4.010   8.787  0.3429 -2.0463 -0.5533
 8661SOL     OW37441   1.998   0.246   8.862  0.3757  0.4545  1.0418
 8661SOL    HW137442   1.936   0.190   8.909 -1.3427  1.5560  0.0867
 8661SOL    HW237443   1.968   0.337   8.870  1.1976  0.5493  3.2201
 8662SOL     OW37444   3.038   4.563   2.069  0.2774  0.2351 -0.6013
 8662SOL    HW137445   2.998   4.483   2.036 -3.5507  2.2945 -0.9058
 8662SOL    HW237446   3.074   4.604   1.990  1.4911  1.3686  0.5425
 8663SOL     OW37447   4.309   3.678   3.771  0.8102 -0.3794 -0.1464
 8663SOL    HW137448   4.380   3.723   3.726  0.3768 -0.3076 -0.7502
 8663SOL    HW237449   4.293   3.748   3.835  0.3497 -0.9521  0.3726
 8664SOL     OW37450   0.636   1.412   5.142 -0.3471 -0.2731 -0.1430
 8664SOL    HW137451   0.545   1.382   5.151  0.0559 -1.7402 -0.9763
 8664SOL    HW237452   0.613   1.476   5.075 -2.6468  1.0132  1.8708
 8665SOL     OW37453   2.690   1.253   9.302 -0.1217 -0.1452 -0.3077
 8665SOL    HW137454   2.595   1.244   9.290 -0.1461 -0.1246 -0.1221
 8665SOL    HW237455   2.704   1.239   9.395 -0.4622 -0.5697 -0.3199
 8666SOL     OW37456   0.742   2.740   7.459  0.5609  0.4483 -0.6389
 8666SOL    HW137457   0.697   2.730   7.543  3.1245  1.9073  0.9557
 8666SOL    HW237458   0.718   2.664   7.407  1.5425 -0.3329  0.0351
 8667SOL     OW37459   3.435   3.621   4.837 -0.1369 -0.0165 -0.0132
 8667SOL    HW137460   3.505   3.611   4.902  0.6411  0.0542 -0.8357
 8667SOL    HW237461   3.471   3.573   4.763 -0.7607  1.7183 -1.4242
 8668SOL     OW37462   3.592   4.500   3.848 -0.7917  0.5550 -0.1206
 8668SOL    HW137463   3.594   4.486   3.943 -1.8689 -1.6330 -0.4116
 8668SOL    HW237464   3.593   4.406   3.828  1.0350  0.0443  2.2740
 8669SOL     OW37465   3.746   3.762  17.603 -0.1192 -0.3444 -0.0204
 8669SOL    HW137466   3.809   3.826  17.637  0.6291 -0.4505 -1.2124
 8669SOL    HW237467   3.797   3.693  17.560 -0.0778  0.0402 -0.5922
 8670SOL     OW37468   3.497   3.983  17.617 -0.1312  0.1917  0.2431
 8670SOL    HW137469   3.580   4.030  17.621 -0.4518  0.8721 -0.9370
 8670SOL    HW237470   3.436   4.054  17.638 -1.8387 -0.1091 -3.6500
 8671SOL     OW37471   1.338   2.546   5.577  0.5024 -0.4716 -0.5262
 8671SOL    HW137472   1.336   2.471   5.518 -0.9830 -0.0209 -1.0393
 8671SOL    HW237473   1.314   2.619   5.520 -0.4497 -0.8361 -0.5941
 8672SOL     OW37474   4.392   1.937   4.048  0.0169 -0.7769  0.4921
 8672SOL    HW137475   4.353   1.852   4.066  1.2025 -1.8161 -1.8594
 8672SOL    HW237476   4.339   1.995   4.102  0.8623  1.8877 -1.5575
 8673SOL     OW37477   3.143   1.962   8.509 -0.2661  0.2544  0.2280
 8673SOL    HW137478   3.086   1.891   8.478  0.1766  1.0416 -2.4450
 8673SOL    HW237479   3.078   2.027   8.482  0.4101  1.5460  1.7559
 8674SOL     OW37480   3.224   2.530  14.865 -0.1199  0.0617 -0.3900
 8674SOL    HW137481   3.156   2.598  14.863  0.5195  0.6893 -0.7278
 8674SOL    HW237482   3.184   2.461  14.918  0.7354 -0.8206 -0.8812
 8675SOL     OW37483   1.124   1.569   6.016  0.3685 -0.1603 -0.3348
 8675SOL    HW137484   1.119   1.489   6.068 -0.2060 -0.0023 -0.1464
 8675SOL    HW237485   1.107   1.633   6.085  1.7370 -0.8658  0.6510
 8676SOL     OW37486   4.169   4.331   6.156  0.1089  0.9360 -0.7420
 8676SOL    HW137487   4.205   4.419   6.168 -2.4313  1.7803  0.6817
 8676SOL    HW237488   4.083   4.339   6.196  0.2631  3.2357 -0.8346
 8677SOL     OW37489   1.331   3.306   7.602  0.5625 -0.1462 -0.7589
 8677SOL    HW137490   1.259   3.246   7.621 -0.8918  1.6790 -0.5192
 8677SOL    HW237491   1.281   3.371   7.551 -0.0979  0.2214  0.3505
 8678SOL     OW37492   1.187   3.839  15.872  0.3611  0.2664 -0.0241
 8678SOL    HW137493   1.152   3.869  15.788  2.3567  0.9413 -0.6222
 8678SOL    HW237494   1.282   3.840  15.858  0.2257 -1.5971 -1.0924
 8679SOL     OW37495   0.765   0.641   3.540  0.1194 -0.7171  0.0581
 8679SOL    HW137496   0.712   0.701   3.593  0.0958  0.7584 -1.6487
 8679SOL    HW237497   0.743   0.695   3.464  1.1721  0.2474  0.4250
 8680SOL     OW37498   4.390   3.096  17.189 -0.1729 -0.2604 -0.1673
 8680SOL    HW137499   4.467   3.054  17.151  0.9136  2.1786 -0.5991
 8680SOL    HW237500   4.388   3.072  17.282  0.6300 -0.2932 -0.1652
 8681SOL     OW37501   0.161   0.012   2.217 -0.1108 -0.0588 -0.4345
 8681SOL    HW137502   0.173   4.683   2.294 -0.3472 -1.3939 -1.3534
 8681SOL    HW237503   0.249   0.049   2.220  0.1100 -0.7089  1.2883
 8682SOL     OW37504   2.890   0.898   2.594 -0.2413  0.3177  0.4780
 8682SOL    HW137505   2.882   0.851   2.511  0.3994  1.0362  0.0077
 8682SOL    HW237506   2.803   0.933   2.607 -0.1038 -0.8575  4.6437
 8683SOL     OW37507   3.135   0.509  14.463  0.1538 -0.3725  0.2651
 8683SOL    HW137508   3.119   0.431  14.409  0.5238 -0.1476 -0.1736
 8683SOL    HW237509   3.070   0.497  14.532  0.0445  0.3329  0.2837
 8684SOL     OW37510   0.345   0.913   8.636 -0.6173  0.0553  0.5318
 8684SOL    HW137511   0.389   0.829   8.652  0.4771  0.7268  0.9609
 8684SOL    HW237512   0.261   0.881   8.602 -0.1130 -0.3587 -0.3433
 8685SOL     OW37513   3.233   0.062   3.835  0.0742 -0.2801  0.1404
 8685SOL    HW137514   3.292   0.136   3.851  1.1536 -0.8097 -1.3575
 8685SOL    HW237515   3.213   0.062   3.742 -3.6903  1.0146  0.9371
 8686SOL     OW37516   2.434   4.381   7.610 -0.0573 -0.0345 -0.4717
 8686SOL    HW137517   2.343   4.381   7.640  0.0441  0.6760 -0.1602
 8686SOL    HW237518   2.482   4.384   7.693 -0.4389 -0.9094 -0.2144
 8687SOL     OW37519   4.343   0.667  11.718  0.4303 -0.5378  0.0721
 8687SOL    HW137520   4.433   0.667  11.686  0.7271  1.5743  0.9285
 8687SOL    HW237521   4.299   0.644  11.636 -0.7279 -0.9192  0.7966
 8688SOL     OW37522   0.538   2.873   4.534 -0.4594 -0.7634 -0.2800
 8688SOL    HW137523   0.578   2.927   4.466 -1.6831  1.9285  1.1470
 8688SOL    HW237524   0.611   2.861   4.594  0.3137 -1.0801 -1.2784
 8689SOL     OW37525   0.390   3.676   2.066 -0.0152 -0.4916 -0.2752
 8689SOL    HW137526   0.422   3.758   2.029  0.4134 -0.2229  0.6985
 8689SOL    HW237527   0.391   3.694   2.160  0.1088 -2.3290  0.0740
 8690SOL     OW37528   4.437   4.335   6.344 -0.1747 -0.4343  0.4017
 8690SOL    HW137529   4.487   4.321   6.264 -0.6391  0.3519 -0.0296
 8690SOL    HW237530   4.373   4.400   6.316 -1.2848 -1.4926  0.4790
 8691SOL     OW37531   0.195   0.476  10.896 -0.0029 -0.2738 -0.5167
 8691SOL    HW137532   0.250   0.459  10.973 -1.5890 -0.6312  0.5298
 8691SOL    HW237533   0.136   0.402  10.907 -2.8361  2.0002 -0.2757
 8692SOL     OW37534   3.345   2.754   3.064 -0.9249  0.6942 -0.0257
 8692SOL    HW137535   3.319   2.810   2.991 -1.8150 -0.4647 -0.5880
 8692SOL    HW237536   3.434   2.737   3.034 -1.1941 -0.8703  0.1093
 8693SOL     OW37537   3.108   4.211  11.936 -0.0942 -0.4753 -0.6379
 8693SOL    HW137538   3.072   4.285  11.887 -1.2881 -1.6644 -1.5642
 8693SOL    HW237539   3.068   4.138  11.888  1.5618 -0.5621 -1.8996
 8694SOL     OW37540   4.704   3.553   7.612 -0.0943 -0.0382 -0.5286
 8694SOL    HW137541   4.725   3.533   7.521  0.8060  1.9413 -0.7428
 8694SOL    HW237542   4.694   3.648   7.609 -1.1657 -0.0926  1.3375
 8695SOL     OW37543   3.753   1.521  13.552  0.6618 -0.0180  0.1313
 8695SOL    HW137544   3.709   1.459  13.493 -4.4716  3.5807  0.1997
 8695SOL    HW237545   3.758   1.600  13.498 -0.7017 -0.4107 -0.5785
 8696SOL     OW37546   3.880   0.162   8.841  0.2753 -0.4507  0.1423
 8696SOL    HW137547   3.863   0.098   8.910  1.9056  1.3930  2.2381
 8696SOL    HW237548   3.801   0.215   8.834 -1.0896 -2.6479 -1.0476
 8697SOL     OW37549   0.618   4.534   7.626 -0.2077  0.0900 -0.2431
 8697SOL    HW137550   0.631   4.564   7.536  0.6378 -0.0525 -0.1672
 8697SOL    HW237551   0.607   4.440   7.613 -3.2225  0.2614  1.1053
 8698SOL     OW37552   4.661   4.544  13.353 -0.4554 -0.4298  0.2677
 8698SOL    HW137553   4.604   4.471  13.326  1.7125 -2.0239  0.0288
 8698SOL    HW237554   4.622   4.555  13.439 -0.2181 -0.1013  0.3334
 8699SOL     OW37555   3.407   3.720   2.835 -0.5575 -0.0956  0.5548
 8699SOL    HW137556   3.343   3.747   2.901 -0.7886  1.5473 -0.3553
 8699SOL    HW237557   3.449   3.801   2.808  0.4364 -1.2373 -1.2852
 8700SOL     OW37558   2.523   1.824  16.333 -0.1719  0.1739 -0.2986
 8700SOL    HW137559   2.615   1.852  16.328  0.0868 -0.5546  0.5320
 8700SOL    HW237560   2.537   1.730  16.331  0.9978  0.3408 -0.2353
 8701SOL     OW37561   1.647   2.348   6.967  1.0067  0.1328  0.0596
 8701SOL    HW137562   1.709   2.334   6.896  1.9036  0.6639  0.7410
 8701SOL    HW237563   1.621   2.440   6.956  1.6650  0.6289  2.7381
 8702SOL     OW37564   2.006   1.067  13.456 -0.2939  0.4832  0.0736
 8702SOL    HW137565   1.942   1.036  13.520 -0.8269  1.2228 -0.1082
 8702SOL    HW237566   1.952   1.102  13.386 -1.3750 -2.5217 -0.6018
 8703SOL     OW37567   0.393   0.418   6.482  0.0652 -0.1492 -0.0852
 8703SOL    HW137568   0.392   0.327   6.513  1.9431 -0.7866 -1.8956
 8703SOL    HW237569   0.395   0.407   6.387 -1.4171 -0.0381 -0.1330
 8704SOL     OW37570   1.810   2.657  13.852 -0.0042 -0.7682 -0.1725
 8704SOL    HW137571   1.875   2.599  13.814  0.3803 -0.7708  0.4880
 8704SOL    HW237572   1.765   2.602  13.916 -1.5815  0.2129 -0.4173
 8705SOL     OW37573   1.304   2.207   6.461 -0.3233  0.2546 -0.6207
 8705SOL    HW137574   1.316   2.115   6.438  0.9414  0.2984 -0.1481
 8705SOL    HW237575   1.379   2.230   6.516 -0.1942  1.4698 -1.3213
 8706SOL     OW37576   1.909   2.051   2.671 -0.6780 -0.6394 -0.0299
 8706SOL    HW137577   1.928   2.080   2.582 -0.4447 -0.2288  0.1533
 8706SOL    HW237578   1.969   2.101   2.726 -0.1852 -0.3174 -0.8469
 8707SOL     OW37579   0.213   2.932   3.528  0.0579 -0.0256 -0.1784
 8707SOL    HW137580   0.304   2.944   3.499  0.2272  0.0548  0.3853
 8707SOL    HW237581   0.165   2.998   3.477  1.9138  0.8251 -0.8521
 8708SOL     OW37582   0.797   1.058   3.139 -0.5154 -0.8484 -0.4676
 8708SOL    HW137583   0.776   1.149   3.164 -0.0785 -0.7148 -0.5857
 8708SOL    HW237584   0.809   1.064   3.045 -0.0517 -2.3888 -0.4928
 8709SOL     OW37585   2.910   1.488  11.424  0.4219 -0.4689  0.0909
 8709SOL    HW137586   2.879   1.570  11.464  1.3982  0.3003 -0.7276
 8709SOL    HW237587   2.831   1.455  11.382  0.5313 -1.3864  0.6213
 8710SOL     OW37588   0.512   4.203  17.638  0.8143  0.0702  0.3638
 8710SOL    HW137589   0.602   4.204  17.607  1.2773  0.4247  1.7120
 8710SOL    HW237590   0.497   4.298  17.636 -0.3694 -0.1239 -0.5601
 8711SOL     OW37591   0.931   2.777   3.957 -0.2511 -0.0344  0.0513
 8711SOL    HW137592   0.945   2.855   3.904  1.6290 -0.8893 -0.6948
 8711SOL    HW237593   0.982   2.805   4.033 -2.9996  0.3065  1.8079
 8712SOL     OW37594   0.856   4.547   5.110  0.1388  0.3618 -0.0749
 8712SOL    HW137595   0.897   4.584   5.032 -0.8621  0.5620 -0.4986
 8712SOL    HW237596   0.861   4.613   5.179 -1.5895  0.0157  0.3772
 8713SOL     OW37597   4.477   3.222   4.616 -0.3472 -0.3159 -0.2126
 8713SOL    HW137598   4.496   3.290   4.551 -2.7861  1.8153  1.2816
 8713SOL    HW237599   4.466   3.147   4.559  0.6260  0.6333 -1.6422
 8714SOL     OW37600   2.424   1.406   4.166 -0.5776 -0.4565  0.1558
 8714SOL    HW137601   2.392   1.486   4.124  2.8934  0.5384 -0.5993
 8714SOL    HW237602   2.461   1.344   4.103 -1.3793 -0.4069 -0.3624
 8715SOL     OW37603   0.054   4.301   5.536 -0.0710  0.3490 -0.2096
 8715SOL    HW137604   0.018   4.375   5.584 -2.2417 -0.6099 -0.3212
 8715SOL    HW237605   4.695   4.262   5.516  0.5277 -0.4521 -1.1979
 8716SOL     OW37606   0.309   4.185   2.670  0.0668 -1.2532  0.3941
 8716SOL    HW137607   0.328   4.259   2.728  0.4373 -2.1990  1.4715
 8716SOL    HW237608   0.385   4.129   2.683  0.3921 -0.8632  0.1892
 8717SOL     OW37609   4.691   0.843  12.478  0.1661 -0.3650  0.1309
 8717SOL    HW137610   0.019   0.767  12.458  0.4731 -0.3877  1.0268
 8717SOL    HW237611   4.721   0.863  12.567 -1.8240 -1.9177  1.1500
 8718SOL     OW37612   4.205   3.874   4.925  0.1309  0.4751  0.2161
 8718SOL    HW137613   4.296   3.903   4.922  0.2632  0.2414  2.0395
 8718SOL    HW237614   4.160   3.940   4.873 -1.0687 -1.3327 -1.0183
 8719SOL     OW37615   1.206   0.680   5.462 -0.1696  0.2642  0.1817
 8719SOL    HW137616   1.256   0.611   5.419 -0.1410  1.8856 -2.3329
 8719SOL    HW237617   1.270   0.750   5.449 -0.9812  1.1903  1.1494
 8720SOL     OW37618   0.548   1.420   5.631 -0.0488 -0.5951  0.1228
 8720SOL    HW137619   0.627   1.471   5.615 -0.1099 -0.6963 -0.5034
 8720SOL    HW237620   0.525   1.395   5.541  1.2838 -0.6637 -0.1953
 8721SOL     OW37621   1.780   4.044   0.496  0.0907 -0.1549 -0.2425
 8721SOL    HW137622   1.804   4.041   0.403  0.0945  3.1308 -0.3332
 8721SOL    HW237623   1.708   4.106   0.486 -0.9017 -0.9587  1.8606
 8722SOL     OW37624   2.086   1.660   6.874 -0.0363 -0.1211  0.1389
 8722SOL    HW137625   2.017   1.608   6.832  0.0842 -1.4948  1.6111
 8722SOL    HW237626   2.163   1.606   6.853  0.3642  0.1558  0.8993
 8723SOL     OW37627   0.898   2.526   7.042  0.8201  0.0603  0.0792
 8723SOL    HW137628   0.821   2.582   7.054 -1.2471 -2.2813 -2.1682
 8723SOL    HW237629   0.962   2.555   7.107 -0.1465  0.6148  0.7922
 8724SOL     OW37630   3.312   3.422   8.538 -0.5454 -0.0181  0.5543
 8724SOL    HW137631   3.386   3.473   8.570 -2.5202  2.8103  0.7137
 8724SOL    HW237632   3.268   3.400   8.621 -0.0749  1.0338  1.0901
 8725SOL     OW37633   1.256   2.218   5.925 -0.1974 -0.2548 -0.3399
 8725SOL    HW137634   1.313   2.288   5.894 -1.7502  0.1626 -2.2778
 8725SOL    HW237635   1.193   2.270   5.975  1.3503  0.1320  1.1927
 8726SOL     OW37636   3.015   0.643  11.453  0.2470  0.9035  0.2165
 8726SOL    HW137637   2.940   0.589  11.429  0.4069  1.2585 -1.1018
 8726SOL    HW237638   3.020   0.629  11.547  0.1716  1.7795  0.3522
 8727SOL     OW37639   1.972   1.046   9.802  0.1745 -0.0228  0.0758
 8727SOL    HW137640   1.942   1.136   9.814  2.0428  0.4777  0.9745
 8727SOL    HW237641   2.060   1.038   9.837  0.5874 -2.1420 -1.4677
 8728SOL     OW37642   1.185   1.080   6.500  0.0484  0.1264 -0.2236
 8728SOL    HW137643   1.148   1.024   6.568  0.9565 -0.1531  0.0400
 8728SOL    HW237644   1.115   1.145   6.486 -0.4763 -0.6503 -1.1998
 8729SOL     OW37645   2.814   2.978   3.595  0.1262 -0.8883  0.3099
 8729SOL    HW137646   2.839   3.018   3.678 -1.3844 -1.2966  0.9672
 8729SOL    HW237647   2.889   2.920   3.579  0.2664 -0.3106 -1.1828
 8730SOL     OW37648   4.515   2.948   5.211 -0.6408  0.5068 -0.2057
 8730SOL    HW137649   4.453   2.958   5.139 -1.1070  0.0833  0.1470
 8730SOL    HW237650   4.592   2.992   5.174 -1.0038  1.2296 -0.0978
 8731SOL     OW37651   2.447   4.668   8.929 -0.8220 -0.0718  0.4287
 8731SOL    HW137652   2.477   4.696   9.016  0.3986  0.6043 -0.2002
 8731SOL    HW237653   2.364   4.716   8.927 -1.3213 -0.8731  2.0015
 8732SOL     OW37654   3.015   3.855   7.020 -0.5890 -0.2326 -0.0707
 8732SOL    HW137655   2.953   3.856   6.947  0.2424 -3.5174 -0.8006
 8732SOL    HW237656   2.960   3.858   7.098 -0.0504  0.2310  0.2878
 8733SOL     OW37657   0.441   1.444   0.342  0.9472 -0.2475 -0.0595
 8733SOL    HW137658   0.446   1.374   0.277  0.4451  0.1467 -0.5138
 8733SOL    HW237659   0.363   1.407   0.382 -0.3234 -0.6592 -2.9503
 8734SOL     OW37660   2.324   3.178  12.434 -0.1158 -0.0243 -0.2563
 8734SOL    HW137661   2.376   3.214  12.361  1.4247  1.8834  1.7864
 8734SOL    HW237662   2.395   3.136  12.481 -0.5838 -0.8375 -0.2746
 8735SOL     OW37663   1.099   4.469   7.679  0.8298 -0.0947 -0.0473
 8735SOL    HW137664   1.071   4.463   7.588  2.2769  0.9631 -0.5669
 8735SOL    HW237665   1.040   4.530   7.724 -0.5524 -1.2280 -0.3376
 8736SOL     OW37666   1.297   4.367   2.662 -0.6765 -0.3119 -0.3706
 8736SOL    HW137667   1.288   4.297   2.727 -0.5129  1.0267  1.0886
 8736SOL    HW237668   1.209   4.404   2.668 -0.5908 -0.0027 -1.0179
 8737SOL     OW37669   3.584   1.849   9.052  0.0604  0.1124 -0.4771
 8737SOL    HW137670   3.518   1.828   9.119  0.3737  0.8376  0.0605
 8737SOL    HW237671   3.569   1.941   9.028 -3.9499 -0.1270  0.9905
 8738SOL     OW37672   3.037   2.030   7.619  0.5444 -0.1605  0.0134
 8738SOL    HW137673   3.121   2.042   7.662 -0.4355  0.8489  1.6734
 8738SOL    HW237674   3.062   1.952   7.569  0.2685  0.1506 -0.6092
 8739SOL     OW37675   3.030   1.833   4.883  0.0647  0.1437  0.2607
 8739SOL    HW137676   2.954   1.891   4.877  0.3468  0.5757  0.9287
 8739SOL    HW237677   3.047   1.823   4.977 -2.1499  2.3212  0.8954
 8740SOL     OW37678   1.048   2.989   6.868 -0.0961  0.0570 -0.4667
 8740SOL    HW137679   1.096   2.943   6.937  3.5988  0.5694 -2.6761
 8740SOL    HW237680   0.985   3.039   6.920 -0.3098 -1.3117  0.5903
 8741SOL     OW37681   4.094   3.415   4.863 -0.1628  0.0253  0.2164
 8741SOL    HW137682   4.175   3.448   4.824  0.7203 -0.8367  1.2921
 8741SOL    HW237683   4.121   3.323   4.870  0.2376 -0.1409 -3.3014
 8742SOL     OW37684   1.698   3.992   2.403  0.3403  0.2282 -0.5145
 8742SOL    HW137685   1.678   4.077   2.364 -0.6846  0.6619  0.9411
 8742SOL    HW237686   1.774   3.978   2.347 -1.5991 -4.2374 -2.0246
 8743SOL     OW37687   0.173   1.625   3.034 -0.0754 -0.2810 -0.0624
 8743SOL    HW137688   0.124   1.657   3.109 -0.0987  0.6819 -0.4875
 8743SOL    HW237689   0.154   1.531   3.041  0.2759 -0.4662 -1.6297
 8744SOL     OW37690   0.636   1.595   7.296  0.1397 -0.0491  0.1457
 8744SOL    HW137691   0.659   1.546   7.375  0.6889  1.9506  1.2215
 8744SOL    HW237692   0.577   1.653   7.344  1.3694  1.7145 -0.4377
 8745SOL     OW37693   2.411   3.496   4.747  0.6179  0.2100 -0.8312
 8745SOL    HW137694   2.405   3.406   4.781  0.1914 -0.2023 -2.0007
 8745SOL    HW237695   2.347   3.495   4.677 -2.7034  0.3588  2.2018
 8746SOL     OW37696   1.826   3.817   0.612 -0.0767 -0.2607  0.2117
 8746SOL    HW137697   1.768   3.765   0.556 -0.2504 -0.2983  0.4314
 8746SOL    HW237698   1.813   3.904   0.574  2.5997  0.6290  1.3213
 8747SOL     OW37699   3.705   2.886   8.272 -0.0545 -0.0571 -0.4496
 8747SOL    HW137700   3.766   2.814   8.284  0.8780  0.8403  0.1357
 8747SOL    HW237701   3.658   2.890   8.356 -0.6731 -2.0695 -0.7169
 8748SOL     OW37702   0.046   4.597   7.204 -0.2789 -0.4732 -0.5643
 8748SOL    HW137703   0.089   4.650   7.271 -1.2107  0.8163 -0.9863
 8748SOL    HW237704   0.099   4.518   7.212  0.0493  0.0444  2.4301
 8749SOL     OW37705   0.495   3.896   5.107  0.6578  0.5491 -0.4623
 8749SOL    HW137706   0.438   3.835   5.155  0.0357  1.0701 -0.5399
 8749SOL    HW237707   0.557   3.922   5.176 -1.4218  1.8839  0.9091
 8750SOL     OW37708   1.298   2.609  10.875  0.7152  0.4027 -0.1562
 8750SOL    HW137709   1.275   2.517  10.892  0.8218  0.9078  2.7282
 8750SOL    HW237710   1.244   2.651  10.942  2.3308  1.4338  0.4971
 8751SOL     OW37711   1.963   3.696  11.790 -0.4880  0.2821  0.3078
 8751SOL    HW137712   1.977   3.750  11.868 -3.8081  1.4340  0.1001
 8751SOL    HW237713   2.046   3.715  11.748 -0.5452 -0.9391 -0.3626
 8752SOL     OW37714   1.190   1.566   7.530  0.3296  0.0284  0.8510
 8752SOL    HW137715   1.151   1.592   7.447  0.8150 -1.5579  0.1213
 8752SOL    HW237716   1.216   1.478   7.502  2.6962  1.3105 -0.9485
 8753SOL     OW37717   4.462   2.124   0.966  0.6356 -0.2779 -0.1474
 8753SOL    HW137718   4.519   2.197   0.992  1.3379 -0.9797  0.3163
 8753SOL    HW237719   4.388   2.126   1.026  1.3059 -0.0534  0.6818
 8754SOL     OW37720   2.213   1.968   2.160  0.5326 -0.0051  0.8655
 8754SOL    HW137721   2.305   1.989   2.142  0.2497  0.7917  0.3418
 8754SOL    HW237722   2.174   2.053   2.177  1.0876  0.1942  1.1417
 8755SOL     OW37723   2.291   3.257   4.862  0.0359  0.3936 -0.9119
 8755SOL    HW137724   2.311   3.164   4.853  0.1248  0.5658 -2.3810
 8755SOL    HW237725   2.207   3.257   4.817 -0.7773  1.4456  0.6311
 8756SOL     OW37726   3.283   3.923   4.092 -0.8312  0.1319  0.1844
 8756SOL    HW137727   3.315   4.001   4.047 -2.4635  1.0762  0.6594
 8756SOL    HW237728   3.236   3.966   4.164 -0.2057 -0.0766  0.7156
 8757SOL     OW37729   3.747   3.696   2.226 -0.4374 -0.5074 -0.5991
 8757SOL    HW137730   3.774   3.684   2.317  0.4796  1.8705 -0.5400
 8757SOL    HW237731   3.733   3.606   2.196 -0.8972 -0.6508  0.0540
 8758SOL     OW37732   1.162   3.650   1.714 -0.5800  0.1414  0.1615
 8758SOL    HW137733   1.182   3.705   1.639 -1.4009 -0.6366 -0.6135
 8758SOL    HW237734   1.153   3.562   1.679 -2.8184 -0.3465  1.9929
 8759SOL     OW37735   2.833   1.485   2.647 -0.0739  0.6823  0.2612
 8759SOL    HW137736   2.880   1.568   2.659  2.0455 -0.6153  0.9077
 8759SOL    HW237737   2.863   1.460   2.559  0.0646  0.4310  0.3818
 8760SOL     OW37738   2.399   3.375   6.590  0.2968  0.4771 -0.0196
 8760SOL    HW137739   2.417   3.468   6.601  0.3466  0.2550  1.7685
 8760SOL    HW237740   2.422   3.338   6.675 -1.4197 -0.2228  0.1469
 8761SOL     OW37741   3.842   4.579   2.737 -0.4789 -0.5670  0.7567
 8761SOL    HW137742   3.861   4.553   2.646  2.0838  0.4767  0.9888
 8761SOL    HW237743   3.753   4.615   2.735 -0.4440 -0.5156 -0.0137
 8762SOL     OW37744   3.987   2.656  12.942  0.0629  0.5361  1.1160
 8762SOL    HW137745   3.914   2.694  12.892 -0.9965  0.2001  2.4280
 8762SOL    HW237746   4.045   2.633  12.870 -1.6489  1.1585 -0.4813
 8763SOL     OW37747   0.087   3.577   6.554  0.1373 -0.0494  0.3160
 8763SOL    HW137748   0.063   3.544   6.467  0.8034  2.5775 -0.8723
 8763SOL    HW237749   0.036   3.517   6.608 -0.3874 -0.0029 -0.1262
 8764SOL     OW37750   1.070   0.102   1.480  0.6382  0.0938  0.1502
 8764SOL    HW137751   0.991   0.060   1.445  1.4505 -0.0294 -1.5124
 8764SOL    HW237752   1.130   0.066   1.414 -0.2491  0.8914 -1.0798
 8765SOL     OW37753   0.255   0.851   9.161 -0.3527 -0.2370  0.3020
 8765SOL    HW137754   0.161   0.840   9.175 -0.3763  0.6270  0.8655
 8765SOL    HW237755   0.256   0.947   9.162 -1.1933 -0.1940 -3.6058
 8766SOL     OW37756   3.260   0.072   5.610  0.5045  0.3084 -0.5504
 8766SOL    HW137757   3.238   0.155   5.651  0.9727  0.0218  0.2847
 8766SOL    HW237758   3.226   0.005   5.670  1.9459 -1.1658 -1.3598
 8767SOL     OW37759   2.232   4.568  12.636 -0.1847 -0.2067 -0.3548
 8767SOL    HW137760   2.210   4.530  12.550 -0.2968 -0.5724 -0.1668
 8767SOL    HW237761   2.298   4.513  12.680  1.2178  0.9706 -0.9884
 8768SOL     OW37762   3.495   1.105   6.080  0.2216 -0.0999 -0.4121
 8768SOL    HW137763   3.459   1.186   6.117  2.5762  0.9894 -0.5247
 8768SOL    HW237764   3.423   1.050   6.111  0.5502  0.4527  1.3506
 8769SOL     OW37765   2.508   0.842  17.008 -0.7629 -0.2190 -0.3802
 8769SOL    HW137766   2.544   0.898  16.940  1.6290 -1.3048 -0.0267
 8769SOL    HW237767   2.548   0.760  16.979 -0.8241 -0.0288 -1.0008
 8770SOL     OW37768   1.890   3.225  10.055 -0.1576 -1.0216  0.3212
 8770SOL    HW137769   1.950   3.250   9.984  1.3481  1.6472  2.5422
 8770SOL    HW237770   1.935   3.151  10.095  1.4132  0.2079  0.8110
 8771SOL     OW37771   1.019   2.561   2.429 -0.1044  0.3335  0.3416
 8771SOL    HW137772   0.962   2.608   2.488 -0.0670 -0.8807  1.3539
 8771SOL    HW237773   0.966   2.481   2.432  1.9508 -1.1023 -1.3311
 8772SOL     OW37774   0.611   4.186   7.030 -0.2592 -0.0403  0.0926
 8772SOL    HW137775   0.654   4.203   7.114  0.7194 -1.5245 -0.1143
 8772SOL    HW237776   0.527   4.142   7.039  0.1020 -0.1595  2.8328
 8773SOL     OW37777   1.253   2.962  15.795 -0.1688  0.2161 -0.5141
 8773SOL    HW137778   1.174   3.016  15.790 -1.4720 -1.8685 -2.4521
 8773SOL    HW237779   1.208   2.879  15.779 -1.0418  0.5074  0.4106
 8774SOL     OW37780   0.799   0.073  12.148 -0.1287 -0.0139  0.2601
 8774SOL    HW137781   0.831   4.715  12.116  0.2151  0.4425 -0.6017
 8774SOL    HW237782   0.754   0.107  12.070  0.0676  0.1894  0.2347
 8775SOL     OW37783   2.083   3.372   8.049 -0.0480  0.3267 -0.5178
 8775SOL    HW137784   2.152   3.323   8.094 -0.1034  1.0669  0.3549
 8775SOL    HW237785   2.112   3.370   7.957  0.3812 -0.0129 -0.3798
 8776SOL     OW37786   3.312   4.153   3.624  0.1615  0.1691  0.3386
 8776SOL    HW137787   3.322   4.247   3.611 -1.7845  0.4054  0.5547
 8776SOL    HW237788   3.221   4.163   3.652  0.2015  2.2670 -0.2790
 8777SOL     OW37789   2.591   1.746  14.064  0.3727 -0.2621 -0.4680
 8777SOL    HW137790   2.669   1.719  14.113  1.0641  1.8249 -0.4035
 8777SOL    HW237791   2.576   1.835  14.097 -1.1160 -0.9207  0.6153
 8778SOL     OW37792   2.760   2.511  14.096 -0.0992  0.0977  0.0205
 8778SOL    HW137793   2.851   2.490  14.118 -0.8110 -2.1143  0.8321
 8778SOL    HW237794   2.755   2.453  14.019 -1.5393 -0.3182  0.4299
 8779SOL     OW37795   0.143   0.571   7.076 -0.2292  0.2223 -0.9961
 8779SOL    HW137796   0.232   0.561   7.109 -0.3198  0.3243 -0.7224
 8779SOL    HW237797   0.130   0.662   7.104 -0.2148 -0.6388  1.7353
 8780SOL     OW37798   3.573   0.229   8.470  0.2921  0.0172  0.0294
 8780SOL    HW137799   3.513   0.298   8.443  0.2925  0.1162  0.2784
 8780SOL    HW237800   3.549   0.236   8.562 -0.7786  2.5437 -0.4526
 8781SOL     OW37801   3.223   0.617   3.371  0.4081 -0.5238 -0.1914
 8781SOL    HW137802   3.189   0.531   3.347  0.1693 -0.7400  0.9499
 8781SOL    HW237803   3.270   0.598   3.452 -1.1067 -3.0369  0.1061
 8782SOL     OW37804   0.752   3.635   8.733 -0.3109 -0.5251  0.2905
 8782SOL    HW137805   0.704   3.651   8.814  0.8006  0.8101  0.6670
 8782SOL    HW237806   0.719   3.712   8.687 -0.3438 -1.0384 -0.5510
 8783SOL     OW37807   2.116   4.070   0.398 -0.2244 -0.0612  0.1308
 8783SOL    HW137808   2.184   4.009   0.369 -0.9048 -0.8762  0.2712
 8783SOL    HW237809   2.041   4.018   0.371  1.5113 -1.3291 -2.2546
 8784SOL     OW37810   1.579   2.748  15.133 -0.2001 -0.0807  0.0067
 8784SOL    HW137811   1.653   2.716  15.082  0.4550  0.4385  0.6327
 8784SOL    HW237812   1.509   2.691  15.102 -0.0319 -1.1273  1.5389
 8785SOL     OW37813   0.345   3.423   6.851 -0.1310  0.3628 -0.3815
 8785SOL    HW137814   0.285   3.498   6.852 -1.0884 -0.4079 -0.0511
 8785SOL    HW237815   0.337   3.391   6.762  0.4333  1.3618 -0.7941
 8786SOL     OW37816   1.232   3.803  12.433 -0.2715  0.0167  0.8506
 8786SOL    HW137817   1.291   3.847  12.372  1.0711 -0.3245  1.9073
 8786SOL    HW237818   1.164   3.870  12.442  0.1829  0.3347  1.8787
 8787SOL     OW37819   4.041   2.720  17.231  0.1570  0.0468 -0.1912
 8787SOL    HW137820   4.115   2.660  17.223 -1.1880 -1.5854 -0.3255
 8787SOL    HW237821   4.045   2.769  17.148  1.4894 -0.5318 -0.4664
 8788SOL     OW37822   3.844   3.604   0.120  0.3908 -0.4556  0.4177
 8788SOL    HW137823   3.823   3.623   0.212  0.5284  0.6404  0.2238
 8788SOL    HW237824   3.755   3.591   0.086  0.3800  1.7459 -0.4328
 8789SOL     OW37825   3.467   1.001  16.029 -0.0610 -0.0553  0.0342
 8789SOL    HW137826   3.443   1.093  16.030 -1.3200 -0.3568 -4.1717
 8789SOL    HW237827   3.453   0.978  15.937 -0.0732  0.0392  0.0124
 8790SOL     OW37828   4.092   0.379   2.679 -0.0988  0.0546 -0.5284
 8790SOL    HW137829   4.105   0.348   2.590  2.4681  0.4740 -0.3046
 8790SOL    HW237830   4.146   0.457   2.674  0.2588 -0.2329 -1.1968
 8791SOL     OW37831   4.243   3.050   0.727 -0.3330  0.2798  0.3062
 8791SOL    HW137832   4.163   3.032   0.678 -0.2486 -2.6261  1.2666
 8791SOL    HW237833   4.301   3.071   0.653 -1.7038 -0.3730 -0.9566
 8792SOL     OW37834   0.191   3.390   7.125  0.1400 -0.3913 -0.6637
 8792SOL    HW137835   0.212   3.482   7.114 -0.3487 -0.0460  1.3569
 8792SOL    HW237836   0.229   3.351   7.046 -0.8060  3.6264 -3.1044
 8793SOL     OW37837   3.748   4.075   5.397  0.2382  0.1881 -0.0411
 8793SOL    HW137838   3.725   4.156   5.352  2.1818 -0.2372 -1.7668
 8793SOL    HW237839   3.688   4.077   5.471 -0.7601 -0.2194 -0.8373
 8794SOL     OW37840   1.191   4.172   7.096 -0.0795  0.6464  0.1337
 8794SOL    HW137841   1.216   4.115   7.170 -1.0627 -1.2079 -0.9831
 8794SOL    HW237842   1.277   4.196   7.060  1.4979  0.7203  3.9220
 8795SOL     OW37843   4.261   3.039  10.824 -0.9206  0.0075  0.0749
 8795SOL    HW137844   4.177   2.995  10.811 -0.8632 -0.6326  1.8270
 8795SOL    HW237845   4.320   2.992  10.765 -1.4415  0.0113 -0.4409
 8796SOL     OW37846   1.179   0.347   2.715 -0.4519  0.4478 -0.2520
 8796SOL    HW137847   1.154   0.290   2.642 -2.7038  2.8048 -1.3467
 8796SOL    HW237848   1.268   0.320   2.738 -1.6610 -2.7304  0.5863
 8797SOL     OW37849   3.794   0.726   3.244  0.1717  0.1338 -0.5329
 8797SOL    HW137850   3.706   0.701   3.271  0.2190  1.2559  0.6804
 8797SOL    HW237851   3.832   0.749   3.329 -2.3903 -1.1729  0.9438
 8798SOL     OW37852   0.045   2.018   8.847  0.1714 -0.1236 -0.6318
 8798SOL    HW137853   0.036   2.004   8.941 -0.8719  0.6011 -0.6224
 8798SOL    HW237854   0.027   2.111   8.832 -0.7985 -0.2629 -0.3432
 8799SOL     OW37855   3.240   3.379   6.613 -0.2696 -0.2008 -0.3051
 8799SOL    HW137856   3.301   3.406   6.682 -0.3753 -2.2334  0.6013
 8799SOL    HW237857   3.179   3.327   6.666  0.7149  0.8618  1.8550
 8800SOL     OW37858   0.064   1.396   8.203  0.4648 -0.4115  0.4102
 8800SOL    HW137859   4.703   1.385   8.241  1.6872 -0.3369  3.1816
 8800SOL    HW237860   0.077   1.490   8.212  0.2005 -0.2581 -0.7815
 8801SOL     OW37861   3.269   3.896  16.974 -0.2708 -0.6187  0.3903
 8801SOL    HW137862   3.317   3.881  16.893 -0.1390 -0.5503  0.4570
 8801SOL    HW237863   3.315   3.972  17.010  0.3613 -0.8759  0.1082
 8802SOL     OW37864   2.718   0.581   7.218  0.5460 -0.3673 -0.0396
 8802SOL    HW137865   2.702   0.498   7.264 -2.8415  1.0189  1.2768
 8802SOL    HW237866   2.630   0.585   7.182  1.4068  0.2062 -2.0382
 8803SOL     OW37867   4.521   1.929   0.064 -0.2939  0.5335  0.5662
 8803SOL    HW137868   4.464   1.912  17.693 -0.2378  1.4593  0.3190
 8803SOL    HW237869   4.605   1.885   0.050 -1.1230 -0.8182 -0.1377
 8804SOL     OW37870   3.830   1.339   4.758 -0.6640 -0.0158  0.5490
 8804SOL    HW137871   3.838   1.383   4.842  2.1809  0.0608  0.2113
 8804SOL    HW237872   3.754   1.282   4.774 -0.8584  0.7339  2.2441
 8805SOL     OW37873   2.649   1.724   7.057 -0.0302 -0.1609  0.3346
 8805SOL    HW137874   2.601   1.692   6.981  0.1863 -0.1318  0.1846
 8805SOL    HW237875   2.585   1.695   7.122  1.0360 -1.5933  0.7439
 8806SOL     OW37876   2.785   0.283  15.873  1.1173 -0.0933 -0.0394
 8806SOL    HW137877   2.851   0.219  15.846 -0.2002 -1.6055  0.3297
 8806SOL    HW237878   2.812   0.360  15.823  0.2336 -0.0988 -0.5145
 8807SOL     OW37879   3.237   2.622  13.483  0.3554  0.6249  0.0142
 8807SOL    HW137880   3.250   2.610  13.577  0.3484 -0.2902 -0.1053
 8807SOL    HW237881   3.327   2.642  13.455  0.5649 -1.1447 -0.5786
 8808SOL     OW37882   3.218   4.328   2.745 -0.4506 -0.3754 -0.5515
 8808SOL    HW137883   3.222   4.345   2.651  1.7834  2.6105  0.0964
 8808SOL    HW237884   3.137   4.288   2.777 -0.3587 -0.1545 -0.0327
 8809SOL     OW37885   0.932   3.868   1.522 -0.3685  0.0269  0.0199
 8809SOL    HW137886   0.860   3.805   1.530 -1.8448  1.8055  0.8747
 8809SOL    HW237887   0.973   3.831   1.444 -0.7468 -0.5135  0.0755
 8810SOL     OW37888   4.460   2.261  12.980  0.0628 -0.4813 -0.0140
 8810SOL    HW137889   4.462   2.289  13.072  2.8172 -1.2930  0.1837
 8810SOL    HW237890   4.555   2.246  12.975 -0.1456 -1.5203 -0.8384
 8811SOL     OW37891   4.392   4.363   7.962 -0.8734  0.1549  0.3315
 8811SOL    HW137892   4.320   4.301   7.952 -0.3767 -0.2627 -0.6576
 8811SOL    HW237893   4.455   4.310   7.913 -1.1549  0.5727 -0.4832
 8812SOL     OW37894   3.887   3.260   3.467 -0.4941 -0.3849  0.1500
 8812SOL    HW137895   3.930   3.182   3.431  1.4338  0.6622  0.1552
 8812SOL    HW237896   3.800   3.252   3.429 -0.8454  2.9377  0.2921
 8813SOL     OW37897   2.251   0.967   8.825  0.5010  0.0840  0.1279
 8813SOL    HW137898   2.212   0.952   8.739  1.5606 -0.4936 -0.2482
 8813SOL    HW237899   2.245   0.884   8.872  0.3290  0.9665  1.6625
 8814SOL     OW37900   2.410   2.556   7.480 -1.0727  0.2113  0.1358
 8814SOL    HW137901   2.321   2.575   7.452 -0.5647  3.6549  0.8279
 8814SOL    HW237902   2.394   2.487   7.545 -0.2638  0.7990  0.9632
 8815SOL     OW37903   2.679   3.815   2.514 -0.2514 -0.4188 -0.6273
 8815SOL    HW137904   2.759   3.845   2.470  0.2869 -2.1789 -0.8726
 8815SOL    HW237905   2.713   3.805   2.604  3.9139  1.3384 -2.0001
 8816SOL     OW37906   1.007   0.585  17.081 -0.7335 -0.6613  0.1712
 8816SOL    HW137907   1.015   0.505  17.133  2.3836 -1.4119 -1.4364
 8816SOL    HW237908   0.973   0.647  17.145 -0.1964  0.4231 -0.5842
 8817SOL     OW37909   2.113   0.608   3.100 -0.4722 -0.4983 -0.0328
 8817SOL    HW137910   2.174   0.636   3.031  0.3679  1.8612  1.6868
 8817SOL    HW237911   2.156   0.654   3.171 -0.0666 -0.4442 -0.3178
 8818SOL     OW37912   4.435   0.038   8.339  0.3086 -0.2963 -0.5566
 8818SOL    HW137913   4.482   4.720   8.409  2.3080  0.3611 -1.4793
 8818SOL    HW237914   4.346   0.002   8.331 -0.5048  1.6088 -0.0616
 8819SOL     OW37915   1.301   3.593   2.265 -0.5000 -0.3906  0.2325
 8819SOL    HW137916   1.249   3.653   2.319 -1.0370 -0.5895 -0.0619
 8819SOL    HW237917   1.268   3.612   2.177  0.1749 -0.0878  0.0450
 8820SOL     OW37918   1.067   3.561   7.179  0.2903 -0.5277  0.6205
 8820SOL    HW137919   1.031   3.646   7.204 -0.4708 -0.7949  0.4174
 8820SOL    HW237920   1.002   3.530   7.116  0.8900  1.5770 -1.0577
 8821SOL     OW37921   0.260   0.348   6.874 -0.0884 -0.2162 -0.6201
 8821SOL    HW137922   0.233   0.423   6.821 -0.0762  0.1455 -0.1098
 8821SOL    HW237923   0.251   0.280   6.806 -0.4482  0.7331 -1.5200
 8822SOL     OW37924   2.603   3.487   9.665 -0.2861 -0.1740  0.2351
 8822SOL    HW137925   2.603   3.504   9.571  4.8875 -0.8213  0.1541
 8822SOL    HW237926   2.534   3.423   9.681  0.5140 -0.8486  0.9419
 8823SOL     OW37927   0.696   3.628  17.167  0.5322  0.1457 -0.2500
 8823SOL    HW137928   0.734   3.708  17.203  1.8946 -0.3760 -0.4998
 8823SOL    HW237929   0.680   3.669  17.082  1.4051 -2.4782 -1.7022
 8824SOL     OW37930   1.560   0.715   6.250 -0.1537 -0.5253 -0.1907
 8824SOL    HW137931   1.598   0.722   6.338  0.8254  2.4292 -0.8460
 8824SOL    HW237932   1.642   0.712   6.200 -0.1974  0.9558 -0.3609
 8825SOL     OW37933   1.286   3.421  15.987  0.2909 -0.5723 -0.1205
 8825SOL    HW137934   1.381   3.422  16.000  0.5623 -2.6071 -1.7626
 8825SOL    HW237935   1.277   3.465  15.902 -2.8388 -3.1975 -1.1593
 8826SOL     OW37936   0.297   0.179  10.163  0.0003 -0.6726  0.0450
 8826SOL    HW137937   0.369   0.125  10.194  1.5798  1.4867  0.1072
 8826SOL    HW237938   0.292   0.144  10.074 -0.5115  2.7449 -1.2781
 8827SOL     OW37939   0.233   3.420  13.286 -0.3637 -0.3616  0.2439
 8827SOL    HW137940   0.143   3.387  13.280  0.0434 -1.5135  0.5262
 8827SOL    HW237941   0.241   3.453  13.196  2.0585 -1.0574  0.1904
 8828SOL     OW37942   3.840   3.181   2.524 -0.3701  0.1222 -0.0006
 8828SOL    HW137943   3.807   3.231   2.450 -0.0176  1.2897  0.6216
 8828SOL    HW237944   3.759   3.131   2.535 -0.6533  0.6173  0.1611
 8829SOL     OW37945   0.833   0.470   6.748  0.0877 -0.1057 -0.0928
 8829SOL    HW137946   0.812   0.529   6.820  0.2296  0.7116 -0.7230
 8829SOL    HW237947   0.853   0.391   6.798  1.0728  1.9940  2.8292
 8830SOL     OW37948   1.013   4.481  13.070  0.3894  0.4825 -0.3088
 8830SOL    HW137949   1.004   4.576  13.065  3.7891  0.9018  1.1072
 8830SOL    HW237950   0.988   4.471  13.162 -0.4681  1.2239 -0.4669
 8831SOL     OW37951   3.914   4.677   7.160 -0.4318 -0.2109 -0.0352
 8831SOL    HW137952   3.965   4.688   7.240 -0.1333 -2.2214  0.0371
 8831SOL    HW237953   3.972   4.685   7.084 -0.6857  1.0084 -0.1100
 8832SOL     OW37954   4.621   4.133   8.123 -0.5864  0.6307  0.3843
 8832SOL    HW137955   4.569   4.074   8.177 -3.0663  2.9845  0.6255
 8832SOL    HW237956   4.573   4.143   8.040 -0.1002 -4.2401 -0.4997
 8833SOL     OW37957   4.470   4.342  11.290 -0.1768 -0.0080 -0.0857
 8833SOL    HW137958   4.396   4.282  11.295 -0.3029  0.2642  1.4787
 8833SOL    HW237959   4.510   4.298  11.215 -3.7427  1.1583 -2.6298
 8834SOL     OW37960   2.994   0.858   2.869 -0.4809 -0.0172 -0.1952
 8834SOL    HW137961   2.963   0.878   2.781 -3.7068 -1.2092  0.6771
 8834SOL    HW237962   2.986   0.942   2.915  3.9588  0.2471  0.0415
 8835SOL     OW37963   4.060   3.500   0.379  0.6817  0.7517  0.3036
 8835SOL    HW137964   4.005   3.516   0.455  0.3375  2.6435 -0.3410
 8835SOL    HW237965   4.079   3.590   0.352  1.3796 -0.0323 -1.8921
 8836SOL     OW37966   0.153   2.526   6.355  0.0795 -0.6228 -0.6545
 8836SOL    HW137967   0.066   2.505   6.389 -0.4035  1.4404 -0.6164
 8836SOL    HW237968   0.208   2.554   6.428 -0.4049 -2.1212  0.2989
 8837SOL     OW37969   1.312   1.858   8.263 -0.0666 -0.1804 -0.1507
 8837SOL    HW137970   1.267   1.939   8.239 -0.5991 -0.3645  0.2468
 8837SOL    HW237971   1.386   1.899   8.308  0.2594 -0.0912 -0.7633
 8838SOL     OW37972   0.061   2.174   2.433 -0.4706 -0.4097 -0.3769
 8838SOL    HW137973   4.717   2.240   2.437  0.1715  0.2442  0.0549
 8838SOL    HW237974   0.095   2.192   2.346  0.9558 -1.0269  0.0630
 8839SOL     OW37975   3.685   2.705  13.869  0.2727 -0.3158 -0.0105
 8839SOL    HW137976   3.688   2.740  13.958 -0.5949  2.8409 -1.2198
 8839SOL    HW237977   3.764   2.652  13.877  1.3662  1.3756  0.3579
 8840SOL     OW37978   4.043   0.295  16.639 -0.4563  0.7870  0.1886
 8840SOL    HW137979   4.139   0.305  16.639 -0.3081 -0.6271 -1.5880
 8840SOL    HW237980   4.029   0.286  16.734  1.7823 -2.2263  0.2428
 8841SOL     OW37981   4.379   2.266   5.911 -0.6864  0.1023 -0.4149
 8841SOL    HW137982   4.474   2.266   5.928 -0.9488 -2.4194  1.1032
 8841SOL    HW237983   4.340   2.312   5.985  0.1058 -0.1181  0.1390
 8842SOL     OW37984   1.490   2.152   0.970 -0.5619 -0.2229 -0.4025
 8842SOL    HW137985   1.471   2.059   0.960  0.1641 -0.1719 -2.1105
 8842SOL    HW237986   1.572   2.148   1.019 -0.5191 -0.0932 -0.4637
 8843SOL     OW37987   1.386   0.337   7.707  0.0670  0.0533  0.2601
 8843SOL    HW137988   1.436   0.330   7.788 -0.0806 -1.4540  0.2270
 8843SOL    HW237989   1.450   0.370   7.643 -0.5965 -1.1861 -1.0580
 8844SOL     OW37990   4.234   0.992   1.235 -0.3382 -0.3509  0.8045
 8844SOL    HW137991   4.195   1.010   1.320 -2.1373  1.5619 -0.4414
 8844SOL    HW237992   4.228   1.081   1.201 -1.4497 -0.8672 -0.3423
 8845SOL     OW37993   2.318   1.909  17.610  0.4031 -0.6711  0.3790
 8845SOL    HW137994   2.257   1.842  17.640  0.0797 -0.5540 -0.0113
 8845SOL    HW237995   2.263   1.984  17.632 -2.4272 -3.2286  2.0378
 8846SOL     OW37996   2.530   3.044  12.566 -0.1245  1.0672  0.1063
 8846SOL    HW137997   2.535   3.040  12.661  1.1724 -0.3866 -0.0336
 8846SOL    HW237998   2.611   3.089  12.544 -0.2440  0.6264 -1.2476
 8847SOL     OW37999   3.987   4.347   2.237 -0.3323  0.5474 -0.4509
 8847SOL    HW138000   3.944   4.276   2.191  0.7454 -0.4992  0.1574
 8847SOL    HW238001   4.078   4.320   2.251 -0.7313 -0.6485 -0.2096
 8848SOL     OW38002   0.343   0.042  12.976  0.1547 -0.0953  0.1231
 8848SOL    HW138003   0.300   4.720  12.905 -2.7416  2.8984 -0.1629
 8848SOL    HW238004   0.417   4.708  12.986 -0.6819 -0.7608  2.2135
 8849SOL     OW38005   4.565   4.556   0.227 -0.0739 -0.2090  0.6759
 8849SOL    HW138006   4.583   4.633   0.282  2.9809  0.2567 -0.9570
 8849SOL    HW238007   4.605   4.586   0.145 -4.3020  0.2691 -1.2330
 8850SOL     OW38008   2.709   2.872   4.035  0.6065  0.5272  0.6332
 8850SOL    HW138009   2.640   2.899   3.974  0.8802  2.3886  1.1532
 8850SOL    HW238010   2.697   2.918   4.118  1.5072 -1.6456  1.9597
 8851SOL     OW38011   1.769   3.146   7.530 -0.4679  0.3134 -0.4080
 8851SOL    HW138012   1.741   3.215   7.591 -1.1345  1.4160 -1.9635
 8851SOL    HW238013   1.687   3.145   7.481 -0.8996 -0.5815  0.3355
 8852SOL     OW38014   4.289   1.341  11.194  0.1367  0.0488  0.3587
 8852SOL    HW138015   4.333   1.424  11.176 -3.0694  1.6493  0.0545
 8852SOL    HW238016   4.356   1.291  11.241  1.3711  0.6781 -0.7239
 8853SOL     OW38017   2.526   1.572  15.594  0.6270 -0.0444  0.3918
 8853SOL    HW138018   2.484   1.634  15.654  0.1290 -1.6362  1.7090
 8853SOL    HW238019   2.455   1.556  15.532  1.9795 -2.5863 -0.5081
 8854SOL     OW38020   1.214   3.572  13.711  0.5088  0.6749  0.1755
 8854SOL    HW138021   1.146   3.638  13.697  0.6469  1.0875  1.3992
 8854SOL    HW238022   1.272   3.617  13.772  0.0910  0.6190  0.6193
 8855SOL     OW38023   1.705   0.244  10.855 -0.4857  0.1851 -0.1512
 8855SOL    HW138024   1.757   0.193  10.917 -3.0989 -0.8434  1.1952
 8855SOL    HW238025   1.744   0.221  10.770 -1.0727 -1.8756  0.1261
 8856SOL     OW38026   3.922   2.341  15.585 -0.1487  0.0628 -0.0659
 8856SOL    HW138027   3.973   2.275  15.633  2.6265  1.0133 -1.6736
 8856SOL    HW238028   3.837   2.297  15.580 -0.1508 -0.2075  2.2620
 8857SOL     OW38029   4.633   2.249   5.959 -0.2423  0.7314  0.5637
 8857SOL    HW138030   4.663   2.338   5.977  1.4719  0.2274  0.2518
 8857SOL    HW238031   4.675   2.231   5.875 -2.2861 -1.4504  0.0090
 8858SOL     OW38032   3.587   4.504  12.730  0.3758 -0.8024  0.0130
 8858SOL    HW138033   3.648   4.433  12.713 -1.7706 -2.8695  1.0127
 8858SOL    HW238034   3.587   4.548  12.645  2.4395 -1.5454 -0.3688
 8859SOL     OW38035   2.593   0.683  14.556  0.4765 -0.1367 -0.6420
 8859SOL    HW138036   2.630   0.771  14.563  1.6461 -0.6245 -0.7221
 8859SOL    HW238037   2.501   0.710  14.561  0.1770 -1.2961  0.0513
 8860SOL     OW38038   0.912   3.964   6.604  0.0357  0.1137  0.4747
 8860SOL    HW138039   0.863   4.019   6.542 -0.9592 -0.0291  1.1261
 8860SOL    HW238040   0.963   4.027   6.654  0.6397 -1.0934  1.3852
 8861SOL     OW38041   0.478   0.019   4.868 -0.0974 -0.2015  0.0432
 8861SOL    HW138042   0.468   0.023   4.963 -0.1468  3.5915 -0.1363
 8861SOL    HW238043   0.567   4.714   4.847  0.6712  1.1284  1.3503
 8862SOL     OW38044   2.740   4.397  13.495  0.0781 -0.2072  0.5501
 8862SOL    HW138045   2.794   4.341  13.440 -1.2549  1.0372 -2.0150
 8862SOL    HW238046   2.702   4.331  13.555 -0.8383 -1.9806 -1.9679
 8863SOL     OW38047   1.729   3.766   1.158  0.7968 -0.3156  0.5934
 8863SOL    HW138048   1.656   3.781   1.097  0.1484 -2.3437  0.8816
 8863SOL    HW238049   1.740   3.671   1.153  3.7466  0.1206 -1.3072
 8864SOL     OW38050   3.725   0.709  13.347  0.2860 -0.1073  0.1014
 8864SOL    HW138051   3.741   0.687  13.439 -1.4401 -1.9382 -0.0410
 8864SOL    HW238052   3.796   0.662  13.305 -0.9676 -0.7322 -1.3151
 8865SOL     OW38053   1.923   2.474   7.020 -0.1824 -0.1311 -0.1488
 8865SOL    HW138054   1.905   2.439   6.933  2.1387 -1.8147  0.0427
 8865SOL    HW238055   1.899   2.407   7.084  2.0246  0.7692  1.6348
 8866SOL     OW38056   2.901   2.630  12.070  0.7163  0.7730 -0.4356
 8866SOL    HW138057   2.980   2.683  12.054  1.7976 -0.5578  0.4915
 8866SOL    HW238058   2.856   2.632  11.985 -0.1287 -2.1433 -0.0280
 8867SOL     OW38059   3.182   2.883   2.058 -0.0236 -0.0636  0.0572
 8867SOL    HW138060   3.170   2.792   2.030  0.4794 -0.3982  0.9166
 8867SOL    HW238061   3.243   2.878   2.132  1.0627  0.1885 -0.8099
 8868SOL     OW38062   2.466   4.338   4.243 -0.8142  0.0800 -0.6528
 8868SOL    HW138063   2.454   4.405   4.176 -0.2908 -1.0581 -1.8935
 8868SOL    HW238064   2.384   4.349   4.290 -0.8617  1.2586 -1.0205
 8869SOL     OW38065   0.431   0.634   1.974 -0.0276 -0.7355  0.0478
 8869SOL    HW138066   0.517   0.635   2.016  0.8939 -1.9765 -1.8106
 8869SOL    HW238067   0.395   0.553   2.011 -1.0459 -0.5820 -0.6180
 8870SOL     OW38068   0.260   0.322   3.099  0.3019  0.3417  0.2976
 8870SOL    HW138069   0.204   0.294   3.172  1.2939  2.1259  1.7493
 8870SOL    HW238070   0.245   0.267   3.022  1.3942  0.3620  0.0677
 8871SOL     OW38071   2.907   3.567   6.414  0.2748 -0.3986 -0.7045
 8871SOL    HW138072   2.840   3.616   6.367 -0.1630 -0.2188  0.1039
 8871SOL    HW238073   2.876   3.483   6.380  1.3212 -1.1522  0.2107
 8872SOL     OW38074   2.381   1.901   1.518 -0.9237  0.4516 -0.0366
 8872SOL    HW138075   2.435   1.849   1.459  0.1093  1.9136 -0.3640
 8872SOL    HW238076   2.446   1.925   1.584  1.7330 -2.2466 -1.6788
 8873SOL     OW38077   0.492   4.533   7.096 -0.5866  0.2140  0.0495
 8873SOL    HW138078   0.540   4.512   7.015  1.6091 -0.8580  1.6245
 8873SOL    HW238079   0.408   4.490   7.080  1.2698 -2.8796 -1.3284
 8874SOL     OW38080   4.262   2.115   4.194 -0.1614  0.6385  0.2077
 8874SOL    HW138081   4.170   2.142   4.191 -0.0542  0.8204 -1.2965
 8874SOL    HW238082   4.276   2.125   4.288 -0.2407 -0.0259  0.2928
 8875SOL     OW38083   3.015   2.229   4.001 -0.0344 -0.0129  0.4912
 8875SOL    HW138084   2.951   2.167   3.966 -1.1921  1.8726 -0.6822
 8875SOL    HW238085   2.988   2.237   4.092  0.5859  1.7641  0.5116
 8876SOL     OW38086   3.362   0.613  13.765  0.0788  0.4301  0.4092
 8876SOL    HW138087   3.395   0.681  13.707  0.8948  2.4035  3.1923
 8876SOL    HW238088   3.432   0.548  13.775  0.9394  1.2120 -0.4512
 8877SOL     OW38089   3.141   3.933  14.855 -0.5550 -0.3008 -0.3736
 8877SOL    HW138090   3.174   4.016  14.889 -1.0713 -0.5899  0.8240
 8877SOL    HW238091   3.209   3.897  14.798 -1.6734 -0.8155 -1.3774
 8878SOL     OW38092   1.835   3.550  17.548  0.4458 -0.0252  0.5545
 8878SOL    HW138093   1.882   3.468  17.562  1.0273  0.1190 -0.6602
 8878SOL    HW238094   1.756   3.510  17.513  0.1716 -0.7872  2.0163
 8879SOL     OW38095   3.304   4.712  11.416  0.2079  0.3884 -0.2318
 8879SOL    HW138096   3.379   4.654  11.432  0.0420 -0.2703 -1.7774
 8879SOL    HW238097   3.243   4.695  11.487  1.4109 -0.0934  0.6804
 8880SOL     OW38098   4.058   2.157  15.352  0.1381 -0.0073  0.4523
 8880SOL    HW138099   4.134   2.203  15.317 -0.0674 -0.3208 -0.4102
 8880SOL    HW238100   4.004   2.170  15.273 -0.7234  0.6849  1.1459
 8881SOL     OW38101   3.428   1.659   8.561  0.2481  0.2428  0.2073
 8881SOL    HW138102   3.393   1.690   8.478  0.3547  1.1634  0.5123
 8881SOL    HW238103   3.489   1.732   8.575 -0.4747  1.4482 -3.1091
 8882SOL     OW38104   2.742   4.436   5.803  0.1094  0.4428 -0.2499
 8882SOL    HW138105   2.670   4.413   5.862  1.3726 -0.1669  1.0616
 8882SOL    HW238106   2.773   4.505   5.861 -0.5126 -1.0137  1.8278
 8883SOL     OW38107   1.974   4.184   5.777  0.9713 -0.0756 -0.2628
 8883SOL    HW138108   2.056   4.190   5.826  0.3634  1.2286  0.5808
 8883SOL    HW238109   1.933   4.270   5.772  0.1026 -0.4010  1.3843
 8884SOL     OW38110   4.689   1.091   1.066  0.5085 -0.5992 -0.0424
 8884SOL    HW138111   4.723   1.007   1.036 -1.7742 -2.7761  3.5974
 8884SOL    HW238112   4.632   1.071   1.140  1.6851  0.3755  1.1339
 8885SOL     OW38113   0.342   4.308   4.660 -0.5511 -0.1766  0.0224
 8885SOL    HW138114   0.426   4.266   4.644 -0.6283 -0.2211 -0.2681
 8885SOL    HW238115   0.360   4.345   4.746 -1.8434 -1.6069  0.8973
 8886SOL     OW38116   0.271   1.634  15.358  0.6276 -0.0280 -0.5968
 8886SOL    HW138117   0.275   1.577  15.281  1.5820  2.0436 -2.0908
 8886SOL    HW238118   0.264   1.722  15.321  0.4019  1.3856  2.8016
 8887SOL     OW38119   4.478   1.558   4.942 -0.4212 -0.1676 -0.1790
 8887SOL    HW138120   4.475   1.487   4.878 -2.1733  1.1856 -1.6216
 8887SOL    HW238121   4.532   1.617   4.890  0.4486 -0.1846  0.7129
 8888SOL     OW38122   3.462   3.519  10.010  0.1638  0.4589  0.4907
 8888SOL    HW138123   3.409   3.528   9.931 -2.1472  0.4340  2.0445
 8888SOL    HW238124   3.457   3.609  10.043  0.9453  1.2260 -1.4555
 8889SOL     OW38125   1.034   3.061   8.666  0.1344 -0.1979 -0.0636
 8889SOL    HW138126   0.999   3.105   8.589 -0.7467  0.9523  1.0014
 8889SOL    HW238127   0.958   3.008   8.691  0.4686 -0.2587  0.8100
 8890SOL     OW38128   4.332   1.848  10.900  0.8934  0.3603 -0.3951
 8890SOL    HW138129   4.373   1.866  10.815  1.3798  0.8020 -0.0642
 8890SOL    HW238130   4.252   1.900  10.887  0.1595 -0.3665  1.2473
 8891SOL     OW38131   0.130   1.663   4.257  0.1181  0.5315  0.0684
 8891SOL    HW138132   0.209   1.697   4.298  0.4636 -0.9514  0.6202
 8891SOL    HW238133   0.087   1.609   4.323  3.4750  0.2555  2.0278
 8892SOL     OW38134   0.490   2.963   8.059  0.0882 -0.6344  0.1347
 8892SOL    HW138135   0.480   2.913   7.978 -2.7361 -0.5240  0.4193
 8892SOL    HW238136   0.580   2.996   8.056  0.6680 -1.7520  4.6025
 8893SOL     OW38137   1.309   0.421   9.257 -0.3293 -0.5503 -0.0891
 8893SOL    HW138138   1.314   0.347   9.317 -0.0792 -2.2360 -2.1993
 8893SOL    HW238139   1.215   0.426   9.241 -0.0886 -1.8714 -1.8683
 8894SOL     OW38140   1.638   0.066   1.932 -0.1736  0.3687  0.0752
 8894SOL    HW138141   1.555   0.079   1.976 -1.2109 -2.6230 -0.9953
 8894SOL    HW238142   1.639   4.698   1.911 -2.6865 -0.2804  2.9267
 8895SOL     OW38143   3.096   2.146  12.852  0.2951  0.6326 -0.2115
 8895SOL    HW138144   3.183   2.106  12.864 -1.4632 -2.6139  1.6367
 8895SOL    HW238145   3.096   2.150  12.756  0.8757 -0.1131 -0.2436
 8896SOL     OW38146   4.479   2.002  14.243  0.0977 -0.1832  0.2441
 8896SOL    HW138147   4.406   2.010  14.182 -0.5625 -0.5681  0.9851
 8896SOL    HW238148   4.556   1.987  14.188  0.3303 -1.0039  0.7948
 8897SOL     OW38149   1.444   2.349  10.152  0.4380  0.2153 -0.3653
 8897SOL    HW138150   1.405   2.373  10.236 -1.2082  1.7371 -1.5806
 8897SOL    HW238151   1.523   2.404  10.152  0.8788 -0.4328 -1.7984
 8898SOL     OW38152   1.496   3.751   0.986 -0.1127 -0.2486 -0.4099
 8898SOL    HW138153   1.479   3.836   0.945  0.3486 -0.4335 -0.9716
 8898SOL    HW238154   1.506   3.695   0.909  2.9137 -0.9255  0.5081
 8899SOL     OW38155   1.909   3.116   0.128  0.0581  0.5258  0.0035
 8899SOL    HW138156   1.851   3.042   0.145  0.5949 -0.0619 -0.7526
 8899SOL    HW238157   1.986   3.060   0.121  0.8048  1.5336  0.0725
 8900SOL     OW38158   1.960   3.142   8.982 -0.4396 -0.1397 -0.3454
 8900SOL    HW138159   1.984   3.099   9.064 -2.1750 -1.2469 -0.4236
 8900SOL    HW238160   1.985   3.066   8.929 -1.0575 -0.1798 -0.5779
 8901SOL     OW38161   0.635   2.469   7.949  0.5371 -0.1839  0.2399
 8901SOL    HW138162   0.611   2.383   7.917  1.9026  0.2469 -1.9147
 8901SOL    HW238163   0.726   2.479   7.922 -0.3821 -0.5395 -2.9318
 8902SOL     OW38164   2.841   3.783   5.868 -0.2674 -0.8710 -0.3726
 8902SOL    HW138165   2.868   3.796   5.777  0.0537  0.5474 -0.0738
 8902SOL    HW238166   2.766   3.842   5.879  0.7473  0.2535  0.5679
 8903SOL     OW38167   2.594   1.714   8.885  0.5246 -0.3575 -0.3274
 8903SOL    HW138168   2.644   1.693   8.806  2.1828  1.3248  0.2808
 8903SOL    HW238169   2.663   1.677   8.941  1.3623  0.9021 -0.5185
 8904SOL     OW38170   1.667   1.612   6.549 -0.5466  0.0127  0.6229
 8904SOL    HW138171   1.721   1.541   6.584  0.4196 -0.4277 -1.7337
 8904SOL    HW238172   1.617   1.561   6.485 -0.0054 -0.4261  0.5444
 8905SOL     OW38173   0.733   0.642   1.768 -0.4166 -0.2467  0.7021
 8905SOL    HW138174   0.704   0.649   1.677 -0.0708 -0.7211  0.5553
 8905SOL    HW238175   0.797   0.713   1.767  0.3759 -0.9413  1.8864
 8906SOL     OW38176   1.629   2.415   5.197  0.0320 -0.1142  0.1862
 8906SOL    HW138177   1.582   2.345   5.244  2.0905 -2.3528 -1.0903
 8906SOL    HW238178   1.660   2.465   5.273  0.3226  1.7383 -1.1522
 8907SOL     OW38179   1.489   0.059   0.675  0.2809 -0.1248 -0.3252
 8907SOL    HW138180   1.397   0.036   0.675 -0.1923  1.8042 -3.4331
 8907SOL    HW238181   1.490   0.134   0.735  0.6649 -0.6682  0.3426
 8908SOL     OW38182   4.626   1.068   5.333 -0.0200  0.5335  0.1150
 8908SOL    HW138183   4.590   1.044   5.418 -1.6444  3.0979  0.1863
 8908SOL    HW238184   4.600   1.161   5.334  3.0435  1.3799  1.3529
 8909SOL     OW38185   0.331   2.711   3.636 -0.2354 -0.0923 -0.3535
 8909SOL    HW138186   0.297   2.792   3.597  2.0014  1.2313  0.4957
 8909SOL    HW238187   0.371   2.667   3.561 -1.7636 -2.2818  0.1281
 8910SOL     OW38188   4.029   3.979   3.532  0.6389 -0.5290 -0.4077
 8910SOL    HW138189   4.120   3.989   3.506  0.7008  0.7197  0.2588
 8910SOL    HW238190   4.022   4.047   3.600  1.7559 -2.5307  1.6818
 8911SOL     OW38191   4.386   1.131   4.082 -0.0279 -0.0941  0.8390
 8911SOL    HW138192   4.406   1.090   3.998 -1.5874 -1.8493  1.3299
 8911SOL    HW238193   4.464   1.119   4.137 -0.2654 -0.5699  1.0676
 8912SOL     OW38194   4.539   4.287   2.731 -0.6700 -0.0876  0.2865
 8912SOL    HW138195   4.451   4.310   2.702 -0.4843  2.0194  1.4172
 8912SOL    HW238196   4.563   4.227   2.661  0.3928  0.4458  0.1961
 8913SOL     OW38197   1.442   3.122   2.350 -0.8453  0.1966  0.1286
 8913SOL    HW138198   1.382   3.048   2.350 -0.7989  0.1622 -1.0067
 8913SOL    HW238199   1.384   3.198   2.353 -0.7323  0.2060  2.0411
 8914SOL     OW38200   4.274   2.487   5.371 -0.5731  0.6002  0.2216
 8914SOL    HW138201   4.280   2.421   5.302  1.2479  1.8133 -0.7891
 8914SOL    HW238202   4.349   2.537   5.337 -0.4888  0.2901 -0.0502
 8915SOL     OW38203   0.019   1.537  10.917  0.7225  0.1727 -0.1273
 8915SOL    HW138204   4.711   1.626  10.925  1.2706  0.3317  0.3536
 8915SOL    HW238205   0.023   1.515  11.010 -0.3977  1.5334  0.2457
 8916SOL     OW38206   0.821   2.868   8.704  0.1128  0.2247  0.0399
 8916SOL    HW138207   0.834   2.883   8.798 -1.1313  0.7427  0.1306
 8916SOL    HW238208   0.760   2.794   8.711  1.5547 -0.9489  0.3077
 8917SOL     OW38209   2.278   2.862   8.938  0.2396  0.1980  0.1406
 8917SOL    HW138210   2.311   2.891   8.853 -0.6408 -1.3271 -0.7256
 8917SOL    HW238211   2.197   2.913   8.942  0.6374  1.0262 -2.2614
 8918SOL     OW38212   0.717   4.331  10.253  0.1946  0.0520  0.0742
 8918SOL    HW138213   0.792   4.281  10.287  0.6058  0.0394 -0.8565
 8918SOL    HW238214   0.676   4.383  10.322 -2.9867 -0.1958 -1.6691
 8919SOL     OW38215   1.866   3.342   4.030  0.7645  0.3338  0.5542
 8919SOL    HW138216   1.958   3.318   4.030  0.5542 -0.4650 -2.7893
 8919SOL    HW238217   1.864   3.404   4.102  0.9161  0.2058  0.6683
 8920SOL     OW38218   2.712   4.209   7.609  0.3279  0.0059  0.3250
 8920SOL    HW138219   2.700   4.295   7.650 -0.5145  0.5414 -1.0474
 8920SOL    HW238220   2.764   4.168   7.678 -3.3954 -1.7259  2.1257
 8921SOL     OW38221   1.789   2.796  15.467  0.2955 -0.0001 -0.5739
 8921SOL    HW138222   1.790   2.708  15.428 -0.6969 -0.6274  0.8071
 8921SOL    HW238223   1.782   2.853  15.391  2.2417  0.5924 -0.3170
 8922SOL     OW38224   2.508   3.841   9.890 -0.5142  0.3828 -0.2234
 8922SOL    HW138225   2.465   3.894   9.958 -0.5782 -0.9629  0.8041
 8922SOL    HW238226   2.584   3.891   9.860  0.4330 -0.0826  1.4081
 8923SOL     OW38227   3.349   1.785   8.332 -0.1037 -0.1375 -0.2939
 8923SOL    HW138228   3.260   1.800   8.301 -0.4991  1.2313  1.4989
 8923SOL    HW238229   3.359   1.877   8.356  1.3005  0.1480 -2.0301
 8924SOL     OW38230   1.904   3.608   1.931  0.2558  0.0362  0.3914
 8924SOL    HW138231   1.823   3.599   1.880  0.5349  0.0601 -0.0499
 8924SOL    HW238232   1.935   3.518   1.919 -0.5407 -0.1421 -0.3448
 8925SOL     OW38233   1.459   0.964   3.097  0.0754  0.1028  0.4927
 8925SOL    HW138234   1.451   1.045   3.045 -0.6447  0.0012  0.4397
 8925SOL    HW238235   1.368   0.962   3.126  0.1520 -2.6405  0.4934
 8926SOL     OW38236   1.310   3.074   4.451 -0.3795  0.3663 -0.5417
 8926SOL    HW138237   1.281   2.991   4.413 -0.0726  0.3213 -0.6769
 8926SOL    HW238238   1.313   3.124   4.370  1.8119  0.6634 -0.2604
 8927SOL     OW38239   0.455   3.733   6.368  0.6219 -0.2915 -0.0747
 8927SOL    HW138240   0.426   3.739   6.459  0.6099 -1.6948  0.0113
 8927SOL    HW238241   0.389   3.784   6.321  1.2192  0.0551 -0.5415
 8928SOL     OW38242   2.173   4.268   0.193  0.2638  0.3656  0.4615
 8928SOL    HW138243   2.160   4.202   0.261  0.8559 -0.8957 -0.6467
 8928SOL    HW238244   2.262   4.250   0.161  0.4234 -1.5613  2.0472
 8929SOL     OW38245   2.174   1.182  10.445 -0.3110  0.5250 -0.3508
 8929SOL    HW138246   2.169   1.193  10.540  1.7355 -1.1819 -0.0472
 8929SOL    HW238247   2.234   1.254  10.426 -0.2683  0.4190 -0.6114
 8930SOL     OW38248   4.124   1.202   2.486 -0.6884  0.1694  0.3165
 8930SOL    HW138249   4.179   1.277   2.507  0.8384 -0.8215 -0.1174
 8930SOL    HW238250   4.055   1.250   2.440 -2.1134 -1.3129  0.9183
 8931SOL     OW38251   3.951   4.153   0.375  0.1344 -0.1724 -0.3887
 8931SOL    HW138252   4.036   4.161   0.418 -0.0936 -0.0371  0.0314
 8931SOL    HW238253   3.903   4.119   0.450  0.6662  2.3728  1.0791
 8932SOL     OW38254   2.785   3.653   3.127 -0.2865  0.0639  0.5343
 8932SOL    HW138255   2.802   3.746   3.138 -1.2477  0.1814  1.0317
 8932SOL    HW238256   2.693   3.649   3.102 -0.2494 -0.2708  0.4547
 8933SOL     OW38257   4.080   2.271   5.562  0.6253 -0.0364 -0.6829
 8933SOL    HW138258   4.087   2.363   5.534  0.4294  0.4617  0.8910
 8933SOL    HW238259   4.151   2.265   5.627 -0.6163  1.1764  0.8004
 8934SOL     OW38260   4.537   2.224   9.650 -0.0018 -0.4370  0.1370
 8934SOL    HW138261   4.557   2.265   9.566  1.2701  0.8835  1.0686
 8934SOL    HW238262   4.621   2.227   9.696  0.8256  2.0549 -1.5549
 8935SOL     OW38263   4.667   4.368   4.500  0.0805  0.6117 -0.0753
 8935SOL    HW138264   4.719   4.305   4.550  2.5882 -0.7719 -4.5008
 8935SOL    HW238265   0.012   4.427   4.472  0.5834 -0.3424 -0.8096
 8936SOL     OW38266   0.360   0.465  15.820 -0.2816 -0.4917  0.5453
 8936SOL    HW138267   0.408   0.459  15.902  1.1724  3.0047 -0.0545
 8936SOL    HW238268   0.270   0.459  15.853 -0.9133 -1.2724 -1.2930
 8937SOL     OW38269   1.008   0.490   8.500 -0.1987  0.6134 -0.2583
 8937SOL    HW138270   0.996   0.571   8.549 -2.7853 -0.0572  0.2475
 8937SOL    HW238271   0.944   0.514   8.433  2.6625  0.3393 -3.0464
 8938SOL     OW38272   2.133   3.853   0.604  0.6435  0.1884 -0.2559
 8938SOL    HW138273   2.038   3.850   0.614  0.4146  1.5045 -1.9958
 8938SOL    HW238274   2.149   3.940   0.641  0.2843 -0.6978  1.9556
 8939SOL     OW38275   2.132   4.082  10.524 -0.7744 -0.0423 -0.1334
 8939SOL    HW138276   2.150   4.073  10.617  0.8787 -1.5966 -0.6136
 8939SOL    HW238277   2.216   4.049  10.493 -1.7126 -2.4284 -0.1121
 8940SOL     OW38278   0.767   3.859   7.206  0.0399 -0.0582 -0.5290
 8940SOL    HW138279   0.778   3.780   7.259 -3.4341 -0.8395 -0.9763
 8940SOL    HW238280   0.673   3.861   7.187  0.1311  3.6653 -0.6109
 8941SOL     OW38281   2.811   3.106   7.199  0.2062  0.6111 -0.1164
 8941SOL    HW138282   2.867   3.046   7.150  0.6265  1.4260 -0.6501
 8941SOL    HW238283   2.838   3.087   7.288  0.7548 -1.5981 -0.7502
 8942SOL     OW38284   2.981   2.229   4.778  0.6477  0.1210  0.3204
 8942SOL    HW138285   2.945   2.151   4.820 -0.6023  1.3314  1.5026
 8942SOL    HW238286   2.901   2.281   4.785  0.3279 -0.4112  0.6421
 8943SOL     OW38287   3.927   1.283   5.372  0.4128 -0.3492  0.3224
 8943SOL    HW138288   3.917   1.236   5.289 -1.0903 -2.3679  1.6473
 8943SOL    HW238289   3.856   1.347   5.374  0.3288 -0.4512  0.5073
 8944SOL     OW38290   0.868   0.906   5.341 -0.1285 -0.2391  0.2849
 8944SOL    HW138291   0.897   0.997   5.337  2.4229 -1.1128 -1.1314
 8944SOL    HW238292   0.808   0.904   5.416 -0.1255 -3.9525  0.2034
 8945SOL     OW38293   1.611   1.488   6.146 -0.1101  0.7353  0.4499
 8945SOL    HW138294   1.536   1.440   6.182 -0.8131  1.5030  0.0178
 8945SOL    HW238295   1.591   1.478   6.053  0.2469 -1.5027  0.6165
 8946SOL     OW38296   4.226   2.756   0.531 -0.2967  0.0934 -0.6313
 8946SOL    HW138297   4.185   2.676   0.498 -0.5669  1.0143 -2.5168
 8946SOL    HW238298   4.151   2.801   0.571 -0.4163 -1.6569  1.1161
 8947SOL     OW38299   0.432   2.296   7.276  0.5517 -0.1560  0.3396
 8947SOL    HW138300   0.459   2.273   7.365  0.2046 -0.3885  0.3882
 8947SOL    HW238301   0.490   2.240   7.226  0.6948  1.7981 -1.6828
 8948SOL     OW38302   1.967   0.741   5.047  0.2845  0.4016 -0.6683
 8948SOL    HW138303   2.035   0.705   4.991 -2.1754 -2.3273 -1.8668
 8948SOL    HW238304   1.881   0.716   5.012 -0.4072 -0.6680  1.8006
 8949SOL     OW38305   1.021   1.355  11.060 -0.1064  0.1724 -0.0642
 8949SOL    HW138306   1.035   1.327  10.969  0.9426 -1.0852  0.4905
 8949SOL    HW238307   0.942   1.409  11.061 -2.5226 -3.3425 -4.7196
 8950SOL     OW38308   3.563   3.173   8.380  0.0937  0.2608 -0.4466
 8950SOL    HW138309   3.658   3.159   8.389 -0.4134 -2.0722  1.4504
 8950SOL    HW238310   3.525   3.100   8.430  1.9144  0.3037  1.0223
 8951SOL     OW38311   1.795   2.371   9.583  0.1743 -0.9914  0.6755
 8951SOL    HW138312   1.755   2.396   9.667  1.5073  0.7766  0.7795
 8951SOL    HW238313   1.889   2.361   9.598  0.0890  2.5906  3.7387
 8952SOL     OW38314   1.721   0.446   4.760 -0.9944  0.0212 -0.0765
 8952SOL    HW138315   1.675   0.494   4.691  1.6095  3.1593  0.3976
 8952SOL    HW238316   1.780   0.397   4.703 -1.0724 -1.1363  0.8348
 8953SOL     OW38317   0.576   3.680  12.678  0.1873 -0.9391  1.0252
 8953SOL    HW138318   0.498   3.673  12.623  1.6895 -0.9889 -1.1255
 8953SOL    HW238319   0.553   3.755  12.732  4.1100  1.2922 -0.3670
 8954SOL     OW38320   1.594   3.487   7.316  0.6868  0.2646  0.2698
 8954SOL    HW138321   1.674   3.537   7.333  1.1813 -0.8469  1.2967
 8954SOL    HW238322   1.524   3.547   7.342  0.4563 -0.6555  1.8089
 8955SOL     OW38323   1.598   3.963  10.617 -0.7565 -0.2128 -0.6858
 8955SOL    HW138324   1.577   4.043  10.570 -0.8781  0.7196  0.9535
 8955SOL    HW238325   1.563   3.991  10.702 -1.4359  1.1548 -1.4264
 8956SOL     OW38326   2.482   0.154  15.294 -0.0197 -0.6779 -0.6929
 8956SOL    HW138327   2.465   0.248  15.300 -2.5299 -1.1903  0.1123
 8956SOL    HW238328   2.443   0.130  15.210  0.1254 -0.8808 -0.7030
 8957SOL     OW38329   4.435   2.697   9.970 -0.6107  0.4352 -0.1449
 8957SOL    HW138330   4.386   2.614   9.973  1.5016 -0.8322 -0.8547
 8957SOL    HW238331   4.428   2.725  10.061 -0.9732  2.9128 -0.9401
 8958SOL     OW38332   0.724   2.882   5.703 -0.1677  0.2473  0.3321
 8958SOL    HW138333   0.725   2.900   5.609 -2.0276 -0.6714  0.1253
 8958SOL    HW238334   0.732   2.965   5.751  0.0300  0.6201 -0.3392
 8959SOL     OW38335   2.052   1.209   1.431  0.5873 -0.5622  0.1287
 8959SOL    HW138336   2.114   1.186   1.361  0.0158 -1.3936 -0.1056
 8959SOL    HW238337   2.008   1.283   1.390  0.4792 -0.2118  0.8911
 8960SOL     OW38338   1.556   0.187  12.237  0.3478  0.3963 -0.0371
 8960SOL    HW138339   1.564   0.201  12.142 -2.6400 -0.9264 -0.4808
 8960SOL    HW238340   1.588   0.272  12.268  1.5239  1.5079 -4.3359
 8961SOL     OW38341   3.143   4.426  10.312 -0.1982 -0.4873 -0.2705
 8961SOL    HW138342   3.176   4.514  10.294  1.2563 -0.8778  0.5404
 8961SOL    HW238343   3.125   4.438  10.405 -0.0345  1.8900 -0.5353
 8962SOL     OW38344   2.933   3.267   3.141  0.2516  0.3261 -0.5795
 8962SOL    HW138345   2.910   3.185   3.097  0.1603 -0.3032  0.6366
 8962SOL    HW238346   2.884   3.251   3.221 -0.8921 -0.3832 -1.4278
 8963SOL     OW38347   0.658   3.977   0.419  0.2487  0.2802  0.0833
 8963SOL    HW138348   0.656   4.069   0.445  1.3291  0.4854 -0.5511
 8963SOL    HW238349   0.630   3.983   0.327  1.6118 -1.3404 -0.4368
 8964SOL     OW38350   2.707   4.343   1.566 -0.5421 -0.2953 -0.0704
 8964SOL    HW138351   2.698   4.250   1.588  0.5626 -0.2047  0.7483
 8964SOL    HW238352   2.748   4.315   1.485  0.4068 -0.0937  0.3401
 8965SOL     OW38353   2.795   0.704   6.236 -0.2086 -0.7331 -0.4235
 8965SOL    HW138354   2.749   0.737   6.313 -2.5470  0.0789 -2.1604
 8965SOL    HW238355   2.809   0.786   6.189  0.1725 -0.8837 -0.5744
 8966SOL     OW38356   3.529   4.710   3.457  0.1803  0.0041  0.5426
 8966SOL    HW138357   3.585   4.659   3.516 -0.7798  0.9567  2.2756
 8966SOL    HW238358   3.562   4.665   3.379 -1.7880 -0.3595 -0.1009
 8967SOL     OW38359   3.816   1.641   2.548  0.7454 -0.3602 -0.3557
 8967SOL    HW138360   3.896   1.601   2.583 -0.6774 -1.1785  1.9295
 8967SOL    HW238361   3.756   1.631   2.622  1.2057  0.3636  0.1170
 8968SOL     OW38362   0.720   2.999   5.449  0.7773  0.4916 -0.3727
 8968SOL    HW138363   0.692   2.978   5.360 -0.3416  0.0271  0.0951
 8968SOL    HW238364   0.651   3.054   5.487 -0.9676  0.1071 -2.9903
 8969SOL     OW38365   4.596   1.962  12.789 -0.0242 -0.0895  0.3235
 8969SOL    HW138366   4.651   2.024  12.741 -0.7725 -0.2796 -0.7881
 8969SOL    HW238367   4.649   1.958  12.868  0.1476 -1.8260  0.1227
 8970SOL     OW38368   0.945   2.952   0.114 -0.1082 -0.1766 -0.0317
 8970SOL    HW138369   0.889   3.025   0.091 -0.1943 -0.1593  0.2309
 8970SOL    HW238370   0.907   2.929   0.199 -0.1847 -0.7314 -0.2134
 8971SOL     OW38371   2.005   2.486   6.527  0.3850  0.5473  0.6299
 8971SOL    HW138372   2.018   2.482   6.433  0.3805 -0.9470  0.6903
 8971SOL    HW238373   2.070   2.428   6.565  2.7571  2.4506 -0.5840
 8972SOL     OW38374   0.634   4.127  12.200  0.0216  0.3626  0.0792
 8972SOL    HW138375   0.663   4.195  12.139  1.4331 -0.5272 -0.2590
 8972SOL    HW238376   0.553   4.168  12.230  0.3351  3.0978 -2.8458
 8973SOL     OW38377   0.500   0.879  13.056  0.5283 -0.2200  0.3073
 8973SOL    HW138378   0.560   0.929  13.111  3.7119 -1.1737 -2.2922
 8973SOL    HW238379   0.525   0.902  12.966  0.0543 -2.8030 -0.4896
 8974SOL     OW38380   2.013   0.841  15.311 -0.2370  0.2836 -0.0578
 8974SOL    HW138381   2.031   0.751  15.340  1.3048  1.0650  1.4131
 8974SOL    HW238382   2.028   0.815  15.220 -0.6943 -0.5986  0.1093
 8975SOL     OW38383   0.169   3.845   7.921  0.5210 -0.2333  0.0525
 8975SOL    HW138384   0.216   3.921   7.886  0.6787 -1.0281 -1.4749
 8975SOL    HW238385   0.104   3.834   7.851  0.4734  1.2758 -0.1389
 8976SOL     OW38386   2.756   0.558  17.237  0.2623  0.3405  0.0164
 8976SOL    HW138387   2.729   0.551  17.329 -2.2794 -3.3277 -1.0480
 8976SOL    HW238388   2.828   0.496  17.223  2.4311  2.2920  2.5623
 8977SOL     OW38389   1.011   2.265   8.725 -0.3846 -0.4390 -0.6831
 8977SOL    HW138390   0.960   2.270   8.644 -2.0491 -0.0567  0.4014
 8977SOL    HW238391   1.015   2.355   8.758  0.4267  0.4484 -3.2286
 8978SOL     OW38392   4.716   3.375   5.212 -0.3176 -0.1771  0.4566
 8978SOL    HW138393   0.065   3.349   5.266 -1.7037 -2.7754  1.1202
 8978SOL    HW238394   4.659   3.398   5.285  1.9408  3.8414  0.9916
 8979SOL     OW38395   1.579   4.124   8.874 -0.6153 -0.0032 -0.3435
 8979SOL    HW138396   1.615   4.125   8.785  0.6499 -1.5271  0.1320
 8979SOL    HW238397   1.606   4.203   8.922 -0.1981 -0.2147 -0.2238
 8980SOL     OW38398   1.590   4.221   0.378  0.2949  0.4418 -0.0135
 8980SOL    HW138399   1.579   4.302   0.428  0.3256  0.5772 -0.2252
 8980SOL    HW238400   1.595   4.251   0.287 -1.0109 -0.2118 -0.3105
 8981SOL     OW38401   4.668   4.401  11.946  0.0818  0.5962  0.1459
 8981SOL    HW138402   4.595   4.432  11.999 -0.5957 -2.1982  0.8449
 8981SOL    HW238403   4.613   4.360  11.879 -0.1812  3.0445 -1.1243
 8982SOL     OW38404   3.758   3.715   9.358  0.3165  0.0910 -0.2738
 8982SOL    HW138405   3.737   3.646   9.295 -2.5324 -1.0303  1.9166
 8982SOL    HW238406   3.828   3.669   9.404 -1.1945 -1.8556  0.0834
 8983SOL     OW38407   0.957   1.186   4.152  0.0608  0.1960 -0.6499
 8983SOL    HW138408   0.889   1.157   4.092 -0.3307 -1.9226  0.8083
 8983SOL    HW238409   0.955   1.123   4.225 -2.0343  1.1159  0.0755
 8984SOL     OW38410   4.485   3.236   5.806  0.0107  0.1896 -0.2117
 8984SOL    HW138411   4.460   3.147   5.783 -0.8044  0.8215 -1.8206
 8984SOL    HW238412   4.545   3.221   5.879 -0.4217  1.7687  0.4846
 8985SOL     OW38413   4.720   1.819   8.046 -0.7557 -0.0554 -0.2335
 8985SOL    HW138414   0.029   1.907   8.061 -1.3456  0.1065  0.1544
 8985SOL    HW238415   4.683   1.825   7.958  2.7814  2.5195 -1.5316
 8986SOL     OW38416   0.303   0.200  16.152  0.3162 -0.4925 -0.4634
 8986SOL    HW138417   0.243   0.127  16.166 -1.4644  0.6095 -2.3738
 8986SOL    HW238418   0.333   0.216  16.241 -0.3060 -0.8757 -0.1906
 8987SOL     OW38419   2.040   1.299   2.161  0.0855 -0.1775  0.0164
 8987SOL    HW138420   2.054   1.394   2.156  1.5706 -0.4113 -0.0628
 8987SOL    HW238421   1.983   1.284   2.085  0.6394 -0.4803 -0.3348
 8988SOL     OW38422   3.638   4.513   6.010 -0.0454  0.5967 -0.4097
 8988SOL    HW138423   3.601   4.538   5.925  1.6752 -1.5759 -1.8065
 8988SOL    HW238424   3.683   4.594   6.031 -0.3001  0.9379 -1.1613
 8989SOL     OW38425   4.013   3.623   9.207 -0.4923  0.5509 -0.2649
 8989SOL    HW138426   4.007   3.641   9.301 -3.0757 -0.4394 -0.2350
 8989SOL    HW238427   3.952   3.684   9.165  0.5233  2.2298  0.7056
 8990SOL     OW38428   0.919   2.686   7.669  0.1142  0.2422  0.2105
 8990SOL    HW138429   0.991   2.652   7.617  0.2908 -0.7958  1.1400
 8990SOL    HW238430   0.870   2.727   7.597  0.5939 -0.5777 -0.5688
 8991SOL     OW38431   2.013   1.460  15.670 -0.2467  0.4705  0.2672
 8991SOL    HW138432   2.008   1.413  15.587 -0.5109  0.3696  0.3407
 8991SOL    HW238433   2.105   1.484  15.677  0.3853 -1.5041 -1.2235
 8992SOL     OW38434   4.035   1.053  12.298 -0.0935 -0.7802  0.3832
 8992SOL    HW138435   3.956   1.040  12.351  0.0019  1.6165  1.1110
 8992SOL    HW238436   4.072   1.108  12.366 -0.0461 -0.2786 -0.0483
 8993SOL     OW38437   3.847   0.559   5.185 -0.2940 -0.2104 -0.1842
 8993SOL    HW138438   3.755   0.560   5.156 -0.3058  3.8052 -0.0939
 8993SOL    HW238439   3.887   0.519   5.108 -0.7141  0.9639 -1.0116
 8994SOL     OW38440   3.017   0.499   3.986  0.2375 -0.3855  0.1638
 8994SOL    HW138441   3.096   0.540   3.952  0.4001  0.1847  1.2179
 8994SOL    HW238442   2.968   0.522   3.907 -0.1304  1.5041  0.9403
 8995SOL     OW38443   0.613   3.306  11.794 -0.4929  0.3095 -0.0322
 8995SOL    HW138444   0.667   3.355  11.733  2.2728 -1.0205  1.3306
 8995SOL    HW238445   0.641   3.356  11.871  0.7244  0.1665 -0.3802
 8996SOL     OW38446   2.849   0.413   5.459  0.2660  0.1274  0.4612
 8996SOL    HW138447   2.789   0.473   5.414 -1.8839 -3.3709 -1.3161
 8996SOL    HW238448   2.871   0.346   5.394 -1.5759  0.4039 -0.4444
 8997SOL     OW38449   2.251   3.018   2.447 -0.1097 -0.1002  0.3095
 8997SOL    HW138450   2.307   3.090   2.474  1.9571 -1.9815  0.9838
 8997SOL    HW238451   2.197   3.054   2.377  2.9050  2.9147 -0.4226
 8998SOL     OW38452   0.892   3.847  10.796 -0.0272 -0.0652 -0.3442
 8998SOL    HW138453   0.982   3.855  10.765 -0.0318 -1.2500 -0.6590
 8998SOL    HW238454   0.889   3.757  10.766  0.2100 -0.2219  0.1123
 8999SOL     OW38455   4.183   3.397   9.891 -0.2029  0.0138 -0.1703
 8999SOL    HW138456   4.132   3.377   9.970  1.0607  0.3563  0.7365
 8999SOL    HW238457   4.183   3.311   9.850 -1.9231  1.0375 -2.2906
 9000SOL     OW38458   1.805   4.649   9.785  0.2031  0.3681 -0.1529
 9000SOL    HW138459   1.796   4.554   9.791 -0.3774  0.4088 -0.4073
 9000SOL    HW238460   1.761   4.669   9.867 -0.6154  0.0237 -0.5105
 9001SOL     OW38461   2.971   2.134   8.380 -0.2541 -0.7899 -0.1512
 9001SOL    HW138462   2.941   2.159   8.293 -0.3458  0.7630  0.3325
 9001SOL    HW238463   2.890   2.098   8.416 -0.0065 -1.3886 -0.1919
 9002SOL     OW38464   0.578   4.210   3.293  0.4379  0.1896  0.0969
 9002SOL    HW138465   0.511   4.143   3.301 -0.8570  1.6627  1.5333
 9002SOL    HW238466   0.648   4.158   3.254 -1.6541 -2.3778 -0.2087
 9003SOL     OW38467   1.138   2.179  13.775  0.1564 -0.1194 -0.2850
 9003SOL    HW138468   1.169   2.202  13.862 -0.2547  2.1864 -0.7677
 9003SOL    HW238469   1.077   2.250  13.761 -1.8812 -1.4261  1.9290
 9004SOL     OW38470   1.263   4.526  13.314  0.6191 -0.7112  0.3295
 9004SOL    HW138471   1.351   4.520  13.279  0.7696 -0.0062  0.5865
 9004SOL    HW238472   1.279   4.596  13.377 -0.1043 -1.9625  1.8929
 9005SOL     OW38473   1.971   4.510   6.702  0.0453 -0.5618  0.7474
 9005SOL    HW138474   1.938   4.453   6.633 -0.9556 -0.0940  0.8324
 9005SOL    HW238475   1.939   4.596   6.674 -0.1799 -0.7202  0.5225
 9006SOL     OW38476   0.948   4.647   2.572  0.2112 -0.4178  0.1274
 9006SOL    HW138477   0.945   0.016   2.586 -0.2950 -0.2800 -0.8971
 9006SOL    HW238478   0.906   4.640   2.486 -0.4480 -0.5003  0.4539
 9007SOL     OW38479   1.955   0.981  15.015  0.1885 -0.0401  0.1812
 9007SOL    HW138480   1.979   0.888  15.023  0.3744 -0.2311 -2.6915
 9007SOL    HW238481   2.039   1.014  15.047  0.9328 -1.0650 -0.6786
 9008SOL     OW38482   1.979   2.679   3.317  0.1813 -0.1649 -0.4378
 9008SOL    HW138483   1.922   2.674   3.241 -1.1727  1.6675  0.4511
 9008SOL    HW238484   2.046   2.739   3.285  1.2339 -0.2684  1.5246
 9009SOL     OW38485   3.767   3.648   3.807  0.5321 -0.1158  0.8113
 9009SOL    HW138486   3.836   3.702   3.770 -0.3728 -0.4312 -1.3106
 9009SOL    HW238487   3.777   3.653   3.902  1.6465  1.7676  0.5829
 9010SOL     OW38488   3.466   1.406   2.914  0.1727  0.0317 -0.2542
 9010SOL    HW138489   3.478   1.494   2.950  0.8581 -0.5754  1.0335
 9010SOL    HW238490   3.495   1.345   2.983  0.5295 -0.8313 -1.1755
 9011SOL     OW38491   0.709   3.895   2.870 -0.3562 -0.0530 -0.5757
 9011SOL    HW138492   0.787   3.853   2.833  0.0198  0.1737 -0.0385
 9011SOL    HW238493   0.653   3.817   2.865 -0.0061 -0.3565  0.0983
 9012SOL     OW38494   4.299   4.446  16.726  0.0167  0.1952 -0.0049
 9012SOL    HW138495   4.312   4.490  16.810 -0.3643 -1.8918  1.1575
 9012SOL    HW238496   4.267   4.511  16.664  0.6752  0.4077 -0.1214
 9013SOL     OW38497   1.315   1.865   4.528 -0.3186  0.2213 -0.5128
 9013SOL    HW138498   1.258   1.886   4.602  0.6086 -0.0770  0.2922
 9013SOL    HW238499   1.283   1.926   4.461  2.9404  1.0848 -1.3130
 9014SOL     OW38500   2.808   1.550   9.299 -0.2285  0.6076  0.0631
 9014SOL    HW138501   2.746   1.610   9.259 -0.0389  0.4309 -0.4997
 9014SOL    HW238502   2.772   1.465   9.273 -0.4161  0.7562 -0.1467
 9015SOL     OW38503   2.232   3.160   8.799  0.0880  0.5645 -0.3137
 9015SOL    HW138504   2.144   3.176   8.766  0.1268  0.0898 -0.6440
 9015SOL    HW238505   2.256   3.075   8.763  0.0466  0.8063 -0.9146
 9016SOL     OW38506   1.977   0.773   0.437 -0.0685  0.1272  0.5509
 9016SOL    HW138507   1.957   0.865   0.417  0.0354  0.1057  0.3536
 9016SOL    HW238508   1.975   0.726   0.354 -1.3518 -0.5729  0.9729
 9017SOL     OW38509   1.244   2.804   4.404 -1.1710 -0.2952  0.1217
 9017SOL    HW138510   1.201   2.719   4.389 -1.1457 -0.2348 -0.2964
 9017SOL    HW238511   1.277   2.794   4.493  0.7352  0.2827 -0.5164
 9018SOL     OW38512   0.804   1.992  15.562 -0.3868 -0.4741  0.3488
 9018SOL    HW138513   0.869   1.978  15.631  0.4172 -1.4992 -0.6140
 9018SOL    HW238514   0.837   2.074  15.525 -0.6095 -0.7034 -0.3545
 9019SOL     OW38515   3.103   0.054   6.535 -0.0175  0.0359 -0.1448
 9019SOL    HW138516   3.180   0.003   6.559  1.1034  0.7234 -2.3252
 9019SOL    HW238517   3.121   0.148   6.545  2.2620 -0.0837 -3.2076
 9020SOL     OW38518   2.214   4.456   5.142 -0.1279  1.2009  0.7011
 9020SOL    HW138519   2.259   4.540   5.147  0.3457  1.0037 -0.2074
 9020SOL    HW238520   2.207   4.426   5.232 -0.7913  0.7926  0.5163
 9021SOL     OW38521   4.181   4.075   6.344  0.4421 -0.3403 -0.0019
 9021SOL    HW138522   4.226   3.992   6.360  1.2359 -0.0155 -0.5145
 9021SOL    HW238523   4.215   4.106   6.260  0.5587 -2.2475 -0.6481
 9022SOL     OW38524   0.953   3.321   6.676  0.3906 -0.6749  0.1954
 9022SOL    HW138525   0.990   3.361   6.755  2.5963  0.5991 -1.4879
 9022SOL    HW238526   1.033   3.287   6.636  1.0037 -0.2599  1.0484
 9023SOL     OW38527   0.402   2.187   4.003 -0.0991  0.5105 -0.4753
 9023SOL    HW138528   0.342   2.151   4.069  2.6281 -1.2963  1.0349
 9023SOL    HW238529   0.407   2.280   4.023  0.5525  0.1964  0.8349
 9024SOL     OW38530   1.152   3.750   8.813  0.1196  0.9042 -0.6939
 9024SOL    HW138531   1.210   3.681   8.781  0.8410  1.1337  0.1546
 9024SOL    HW238532   1.153   3.744   8.908  0.9707 -1.0957 -0.8300
 9025SOL     OW38533   3.078   3.288   9.402  0.0783  0.3466 -0.7210
 9025SOL    HW138534   3.121   3.234   9.336  0.8647  2.3993 -1.8890
 9025SOL    HW238535   3.058   3.217   9.463  1.8434 -0.5052 -1.1488
 9026SOL     OW38536   3.417   2.097   2.533 -0.0558  0.7263  0.3222
 9026SOL    HW138537   3.470   2.175   2.517  0.0848  0.1371 -2.0149
 9026SOL    HW238538   3.487   2.041   2.565 -0.6269 -0.7429 -0.9925
 9027SOL     OW38539   1.922   0.791  16.791 -0.0599  0.5039 -0.6610
 9027SOL    HW138540   1.873   0.766  16.870 -0.3805 -1.0423 -1.3526
 9027SOL    HW238541   1.881   0.873  16.764 -1.3918  0.7197  2.0167
 9028SOL     OW38542   3.095   3.776   7.906  0.1907  0.1894  0.2273
 9028SOL    HW138543   3.136   3.751   7.989 -3.0160  2.7432  2.5544
 9028SOL    HW238544   3.016   3.723   7.891  0.0577  0.2570  0.7008
 9029SOL     OW38545   4.437   2.070   2.846 -0.0833 -0.5576  0.3532
 9029SOL    HW138546   4.391   2.130   2.903 -0.5715 -0.0423 -0.5795
 9029SOL    HW238547   4.388   2.083   2.765 -0.8330  0.5622  0.9916
 9030SOL     OW38548   3.327   0.608   3.859  0.5931  1.3782 -0.1492
 9030SOL    HW138549   3.396   0.628   3.922 -3.1017  2.4807  3.5360
 9030SOL    HW238550   3.260   0.674   3.878 -0.3144  0.6503 -0.8121
 9031SOL     OW38551   4.523   3.986  16.528 -0.0538  1.0953  0.3194
 9031SOL    HW138552   4.610   4.020  16.549  0.4968 -0.0518 -0.0887
 9031SOL    HW238553   4.541   3.914  16.467 -0.8907  0.4841  0.7963
 9032SOL     OW38554   2.817   0.773  11.673  0.0675 -0.0779 -0.6085
 9032SOL    HW138555   2.877   0.798  11.603 -0.1286  0.1021 -0.7133
 9032SOL    HW238556   2.805   0.679  11.659  1.4474 -0.1299 -1.4700
 9033SOL     OW38557   3.840   3.743  16.855  0.1140 -0.2275 -0.3806
 9033SOL    HW138558   3.804   3.698  16.779 -0.0789  3.3809 -2.4244
 9033SOL    HW238559   3.920   3.779  16.815 -0.3350  0.0297 -1.0367
 9034SOL     OW38560   3.601   2.326   7.267 -0.0424 -0.3894  0.4956
 9034SOL    HW138561   3.587   2.420   7.263  1.3878 -0.1690  0.5488
 9034SOL    HW238562   3.531   2.300   7.207 -0.2107  2.7011 -0.6216
 9035SOL     OW38563   2.850   3.127   4.283 -0.2547  0.4243 -0.2177
 9035SOL    HW138564   2.802   3.204   4.253 -1.2528 -0.3473 -0.5953
 9035SOL    HW238565   2.903   3.163   4.355 -0.2477  2.8235 -1.4230
 9036SOL     OW38566   3.199   3.207  11.141  0.4390 -0.2993 -0.0049
 9036SOL    HW138567   3.289   3.185  11.120  0.7248 -0.5651  1.4572
 9036SOL    HW238568   3.174   3.244  11.056  1.1345 -0.1204 -0.1272
 9037SOL     OW38569   0.606   0.213   9.506  0.4899 -0.6173  0.0126
 9037SOL    HW138570   0.548   0.148   9.545  1.6232 -0.0345  2.6858
 9037SOL    HW238571   0.678   0.156   9.478  0.9819 -1.3371  2.7260
 9038SOL     OW38572   3.986   2.070   2.821 -0.6236  0.1082 -0.2244
 9038SOL    HW138573   3.893   2.079   2.840 -0.6259 -0.9499  0.2721
 9038SOL    HW238574   3.989   2.126   2.744  0.3048  1.3177  0.6793
 9039SOL     OW38575   2.521   0.195  17.537  0.0103 -0.0335  0.2339
 9039SOL    HW138576   2.457   0.192  17.465 -0.4525  0.3763  0.6305
 9039SOL    HW238577   2.585   0.127  17.515  0.0881  0.0821  0.0955
 9040SOL     OW38578   4.428   2.107   7.242  0.5690 -0.0515  0.4863
 9040SOL    HW138579   4.484   2.035   7.215  0.8323  0.3616 -0.0785
 9040SOL    HW238580   4.498   2.166   7.270  0.5665 -0.4993  1.4260
 9041SOL     OW38581   4.318   1.590  14.148  0.3817 -0.4771 -0.0956
 9041SOL    HW138582   4.265   1.512  14.169 -2.4389  1.4152 -0.2274
 9041SOL    HW238583   4.257   1.641  14.096 -0.6399 -0.6793  0.9124
 9042SOL     OW38584   1.573   3.483   9.709  0.2122  0.4623 -0.6230
 9042SOL    HW138585   1.668   3.483   9.723  0.2246 -0.2132 -0.7032
 9042SOL    HW238586   1.559   3.389   9.701 -2.3007  0.9384 -1.7205
 9043SOL     OW38587   0.683   1.138   4.462 -0.2596  0.5382  0.1980
 9043SOL    HW138588   0.597   1.108   4.432  0.3052  0.3134 -1.1986
 9043SOL    HW238589   0.690   1.225   4.423  0.3805 -0.2752 -1.5243
 9044SOL     OW38590   3.070   1.307   7.988 -0.3858 -0.2617  0.3174
 9044SOL    HW138591   3.084   1.260   7.906  1.6955 -1.7765  1.5005
 9044SOL    HW238592   3.156   1.348   8.000 -0.1398 -1.1224  1.5753
 9045SOL     OW38593   0.615   0.987  10.972  0.2182  0.6600 -0.0386
 9045SOL    HW138594   0.670   1.065  10.974 -1.3980  1.7147  3.3246
 9045SOL    HW238595   0.531   1.027  10.951  0.2467  0.7956  0.1034
 9046SOL     OW38596   2.087   2.968  13.021  0.2139  0.3795  0.2432
 9046SOL    HW138597   2.113   2.877  13.005  0.8249  0.7202 -0.6868
 9046SOL    HW238598   2.142   3.014  12.957  0.4046  1.0453  0.8865
 9047SOL     OW38599   3.022   2.056   5.846 -0.3192  0.6114 -0.2687
 9047SOL    HW138600   2.998   2.067   5.754 -1.2039  1.5496  0.0732
 9047SOL    HW238601   3.112   2.085   5.832  0.1604 -0.0677  1.4249
 9048SOL     OW38602   0.589   2.768   1.513 -0.3930  0.7313  0.8700
 9048SOL    HW138603   0.513   2.721   1.480  0.8066 -0.1668 -0.5977
 9048SOL    HW238604   0.562   2.769   1.605 -3.1788  2.0344  0.0204
 9049SOL     OW38605   4.553   0.224   6.579 -0.5925 -0.7590  0.0365
 9049SOL    HW138606   4.535   0.131   6.561 -1.0106 -0.5575 -0.5990
 9049SOL    HW238607   4.536   0.222   6.673 -0.9924 -2.0886 -0.0541
 9050SOL     OW38608   3.478   3.088   3.378  0.1214  0.1193  0.1323
 9050SOL    HW138609   3.504   3.004   3.339  0.1350 -0.8171  2.1361
 9050SOL    HW238610   3.385   3.070   3.393  0.3548 -1.3504 -0.1372
 9051SOL     OW38611   4.152   2.752  13.353 -0.1718  0.5654  0.3691
 9051SOL    HW138612   4.195   2.812  13.413 -0.2234  0.6716  0.3004
 9051SOL    HW238613   4.131   2.675  13.406  3.7165  0.0415  1.1240
 9052SOL     OW38614   0.243   2.129   7.507  0.2046  0.5422 -0.5411
 9052SOL    HW138615   0.174   2.064   7.525 -0.9580  1.5497 -1.3801
 9052SOL    HW238616   0.193   2.209   7.493  2.0446  2.2177  2.5714
 9053SOL     OW38617   2.443   2.629   5.407  0.3917 -0.3047 -0.9371
 9053SOL    HW138618   2.518   2.641   5.348  2.5608 -1.7926  1.5213
 9053SOL    HW238619   2.467   2.551   5.457 -1.3783 -0.8723 -0.9799
 9054SOL     OW38620   4.019   4.554   2.927 -0.0385 -0.2369  1.1930
 9054SOL    HW138621   4.001   4.460   2.920 -1.1390 -0.0381  1.4469
 9054SOL    HW238622   3.948   4.581   2.870  2.1483  0.2889 -1.2491
 9055SOL     OW38623   3.310   1.127  14.672  0.0896 -0.3221 -0.5206
 9055SOL    HW138624   3.349   1.198  14.621  2.2241  0.2189  1.8267
 9055SOL    HW238625   3.320   1.160  14.762  1.5577  1.0032 -1.1554
 9056SOL     OW38626   3.122   4.683   0.468  0.0508  0.4750  0.2859
 9056SOL    HW138627   3.053   4.616   0.464  0.7903 -0.2102 -0.8279
 9056SOL    HW238628   3.190   4.655   0.529 -0.5877  1.9680  1.6964
 9057SOL     OW38629   4.580   0.905  11.671  0.2253  0.0788  0.2051
 9057SOL    HW138630   4.538   0.888  11.586 -1.3329  0.4537  0.8978
 9057SOL    HW238631   4.672   0.902  11.647 -0.1122 -1.4511 -0.9426
 9058SOL     OW38632   2.658   1.443   4.738  0.3677  0.2012 -0.2989
 9058SOL    HW138633   2.603   1.456   4.815  0.4174  0.5589 -0.3226
 9058SOL    HW238634   2.690   1.532   4.725 -1.0100  0.6576 -0.5294
 9059SOL     OW38635   0.819   0.405  10.952 -0.2777 -0.4892  0.2670
 9059SOL    HW138636   0.743   0.361  10.990  0.0179  0.0939  1.5329
 9059SOL    HW238637   0.890   0.341  10.946 -0.6582 -0.9824  0.9993
 9060SOL     OW38638   4.695   1.757   3.555  0.1714  0.0065  0.4967
 9060SOL    HW138639   4.668   1.818   3.487 -0.9428 -1.4660 -0.3987
 9060SOL    HW238640   0.059   1.731   3.533 -0.0083 -0.1721 -0.0300
 9061SOL     OW38641   2.726   3.452   1.721  0.1752 -0.3895 -0.7316
 9061SOL    HW138642   2.683   3.537   1.729 -1.7260 -1.5600  1.6094
 9061SOL    HW238643   2.774   3.475   1.642  2.0879 -0.5915  0.3605
 9062SOL     OW38644   2.062   0.759   4.569  0.1393  0.0698 -0.7162
 9062SOL    HW138645   1.975   0.765   4.528  0.3733 -1.7934 -1.4910
 9062SOL    HW238646   2.058   0.665   4.585  1.5406  0.0822 -0.3279
 9063SOL     OW38647   0.725   0.550   3.249 -0.5862 -0.9647 -0.4456
 9063SOL    HW138648   0.651   0.518   3.197 -1.1628  0.0950 -0.2859
 9063SOL    HW238649   0.767   0.465   3.258  0.2122 -0.5497 -0.2044
 9064SOL     OW38650   0.591   2.137   7.087  0.1785 -0.3048 -0.2030
 9064SOL    HW138651   0.673   2.178   7.060  0.4882 -0.7727  0.0343
 9064SOL    HW238652   0.539   2.161   7.010 -1.7806  1.6176  1.7058
 9065SOL     OW38653   1.592   2.765   4.223 -0.0682 -0.6335 -0.3885
 9065SOL    HW138654   1.576   2.777   4.317  0.0470  2.5277 -0.7725
 9065SOL    HW238655   1.509   2.740   4.184  0.2828 -0.8222 -1.0174
 9066SOL     OW38656   1.258   0.890  11.978 -0.4426  0.3470  0.3145
 9066SOL    HW138657   1.299   0.941  11.909  1.3500 -0.4419  0.8016
 9066SOL    HW238658   1.315   0.814  11.966  0.7004  1.4490 -1.2146
 9067SOL     OW38659   1.817   4.403   6.922 -0.1687  0.4965 -0.1682
 9067SOL    HW138660   1.836   4.387   6.830 -0.8113 -2.4238  0.2086
 9067SOL    HW238661   1.741   4.345   6.932  0.8073 -0.8402 -0.4806
 9068SOL     OW38662   1.724   1.021  15.190 -0.3091 -0.2187  0.2389
 9068SOL    HW138663   1.737   0.986  15.278  1.6622  1.8327  0.7498
 9068SOL    HW238664   1.810   1.006  15.152  0.1524  1.4972  0.5915
 9069SOL     OW38665   0.497   2.557   3.490 -0.3611 -0.4674 -0.1800
 9069SOL    HW138666   0.570   2.496   3.504  0.2073 -0.1282 -1.6763
 9069SOL    HW238667   0.492   2.554   3.395  0.4307 -0.9397 -0.2114
 9070SOL     OW38668   3.175   3.931   6.104  0.1664  0.4209  0.5490
 9070SOL    HW138669   3.115   3.858   6.090 -1.2367  1.7060 -0.1100
 9070SOL    HW238670   3.257   3.881   6.111  1.1857  2.0312 -0.0092
 9071SOL     OW38671   4.650   3.890  10.800 -0.2479  0.3361 -0.0632
 9071SOL    HW138672   4.607   3.976  10.800 -2.4307 -0.7533  1.3601
 9071SOL    HW238673   4.725   3.918  10.853  1.6667 -2.2818 -1.3879
 9072SOL     OW38674   1.755   3.362  15.880 -0.0633 -0.1006  0.2183
 9072SOL    HW138675   1.701   3.348  15.802 -0.6084  2.3121  0.1494
 9072SOL    HW238676   1.682   3.396  15.932  2.6310  1.7566  2.8403
 9073SOL     OW38677   2.725   0.387   0.729  0.5111 -0.8837 -0.3756
 9073SOL    HW138678   2.659   0.422   0.669  0.9316  1.6491  0.6616
 9073SOL    HW238679   2.739   0.301   0.689  1.3466  0.2058 -2.3901
 9074SOL     OW38680   4.126   0.368   2.411  0.5069  0.4544  1.0085
 9074SOL    HW138681   4.116   0.333   2.322  0.7512 -0.6664  1.4224
 9074SOL    HW238682   4.136   0.462   2.393 -1.2786  0.6630  1.0402
 9075SOL     OW38683   1.829   2.838   3.491 -0.0167 -0.5036  0.1318
 9075SOL    HW138684   1.901   2.843   3.553 -0.3208  3.4671  0.1472
 9075SOL    HW238685   1.860   2.771   3.430 -0.6634 -0.3476 -0.3823
 9076SOL     OW38686   1.149   4.011   5.312  0.1597 -0.2593  0.8861
 9076SOL    HW138687   1.211   4.058   5.367  0.3699 -0.6542  0.9860
 9076SOL    HW238688   1.192   3.925   5.307 -0.1590 -0.3948  0.4787
 9077SOL     OW38689   1.073   4.477  11.762  1.0674  0.0779  0.4079
 9077SOL    HW138690   1.138   4.407  11.760  1.4498  0.3942  1.7174
 9077SOL    HW238691   1.129   4.554  11.772  0.4988  0.6360 -0.7153
 9078SOL     OW38692   1.106   0.087   5.401 -0.5669  0.1626 -0.0859
 9078SOL    HW138693   1.047   0.038   5.459 -1.6390  1.0148 -0.4615
 9078SOL    HW238694   1.087   0.172   5.441  2.4372  0.2526  1.1877
 9079SOL     OW38695   3.686   3.406   9.894  0.3115 -0.0778 -0.5101
 9079SOL    HW138696   3.598   3.433   9.919 -0.2155 -1.0561 -1.2821
 9079SOL    HW238697   3.729   3.418   9.979  0.6243  0.1385 -0.6982
 9080SOL     OW38698   1.262   1.022   8.391  0.0921 -0.5481 -0.1591
 9080SOL    HW138699   1.286   0.937   8.354 -1.8025 -1.1514 -0.0426
 9080SOL    HW238700   1.212   1.058   8.318 -0.6083 -1.0361  0.0743
 9081SOL     OW38701   4.307   2.848   1.230  0.2696 -0.2847  0.4414
 9081SOL    HW138702   4.303   2.868   1.323  0.0505  0.8679  0.1855
 9081SOL    HW238703   4.214   2.844   1.206  0.5371  0.9360 -0.8397
 9082SOL     OW38704   0.661   1.540   8.873  0.3457 -0.1336 -0.5157
 9082SOL    HW138705   0.719   1.539   8.949 -1.3396  2.0649  0.7936
 9082SOL    HW238706   0.674   1.453   8.837 -1.5209 -0.6814  0.1671
 9083SOL     OW38707   2.997   2.900   2.408  0.0126 -0.0258  0.3099
 9083SOL    HW138708   3.081   2.881   2.365 -0.2043  0.3151 -0.2648
 9083SOL    HW238709   2.951   2.817   2.419 -1.0493  0.7987  2.0473
 9084SOL     OW38710   4.417   0.802   7.040 -0.0293 -0.3407 -0.1985
 9084SOL    HW138711   4.355   0.748   7.089 -0.3538  0.0985 -0.1202
 9084SOL    HW238712   4.431   0.867   7.109  1.2318 -1.2116  0.3717
 9085SOL     OW38713   0.846   3.775  15.320 -0.4881  0.1493  0.2026
 9085SOL    HW138714   0.900   3.749  15.245 -0.9843 -1.8302  0.5257
 9085SOL    HW238715   0.844   3.689  15.362  1.0645 -0.0005 -0.0211
 9086SOL     OW38716   4.008   0.805   5.467  0.7952  0.0529  0.2331
 9086SOL    HW138717   3.989   0.720   5.428  0.8012  1.0950 -2.0688
 9086SOL    HW238718   3.920   0.841   5.481  0.7420 -0.7305  1.8883
 9087SOL     OW38719   0.570   0.588   6.739  0.9411  0.2548 -0.6210
 9087SOL    HW138720   0.513   0.522   6.700 -0.0459 -0.4652  1.9975
 9087SOL    HW238721   0.653   0.560   6.701  0.9431 -0.4172 -0.1203
 9088SOL     OW38722   4.712   0.130   8.652 -0.1016  0.5195  0.0068
 9088SOL    HW138723   4.659   0.051   8.657  0.0552  0.4169  0.0617
 9088SOL    HW238724   4.667   0.184   8.587 -3.3243 -0.0163  1.8047
 9089SOL     OW38725   1.901   2.078  12.736 -0.1354 -0.1580  0.1288
 9089SOL    HW138726   1.957   2.005  12.763 -0.1376 -0.8304 -1.6866
 9089SOL    HW238727   1.954   2.155  12.757  2.6469 -2.7060  2.6120
 9090SOL     OW38728   0.595   2.183   7.880 -0.1202  0.1141 -0.6200
 9090SOL    HW138729   0.626   2.156   7.794  1.1946 -0.7400  0.1228
 9090SOL    HW238730   0.625   2.105   7.926  1.9297  0.7875 -0.8254
 9091SOL     OW38731   2.930   4.429   3.854  0.2007  0.2809  0.3724
 9091SOL    HW138732   2.876   4.460   3.781 -0.2703 -1.9387 -0.2244
 9091SOL    HW238733   2.951   4.516   3.889 -0.0593  0.9010 -1.0154
 9092SOL     OW38734   2.833   2.301   1.640  0.3297 -0.1803 -0.3712
 9092SOL    HW138735   2.841   2.212   1.606  0.8077 -0.9240  1.6753
 9092SOL    HW238736   2.918   2.301   1.685  0.3000  0.3772 -0.3056
 9093SOL     OW38737   4.395   1.260   6.789 -0.4507 -0.3019  0.4590
 9093SOL    HW138738   4.423   1.253   6.880  0.7545  1.3035  0.2101
 9093SOL    HW238739   4.322   1.321   6.795 -0.8740 -0.9451  1.9124
 9094SOL     OW38740   3.537   2.022   6.361 -0.0662 -0.7917  0.4397
 9094SOL    HW138741   3.629   2.037   6.341 -0.1738  0.5094  0.9092
 9094SOL    HW238742   3.504   2.104   6.324  0.8976 -0.7080 -0.2331
 9095SOL     OW38743   0.150   1.195   6.811  0.2419  0.2103 -0.1255
 9095SOL    HW138744   0.072   1.184   6.866 -0.3678 -0.8843 -1.1879
 9095SOL    HW238745   0.214   1.228   6.874  0.5906  0.1308 -0.4431
 9096SOL     OW38746   2.476   2.263   4.904 -0.3760  0.1227 -0.0035
 9096SOL    HW138747   2.499   2.257   4.811 -0.6933  0.9476 -0.1335
 9096SOL    HW238748   2.393   2.309   4.893  0.5831  2.4273  2.3620
 9097SOL     OW38749   4.398   4.407   3.119  0.1802 -0.0204 -0.1054
 9097SOL    HW138750   4.483   4.389   3.078  0.8330  1.3617  0.6471
 9097SOL    HW238751   4.362   4.475   3.062  1.0545 -1.2208 -2.0782
 9098SOL     OW38752   3.480   0.238   6.994 -0.6341 -0.1305 -0.4511
 9098SOL    HW138753   3.515   0.220   6.907  0.3716  1.2268 -0.3295
 9098SOL    HW238754   3.549   0.216   7.057  1.4210  2.6445 -1.7276
 9099SOL     OW38755   1.810   0.231   3.663 -0.4989  0.2516  0.6539
 9099SOL    HW138756   1.856   0.148   3.675  0.7718  0.7347 -0.7666
 9099SOL    HW238757   1.776   0.250   3.751  0.4163  2.1691  0.5966
 9100SOL     OW38758   0.874   4.558   2.819  0.0057 -0.6429 -0.2702
 9100SOL    HW138759   0.823   4.498   2.765 -0.4109  0.0555 -0.6569
 9100SOL    HW238760   0.929   4.594   2.750 -1.3293  1.3446 -0.3148
 9101SOL     OW38761   4.134   4.052   4.738  0.1073 -0.6380  0.0071
 9101SOL    HW138762   4.083   4.056   4.657  0.0811 -0.4906  0.0307
 9101SOL    HW238763   4.185   4.133   4.741 -2.6083  1.0115  1.0682
 9102SOL     OW38764   0.345   0.545   8.427 -0.4304 -0.2832  0.0800
 9102SOL    HW138765   0.310   0.530   8.514 -0.9351 -2.9477 -0.5814
 9102SOL    HW238766   0.277   0.515   8.367  1.0479 -1.5544 -0.9623
 9103SOL     OW38767   2.977   2.780   0.932  0.6563  0.1065  0.0712
 9103SOL    HW138768   2.893   2.735   0.927  0.6527  0.1923 -0.5940
 9103SOL    HW238769   3.027   2.717   0.984  1.2381  0.9171  0.4940
 9104SOL     OW38770   3.328   4.010   2.047 -0.5611  0.4985  0.2709
 9104SOL    HW138771   3.339   4.105   2.039 -1.0422  0.5101 -0.3154
 9104SOL    HW238772   3.403   3.988   2.101  0.5908 -1.9291 -2.3488
 9105SOL     OW38773   1.545   4.397   0.186  0.0182  0.6139 -0.1111
 9105SOL    HW138774   1.489   4.362   0.116  0.7361  0.9578 -0.8671
 9105SOL    HW238775   1.599   4.461   0.139  1.4915 -0.4110  0.1962
 9106SOL     OW38776   1.434   1.057   6.376  0.0861 -0.1700  0.4410
 9106SOL    HW138777   1.346   1.060   6.413  0.4039  1.8128  1.0632
 9106SOL    HW238778   1.435   0.982   6.317 -2.9547 -1.9980  2.6823
 9107SOL     OW38779   1.418   0.452   8.723 -0.6274  0.1149 -0.7110
 9107SOL    HW138780   1.342   0.399   8.701 -0.3118 -1.1462  1.1799
 9107SOL    HW238781   1.393   0.468   8.814 -0.6810  1.4721 -0.9692
 9108SOL     OW38782   4.687   3.234  15.122 -0.4370 -0.4787  0.5224
 9108SOL    HW138783   4.722   3.154  15.083  2.1487  0.2197  1.4293
 9108SOL    HW238784   4.649   3.273  15.043 -1.0202 -0.3470  0.8644
 9109SOL     OW38785   0.778   4.157  17.539 -0.8898 -0.4130  0.0328
 9109SOL    HW138786   0.872   4.167  17.556 -0.9653  1.5796 -0.7784
 9109SOL    HW238787   0.773   4.179  17.447 -2.1615 -1.6791 -0.1978
 9110SOL     OW38788   0.605   4.531  16.592  0.1620  0.0618 -0.1250
 9110SOL    HW138789   0.525   4.532  16.643 -1.2609  0.8646 -2.3746
 9110SOL    HW238790   0.631   4.439  16.598  2.7800  0.6223 -2.5202
 9111SOL     OW38791   3.779   4.026   4.270  0.3688  0.4010  0.4996
 9111SOL    HW138792   3.826   4.109   4.263  0.8689  0.2816  2.4009
 9111SOL    HW238793   3.692   4.057   4.248  0.9373  0.2546 -1.9327
 9112SOL     OW38794   0.462   1.579  17.347  0.4740 -0.5430 -0.4275
 9112SOL    HW138795   0.379   1.627  17.340  0.3558 -0.3541  2.1262
 9112SOL    HW238796   0.471   1.535  17.262  0.2729  1.2334 -1.3645
 9113SOL     OW38797   0.010   1.760  12.424 -0.0261 -0.7364 -0.2010
 9113SOL    HW138798   4.653   1.794  12.459  0.6011  0.4063  0.1649
 9113SOL    HW238799   0.079   1.775  12.489 -1.3662 -0.2307  1.1056
 9114SOL     OW38800   0.779   0.160   5.936 -0.4569 -0.1590 -0.3152
 9114SOL    HW138801   0.758   0.224   5.867 -1.8425  1.0443  1.2277
 9114SOL    HW238802   0.855   0.199   5.978  0.9835 -3.1789 -0.1468
 9115SOL     OW38803   4.477   4.357   5.316 -0.4797 -0.3461 -0.2794
 9115SOL    HW138804   4.434   4.281   5.356  0.8337 -1.7178 -1.4625
 9115SOL    HW238805   4.419   4.376   5.242  1.1740  2.3448 -0.8887
 9116SOL     OW38806   2.044   1.924   6.951  0.9196  0.2755  0.0191
 9116SOL    HW138807   2.044   1.832   6.980 -0.9003  0.3811  0.3389
 9116SOL    HW238808   2.103   1.919   6.876 -1.6398  0.4645 -1.9751
 9117SOL     OW38809   3.391   0.139  14.442 -0.0425 -0.0546  0.1443
 9117SOL    HW138810   3.315   0.173  14.489 -0.3248 -0.0036 -0.3555
 9117SOL    HW238811   3.457   0.128  14.511 -1.2254  0.1366  1.3155
 9118SOL     OW38812   1.598   1.596   4.501 -0.1342  0.1372 -0.8501
 9118SOL    HW138813   1.655   1.536   4.549  0.1114  0.0622 -1.2381
 9118SOL    HW238814   1.541   1.625   4.573 -1.1581 -3.3456 -0.2701
 9119SOL     OW38815   3.329   2.405   0.244 -0.3518 -0.5118 -0.4771
 9119SOL    HW138816   3.301   2.326   0.290  0.2098 -1.0798 -1.0995
 9119SOL    HW238817   3.297   2.467   0.309 -0.5264 -0.7347 -0.3523
 9120SOL     OW38818   1.017   1.485   7.081 -0.1694 -0.4923 -0.3772
 9120SOL    HW138819   0.943   1.529   7.123  1.0225  0.0115  1.2026
 9120SOL    HW238820   1.074   1.556   7.051 -1.1547  0.9767  1.1782
 9121SOL     OW38821   3.995   1.037  13.914 -0.1823  0.4892 -0.0322
 9121SOL    HW138822   3.952   1.084  13.986 -2.2830  0.1022 -1.0168
 9121SOL    HW238823   4.086   1.064  13.919 -0.4619  1.1227  1.5788
 9122SOL     OW38824   2.498   4.302  12.748 -0.2730 -0.1344 -0.0337
 9122SOL    HW138825   2.587   4.276  12.726 -0.2675  0.4422 -0.6688
 9122SOL    HW238826   2.456   4.317  12.664  0.4079 -1.2054 -0.5671
 9123SOL     OW38827   1.630   4.320   4.160  0.0455  0.1880 -0.3490
 9123SOL    HW138828   1.644   4.352   4.249  0.4682  0.8352 -0.6525
 9123SOL    HW238829   1.582   4.394   4.123  3.1799  2.2151 -0.2589
 9124SOL     OW38830   1.973   1.961   0.520  0.5188 -0.0369 -0.3629
 9124SOL    HW138831   2.020   1.914   0.589 -3.5853 -0.8784  1.8385
 9124SOL    HW238832   1.927   1.895   0.468 -2.2515  1.2351  0.4734
 9125SOL     OW38833   3.661   3.550  15.202 -0.3654 -0.5113  0.3708
 9125SOL    HW138834   3.707   3.630  15.227  0.1113 -0.5082 -0.5214
 9125SOL    HW238835   3.578   3.550  15.249 -1.6750 -1.9686 -1.9540
 9126SOL     OW38836   1.466   2.471  17.460 -0.1908 -0.3069  0.4177
 9126SOL    HW138837   1.473   2.472  17.556  0.5855  1.4660  0.3459
 9126SOL    HW238838   1.381   2.514  17.450 -1.5189 -2.9957  0.0997
 9127SOL     OW38839   1.599   2.993  16.197  0.0659  0.3155  0.2298
 9127SOL    HW138840   1.612   2.926  16.264 -1.2656 -2.1709 -1.9868
 9127SOL    HW238841   1.647   2.972  16.117 -2.0094  0.9147 -1.1662
 9128SOL     OW38842   1.883   2.818   1.851 -0.4961 -0.0737  0.1510
 9128SOL    HW138843   1.898   2.848   1.761  3.3737  1.5872  1.3544
 9128SOL    HW238844   1.897   2.724   1.846 -0.3469  0.0783 -2.5442
 9129SOL     OW38845   2.784   3.937   8.613  0.2145  0.8044  0.3202
 9129SOL    HW138846   2.870   3.978   8.618  0.3999  0.2673  1.4565
 9129SOL    HW238847   2.726   3.994   8.664  1.6114  1.0494  1.6291
 9130SOL     OW38848   0.764   3.312   5.993 -0.7149 -0.2174 -0.1981
 9130SOL    HW138849   0.774   3.324   5.898 -1.1835 -1.1605 -0.3663
 9130SOL    HW238850   0.760   3.217   5.982  0.6381 -0.1111 -1.6876
 9131SOL     OW38851   1.148   3.316   5.791  0.4838  0.2394  0.6132
 9131SOL    HW138852   1.216   3.380   5.814 -1.0430  1.9736  0.2879
 9131SOL    HW238853   1.124   3.273   5.873 -0.0073 -1.2771 -0.3284
 9132SOL     OW38854   4.522   0.367   2.163  0.2654  0.0674 -0.0129
 9132SOL    HW138855   4.559   0.281   2.143  2.1979  1.0150 -0.5853
 9132SOL    HW238856   4.539   0.388   2.255 -0.4415 -0.7533  0.3016
 9133SOL     OW38857   3.482   2.825   1.135  0.1898 -0.6498 -0.4789
 9133SOL    HW138858   3.473   2.868   1.050  0.7847 -2.2076 -1.3141
 9133SOL    HW238859   3.413   2.759   1.138  0.8190 -1.3872 -2.2027
 9134SOL     OW38860   3.065   0.768   3.211 -0.9365 -0.0309  0.1525
 9134SOL    HW138861   3.105   0.730   3.289 -3.4798 -0.2428  1.3811
 9134SOL    HW238862   3.139   0.770   3.151 -0.9229  1.2744  0.2129
 9135SOL     OW38863   2.107   1.749   2.297 -0.2262  0.5330 -0.5282
 9135SOL    HW138864   2.135   1.679   2.238 -1.6097 -0.0558 -0.5017
 9135SOL    HW238865   2.141   1.830   2.259  0.3633  0.1529 -0.8141
 9136SOL     OW38866   0.343   3.258  11.880 -0.3141  0.6587 -0.3811
 9136SOL    HW138867   0.414   3.285  11.821 -0.9179  1.6535 -0.6716
 9136SOL    HW238868   0.328   3.168  11.852  1.7047  0.7381 -1.6982
 9137SOL     OW38869   3.368   3.223   9.478 -0.5464  0.3669  0.1966
 9137SOL    HW138870   3.357   3.212   9.572  1.0251  1.5377  0.5271
 9137SOL    HW238871   3.383   3.317   9.461  1.8496 -0.1639 -0.6546
 9138SOL     OW38872   2.583   3.807   7.937 -0.1253 -0.1450  0.0286
 9138SOL    HW138873   2.571   3.748   8.011  2.5093 -2.2339 -1.2019
 9138SOL    HW238874   2.618   3.749   7.869  0.3180  0.2042 -0.0426
 9139SOL     OW38875   0.183   3.627   4.711 -0.3421 -0.1693  0.3098
 9139SOL    HW138876   0.246   3.636   4.640 -1.8685 -0.1397 -1.0490
 9139SOL    HW238877   0.190   3.532   4.718 -0.7096 -0.3353 -1.4369
 9140SOL     OW38878   1.484   4.006   5.893 -0.0860 -0.2474 -0.5841
 9140SOL    HW138879   1.564   3.957   5.876  0.8785  0.8459  0.7385
 9140SOL    HW238880   1.492   4.014   5.988  1.8725 -2.9904 -0.5111
 9141SOL     OW38881   2.206   0.452  16.250 -0.2457  0.3041 -0.5034
 9141SOL    HW138882   2.226   0.370  16.295  1.2169  0.9689  0.0423
 9141SOL    HW238883   2.144   0.421  16.184  0.1276  1.2743 -1.2883
 9142SOL     OW38884   0.095   0.141   9.194  0.5194 -0.2855 -0.0105
 9142SOL    HW138885   0.032   0.070   9.206 -0.3545  0.7503  1.6098
 9142SOL    HW238886   0.050   0.200   9.255 -2.5565 -0.9718 -1.6175
 9143SOL     OW38887   1.931   0.430  11.668  0.0771  0.1056 -0.1882
 9143SOL    HW138888   1.917   0.456  11.759  1.5502  1.2073 -0.2795
 9143SOL    HW238889   1.973   0.344  11.673  1.0355  0.4326 -2.4917
 9144SOL     OW38890   1.403   4.210   0.007  0.3122  0.1028 -0.4623
 9144SOL    HW138891   1.453   4.130  17.697 -2.8426 -1.9972  0.0687
 9144SOL    HW238892   1.324   4.182   0.054  1.0504  0.9097  1.2569
 9145SOL     OW38893   1.535   3.902   7.958  0.3304  0.8216  0.5845
 9145SOL    HW138894   1.489   3.954   8.023  1.4645  1.0076  1.2342
 9145SOL    HW238895   1.467   3.911   7.891  1.1786 -0.1995 -0.4440
 9146SOL     OW38896   0.785   0.828  13.152  0.5471  0.4560  0.1194
 9146SOL    HW138897   0.767   0.781  13.070 -2.2135 -0.5738  1.2925
 9146SOL    HW238898   0.710   0.802  13.206 -0.8495  3.1311 -0.5227
 9147SOL     OW38899   2.138   1.993   8.856 -0.2032 -0.2650  0.0775
 9147SOL    HW138900   2.092   1.924   8.809 -0.5406  0.0187 -0.0092
 9147SOL    HW238901   2.228   1.969   8.837 -0.5194 -0.1497 -1.5725
 9148SOL     OW38902   1.728   2.307   7.868  0.0788 -0.1309 -0.3810
 9148SOL    HW138903   1.692   2.357   7.795  1.4114  0.1663 -0.8322
 9148SOL    HW238904   1.658   2.328   7.930 -1.6804 -2.7121 -1.5013
 9149SOL     OW38905   2.436   4.581  17.144 -0.3834  0.3178 -0.0063
 9149SOL    HW138906   2.420   4.634  17.066 -0.9009  0.3996  0.1579
 9149SOL    HW238907   2.350   4.583  17.184 -0.7622  0.8397 -0.8326
 9150SOL     OW38908   0.269   4.383  12.995 -0.6275  0.0718  0.7183
 9150SOL    HW138909   0.284   4.401  12.903  0.9366  1.3466  1.2128
 9150SOL    HW238910   0.206   4.448  13.026  1.8338  1.7952  2.1564
 9151SOL     OW38911   0.576   2.043   5.739  0.2794  0.2474 -0.1995
 9151SOL    HW138912   0.592   2.010   5.827  3.8599 -0.9690 -1.2847
 9151SOL    HW238913   0.566   2.138   5.749 -0.5963  0.0242  0.9804
 9152SOL     OW38914   3.190   4.231  17.138  0.0667 -0.1646  0.0405
 9152SOL    HW138915   3.254   4.234  17.067 -0.9745  0.0912 -0.8820
 9152SOL    HW238916   3.135   4.303  17.109 -1.0157 -0.6333  0.9241
 9153SOL     OW38917   0.596   2.489   1.736  0.2689 -0.3657 -0.2327
 9153SOL    HW138918   0.551   2.412   1.770  1.6058  0.1113  2.5941
 9153SOL    HW238919   0.678   2.492   1.785  0.4135 -0.6417 -0.4612
 9154SOL     OW38920   1.004   3.056   8.170 -1.0406 -0.4201 -0.7372
 9154SOL    HW138921   0.918   3.072   8.130 -1.3620 -1.7936 -0.5847
 9154SOL    HW238922   1.058   3.098   8.103 -1.6817  1.4933 -0.0676
 9155SOL     OW38923   3.510   0.535   5.478  0.6177  0.4702  0.3907
 9155SOL    HW138924   3.429   0.489   5.455 -0.2897  1.9886  0.6176
 9155SOL    HW238925   3.534   0.581   5.397 -0.9492 -0.2759 -0.5024
 9156SOL     OW38926   3.564   1.624   7.075 -0.1065 -0.0170  0.2421
 9156SOL    HW138927   3.628   1.686   7.040  0.1096 -0.5921 -0.3830
 9156SOL    HW238928   3.546   1.577   6.993 -1.2976  0.7606  0.0508
 9157SOL     OW38929   1.829   3.155  16.511 -0.3496  0.2225  0.4637
 9157SOL    HW138930   1.846   3.244  16.542  2.2363 -0.4296  0.9532
 9157SOL    HW238931   1.750   3.124  16.556  0.1419 -0.0873  1.1041
 9158SOL     OW38932   3.299   3.405   6.915  0.7836  0.4473  0.5696
 9158SOL    HW138933   3.318   3.431   7.005  1.3005 -0.8817  0.8502
 9158SOL    HW238934   3.222   3.459   6.897 -0.2507 -1.7839 -1.6406
 9159SOL     OW38935   2.789   3.966   6.201 -0.4067  0.2397 -0.2328
 9159SOL    HW138936   2.835   3.888   6.170 -1.1985  0.4625 -1.9530
 9159SOL    HW238937   2.705   3.955   6.156 -1.1963 -0.0688  1.3335
 9160SOL     OW38938   2.545   2.239   7.022 -0.2768 -0.2190 -0.1776
 9160SOL    HW138939   2.501   2.286   7.092  1.6656  0.0047  0.8908
 9160SOL    HW238940   2.590   2.172   7.074  1.7264 -1.3918 -3.3730
 9161SOL     OW38941   0.115   2.132  16.866 -0.2038 -0.3135 -0.2186
 9161SOL    HW138942   0.116   2.042  16.832 -1.6401 -0.5657  0.3987
 9161SOL    HW238943   0.209   2.138  16.850 -0.1725 -0.2779 -0.0224
 9162SOL     OW38944   1.566   0.307   4.222  0.2439  0.2708  0.6259
 9162SOL    HW138945   1.647   0.322   4.271 -0.6994  1.3346  1.8447
 9162SOL    HW238946   1.528   0.394   4.212 -0.0963  0.3906  3.0490
 9163SOL     OW38947   0.109   1.696   6.362 -0.1384  0.3121 -0.1128
 9163SOL    HW138948   0.041   1.675   6.300 -0.1582 -0.7101  0.2566
 9163SOL    HW238949   0.161   1.615   6.364  1.6855  1.4684 -0.0851
 9164SOL     OW38950   0.592   0.101   9.162  0.0379 -0.1605 -0.2117
 9164SOL    HW138951   0.613   0.156   9.237 -0.6986 -0.8875  0.5319
 9164SOL    HW238952   0.499   0.094   9.181  0.1074 -1.5818 -0.3950
 9165SOL     OW38953   2.078   3.015   4.777 -0.7560 -0.0951 -0.0916
 9165SOL    HW138954   2.071   2.930   4.821  0.8956  0.5435  1.3460
 9165SOL    HW238955   2.019   2.988   4.706 -1.0507 -0.8089  0.4158
 9166SOL     OW38956   1.059   0.091   8.920  0.3272 -0.2419  0.0719
 9166SOL    HW138957   1.033   0.075   8.829 -0.6058  0.2347  0.2481
 9166SOL    HW238958   0.974   0.115   8.957  1.7909  3.6055  0.8841
 9167SOL     OW38959   0.578   0.798   2.249  0.3021 -0.1860 -0.1303
 9167SOL    HW138960   0.537   0.869   2.298  0.7894 -0.1618  0.2417
 9167SOL    HW238961   0.559   0.726   2.309  0.6619 -0.6076 -0.5191
 9168SOL     OW38962   0.599   0.276  12.390 -0.1865 -0.4052 -0.0703
 9168SOL    HW138963   0.600   0.181  12.375 -2.0159 -0.5980  1.0668
 9168SOL    HW238964   0.596   0.310  12.301 -0.9232 -2.6156 -0.8999
 9169SOL     OW38965   1.433   2.830   3.666  0.4034 -0.8642 -0.2146
 9169SOL    HW138966   1.445   2.780   3.585 -0.3322  0.5171 -1.1845
 9169SOL    HW238967   1.471   2.916   3.646 -2.3431  0.4386  0.1265
 9170SOL     OW38968   1.650   0.784   7.040 -0.1448 -0.1215 -0.4964
 9170SOL    HW138969   1.637   0.756   6.950 -2.2081  2.8084 -1.1385
 9170SOL    HW238970   1.563   0.757   7.071 -0.3449  0.0886 -0.8823
 9171SOL     OW38971   1.860   1.597  15.837 -0.5779 -0.0750  0.0402
 9171SOL    HW138972   1.923   1.557  15.778 -0.3843  1.2462 -0.6562
 9171SOL    HW238973   1.787   1.591  15.775 -0.4214  2.1266 -0.3840
 9172SOL     OW38974   1.599   3.730   7.742  0.2859  0.1940 -0.0302
 9172SOL    HW138975   1.595   3.780   7.823  0.9757  1.1392 -0.5760
 9172SOL    HW238976   1.510   3.697   7.727  0.2544 -0.9359  2.7109
 9173SOL     OW38977   2.067   1.162   9.145 -0.1014 -0.1082  0.5341
 9173SOL    HW138978   2.152   1.122   9.164 -0.3402 -1.0002 -0.2297
 9173SOL    HW238979   2.069   1.187   9.052 -0.6573  2.0037  1.1011
 9174SOL     OW38980   2.062   3.995  10.957 -0.0142 -0.1513 -0.1499
 9174SOL    HW138981   2.100   3.925  10.905  2.3067  0.3951  0.8327
 9174SOL    HW238982   1.973   3.984  10.923  0.4361 -2.7699 -0.4923
 9175SOL     OW38983   4.372   3.260   3.813  0.1692  0.5138 -0.0579
 9175SOL    HW138984   4.442   3.296   3.760 -0.2635  0.0334 -0.9555
 9175SOL    HW238985   4.351   3.183   3.761  0.7198  0.6457 -0.4681
 9176SOL     OW38986   3.316   0.996  11.525 -0.2938  0.1709 -0.2885
 9176SOL    HW138987   3.267   1.009  11.606 -1.0395 -3.6483 -0.1505
 9176SOL    HW238988   3.248   0.954  11.472 -1.4741  0.3425  1.0965
 9177SOL     OW38989   1.664   1.039   8.018  0.1701 -0.1913 -0.3882
 9177SOL    HW138990   1.671   1.027   8.113 -1.2148 -0.9467 -0.3927
 9177SOL    HW238991   1.744   1.016   7.970 -0.0896 -0.6923 -0.5706
 9178SOL     OW38992   4.333   2.057   5.683 -0.6216 -0.5579 -0.2957
 9178SOL    HW138993   4.270   2.037   5.753  0.8029  3.1350  2.0000
 9178SOL    HW238994   4.332   2.152   5.682  1.7099 -0.5633 -2.4023
 9179SOL     OW38995   3.597   3.958  15.085 -0.1118 -0.0628  0.6985
 9179SOL    HW138996   3.545   4.007  15.022  1.1456 -0.2608 -0.4793
 9179SOL    HW238997   3.679   3.965  15.036  1.2419  0.1369  2.9706
 9180SOL     OW38998   0.354   1.009  16.975 -0.3824  0.1871  0.0860
 9180SOL    HW138999   0.309   1.049  16.901 -1.7886  0.0613  0.8806
 9180SOL    HW239000   0.299   0.930  16.975  0.0631 -0.1245  0.0869
 9181SOL     OW39001   3.220   2.054   9.349 -0.5143 -0.3771  0.0628
 9181SOL    HW139002   3.164   2.034   9.424 -0.5018  1.4857  0.5701
 9181SOL    HW239003   3.304   2.016   9.376 -1.0472 -1.3041  0.4096
 9182SOL     OW39004   3.046   2.492   7.751  0.7451  0.8333 -0.0972
 9182SOL    HW139005   3.099   2.446   7.685 -0.7039 -2.3138  0.9283
 9182SOL    HW239006   3.104   2.476   7.826 -1.4870 -0.4508  1.3495
 9183SOL     OW39007   2.711   3.762  16.437  0.3721 -0.2126 -0.4064
 9183SOL    HW139008   2.637   3.822  16.448  0.8484  0.2314  0.3581
 9183SOL    HW239009   2.792   3.810  16.419 -0.4209  0.6703 -1.6382
 9184SOL     OW39010   2.781   2.654   3.415  0.4563  0.0093  0.1487
 9184SOL    HW139011   2.814   2.677   3.328  1.2059  0.4015  0.5440
 9184SOL    HW239012   2.853   2.690   3.466 -0.1591  0.1058  0.9556
 9185SOL     OW39013   1.255   4.352  14.678 -0.6046  0.1829  0.0461
 9185SOL    HW139014   1.162   4.332  14.669  0.0735 -1.5895 -2.9926
 9185SOL    HW239015   1.272   4.295  14.753 -1.3435  1.0842  0.8971
 9186SOL     OW39016   0.029   1.445   7.542  0.4676 -0.3041 -0.4295
 9186SOL    HW139017   0.059   1.364   7.583 -0.1341  0.1468  0.8885
 9186SOL    HW239018   0.039   1.505   7.616 -2.6444  3.3880 -3.0038
 9187SOL     OW39019   2.477   2.362   2.305  0.1706  0.6481  0.3548
 9187SOL    HW139020   2.477   2.361   2.209  0.5117 -0.0515  0.3603
 9187SOL    HW239021   2.528   2.443   2.313 -1.3430  1.5797  0.5934
 9188SOL     OW39022   2.516   0.395   5.139 -0.4209  0.2674 -0.2536
 9188SOL    HW139023   2.438   0.439   5.105  1.8777  3.9193 -0.7743
 9188SOL    HW239024   2.555   0.465   5.190 -1.0640 -1.1590  2.1790
 9189SOL     OW39025   0.660   1.624   4.470 -0.0700 -0.3892 -0.1093
 9189SOL    HW139026   0.660   1.683   4.545 -3.2483 -0.2273 -0.2454
 9189SOL    HW239027   0.633   1.677   4.395  1.2451  0.1199 -0.2335
 9190SOL     OW39028   0.327   0.795   7.517  0.4700  0.6988 -0.1227
 9190SOL    HW139029   0.359   0.722   7.462 -0.9918 -0.1181  0.1134
 9190SOL    HW239030   0.305   0.750   7.599 -1.3211 -0.5763 -1.2981
 9191SOL     OW39031   0.955   0.097  15.460  0.3272  0.0700 -0.4868
 9191SOL    HW139032   0.963   0.062  15.549 -0.1708  0.3541 -0.3281
 9191SOL    HW239033   0.897   0.028  15.427  0.0598  0.3013 -0.4936
 9192SOL     OW39034   2.098   1.186   2.386  0.1219 -0.4854  0.3870
 9192SOL    HW139035   2.080   1.223   2.299 -1.7937 -0.5298  0.7549
 9192SOL    HW239036   2.010   1.193   2.423 -0.6242 -0.3927 -1.4202
 9193SOL     OW39037   1.331   0.086   7.641  0.0039 -0.6152  0.0431
 9193SOL    HW139038   1.327   0.181   7.651  0.3241 -0.5216 -0.7113
 9193SOL    HW239039   1.381   0.050   7.715  1.3350  1.0562 -0.0360
 9194SOL     OW39040   1.618   3.055   6.487 -0.1121 -0.4037  0.0356
 9194SOL    HW139041   1.585   3.145   6.478  1.3119  0.0363 -0.9167
 9194SOL    HW239042   1.600   3.015   6.402  2.0911  1.2036 -1.2054
 9195SOL     OW39043   1.485   2.867   7.971 -0.1814  0.1684  0.1309
 9195SOL    HW139044   1.507   2.800   8.035 -2.7396  1.1146  2.0210
 9195SOL    HW239045   1.568   2.905   7.940  0.4237  0.3756  2.0024
 9196SOL     OW39046   0.212   3.670   6.808 -0.1344 -1.0532  0.2188
 9196SOL    HW139047   0.290   3.707   6.766 -0.1066  0.2064  1.3762
 9196SOL    HW239048   0.163   3.636   6.734 -2.1818  1.2763  0.5143
 9197SOL     OW39049   2.540   2.190   5.810 -0.0614 -0.2064 -0.6434
 9197SOL    HW139050   2.609   2.256   5.806  0.6460 -0.9494 -0.6385
 9197SOL    HW239051   2.471   2.242   5.767 -0.4936 -0.6052 -0.4296
 9198SOL     OW39052   1.784   0.983   4.584 -0.4549 -0.9261 -0.2442
 9198SOL    HW139053   1.805   1.010   4.495 -1.3450 -0.3930 -0.2944
 9198SOL    HW239054   1.866   0.995   4.632 -0.9773 -0.2676  0.4941
 9199SOL     OW39055   4.297   3.934  12.466  0.0820  0.3506 -0.4609
 9199SOL    HW139056   4.353   3.900  12.535  0.4128  0.8499 -0.4781
 9199SOL    HW239057   4.319   4.027  12.470  0.0392  0.3933 -1.1789
 9200SOL     OW39058   2.130   1.722   8.698 -0.3288  0.1246 -0.7455
 9200SOL    HW139059   2.188   1.688   8.765 -0.5092 -3.0483 -2.1922
 9200SOL    HW239060   2.113   1.645   8.644  0.3943 -0.1359 -0.6025
 9201SOL     OW39061   2.465   2.496   2.587  0.2112 -0.3500  0.0770
 9201SOL    HW139062   2.532   2.535   2.531 -1.3135  1.3825 -0.5185
 9201SOL    HW239063   2.451   2.412   2.542 -0.1651  0.0713 -0.5880
 9202SOL     OW39064   4.343   3.831   6.397 -0.0079 -0.7160  0.1128
 9202SOL    HW139065   4.436   3.843   6.413 -0.2500  2.1559 -0.5864
 9202SOL    HW239066   4.340   3.736   6.390  1.3336 -0.8855  2.1117
 9203SOL     OW39067   2.764   0.167  16.130  0.6383 -0.6909 -0.1987
 9203SOL    HW139068   2.761   0.210  16.044  1.4541 -1.1641 -0.4654
 9203SOL    HW239069   2.669   0.159  16.137  0.6629 -0.2210  0.6520
 9204SOL     OW39070   0.948   3.344  11.110 -0.3282  0.1644 -0.3633
 9204SOL    HW139071   1.021   3.403  11.095  0.3460 -0.6441 -0.2227
 9204SOL    HW239072   0.877   3.381  11.056 -1.1116 -1.0260 -0.1586
 9205SOL     OW39073   1.405   4.458   3.476 -0.5047 -0.3485  0.9506
 9205SOL    HW139074   1.440   4.541   3.510  0.7819  1.3321 -4.5818
 9205SOL    HW239075   1.315   4.456   3.509 -0.3354  2.9950  1.6492
 9206SOL     OW39076   1.405   3.672   4.178  0.3522  0.2370  0.1620
 9206SOL    HW139077   1.480   3.622   4.211  1.2067  0.1136 -1.9347
 9206SOL    HW239078   1.443   3.751   4.140 -0.8196  0.9962  0.5666
 9207SOL     OW39079   3.083   1.724   3.107  0.2541  0.1517  0.3131
 9207SOL    HW139080   2.988   1.720   3.099  0.2432 -0.8577  0.9435
 9207SOL    HW239081   3.096   1.659   3.176  0.3644 -0.0926  0.0652
 9208SOL     OW39082   2.664   2.948   3.136  0.5392 -0.6822 -0.3678
 9208SOL    HW139083   2.642   3.011   3.204  0.5144 -1.3894  0.2814
 9208SOL    HW239084   2.710   2.987   3.062 -0.7998  0.2503 -0.7019
 9209SOL     OW39085   1.317   2.899   2.605  0.3881  0.2634 -0.3505
 9209SOL    HW139086   1.331   2.923   2.697  0.2261  0.2243 -0.3168
 9209SOL    HW239087   1.344   2.807   2.609  2.0591  0.7847  0.9461
 9210SOL     OW39088   1.484   2.408   4.446 -0.3988 -0.1477  0.1302
 9210SOL    HW139089   1.403   2.447   4.411 -1.4930 -0.4534  2.3172
 9210SOL    HW239090   1.514   2.465   4.517  2.1037 -0.9814 -0.2746
 9211SOL     OW39091   0.625   0.056  15.929 -0.1950  0.4684  0.4304
 9211SOL    HW139092   0.592   0.145  15.917  0.0608  0.4801 -0.2371
 9211SOL    HW239093   0.621   0.053  16.024 -2.3155 -0.4535  0.3230
 9212SOL     OW39094   3.922   3.504   6.831  0.0064 -0.1177 -0.0606
 9212SOL    HW139095   3.866   3.564   6.782  0.6905  2.0074  1.7584
 9212SOL    HW239096   3.856   3.449   6.874  1.1881 -2.4051 -1.1994
 9213SOL     OW39097   0.211   3.010   2.657 -0.3312  0.0813  0.0773
 9213SOL    HW139098   0.125   2.985   2.625 -0.7148 -0.3340  1.4588
 9213SOL    HW239099   0.172   3.065   2.724 -0.4946  0.0906 -0.0274
 9214SOL     OW39100   2.576   3.658   4.069  0.0149  0.7402 -0.4087
 9214SOL    HW139101   2.614   3.598   4.005 -1.4094  1.1531 -1.6419
 9214SOL    HW239102   2.650   3.716   4.086  0.0883  0.5411 -0.0411
 9215SOL     OW39103   4.057   4.512  13.727 -0.7522  0.0368  0.4408
 9215SOL    HW139104   4.077   4.480  13.815  0.7210  0.1084  0.1260
 9215SOL    HW239105   4.144   4.535  13.694 -1.3782  1.2811 -0.3628
 9216SOL     OW39106   1.186   0.228   6.546 -0.0024  0.0261  0.1499
 9216SOL    HW139107   1.124   0.291   6.509 -1.0786 -1.8780 -1.2964
 9216SOL    HW239108   1.190   0.262   6.635 -1.3663  0.1330  0.1779
 9217SOL     OW39109   2.693   3.149  17.629  0.3250 -0.7492  0.3311
 9217SOL    HW139110   2.719   3.233  17.668  0.5752 -0.9129  0.5224
 9217SOL    HW239111   2.779   3.113  17.608  0.5640  0.5497 -0.8930
 9218SOL     OW39112   1.939   2.750   5.980 -0.2941  0.0485  0.0643
 9218SOL    HW139113   1.897   2.664   5.975  0.2864 -0.2377  0.1368
 9218SOL    HW239114   2.032   2.728   5.983  0.2451  2.2458 -0.0362
 9219SOL     OW39115   3.625   2.564   1.793 -0.3710 -0.7066  0.4532
 9219SOL    HW139116   3.545   2.520   1.821 -2.8701  2.5102 -1.6834
 9219SOL    HW239117   3.592   2.653   1.809 -0.8394 -0.4399 -1.9795
 9220SOL     OW39118   0.340   0.359  11.108  0.1155 -0.1439  0.3435
 9220SOL    HW139119   0.340   0.394  11.197  0.8952 -0.2595  0.3857
 9220SOL    HW239120   0.374   0.272  11.130  0.9720 -0.0989 -0.8320
 9221SOL     OW39121   1.249   1.597   8.360  0.2204  0.0050 -0.2418
 9221SOL    HW139122   1.285   1.685   8.349  0.9696  0.3043  4.3956
 9221SOL    HW239123   1.212   1.579   8.274  0.4737 -1.7517  0.0249
 9222SOL     OW39124   2.514   0.459  15.275 -0.4430 -0.8312 -0.0336
 9222SOL    HW139125   2.571   0.427  15.205 -0.6139  0.0504 -0.5806
 9222SOL    HW239126   2.446   0.498  15.221 -0.7838 -1.1989  0.1339
 9223SOL     OW39127   1.500   1.668   7.303 -0.0375 -0.1969 -0.4513
 9223SOL    HW139128   1.440   1.607   7.259 -0.6214 -0.1620  0.3158
 9223SOL    HW239129   1.464   1.754   7.283 -0.4931 -0.2431  0.1885
 9224SOL     OW39130   0.468   4.619   6.553  0.1232 -0.4006  0.0962
 9224SOL    HW139131   0.470   4.711   6.582  0.2474 -1.1747  2.5543
 9224SOL    HW239132   0.474   4.568   6.634 -2.4728  0.9765  1.1661
 9225SOL     OW39133   0.909   2.661  16.500 -0.2778 -0.0892 -0.1947
 9225SOL    HW139134   0.933   2.754  16.503  2.3268 -0.7866  0.1633
 9225SOL    HW239135   0.987   2.609  16.516  1.2235  2.4023  0.6222
 9226SOL     OW39136   4.591   0.862   7.524 -0.1408  0.1207 -0.0866
 9226SOL    HW139137   4.615   0.837   7.614 -0.6510 -0.8608 -0.2156
 9226SOL    HW239138   4.676   0.896   7.498  0.3867 -0.8248  0.3922
 9227SOL     OW39139   1.872   0.250   4.645  0.1289  0.1173 -0.1818
 9227SOL    HW139140   1.845   0.186   4.710  1.7824 -2.0370 -1.6470
 9227SOL    HW239141   1.966   0.236   4.657  0.0880  1.0746  1.3544
 9228SOL     OW39142   4.147   2.210  13.200 -0.7396 -0.3064 -1.0072
 9228SOL    HW139143   4.222   2.265  13.176  0.5571 -1.0346  1.4172
 9228SOL    HW239144   4.177   2.120  13.184 -0.7826 -0.2820 -1.2249
 9229SOL     OW39145   2.339   3.921   3.152 -0.6093  0.8652 -0.1060
 9229SOL    HW139146   2.245   3.914   3.141 -0.6823  2.4615 -0.5295
 9229SOL    HW239147   2.344   3.980   3.227 -1.5457  1.3426 -0.4233
 9230SOL     OW39148   3.454   0.808   5.654  0.1809 -0.2360  0.0671
 9230SOL    HW139149   3.464   0.727   5.603  1.9341 -0.8957  1.4193
 9230SOL    HW239150   3.540   0.816   5.696  1.2735 -1.0808 -1.9742
 9231SOL     OW39151   0.929   2.031   8.050  0.3782  0.2844 -0.0665
 9231SOL    HW139152   0.851   1.976   8.051 -0.8219  1.9665 -1.8508
 9231SOL    HW239153   0.963   2.016   7.962 -1.5482  1.0868 -0.9613
 9232SOL     OW39154   0.099   3.037  13.637 -0.6632 -0.5057  0.6692
 9232SOL    HW139155   0.141   2.958  13.604  0.0007  0.4193 -0.6862
 9232SOL    HW239156   0.170   3.053  13.699 -1.2012 -0.0421  1.1696
 9233SOL     OW39157   2.811   4.549   2.619  0.1923 -0.2920 -0.2381
 9233SOL    HW139158   2.742   4.542   2.553 -1.4820  0.7154  1.4051
 9233SOL    HW239159   2.864   4.621   2.584  2.2075 -2.0099 -0.7411
 9234SOL     OW39160   0.740   2.714   4.878  0.2873  0.3090 -0.5459
 9234SOL    HW139161   0.816   2.720   4.935  0.5411  1.7980 -1.0375
 9234SOL    HW239162   0.739   2.808   4.856 -0.4106  0.5952  0.6973
 9235SOL     OW39163   1.599   2.899   7.190 -0.6701 -0.6398  0.2592
 9235SOL    HW139164   1.664   2.830   7.203  0.9617  1.0458  0.9500
 9235SOL    HW239165   1.630   2.937   7.108 -1.5373  0.5288  0.4811
 9236SOL     OW39166   4.198   4.470  14.866 -0.1436  0.2947 -0.6987
 9236SOL    HW139167   4.154   4.523  14.799  0.3801  0.6037 -0.7926
 9236SOL    HW239168   4.206   4.527  14.942 -1.5409  0.3432 -0.5827
 9237SOL     OW39169   3.789   1.438   8.965  0.1619 -0.8651 -0.6514
 9237SOL    HW139170   3.760   1.525   8.936  2.4092  0.4395  0.9545
 9237SOL    HW239171   3.704   1.417   9.002 -0.0366  0.8260 -0.1648
 9238SOL     OW39172   0.336   0.656  10.420  0.6911  0.0615 -0.5280
 9238SOL    HW139173   0.279   0.630  10.493 -0.0724  2.7857 -0.1367
 9238SOL    HW239174   0.328   0.596  10.347  1.0155  0.4735 -0.9015
 9239SOL     OW39175   2.447   1.184   5.924  0.2430 -0.2859 -0.6052
 9239SOL    HW139176   2.512   1.246   5.890  1.3088 -0.9459  0.2024
 9239SOL    HW239177   2.455   1.202   6.017 -1.2464 -4.2520  0.3183
 9240SOL     OW39178   1.336   3.792  10.599 -0.0679 -0.4687 -0.0550
 9240SOL    HW139179   1.283   3.864  10.634  0.1653 -1.1538  1.6997
 9240SOL    HW239180   1.293   3.710  10.624  0.2503 -1.2812 -2.1888
 9241SOL     OW39181   1.398   0.896   2.746 -0.7013  0.0536 -0.0903
 9241SOL    HW139182   1.343   0.910   2.669 -3.4045  1.6318  2.1595
 9241SOL    HW239183   1.437   0.809   2.734 -0.0586  0.2069  0.9081
 9242SOL     OW39184   3.546   3.469   4.119  0.0032  0.1777  0.7706
 9242SOL    HW139185   3.563   3.457   4.213  1.3067 -0.4484  0.4551
 9242SOL    HW239186   3.511   3.558   4.115  2.2874  1.0351 -0.0719
 9243SOL     OW39187   1.814   2.750  12.571  0.4042  0.1166  0.0516
 9243SOL    HW139188   1.752   2.763  12.500  0.2542 -2.6180 -0.3352
 9243SOL    HW239189   1.748   2.727  12.636 -1.1775  1.8907 -0.9627
 9244SOL     OW39190   2.289   2.602   4.779 -0.0121 -0.2079  0.4685
 9244SOL    HW139191   2.320   2.597   4.870 -0.7486 -0.9847  0.6822
 9244SOL    HW239192   2.343   2.678   4.759 -0.7977 -0.0016 -0.8202
 9245SOL     OW39193   0.561   2.134   1.161  0.0568  0.0854 -0.2680
 9245SOL    HW139194   0.512   2.077   1.220 -1.4131  2.3088  0.6771
 9245SOL    HW239195   0.501   2.208   1.155 -0.5219 -0.2062  1.7931
 9246SOL     OW39196   3.988   4.389   7.572  0.2134  0.1291  0.2249
 9246SOL    HW139197   4.074   4.429   7.583 -0.1042  0.9225 -0.1490
 9246SOL    HW239198   3.954   4.407   7.659  0.9729 -1.7047  0.9090
 9247SOL     OW39199   4.600   2.239   6.900  0.0786 -0.5930 -0.2521
 9247SOL    HW139200   4.578   2.148   6.880 -1.6094 -0.2292 -0.1069
 9247SOL    HW239201   4.531   2.291   6.857 -1.8375 -2.3992  0.6370
 9248SOL     OW39202   0.389   2.763  17.268  0.3652 -0.1619  0.1721
 9248SOL    HW139203   0.430   2.679  17.288 -1.8406 -1.5011 -0.8695
 9248SOL    HW239204   0.421   2.822  17.336  0.5526  1.2762 -1.1602
 9249SOL     OW39205   0.356   3.994   5.789 -0.3634  0.3013  0.2866
 9249SOL    HW139206   0.378   4.028   5.875 -0.0759  0.5397  0.1172
 9249SOL    HW239207   0.318   4.073   5.752  3.1445  0.8607 -2.0739
 9250SOL     OW39208   0.155   4.369  16.694  0.2123  0.2413  0.2460
 9250SOL    HW139209   0.140   4.298  16.757 -0.2103  0.5210  0.4517
 9250SOL    HW239210   0.069   4.409  16.696  0.2294  0.3251 -0.8038
 9251SOL     OW39211   3.953   0.270   0.998  0.0733 -0.2693 -0.5131
 9251SOL    HW139212   3.918   0.258   1.086 -3.7982  1.2289 -1.8154
 9251SOL    HW239213   4.016   0.198   1.004  1.5628  1.3959  3.3049
 9252SOL     OW39214   3.700   3.367   0.457 -0.3479  0.0159 -0.1721
 9252SOL    HW139215   3.620   3.418   0.446 -2.2661 -2.4083  2.6824
 9252SOL    HW239216   3.693   3.336   0.548 -0.4684 -0.4393 -0.3365
 9253SOL     OW39217   3.367   4.078  11.614  0.1825 -0.1730  0.1302
 9253SOL    HW139218   3.360   4.167  11.648 -1.6824  0.2302 -1.3026
 9253SOL    HW239219   3.438   4.080  11.549 -1.9969  0.8465 -2.2148
 9254SOL     OW39220   0.594   0.698   5.455  0.0301 -0.3764  0.1210
 9254SOL    HW139221   0.560   0.748   5.528  0.4068 -0.8467  0.6219
 9254SOL    HW239222   0.607   0.759   5.383  0.4031 -0.4366  0.1360
 9255SOL     OW39223   2.156   3.656   2.280  0.5680 -0.2230  0.0310
 9255SOL    HW139224   2.199   3.731   2.239  1.2743 -0.5274  0.2143
 9255SOL    HW239225   2.175   3.588   2.215  0.0748 -0.6214  0.3012
 9256SOL     OW39226   4.069   1.575   2.625 -0.0748 -0.4978  0.4276
 9256SOL    HW139227   4.125   1.518   2.572  0.1044 -2.4170  2.6690
 9256SOL    HW239228   4.123   1.654   2.621  0.4007 -0.8240  0.3427
 9257SOL     OW39229   4.365   2.412   7.354  0.5294  0.2728  0.6237
 9257SOL    HW139230   4.363   2.448   7.265 -0.4978 -0.6091  0.2877
 9257SOL    HW239231   4.279   2.372   7.340  0.1262  1.3119  0.1410
 9258SOL     OW39232   0.853   1.497   6.610  0.4813 -0.3496  0.2970
 9258SOL    HW139233   0.763   1.527   6.614  0.1045 -1.2956 -1.2865
 9258SOL    HW239234   0.879   1.546   6.689  1.1192  0.4166 -0.3898
 9259SOL     OW39235   0.683   3.964   3.456 -0.0782 -0.2279  0.1696
 9259SOL    HW139236   0.752   3.989   3.517 -1.7809 -2.9312  3.2266
 9259SOL    HW239237   0.732   3.915   3.390 -0.1209  0.3475 -0.2886
 9260SOL     OW39238   3.073   2.277   3.185 -0.9672  0.4211  0.1700
 9260SOL    HW139239   3.096   2.191   3.148 -2.4313 -0.2628  0.8584
 9260SOL    HW239240   2.992   2.290   3.135 -1.3294 -2.6010 -0.0634
 9261SOL     OW39241   2.219   4.553   5.625 -0.4237 -0.0730  0.1158
 9261SOL    HW139242   2.224   4.501   5.545 -1.9506  1.5110 -1.0005
 9261SOL    HW239243   2.127   4.577   5.624 -0.7978 -1.4280  2.0595
 9262SOL     OW39244   1.033   4.378   2.609  0.0389 -0.7105 -0.2246
 9262SOL    HW139245   1.015   4.323   2.533  0.9703 -0.1072 -0.8804
 9262SOL    HW239246   1.003   4.463   2.576  2.2760  0.8918  1.9223
 9263SOL     OW39247   4.261   0.513  10.008  0.3439 -0.2591 -0.0721
 9263SOL    HW139248   4.290   0.589   9.957 -3.0296  0.0648 -1.5144
 9263SOL    HW239249   4.171   0.505   9.977  0.5112 -1.4376 -0.2548
 9264SOL     OW39250   2.656   3.243   8.315  0.6811  0.1180  0.3037
 9264SOL    HW139251   2.704   3.323   8.335  0.5863 -0.0970  1.3742
 9264SOL    HW239252   2.592   3.265   8.247  0.3816 -2.4623 -0.2449
 9265SOL     OW39253   2.070   0.280   8.476  0.1626  0.2222  0.6747
 9265SOL    HW139254   2.156   0.239   8.473 -1.3608 -2.9980  0.6545
 9265SOL    HW239255   2.073   0.282   8.571 -1.7501  1.5816  0.6982
 9266SOL     OW39256   3.159   1.526  11.664  0.2538 -0.0860  0.4459
 9266SOL    HW139257   3.180   1.518  11.571  2.1797 -0.8130  0.9386
 9266SOL    HW239258   3.194   1.440  11.687 -1.3102 -1.2850 -1.7131
 9267SOL     OW39259   2.192   4.390   6.820  0.1551  0.1137 -0.2507
 9267SOL    HW139260   2.144   4.343   6.889  2.5615 -0.8521  0.7602
 9267SOL    HW239261   2.111   4.423   6.781  0.3607 -0.3625 -1.0670
 9268SOL     OW39262   4.035   2.291   6.357  0.3137 -0.2305  0.3674
 9268SOL    HW139263   4.069   2.207   6.325  1.6160  0.1581  0.7195
 9268SOL    HW239264   3.960   2.307   6.301  0.0688  0.4430  0.8889
 9269SOL     OW39265   2.897   2.668   4.217  0.2127  0.0115 -0.1598
 9269SOL    HW139266   2.892   2.662   4.313  1.5324 -2.7351 -0.2572
 9269SOL    HW239267   2.808   2.693   4.192  0.4550  0.0056 -1.0295
 9270SOL     OW39268   0.060   1.794   4.992  0.4023  0.4893 -0.6643
 9270SOL    HW139269   0.040   1.857   5.061  0.1654  0.4741 -0.7208
 9270SOL    HW239270   4.715   1.809   4.930  1.7071  0.4207 -2.1527
 9271SOL     OW39271   0.283   3.382   5.900 -0.1585 -0.0263 -0.1303
 9271SOL    HW139272   0.351   3.319   5.875  0.7025  0.8974 -0.1107
 9271SOL    HW239273   0.260   3.352   5.988  0.1855 -0.4290 -0.1780
 9272SOL     OW39274   1.086   3.856   3.143 -0.6526 -0.5004 -0.2077
 9272SOL    HW139275   1.096   3.772   3.099  0.1216  0.2571 -1.4680
 9272SOL    HW239276   1.119   3.841   3.231 -0.3696 -0.1227 -0.2521
 9273SOL     OW39277   1.551   3.310   6.454 -0.3484  0.2938 -0.4770
 9273SOL    HW139278   1.588   3.396   6.433 -0.1574  0.3486  0.0815
 9273SOL    HW239279   1.498   3.276   6.382  1.6963  0.0453 -1.8616
 9274SOL     OW39280   0.533   2.587   6.395  0.3237 -0.0987 -0.2426
 9274SOL    HW139281   0.589   2.622   6.465 -0.5872 -1.5054  1.1819
 9274SOL    HW239282   0.497   2.669   6.362 -1.2983 -1.1160 -0.9958
 9275SOL     OW39283   3.100   3.392  12.503 -0.0125  0.0969  0.0067
 9275SOL    HW139284   3.170   3.418  12.442  0.6467 -0.9817  0.3119
 9275SOL    HW239285   3.151   3.319  12.538  0.3993  0.5810  0.4339
 9276SOL     OW39286   0.984   0.284   3.918 -0.0872 -0.7965 -0.4521
 9276SOL    HW139287   0.941   0.325   3.843  0.3876  2.3536  0.9594
 9276SOL    HW239288   0.925   0.297   3.992  1.0251 -0.5389  0.3923
 9277SOL     OW39289   0.263   2.101   3.274  0.1848 -0.5233 -0.5901
 9277SOL    HW139290   0.225   2.175   3.226  0.1030  0.5768  1.1761
 9277SOL    HW239291   0.194   2.035   3.265  0.5314 -1.1171  1.0955
 9278SOL     OW39292   4.555   1.978   6.828 -0.0009  0.3504  0.3455
 9278SOL    HW139293   4.532   1.893   6.790  2.9341 -0.5854  0.7028
 9278SOL    HW239294   4.467   2.016   6.833  0.3535  1.2129 -0.0210
 9279SOL     OW39295   2.547   4.132   5.430  0.3459  0.1978  0.0914
 9279SOL    HW139296   2.493   4.179   5.368  1.0309  1.2619  0.2897
 9279SOL    HW239297   2.533   4.183   5.510 -1.2610 -2.5020  1.5317
 9280SOL     OW39298   4.075   0.550   1.892 -0.6135 -0.5279 -0.2246
 9280SOL    HW139299   4.081   0.634   1.939 -1.4101 -0.9072  0.5366
 9280SOL    HW239300   4.165   0.517   1.892 -0.8935 -1.2828  0.0721
 9281SOL     OW39301   0.679   0.273   6.427 -0.0537 -0.0996 -0.7004
 9281SOL    HW139302   0.616   0.262   6.498  2.5700 -2.1225  1.3193
 9281SOL    HW239303   0.633   0.266   6.343  0.5487  0.0759 -1.0435
 9282SOL     OW39304   1.254   3.220   5.507  0.0190  0.3589 -0.3603
 9282SOL    HW139305   1.250   3.172   5.589  0.3676  0.7464 -0.1132
 9282SOL    HW239306   1.158   3.222   5.497 -0.0132  2.1269  0.2413
 9283SOL     OW39307   4.303   3.851  17.698  0.0143  0.4826 -0.2746
 9283SOL    HW139308   4.300   3.924   0.055 -0.1361 -0.4614  0.8477
 9283SOL    HW239309   4.213   3.836  17.669  0.3901  1.0734 -1.7146
 9284SOL     OW39310   1.168   3.480   8.456 -0.1512  0.1701  0.0866
 9284SOL    HW139311   1.123   3.418   8.399 -1.0751 -0.0733  1.1058
 9284SOL    HW239312   1.097   3.544   8.462 -0.6125 -0.4587  1.2155
 9285SOL     OW39313   0.697   0.061   3.190 -0.2559  0.1948 -0.6079
 9285SOL    HW139314   0.683   0.075   3.096 -1.7971 -1.4811 -0.6193
 9285SOL    HW239315   0.667   0.143   3.229 -1.9135 -0.0809 -1.3051
 9286SOL     OW39316   3.963   1.868   3.181 -0.3262 -0.2610  0.0818
 9286SOL    HW139317   4.022   1.794   3.194 -2.0875 -1.4942  1.1145
 9286SOL    HW239318   3.911   1.855   3.260  1.9604  0.4567  1.6851
 9287SOL     OW39319   3.949   0.338   6.229 -0.4102  0.1139  0.3446
 9287SOL    HW139320   3.972   0.416   6.279 -0.4953  0.7708 -0.6437
 9287SOL    HW239321   3.893   0.367   6.157 -2.0549  0.4570  1.7550
 9288SOL     OW39322   3.417   4.611   5.081 -0.2816 -0.4879 -0.5237
 9288SOL    HW139323   3.378   4.658   5.155 -1.9043 -0.6465 -1.2773
 9288SOL    HW239324   3.340   4.588   5.030 -0.7662 -2.3500  1.0756
 9289SOL     OW39325   0.443   1.089  15.168 -0.1933  0.7386  0.1541
 9289SOL    HW139326   0.386   1.037  15.224  0.7463  1.5913  1.9192
 9289SOL    HW239327   0.399   1.172  15.153 -1.3168  0.1177  0.0184
 9290SOL     OW39328   4.395   1.974   8.838  0.1750 -0.1113  0.2875
 9290SOL    HW139329   4.393   1.880   8.823  0.2458  0.1553 -1.4168
 9290SOL    HW239330   4.438   2.015   8.763  1.1801 -0.1031  0.8680
 9291SOL     OW39331   2.051   2.696  17.071  0.1049 -0.5459 -0.4978
 9291SOL    HW139332   2.006   2.764  17.020 -1.0816  1.1107  2.7674
 9291SOL    HW239333   2.140   2.729  17.084 -0.2900  0.4539 -0.3211
 9292SOL     OW39334   1.967   0.664   6.533  0.1195 -0.1142 -0.0037
 9292SOL    HW139335   1.998   0.715   6.607  0.0596  1.2168 -0.8997
 9292SOL    HW239336   2.052   0.652   6.491  0.5409  0.8788  0.5756
 9293SOL     OW39337   2.724   2.632  11.724 -0.2366  0.3259 -0.1099
 9293SOL    HW139338   2.747   2.717  11.686 -0.2275  0.3357 -0.0825
 9293SOL    HW239339   2.799   2.582  11.692 -0.4787 -0.5595  0.7051
 9294SOL     OW39340   2.520   1.127   7.018  0.4069  0.3913 -0.6476
 9294SOL    HW139341   2.606   1.085   7.020  0.2973  0.1866 -0.2747
 9294SOL    HW239342   2.523   1.156   7.109 -1.5931  0.0570 -0.4663
 9295SOL     OW39343   0.977   3.454   1.990 -0.1168 -0.0175 -0.4805
 9295SOL    HW139344   0.977   3.548   1.974  0.4105  0.0432 -0.1252
 9295SOL    HW239345   0.956   3.418   1.904 -0.0372 -2.6442  0.6119
 9296SOL     OW39346   0.736   2.505   6.589 -0.5068  0.8686  0.1019
 9296SOL    HW139347   0.777   2.576   6.638  2.6356 -0.8420 -0.0936
 9296SOL    HW239348   0.815   2.469   6.549 -1.5925 -2.3856  0.8955
 9297SOL     OW39349   2.272   1.872   5.651 -0.3264 -0.0487 -0.4646
 9297SOL    HW139350   2.203   1.939   5.652  1.1839  1.4918  1.0765
 9297SOL    HW239351   2.337   1.894   5.718  0.8025 -0.1852 -1.5184
 9298SOL     OW39352   3.240   4.197   8.173  0.5126  0.2370  0.0934
 9298SOL    HW139353   3.204   4.134   8.235 -0.8184 -1.2546 -2.2019
 9298SOL    HW239354   3.270   4.148   8.096 -0.0956  1.6058 -1.0338
 9299SOL     OW39355   2.540   2.084  17.300  0.2928 -0.0271 -0.3116
 9299SOL    HW139356   2.534   2.179  17.315 -1.2378 -0.1279 -0.2756
 9299SOL    HW239357   2.562   2.085  17.207  1.2554 -0.8910 -0.0919
 9300SOL     OW39358   1.778   2.508  16.106 -0.1856  0.0143  0.3909
 9300SOL    HW139359   1.776   2.601  16.129  1.2604  0.1337  0.0247
 9300SOL    HW239360   1.864   2.485  16.071 -0.4030 -0.9122  0.4638
 9301SOL     OW39361   2.449   0.249   1.592  0.2472 -0.0547  0.2845
 9301SOL    HW139362   2.536   0.251   1.551  0.0325 -1.0840 -0.2309
 9301SOL    HW239363   2.439   0.157   1.614 -0.4068 -0.0830 -0.1314
 9302SOL     OW39364   2.311   3.564  11.019  0.2015  0.5935  0.2549
 9302SOL    HW139365   2.319   3.513  11.100  1.1955  1.0075  0.4109
 9302SOL    HW239366   2.361   3.644  11.035 -0.7445  1.5154 -1.3725
 9303SOL     OW39367   0.140   2.465  17.466  0.2716 -0.0329  0.0425
 9303SOL    HW139368   0.086   2.402  17.419 -0.4890 -0.0539  0.9361
 9303SOL    HW239369   0.203   2.493  17.400  0.3938  0.0377  0.1865
 9304SOL     OW39370   1.359   3.446   0.781  0.4514 -0.2534  0.0721
 9304SOL    HW139371   1.359   3.420   0.873 -3.9717  2.1292  0.7424
 9304SOL    HW239372   1.437   3.500   0.777 -0.7301  1.4908  0.5440
 9305SOL     OW39373   2.203   3.200  15.845 -0.2034 -0.0976 -1.3785
 9305SOL    HW139374   2.140   3.270  15.824 -3.5861 -2.4077  0.9541
 9305SOL    HW239375   2.140   3.159  15.904 -0.1119  0.7031 -0.7279
 9306SOL     OW39376   0.802   3.058   7.707  0.0885  0.3910  0.0214
 9306SOL    HW139377   0.737   3.070   7.638  0.4349  1.8002 -0.0478
 9306SOL    HW239378   0.867   3.006   7.661  0.3891  2.0154 -1.3625
 9307SOL     OW39379   1.712   0.801  15.380  0.3696 -0.0024  0.2658
 9307SOL    HW139380   1.641   0.759  15.428  0.4340 -0.4016  0.0077
 9307SOL    HW239381   1.763   0.826  15.457  2.5210 -0.8100 -0.9024
 9308SOL     OW39382   0.310   4.401  16.100  0.0098  0.5970 -0.1300
 9308SOL    HW139383   0.347   4.487  16.119  0.5368  0.1775  0.7194
 9308SOL    HW239384   0.321   4.360  16.186 -0.4840  1.4086  0.3121
 9309SOL     OW39385   4.082   3.788   5.148 -0.7151 -0.4599 -0.7182
 9309SOL    HW139386   4.166   3.790   5.194 -0.2573 -1.5820 -1.4964
 9309SOL    HW239387   4.120   3.801   5.061 -2.1069  1.1152 -1.0720
 9310SOL     OW39388   3.903   3.685   7.781 -0.1280  0.0850 -0.0954
 9310SOL    HW139389   3.994   3.658   7.772 -0.3647 -0.6387 -0.3014
 9310SOL    HW239390   3.857   3.602   7.791 -0.8645  0.6269  1.1086
 9311SOL     OW39391   0.356   1.693   8.285  0.2976  0.0601  0.4398
 9311SOL    HW139392   0.260   1.689   8.281  0.1660  1.4502  2.2271
 9311SOL    HW239393   0.376   1.777   8.326  3.2048 -1.3067  1.7935
 9312SOL     OW39394   1.056   2.958  16.818  0.5025  0.2269  0.1755
 9312SOL    HW139395   0.999   3.017  16.867  0.5599  0.3109  0.1403
 9312SOL    HW239396   1.047   2.874  16.863 -2.4895  0.1263 -0.6382
 9313SOL     OW39397   1.999   4.355   1.048  0.6283  0.0477  0.6503
 9313SOL    HW139398   2.050   4.430   1.079  1.7046  0.0802 -1.2096
 9313SOL    HW239399   1.987   4.377   0.956  3.0172  0.7697  0.4949
 9314SOL     OW39400   2.084   4.230   6.247  0.0670  0.2038 -0.6804
 9314SOL    HW139401   2.107   4.212   6.338 -0.3475  0.0116 -0.6105
 9314SOL    HW239402   2.163   4.264   6.205 -0.3097  0.8622 -0.8586
 9315SOL     OW39403   3.565   2.509  11.083 -0.2587  0.2762  0.1817
 9315SOL    HW139404   3.568   2.498  10.988  2.2236  2.4385  0.0097
 9315SOL    HW239405   3.634   2.573  11.098 -0.3913  0.3203  0.5956
 9316SOL     OW39406   0.291   0.640   5.577 -0.0879 -0.0499 -0.3263
 9316SOL    HW139407   0.204   0.623   5.613  0.6709  0.4309  1.7340
 9316SOL    HW239408   0.292   0.572   5.509  1.3447 -0.1395 -0.2071
 9317SOL     OW39409   0.881   3.730   6.709  0.0364 -0.2306 -0.6172
 9317SOL    HW139410   0.883   3.811   6.659  0.4428 -0.3950 -0.8642
 9317SOL    HW239411   0.876   3.769   6.797  0.5730  1.0630 -1.1648
 9318SOL     OW39412   2.935   4.574   7.701  0.4982  0.4851 -0.2844
 9318SOL    HW139413   3.001   4.562   7.633  0.6350  0.3931 -0.1355
 9318SOL    HW239414   2.941   4.669   7.711 -0.9574  0.7217 -1.8826
 9319SOL     OW39415   2.820   2.691   7.901  0.4031  0.3684  0.4080
 9319SOL    HW139416   2.772   2.620   7.944  0.2304  0.9750  1.2170
 9319SOL    HW239417   2.883   2.643   7.847 -0.5945 -0.7014  0.1966
 9320SOL     OW39418   3.022   4.185   8.886 -0.0682 -0.1389 -0.0570
 9320SOL    HW139419   3.104   4.234   8.890 -0.7696  0.8078  2.8605
 9320SOL    HW239420   2.958   4.254   8.902  0.6003  0.1408  1.4344
 9321SOL     OW39421   2.800   3.625   2.173  0.6164 -0.5011 -0.4544
 9321SOL    HW139422   2.820   3.601   2.083 -0.4276  2.0254 -1.3658
 9321SOL    HW239423   2.870   3.687   2.194  1.2702 -2.0273  1.8540
 9322SOL     OW39424   2.028   0.527   7.085  0.0598 -0.5339 -0.7484
 9322SOL    HW139425   2.090   0.504   7.015  2.1014  0.1875  0.8330
 9322SOL    HW239426   1.959   0.469   7.053  1.9681 -1.7629 -2.6496
 9323SOL     OW39427   3.384   1.400  10.353 -0.0195  0.2435  1.0067
 9323SOL    HW139428   3.400   1.321  10.302 -0.3912  0.1908  0.9772
 9323SOL    HW239429   3.367   1.355  10.435 -2.0726 -3.3184 -1.3938
 9324SOL     OW39430   2.155   3.510   2.654 -0.4472  0.5023 -0.1226
 9324SOL    HW139431   2.189   3.591   2.693 -1.1975  1.2133 -0.9446
 9324SOL    HW239432   2.200   3.454   2.717 -2.3145 -0.2443  0.5485
 9325SOL     OW39433   2.089   0.827   9.994 -0.4814  0.3689 -0.0943
 9325SOL    HW139434   2.127   0.772  10.062  0.4437  0.2104 -0.7441
 9325SOL    HW239435   2.096   0.765   9.922  1.6464 -0.3550  0.7369
 9326SOL     OW39436   1.372   4.314   4.358  0.2410  0.0589  0.1384
 9326SOL    HW139437   1.321   4.236   4.382 -1.6160  2.0173  2.4302
 9326SOL    HW239438   1.462   4.281   4.354 -0.0252 -0.6322 -0.2496
 9327SOL     OW39439   1.142   3.308   6.292 -0.1467 -0.4284  0.1804
 9327SOL    HW139440   1.227   3.337   6.260  0.7266 -3.2195 -0.0562
 9327SOL    HW239441   1.153   3.320   6.386 -0.5118 -1.4316  0.3623
 9328SOL     OW39442   3.545   0.022   6.188  0.0757 -0.3819 -0.1038
 9328SOL    HW139443   3.458   0.007   6.151 -0.6410  1.2954  0.9042
 9328SOL    HW239444   3.572   0.100   6.139 -1.6857  0.0449 -0.4150
 9329SOL     OW39445   1.651   2.901   2.275 -0.8782  0.3793 -0.2663
 9329SOL    HW139446   1.614   2.956   2.344  0.0776  1.5044 -0.6511
 9329SOL    HW239447   1.682   2.963   2.209 -3.0201  2.2178  0.4423
 9330SOL     OW39448   2.762   2.844  16.316 -0.6026 -0.1373  1.0318
 9330SOL    HW139449   2.758   2.808  16.405  2.0675  0.2140  1.3016
 9330SOL    HW239450   2.698   2.789  16.271  0.3101  0.2560 -0.7171
 9331SOL     OW39451   1.018   4.273   2.363 -0.2988  0.2391  0.3784
 9331SOL    HW139452   0.942   4.252   2.308  0.5477  0.2317 -0.8045
 9331SOL    HW239453   1.047   4.352   2.318  1.3625  0.8607  2.5407
 9332SOL     OW39454   3.107   3.727  15.067 -0.5753 -0.3888  0.5236
 9332SOL    HW139455   3.202   3.716  15.061 -0.6685 -0.5645 -0.5148
 9332SOL    HW239456   3.100   3.797  15.002 -2.0250 -1.8593 -0.8729
 9333SOL     OW39457   3.913   0.200   3.206  0.6810  0.4405  0.7589
 9333SOL    HW139458   3.951   0.184   3.120  0.0426  0.7229  0.4277
 9333SOL    HW239459   3.922   0.114   3.247 -0.6654 -0.3415 -0.6140
 9334SOL     OW39460   1.139   2.244  15.683  0.7193 -0.9076 -0.4112
 9334SOL    HW139461   1.191   2.233  15.603 -2.7310 -1.2948 -2.6130
 9334SOL    HW239462   1.182   2.180  15.738 -1.4463 -1.8673  0.1642
 9335SOL     OW39463   4.397   1.569   6.414  0.4105 -0.5707 -0.3193
 9335SOL    HW139464   4.348   1.498   6.373 -0.7615 -0.6238  1.2048
 9335SOL    HW239465   4.459   1.529   6.474  0.0031 -0.0752  0.4254
 9336SOL     OW39466   1.980   4.520  15.400 -0.7152 -0.4727  0.5046
 9336SOL    HW139467   2.038   4.510  15.476  0.5259  0.9658 -0.2563
 9336SOL    HW239468   2.023   4.457  15.343 -0.9041  0.0009 -0.1651
 9337SOL     OW39469   4.222   4.220   2.285 -0.2099 -0.2159 -0.0508
 9337SOL    HW139470   4.214   4.162   2.210 -3.0599  0.3158 -0.1495
 9337SOL    HW239471   4.233   4.150   2.349  0.3240  0.4780  0.6314
 9338SOL     OW39472   1.547   2.637   0.691 -0.1949  0.1871  0.2745
 9338SOL    HW139473   1.468   2.589   0.667 -0.4062  0.8719 -0.3867
 9338SOL    HW239474   1.526   2.728   0.669 -2.1622 -1.1100 -3.1776
 9339SOL     OW39475   0.195   4.508   0.051 -0.0054  0.5957  0.2607
 9339SOL    HW139476   0.125   4.573   0.041 -0.3681 -0.0421 -1.4985
 9339SOL    HW239477   0.221   4.472  17.671 -0.5828 -0.0473  0.3585
 9340SOL     OW39478   4.183   2.394  14.870 -0.0975 -0.6050 -0.2161
 9340SOL    HW139479   4.182   2.315  14.816 -1.5192 -1.2482  0.7646
 9340SOL    HW239480   4.267   2.391  14.917  2.0541 -2.3489 -4.1743
 9341SOL     OW39481   0.220   2.063   4.154 -0.5515 -0.0460 -0.3194
 9341SOL    HW139482   0.249   2.045   4.244 -0.7728 -0.9982 -0.4396
 9341SOL    HW239483   0.139   2.111   4.171 -0.0077  0.6326  0.3798
 9342SOL     OW39484   2.402   1.854   6.353 -0.2378  0.5513 -0.1425
 9342SOL    HW139485   2.409   1.834   6.447 -0.8990  2.1031  0.2436
 9342SOL    HW239486   2.394   1.767   6.313  0.2613  1.3236 -1.9156
 9343SOL     OW39487   2.631   1.860   9.529 -0.2150 -0.0154 -0.8202
 9343SOL    HW139488   2.657   1.891   9.442  0.5621 -3.5758 -1.8486
 9343SOL    HW239489   2.644   1.765   9.526  0.1448  0.0587 -1.7927
 9344SOL     OW39490   3.402   1.211  16.369  0.2202 -0.1152  0.6736
 9344SOL    HW139491   3.462   1.172  16.433 -0.7165 -1.7482  0.5624
 9344SOL    HW239492   3.394   1.298  16.408  0.4731  0.0928  0.2549
 9345SOL     OW39493   3.385   2.618  11.823 -0.0614 -0.2259 -0.3666
 9345SOL    HW139494   3.409   2.705  11.791  2.4789 -0.5309  0.6938
 9345SOL    HW239495   3.298   2.609  11.784 -0.1815  1.5352 -0.4956
 9346SOL     OW39496   1.918   1.624  16.120  0.4066  0.3075 -0.3162
 9346SOL    HW139497   1.924   1.638  16.025  0.5760 -0.7357 -0.4603
 9346SOL    HW239498   1.991   1.563  16.130  0.6034  0.9222  1.9584
 9347SOL     OW39499   3.269   0.859  14.692  0.1587  0.3545 -0.3089
 9347SOL    HW139500   3.300   0.839  14.781 -1.2344 -1.2618 -0.1886
 9347SOL    HW239501   3.273   0.954  14.683  1.0931  0.2028 -1.5374
 9348SOL     OW39502   0.924   0.488  14.419  0.2899  0.0902  0.0852
 9348SOL    HW139503   0.989   0.448  14.361 -0.9412 -0.4266 -0.9588
 9348SOL    HW239504   0.839   0.461  14.384  0.0559 -0.7054  1.2814
 9349SOL     OW39505   4.402   2.150   0.523 -0.0629 -0.0151  0.7307
 9349SOL    HW139506   4.428   2.117   0.609  1.5590 -3.2807 -1.0322
 9349SOL    HW239507   4.319   2.103   0.517 -0.1282  0.0694  0.9732
 9350SOL     OW39508   0.301   0.365   9.078 -1.1876 -0.3177  0.0645
 9350SOL    HW139509   0.275   0.309   9.151 -0.3340 -2.0189 -0.9274
 9350SOL    HW239510   0.223   0.356   9.023 -0.9534  1.0156 -0.4947
 9351SOL     OW39511   3.880   4.119   2.122 -0.4243  0.1702  0.2468
 9351SOL    HW139512   3.888   4.154   2.033  0.1090  0.6613  0.4886
 9351SOL    HW239513   3.894   4.025   2.111 -1.4297  0.1544 -0.9493
 9352SOL     OW39514   0.879   2.272   4.751 -0.5560  0.4446 -0.4016
 9352SOL    HW139515   0.846   2.230   4.672 -1.8346 -0.9137  0.8363
 9352SOL    HW239516   0.971   2.282   4.729 -0.1437  0.1156  1.1466
 9353SOL     OW39517   2.229   2.356  12.551  0.7625  0.5404  0.0493
 9353SOL    HW139518   2.261   2.422  12.612 -1.2565  2.7103 -1.2138
 9353SOL    HW239519   2.309   2.305  12.560  2.0015  2.5080  0.2760
 9354SOL     OW39520   0.851   1.149   9.033 -0.3162  0.1048  0.1589
 9354SOL    HW139521   0.849   1.211   8.959 -0.6895  1.8163  1.6021
 9354SOL    HW239522   0.898   1.201   9.098  0.5560  0.7539 -0.9717
 9355SOL     OW39523   4.548   2.703   1.998  0.1201 -0.1165  0.7221
 9355SOL    HW139524   4.539   2.643   1.924 -1.6215  1.8776 -0.6747
 9355SOL    HW239525   4.562   2.790   1.961  0.1186 -0.9444 -1.1900
 9356SOL     OW39526   2.388   3.241  16.960 -0.4685  0.4857  0.3413
 9356SOL    HW139527   2.341   3.322  16.940 -2.6088 -0.8097  0.2099
 9356SOL    HW239528   2.458   3.268  17.019  0.1479 -1.0003  0.2773
 9357SOL     OW39529   3.408   0.803   9.384  0.2782 -0.3451 -0.3356
 9357SOL    HW139530   3.495   0.771   9.407 -0.1120 -2.3478 -1.6578
 9357SOL    HW239531   3.429   0.870   9.319  0.7746  0.5849  0.7871
 9358SOL     OW39532   1.907   4.457   8.446 -0.2216 -1.1649 -0.3041
 9358SOL    HW139533   1.941   4.425   8.529  1.3179 -0.1833 -0.5566
 9358SOL    HW239534   1.908   4.550   8.470  0.8271 -1.0921 -0.6305
 9359SOL     OW39535   2.576   3.920   6.027  0.3719  0.4318 -0.0410
 9359SOL    HW139536   2.579   4.005   5.985 -0.6153  0.3127 -0.3324
 9359SOL    HW239537   2.503   3.882   5.980  0.5943 -0.6738  0.4957
 9360SOL     OW39538   2.325   0.791   6.255 -0.8123  0.0510  0.3132
 9360SOL    HW139539   2.337   0.698   6.239  0.8868  0.2935  0.0920
 9360SOL    HW239540   2.239   0.816   6.220 -1.0487  1.3939  1.8406
 9361SOL     OW39541   3.494   4.305   0.127  0.2852  0.3229 -0.4493
 9361SOL    HW139542   3.550   4.276   0.199 -1.2432 -0.8666  0.2677
 9361SOL    HW239543   3.535   4.391   0.117  0.7379  0.1988  0.3194
 9362SOL     OW39544   2.500   2.375  17.279  0.2606 -0.2009 -0.3312
 9362SOL    HW139545   2.552   2.455  17.290 -2.8544  1.6583  1.2194
 9362SOL    HW239546   2.509   2.362  17.185 -2.7710  2.8614 -1.0413
 9363SOL     OW39547   0.580   1.841  17.424 -0.1109 -0.2826 -0.1124
 9363SOL    HW139548   0.553   1.758  17.384 -0.1623 -0.0301 -0.6130
 9363SOL    HW239549   0.509   1.859  17.485  1.1234 -1.1079  1.5414
 9364SOL     OW39550   1.991   3.611  10.723 -0.4112  0.5259  0.1338
 9364SOL    HW139551   1.957   3.684  10.671 -0.1733  0.2312 -0.4400
 9364SOL    HW239552   1.984   3.633  10.816  1.2187  0.8973  0.1760
 9365SOL     OW39553   1.529   4.676   9.416  0.0235 -0.0478  0.0897
 9365SOL    HW139554   1.611   4.670   9.466  0.8867 -0.4932 -1.3749
 9365SOL    HW239555   1.479   4.642   9.490  3.0065 -2.5690  0.9373
 9366SOL     OW39556   1.771   0.308  15.031 -0.3347 -0.4695 -0.5538
 9366SOL    HW139557   1.777   0.404  15.032  3.2399 -0.7071 -0.0161
 9366SOL    HW239558   1.865   0.291  15.038 -0.0720  0.4534 -1.9331
 9367SOL     OW39559   0.733   3.468  11.989  0.1086 -0.7523  0.4500
 9367SOL    HW139560   0.822   3.502  11.995 -0.6200  1.3941 -0.8990
 9367SOL    HW239561   0.724   3.465  12.084 -2.4845  1.4744  0.2466
 9368SOL     OW39562   3.918   2.400   6.089  0.1436  0.7051 -0.1029
 9368SOL    HW139563   3.995   2.450   6.062  2.0664 -2.2038  0.0186
 9368SOL    HW239564   3.929   2.324   6.032  1.1481  1.4940 -0.9567
 9369SOL     OW39565   2.170   4.691   2.742 -0.0023 -0.2545 -0.5801
 9369SOL    HW139566   2.223   0.043   2.722  1.0817 -0.6019  0.9089
 9369SOL    HW239567   2.100   4.707   2.680  0.7399  2.0981 -0.8229
 9370SOL     OW39568   3.348   1.160   4.439 -0.1167 -0.3180 -0.4337
 9370SOL    HW139569   3.403   1.233   4.469  0.1452 -0.7430  0.1259
 9370SOL    HW239570   3.380   1.168   4.349  2.0928 -1.8934  0.2294
 9371SOL     OW39571   1.791   1.742   6.009 -0.0418  0.3552  0.1824
 9371SOL    HW139572   1.701   1.722   5.985  0.1825 -1.8016  1.1947
 9371SOL    HW239573   1.837   1.672   5.963  0.2040  1.5025 -1.3457
 9372SOL     OW39574   1.695   2.207   4.106  0.2226 -0.4614 -0.7675
 9372SOL    HW139575   1.770   2.181   4.160 -1.1113  0.8495  1.7025
 9372SOL    HW239576   1.680   2.131   4.049 -3.3138 -1.3645  1.3565
 9373SOL     OW39577   3.628   1.530   4.898 -0.1488 -0.0533  0.1613
 9373SOL    HW139578   3.554   1.539   4.839 -0.6408 -1.4968  0.5599
 9373SOL    HW239579   3.677   1.612   4.888 -0.3168  0.1025  0.6014
 9374SOL     OW39580   3.814   1.867   2.375 -0.2434  0.1867 -1.0871
 9374SOL    HW139581   3.895   1.843   2.329  0.9603  2.1588  0.0351
 9374SOL    HW239582   3.805   1.791   2.432  1.3474  0.2545 -0.7629
 9375SOL     OW39583   3.366   0.653   2.052  0.1541 -0.4448  0.2189
 9375SOL    HW139584   3.432   0.699   2.000 -0.8331 -1.3082 -1.7820
 9375SOL    HW239585   3.415   0.626   2.129 -0.0534 -2.1816 -0.2663
 9376SOL     OW39586   4.485   1.732   7.262  1.1360 -0.2414  0.7109
 9376SOL    HW139587   4.530   1.789   7.201  0.0717  0.2434  0.3804
 9376SOL    HW239588   4.441   1.680   7.195  1.9647 -2.1091  1.6042
 9377SOL     OW39589   0.654   0.350  11.185 -0.5190 -0.2430  0.3655
 9377SOL    HW139590   0.702   0.375  11.264 -0.0377 -0.1261  0.0351
 9377SOL    HW239591   0.639   0.256  11.201  1.3141 -0.2740  1.9931
 9378SOL     OW39592   1.270   4.010   0.584  0.4404 -0.3141  0.1342
 9378SOL    HW139593   1.187   4.041   0.622  0.8969  1.1278 -0.0779
 9378SOL    HW239594   1.304   4.080   0.528 -0.2977 -1.8830 -2.2776
 9379SOL     OW39595   1.532   2.183  16.262  0.0293  0.1511 -0.0830
 9379SOL    HW139596   1.518   2.192  16.356  1.6638  0.3870  0.1268
 9379SOL    HW239597   1.494   2.264  16.228  2.3695  1.9753  1.7047
 9380SOL     OW39598   2.446   3.000   9.671  0.4563  0.3571  0.3299
 9380SOL    HW139599   2.512   3.054   9.715  2.3858 -1.1474 -0.7270
 9380SOL    HW239600   2.392   3.070   9.634  0.4340 -0.8551 -1.9318
 9381SOL     OW39601   0.634   3.522  12.236 -0.5788  0.6853  0.6958
 9381SOL    HW139602   0.650   3.582  12.309 -0.0808 -0.3883  1.4917
 9381SOL    HW239603   0.590   3.447  12.277  0.7570  0.1394  1.1686
 9382SOL     OW39604   3.323   1.308   6.349  0.2955 -0.9851 -0.2154
 9382SOL    HW139605   3.240   1.326   6.393 -0.1787 -1.8663 -0.7640
 9382SOL    HW239606   3.380   1.365   6.401 -0.0471 -1.3163  0.5196
 9383SOL     OW39607   3.114   4.536  14.781  0.2394  0.5743 -0.2181
 9383SOL    HW139608   3.146   4.460  14.829 -2.3918 -0.5747 -0.3163
 9383SOL    HW239609   3.028   4.545  14.822  0.8690 -0.6683  1.3846
 9384SOL     OW39610   3.017   0.633   4.488 -0.4059  0.3202 -0.3292
 9384SOL    HW139611   2.967   0.704   4.527 -1.4306 -0.0524 -0.9771
 9384SOL    HW239612   3.091   0.679   4.449 -0.9682  1.1424 -0.4167
 9385SOL     OW39613   1.552   0.368   7.936 -0.1081  0.4783 -0.0442
 9385SOL    HW139614   1.580   0.423   8.010  1.2468 -1.7513  1.1097
 9385SOL    HW239615   1.642   0.359   7.903  1.8489  5.9173  3.8566
 9386SOL     OW39616   3.940   2.269  14.527  0.1284  0.3490 -0.5881
 9386SOL    HW139617   3.997   2.234  14.458  1.0933  1.2912 -0.2661
 9386SOL    HW239618   3.890   2.189  14.544  0.0475  0.4539 -0.3456
 9387SOL     OW39619   0.759   0.965   8.788  0.0270  0.2850  0.2395
 9387SOL    HW139620   0.852   0.945   8.781 -0.2350 -1.3564  1.6493
 9387SOL    HW239621   0.714   0.911   8.723 -1.4124  0.6528  0.9421
 9388SOL     OW39622   1.531   1.320  17.560  0.2526  0.1426  0.5478
 9388SOL    HW139623   1.460   1.278  17.511 -1.4505  2.4919  1.0323
 9388SOL    HW239624   1.554   1.389  17.499 -1.4823  1.1094  0.9806
 9389SOL     OW39625   1.146   4.648   4.672 -0.0074  0.4169  0.4679
 9389SOL    HW139626   1.101   4.624   4.591 -0.0250  2.8686 -0.2481
 9389SOL    HW239627   1.210   4.580   4.693 -1.0705 -0.5109  0.6938
 9390SOL     OW39628   1.295   2.560   6.547  0.4497 -0.1584 -0.2957
 9390SOL    HW139629   1.274   2.524   6.461  2.7896 -3.7517  0.6254
 9390SOL    HW239630   1.361   2.625   6.522  1.0801  0.4008  2.7841
 9391SOL     OW39631   2.267   0.762   3.277 -0.7888  0.1201 -0.4423
 9391SOL    HW139632   2.359   0.783   3.257 -0.7800  0.8807  0.4034
 9391SOL    HW239633   2.279   0.704   3.352 -2.2789 -1.1948 -1.2184
 9392SOL     OW39634   3.105   2.944   9.127 -0.0745 -0.6432  0.0995
 9392SOL    HW139635   3.132   3.002   9.199 -2.9502  1.8767 -0.8461
 9392SOL    HW239636   3.178   2.944   9.065 -0.6557  2.3662 -0.6140
 9393SOL     OW39637   3.896   1.235   6.888  0.1762 -0.2080 -0.2606
 9393SOL    HW139638   3.895   1.142   6.866 -0.5384 -0.7820  2.2396
 9393SOL    HW239639   3.811   1.253   6.848  0.3988  0.1118 -0.5995
 9394SOL     OW39640   3.999   0.305   5.827  0.4047  0.0669 -0.4559
 9394SOL    HW139641   4.075   0.280   5.881 -1.8003 -0.7299  2.2935
 9394SOL    HW239642   3.998   0.224   5.777 -1.3988 -1.2680  1.7106
 9395SOL     OW39643   3.494   0.029  13.249  0.5832 -0.3688 -0.6283
 9395SOL    HW139644   3.400   0.019  13.233 -0.2060  1.2496  3.0893
 9395SOL    HW239645   3.527   4.702  13.177 -0.3039 -0.1616 -1.1880
 9396SOL     OW39646   1.703   1.221   4.276 -0.2215  0.2673  0.1388
 9396SOL    HW139647   1.779   1.186   4.322  1.6112  1.2907 -2.1595
 9396SOL    HW239648   1.736   1.256   4.194  1.5321 -1.1976  0.2420
 9397SOL     OW39649   1.819   3.092   3.893  0.2917 -0.2016  0.4487
 9397SOL    HW139650   1.799   3.178   3.932  3.2781  0.6331  0.1195
 9397SOL    HW239651   1.851   3.117   3.807 -3.5898  0.2378 -0.8811
 9398SOL     OW39652   3.939   3.499   0.638 -0.8863 -0.7347  0.3063
 9398SOL    HW139653   3.869   3.449   0.679 -0.8440 -0.1300  1.1154
 9398SOL    HW239654   3.982   3.536   0.715  0.2044  1.1294 -1.1844
 9399SOL     OW39655   0.829   0.618   7.301  0.6278  0.1163  0.0109
 9399SOL    HW139656   0.788   0.584   7.381  1.2138  0.4208  0.4411
 9399SOL    HW239657   0.884   0.540   7.294  0.2130 -0.2119  0.4222
 9400SOL     OW39658   0.550   2.292  12.633  0.0124 -0.4125 -0.0614
 9400SOL    HW139659   0.640   2.314  12.653 -0.3818  2.0222 -0.9837
 9400SOL    HW239660   0.499   2.371  12.650  0.2545 -0.4823  1.0053
 9401SOL     OW39661   2.217   0.769   9.017 -0.5320 -0.7283  0.3367
 9401SOL    HW139662   2.273   0.744   9.090  0.7130 -0.5835 -0.5794
 9401SOL    HW239663   2.131   0.760   9.060 -0.4516  1.2205  0.8705
 9402SOL     OW39664   3.003   2.596  13.351 -0.3239 -0.0482  0.4470
 9402SOL    HW139665   3.093   2.625  13.365 -0.6863  1.6460 -0.8330
 9402SOL    HW239666   2.951   2.675  13.340  0.9216  0.5423 -1.0756
 9403SOL     OW39667   1.951   1.622   0.760 -0.0938 -0.0826  0.5809
 9403SOL    HW139668   2.019   1.556   0.772 -0.2109  0.0625  2.0963
 9403SOL    HW239669   1.872   1.572   0.742  0.3286 -1.0072  1.3316
 9404SOL     OW39670   0.020   2.305  15.763  0.1872 -0.1199 -0.2929
 9404SOL    HW139671   4.665   2.328  15.809 -0.4158 -1.1463 -0.8336
 9404SOL    HW239672   4.723   2.214  15.747 -1.4586  0.2464 -0.0225
 9405SOL     OW39673   0.194   1.435   4.593 -0.0012  0.2819 -0.1126
 9405SOL    HW139674   0.186   1.420   4.687 -1.9994  0.2838 -0.2823
 9405SOL    HW239675   0.241   1.359   4.559  0.6528  0.1938  0.9782
 9406SOL     OW39676   2.534   0.283  10.892  0.0472 -0.0642 -0.2593
 9406SOL    HW139677   2.448   0.266  10.855 -0.2727  0.8788  0.0384
 9406SOL    HW239678   2.530   0.241  10.978 -1.1884  0.1307 -0.2183
 9407SOL     OW39679   3.376   4.716   5.363 -0.7544  0.0733 -0.2582
 9407SOL    HW139680   3.346   0.002   5.454  4.7649  0.7115  1.4908
 9407SOL    HW239681   3.326   0.065   5.330 -1.1759 -0.2785 -0.4247
 9408SOL     OW39682   2.109   2.379   3.642  0.1131 -0.0188  0.2858
 9408SOL    HW139683   2.099   2.403   3.734 -0.3541 -1.1951  0.5538
 9408SOL    HW239684   2.122   2.463   3.599  0.1512 -0.1908 -0.0330
 9409SOL     OW39685   2.218   4.638   8.380 -0.4063  0.3083  0.5864
 9409SOL    HW139686   2.235   4.632   8.474 -1.4952  0.4694  0.8005
 9409SOL    HW239687   2.223   0.007   8.367  1.0887  0.2181  0.5190
 9410SOL     OW39688   1.855   0.749  17.481 -0.3031 -0.7340  0.1881
 9410SOL    HW139689   1.798   0.818  17.514  2.3464  2.0162 -0.9584
 9410SOL    HW239690   1.838   0.695  17.559  0.7289 -2.5023 -0.8189
 9411SOL     OW39691   2.979   3.490   4.842 -0.3093  0.2034  0.1333
 9411SOL    HW139692   2.920   3.561   4.866 -0.8296 -0.3521  0.4827
 9411SOL    HW239693   3.024   3.531   4.768  0.9761 -0.2273  0.6670
 9412SOL     OW39694   1.330   0.303   2.265 -0.5708  0.2959  0.6949
 9412SOL    HW139695   1.392   0.376   2.263 -0.3686  0.0923 -0.3889
 9412SOL    HW239696   1.384   0.235   2.306  1.6791  2.2929  0.9925
 9413SOL     OW39697   0.130   3.508   8.940  0.1019  0.0395 -0.4349
 9413SOL    HW139698   0.160   3.579   8.997  0.9867 -1.9689  1.5681
 9413SOL    HW239699   0.040   3.505   8.970 -0.3547  2.4228 -1.5382
 9414SOL     OW39700   2.704   3.939   2.945  0.3501 -0.5851  0.0953
 9414SOL    HW139701   2.618   3.966   2.912  0.7441  0.5525 -0.0028
 9414SOL    HW239702   2.737   3.886   2.873 -0.8011 -1.8178  0.4766
 9415SOL     OW39703   2.080   3.756   4.553 -0.6193  0.1533  0.3146
 9415SOL    HW139704   2.055   3.725   4.640  0.0979  0.9546  0.7998
 9415SOL    HW239705   2.174   3.768   4.569 -0.7159  0.5618  0.5537
 9416SOL     OW39706   3.284   1.795   4.795  0.2482  0.1247 -0.1575
 9416SOL    HW139707   3.284   1.848   4.715 -1.1270  0.1083 -0.1709
 9416SOL    HW239708   3.191   1.799   4.818  0.0124  0.5174 -1.2066
 9417SOL     OW39709   3.342   2.276  13.288  0.5857  0.0300  0.3590
 9417SOL    HW139710   3.256   2.287  13.329  2.1053 -1.6272  4.0041
 9417SOL    HW239711   3.321   2.200  13.234  2.8205  0.3898 -1.0129
 9418SOL     OW39712   3.033   2.229  11.449 -0.1981 -0.3742 -0.1674
 9418SOL    HW139713   2.965   2.209  11.514  0.7760 -3.5368 -0.1205
 9418SOL    HW239714   3.075   2.146  11.427  1.7148  0.1347  1.6199
 9419SOL     OW39715   2.941   2.988   7.841 -0.1768  0.4008 -0.0055
 9419SOL    HW139716   2.996   2.917   7.808  2.1595  1.6485  1.1922
 9419SOL    HW239717   2.989   3.011   7.921  0.3722 -0.5617 -0.0555
 9420SOL     OW39718   4.265   4.244  16.532  0.0462 -0.2921 -0.3000
 9420SOL    HW139719   4.270   4.274  16.623  0.6043  0.0282 -0.4346
 9420SOL    HW239720   4.184   4.279  16.495 -0.8251  1.1954  3.0278
 9421SOL     OW39721   2.052   3.047   5.906  0.3186 -0.1184 -0.4522
 9421SOL    HW139722   2.109   3.123   5.919 -0.1238  0.1886 -0.2974
 9421SOL    HW239723   2.112   2.984   5.867 -1.5372 -1.4092 -1.2355
 9422SOL     OW39724   3.954   1.093  16.763  0.4859  0.3029 -0.0483
 9422SOL    HW139725   3.927   1.160  16.700 -0.4942  2.4167  2.6230
 9422SOL    HW239726   3.944   1.129  16.851  1.5261 -0.6809  0.4671
 9423SOL     OW39727   0.981   3.555  16.633  0.4614 -0.4590 -0.4664
 9423SOL    HW139728   0.991   3.492  16.704  0.2155  0.3123  0.2536
 9423SOL    HW239729   0.922   3.621  16.670 -0.8078 -0.6938 -2.0249
 9424SOL     OW39730   2.186   1.474  16.021 -0.1678  0.0049  0.6652
 9424SOL    HW139731   2.143   1.394  16.054  1.6110 -2.6377 -3.4259
 9424SOL    HW239732   2.224   1.451  15.936 -1.4417  2.1487 -0.4774
 9425SOL     OW39733   3.329   2.274   3.979 -0.2953 -0.1195  0.3441
 9425SOL    HW139734   3.259   2.215   4.008 -1.9906  2.0107  0.6176
 9425SOL    HW239735   3.376   2.217   3.919  0.5088  0.2072  0.6681
 9426SOL     OW39736   2.136   2.795   5.163  0.0970  0.3196  0.1083
 9426SOL    HW139737   2.182   2.753   5.090  0.6495  3.1583 -1.1424
 9426SOL    HW239738   2.204   2.802   5.231  1.0493 -0.9653 -0.7117
 9427SOL     OW39739   3.432   2.342   4.859 -0.1707 -0.2122 -0.0314
 9427SOL    HW139740   3.454   2.343   4.952 -1.0542 -4.1160  0.2506
 9427SOL    HW239741   3.347   2.385   4.869  0.3594  0.5244  1.2946
 9428SOL     OW39742   2.645   2.705   2.675 -0.4530  0.1717  0.7251
 9428SOL    HW139743   2.682   2.778   2.625  1.9996 -0.7277  1.2233
 9428SOL    HW239744   2.562   2.682   2.633  0.0152 -1.7669  0.8567
 9429SOL     OW39745   3.341   0.533  14.708 -0.6583  0.4729 -0.2506
 9429SOL    HW139746   3.390   0.508  14.630 -0.2571  0.9658 -0.1595
 9429SOL    HW239747   3.293   0.604  14.665 -0.1122 -0.2754 -2.0617
 9430SOL     OW39748   3.102   0.975   6.572  0.1905  0.1906  0.4743
 9430SOL    HW139749   3.119   0.927   6.652  0.9345 -0.0779  0.1532
 9430SOL    HW239750   3.191   0.977   6.537 -0.7308  0.3711 -1.9330
 9431SOL     OW39751   0.227   2.393   1.773  0.2742  0.5189 -0.0230
 9431SOL    HW139752   0.240   2.299   1.786  1.2996  0.8294  1.2011
 9431SOL    HW239753   0.137   2.403   1.742  0.0041  1.7844  1.1298
 9432SOL     OW39754   0.968   2.006  13.367 -0.1603  0.1886  0.5922
 9432SOL    HW139755   0.942   1.926  13.321 -1.0974  0.4491  0.6747
 9432SOL    HW239756   0.914   2.068  13.318 -0.9791 -0.1392  1.0769
 9433SOL     OW39757   2.915   4.424  15.637  0.4943  0.4644 -0.1553
 9433SOL    HW139758   2.992   4.468  15.674 -0.3196  0.7360  1.2320
 9433SOL    HW239759   2.955   4.394  15.556  0.6418  1.7094 -0.5499
 9434SOL     OW39760   4.612   4.464   5.965  0.1066 -0.0606 -0.3213
 9434SOL    HW139761   4.608   4.492   6.056  0.1240 -0.1747 -0.2856
 9434SOL    HW239762   4.536   4.409   5.948 -0.5822  0.4198  1.2040
 9435SOL     OW39763   1.067   3.633   3.360 -0.0098 -0.2373  0.2764
 9435SOL    HW139764   1.092   3.571   3.428 -0.1150  0.1279  0.6427
 9435SOL    HW239765   1.063   3.573   3.285  1.3480  0.4226 -0.3222
 9436SOL     OW39766   4.112   2.296   7.631 -0.9208 -0.0474 -0.3749
 9436SOL    HW139767   4.075   2.262   7.549  2.2387 -0.7566 -1.5194
 9436SOL    HW239768   4.079   2.385   7.623  0.9942  0.7808  1.0271
 9437SOL     OW39769   2.664   0.025  17.196  0.4094  0.1769 -0.6546
 9437SOL    HW139770   2.678   0.096  17.133  1.5948  0.9986  0.5162
 9437SOL    HW239771   2.583   4.712  17.164  0.9005 -0.2479 -1.3700
 9438SOL     OW39772   3.418   3.202   0.633  0.2305 -0.6316 -0.2613
 9438SOL    HW139773   3.462   3.136   0.578  1.8848 -0.1854  0.5356
 9438SOL    HW239774   3.433   3.175   0.724  1.6055  0.3365 -0.2003
 9439SOL     OW39775   0.982   3.886  14.594 -0.5847  0.1331  0.5899
 9439SOL    HW139776   0.888   3.901  14.584 -0.2786  1.0049 -0.9338
 9439SOL    HW239777   1.005   3.973  14.561  0.2676 -1.7497 -3.7625
 9440SOL     OW39778   0.087   1.768  15.070  0.3601 -0.2316  0.3091
 9440SOL    HW139779   0.091   1.795  14.979  1.7117  0.0416  0.4500
 9440SOL    HW239780   0.155   1.821  15.112 -1.0921  1.3006  0.7291
 9441SOL     OW39781   3.938   3.597  11.261 -0.5139  0.2304 -0.5316
 9441SOL    HW139782   3.847   3.619  11.283  0.2439  1.4072  1.3606
 9441SOL    HW239783   3.929   3.561  11.173  1.3010 -2.7791  0.5110
 9442SOL     OW39784   0.298   1.500  15.138 -0.1610 -0.3201  0.4505
 9442SOL    HW139785   0.206   1.493  15.116 -0.1065  0.0725  0.0995
 9442SOL    HW239786   0.325   1.446  15.064 -0.6176  0.3100 -0.1815
 9443SOL     OW39787   3.756   1.330   5.713  0.4540 -0.7688 -0.4504
 9443SOL    HW139788   3.783   1.334   5.805 -0.4231  0.6725 -0.2572
 9443SOL    HW239789   3.776   1.239   5.693 -0.7633 -1.3001  0.7725
 9444SOL     OW39790   0.140   0.950   5.243 -0.2321  0.4245  0.1014
 9444SOL    HW139791   0.134   0.855   5.252 -4.0992  0.9033  2.6289
 9444SOL    HW239792   0.058   0.978   5.284  1.1826  2.1859  1.7161
 9445SOL     OW39793   2.582   3.515   9.370  0.2442  0.0541 -0.1828
 9445SOL    HW139794   2.505   3.482   9.324 -0.3222  1.2846 -0.1365
 9445SOL    HW239795   2.628   3.560   9.299  0.6545 -1.6650 -0.9815
 9446SOL     OW39796   1.663   2.969   1.934  0.4397 -0.1155 -0.7175
 9446SOL    HW139797   1.742   2.918   1.920  1.8631  1.4114  1.5744
 9446SOL    HW239798   1.599   2.899   1.946 -0.3696  1.0792  1.9163
 9447SOL     OW39799   1.092   0.044  10.368 -0.2603  0.1322  0.1004
 9447SOL    HW139800   1.139   0.110  10.316 -0.3021 -0.8358 -1.1653
 9447SOL    HW239801   1.117   4.694  10.315 -0.4998 -0.8161  1.3422
 9448SOL     OW39802   1.278   4.557   6.104  0.4558 -0.1830 -0.6621
 9448SOL    HW139803   1.198   4.607   6.119  0.3257 -0.3508 -0.7849
 9448SOL    HW239804   1.298   4.557   6.010 -1.2621 -2.0369 -1.0400
 9449SOL     OW39805   2.674   4.309   9.855 -0.2751 -0.2138 -0.1870
 9449SOL    HW139806   2.654   4.367   9.782  0.5212 -0.9474 -0.9914
 9449SOL    HW239807   2.638   4.355   9.931  3.4645  2.1830  0.1418
 9450SOL     OW39808   1.858   0.775   2.303  0.2600  0.2389 -0.1300
 9450SOL    HW139809   1.812   0.852   2.269 -1.6540 -0.5922  0.6120
 9450SOL    HW239810   1.782   0.724   2.332  0.8331 -1.7585 -2.1688
 9451SOL     OW39811   2.623   0.150   3.863 -0.6600  0.1501 -0.3732
 9451SOL    HW139812   2.700   0.204   3.848 -0.7360  0.6057  0.8659
 9451SOL    HW239813   2.609   0.120   3.773  0.1584 -0.2225 -0.3746
 9452SOL     OW39814   3.934   2.837   5.899 -0.6482  0.1110  0.2109
 9452SOL    HW139815   3.977   2.753   5.883 -1.4011 -0.0554 -0.9168
 9452SOL    HW239816   3.887   2.816   5.979 -1.6818 -0.5246 -0.5600
 9453SOL     OW39817   4.254   1.053  14.010  0.2214  0.0429 -0.5717
 9453SOL    HW139818   4.295   1.033  13.925 -1.0450 -1.3051 -0.8724
 9453SOL    HW239819   4.242   0.963  14.041  1.6415  0.3721  0.9261
 9454SOL     OW39820   2.100   1.360   9.683  0.8180 -0.0054  0.3852
 9454SOL    HW139821   2.082   1.454   9.689  0.1974 -0.0413 -0.8329
 9454SOL    HW239822   2.051   1.329   9.760  0.9431 -0.6645  0.2023
 9455SOL     OW39823   3.999   4.341  16.883  0.4393 -0.3919 -0.7068
 9455SOL    HW139824   3.968   4.257  16.850  1.3117 -2.1341  2.9770
 9455SOL    HW239825   4.078   4.315  16.929  0.6842  0.9851 -0.3464
 9456SOL     OW39826   1.843   1.984   7.767 -0.0777 -0.3234 -0.0203
 9456SOL    HW139827   1.928   2.021   7.743  0.3519 -0.8789  0.6331
 9456SOL    HW239828   1.858   1.891   7.749  0.5654  0.2248 -2.2957
 9457SOL     OW39829   0.123   2.821   5.061  0.0252  0.3808 -0.3343
 9457SOL    HW139830   0.178   2.869   4.999  2.1500 -0.8546  0.5988
 9457SOL    HW239831   0.090   2.898   5.106 -1.2532  0.1623 -0.9059
 9458SOL     OW39832   2.757   3.498   2.413  1.0113  0.2141 -0.0346
 9458SOL    HW139833   2.778   3.543   2.331  1.4429 -0.8048 -0.4831
 9458SOL    HW239834   2.844   3.501   2.453  0.3894  0.0850  1.3182
 9459SOL     OW39835   2.033   3.103   3.383 -0.0245 -0.1155  0.4155
 9459SOL    HW139836   2.082   3.185   3.387 -0.9896  0.5729 -1.8760
 9459SOL    HW239837   2.096   3.045   3.426  1.8450  0.1818 -1.8612
 9460SOL     OW39838   3.207   0.323   7.687 -0.5121 -0.2374 -0.0796
 9460SOL    HW139839   3.150   0.343   7.761 -0.2028 -0.4819  0.2279
 9460SOL    HW239840   3.240   0.237   7.714  0.2225 -0.1368 -0.6638
 9461SOL     OW39841   1.861   1.913  13.568  0.3937 -0.2051 -0.3094
 9461SOL    HW139842   1.831   1.999  13.598  2.8920 -0.1416  1.9282
 9461SOL    HW239843   1.828   1.904  13.478  2.3665 -0.3828 -1.0043
 9462SOL     OW39844   0.264   3.138   7.211 -0.1011  0.8674  0.1029
 9462SOL    HW139845   0.324   3.106   7.279 -2.1334 -0.7133  1.1295
 9462SOL    HW239846   0.254   3.232   7.227 -2.3505  0.9848 -2.0870
 9463SOL     OW39847   3.374   2.293   7.133 -0.8806 -0.1199 -0.6243
 9463SOL    HW139848   3.311   2.364   7.129 -0.2805  0.5405  1.5043
 9463SOL    HW239849   3.335   2.224   7.079 -1.4600 -1.7289  1.8555
 9464SOL     OW39850   1.839   4.137   6.267  0.0484 -0.1058 -0.2354
 9464SOL    HW139851   1.859   4.053   6.226 -1.2343 -0.8305  0.6274
 9464SOL    HW239852   1.927   4.172   6.260  1.4873 -4.0477 -1.9522
 9465SOL     OW39853   1.598   3.252   6.793 -0.0754 -0.2452  0.0647
 9465SOL    HW139854   1.662   3.228   6.726  1.2462  0.8923  0.9212
 9465SOL    HW239855   1.513   3.268   6.754 -0.6121  1.9383  2.1531
 9466SOL     OW39856   2.027   0.792  11.861 -0.3725  0.1623 -0.6720
 9466SOL    HW139857   1.956   0.856  11.874 -1.4615 -0.7716 -2.0124
 9466SOL    HW239858   2.087   0.808  11.934  0.7370  0.0606 -1.5652
 9467SOL     OW39859   1.649   2.580  12.761  0.0588  0.2091  0.0369
 9467SOL    HW139860   1.659   2.499  12.711 -0.8785  0.9860 -1.4057
 9467SOL    HW239861   1.605   2.553  12.842 -0.2817  0.5358 -0.0425
 9468SOL     OW39862   3.859   0.548   2.929 -0.4850  0.0412 -0.2865
 9468SOL    HW139863   3.930   0.517   2.873  0.2766  1.1584  0.0485
 9468SOL    HW239864   3.817   0.468   2.961  0.5516 -0.1329  0.6236
 9469SOL     OW39865   1.175   2.677  15.178 -0.0572 -0.3843 -0.1575
 9469SOL    HW139866   1.120   2.737  15.229 -0.3398  1.1843 -2.3155
 9469SOL    HW239867   1.134   2.702  15.096  0.8354  1.2989 -0.1060
 9470SOL     OW39868   2.326   2.540   5.995 -1.1158 -0.5612 -0.0503
 9470SOL    HW139869   2.273   2.606   6.040  0.7209 -0.8623  2.5526
 9470SOL    HW239870   2.302   2.461   6.044 -0.4634 -1.4011 -1.0962
 9471SOL     OW39871   3.941   3.963   6.436 -0.5509  0.0737  0.1669
 9471SOL    HW139872   3.995   4.036   6.406  0.4009 -1.4110 -1.7305
 9471SOL    HW239873   3.854   3.999   6.419  0.7801  2.9028 -0.6194
 9472SOL     OW39874   0.982   1.951  10.359 -0.3986  0.0943 -0.1257
 9472SOL    HW139875   0.998   1.856  10.355 -3.0846 -0.2975 -1.6788
 9472SOL    HW239876   1.001   1.978  10.269  1.0143 -1.8786 -0.4409
 9473SOL     OW39877   1.906   1.804  16.334  0.1054  0.2872  0.6183
 9473SOL    HW139878   1.905   1.752  16.254 -2.6267  2.5494 -0.8055
 9473SOL    HW239879   1.858   1.741  16.389  0.3904 -0.4593  0.0238
 9474SOL     OW39880   2.190   3.103  13.818  0.8953  0.6183 -0.1178
 9474SOL    HW139881   2.234   3.061  13.892 -0.4628 -1.0902 -0.2801
 9474SOL    HW239882   2.110   3.051  13.807  0.1993  1.2448  1.9748
 9475SOL     OW39883   2.572   4.377   5.994  0.0727 -0.3726 -0.1931
 9475SOL    HW139884   2.529   4.331   6.066  1.0882  1.8501  1.8479
 9475SOL    HW239885   2.629   4.441   6.036 -3.1745  0.7513  2.5549
 9476SOL     OW39886   1.222   4.455  13.941 -0.2935 -0.7964 -0.5007
 9476SOL    HW139887   1.134   4.419  13.954 -0.3115 -0.2442  0.9037
 9476SOL    HW239888   1.286   4.388  13.965 -0.6316 -0.9812 -0.1130
 9477SOL     OW39889   3.555   0.103   2.689 -0.3529  0.8091  0.1053
 9477SOL    HW139890   3.553   0.047   2.766 -1.5552 -0.9509 -1.2247
 9477SOL    HW239891   3.636   0.149   2.714  0.1600 -0.0110 -0.0515
 9478SOL     OW39892   2.806   3.064  14.856  0.1762 -0.4449 -0.0016
 9478SOL    HW139893   2.862   3.084  14.931  0.2460  1.8708 -0.6746
 9478SOL    HW239894   2.869   3.063  14.784  1.7771  0.2234  1.3986
 9479SOL     OW39895   3.687   0.919   2.272  0.1309  0.0727 -0.0316
 9479SOL    HW139896   3.625   0.992   2.274  1.3123  1.0417  1.1488
 9479SOL    HW239897   3.638   0.853   2.320 -0.3886 -2.0406 -3.4279
 9480SOL     OW39898   1.092   3.504  17.157  0.5168 -0.0074 -0.5622
 9480SOL    HW139899   1.160   3.447  17.120  0.1287  0.3676 -1.8606
 9480SOL    HW239900   1.032   3.441  17.196  1.2111 -0.5816 -0.4234
 9481SOL     OW39901   4.267   1.215   7.879  0.4132  0.1365 -0.3642
 9481SOL    HW139902   4.268   1.120   7.886  0.7467 -0.0981 -3.2866
 9481SOL    HW239903   4.345   1.223   7.824 -0.5711  3.3079 -1.3011
 9482SOL     OW39904   0.983   1.061   8.583 -0.4251  0.5867  0.8953
 9482SOL    HW139905   0.918   1.099   8.642 -0.8246 -0.1364  0.9211
 9482SOL    HW239906   0.987   1.134   8.521 -1.8811  0.3353  0.4885
 9483SOL     OW39907   2.673   2.500   6.980  0.5773  0.3291  0.1462
 9483SOL    HW139908   2.662   2.410   7.009 -0.6084  0.3367 -0.2778
 9483SOL    HW239909   2.636   2.550   7.053 -0.8712  0.7475 -0.8664
 9484SOL     OW39910   1.576   4.234   6.421  0.3620  0.0954 -0.9985
 9484SOL    HW139911   1.619   4.150   6.437 -2.7997 -1.7470 -2.2102
 9484SOL    HW239912   1.487   4.209   6.443  0.9264 -0.6405  0.4651
 9485SOL     OW39913   2.421   1.400   2.148 -0.8093  0.5409 -0.6862
 9485SOL    HW139914   2.438   1.331   2.212 -0.6971  0.6976 -0.5465
 9485SOL    HW239915   2.511   1.434   2.152 -0.0015 -1.7281  0.3508
 9486SOL     OW39916   2.312   1.137   6.829 -0.2405 -0.2417 -0.3158
 9486SOL    HW139917   2.252   1.071   6.863  1.0856 -1.2610  0.0836
 9486SOL    HW239918   2.387   1.120   6.887  2.1015 -0.6781 -3.4533
 9487SOL     OW39919   0.073   4.601   9.603 -0.6411 -0.4667  0.2420
 9487SOL    HW139920   4.718   4.597   9.551 -1.4349  0.2588  1.4407
 9487SOL    HW239921   0.131   4.659   9.553 -0.0923  0.4460  1.9623
 9488SOL     OW39922   0.243   3.376   8.125 -0.4658  0.1193  0.6691
 9488SOL    HW139923   0.274   3.424   8.201 -3.5001  0.8377  1.4179
 9488SOL    HW239924   0.315   3.313   8.117 -0.2777  0.7742 -3.0986
 9489SOL     OW39925   3.225   3.674   4.972  0.2134  0.4553  0.4950
 9489SOL    HW139926   3.304   3.656   4.922  0.0540 -1.0603  0.7778
 9489SOL    HW239927   3.152   3.697   4.914  0.9026 -0.5752 -0.8039
 9490SOL     OW39928   2.187   4.427   9.325  0.1944  0.5511 -0.4789
 9490SOL    HW139929   2.266   4.415   9.272  0.4223 -0.2537  0.0586
 9490SOL    HW239930   2.157   4.337   9.326  0.8219  0.3502  0.0487
 9491SOL     OW39931   4.086   1.152   3.218 -0.4908 -0.2192 -0.0681
 9491SOL    HW139932   4.089   1.115   3.306 -0.0090  0.1082  0.0499
 9491SOL    HW239933   4.178   1.160   3.193  0.1245 -1.7163  1.7596
 9492SOL     OW39934   3.482   4.558   5.782  0.2172  0.1216  0.0316
 9492SOL    HW139935   3.397   4.535   5.745  0.8532 -3.0331  0.5165
 9492SOL    HW239936   3.534   4.582   5.706 -3.4316 -0.4573 -2.6524
 9493SOL     OW39937   1.314   3.266   8.564 -0.0551  0.3721  0.0858
 9493SOL    HW139938   1.285   3.350   8.529  1.5781  0.7674 -0.3050
 9493SOL    HW239939   1.276   3.276   8.652  1.9756 -2.0158  1.2319
 9494SOL     OW39940   2.639   2.647  12.510 -0.3546  0.4056 -0.0250
 9494SOL    HW139941   2.564   2.704  12.497 -1.4756 -1.0250  0.1973
 9494SOL    HW239942   2.702   2.688  12.450  1.1193 -0.1020  1.1665
 9495SOL     OW39943   3.245   3.862   8.787 -0.7191  0.0386  0.4050
 9495SOL    HW139944   3.275   3.809   8.861  1.3422 -2.3566 -2.1611
 9495SOL    HW239945   3.319   3.852   8.727 -2.4226 -0.5324 -1.5924
 9496SOL     OW39946   1.918   4.012   4.129  0.2738  0.0766  0.3688
 9496SOL    HW139947   1.872   4.066   4.193  1.9769  1.5386  0.3591
 9496SOL    HW239948   1.964   3.949   4.184  1.0093 -0.6027 -1.0260
 9497SOL     OW39949   0.907   0.904   4.061 -0.2831  0.0425  0.1343
 9497SOL    HW139950   0.948   0.824   4.028  0.3223  1.1043 -1.6493
 9497SOL    HW239951   0.984   0.928   4.113 -0.0108  2.4433 -1.3824
 9498SOL     OW39952   3.290   1.862   4.167  0.4617 -0.5315 -0.4340
 9498SOL    HW139953   3.303   1.828   4.255  1.0134 -1.6495 -0.9485
 9498SOL    HW239954   3.355   1.931   4.176 -0.1140  0.1630 -1.6514
 9499SOL     OW39955   1.121   2.727  14.935 -0.3989 -0.1217 -0.8967
 9499SOL    HW139956   1.114   2.675  14.854  0.4069 -1.7810  0.0969
 9499SOL    HW239957   1.212   2.755  14.924 -0.3635 -0.2277 -0.8738
 9500SOL     OW39958   4.163   4.183   9.187 -0.8586  0.0371  0.0313
 9500SOL    HW139959   4.121   4.098   9.200 -1.5603  0.2337 -0.8880
 9500SOL    HW239960   4.096   4.248   9.209 -1.2216 -0.6603  0.9471
 9501SOL     OW39961   3.384   2.359   6.702  0.2501  0.1178 -0.1606
 9501SOL    HW139962   3.351   2.294   6.640 -2.0755  0.7861  0.3844
 9501SOL    HW239963   3.336   2.340   6.782 -1.7682  1.3977 -1.0786
 9502SOL     OW39964   3.351   1.021   7.212  0.1686  0.6459  0.1591
 9502SOL    HW139965   3.298   0.983   7.282  1.2870  2.1961  1.8490
 9502SOL    HW239966   3.440   1.010   7.246 -0.0639  1.4582  1.0237
 9503SOL     OW39967   4.162   0.762  15.924 -0.3514  0.2300 -0.8760
 9503SOL    HW139968   4.187   0.732  15.837 -2.3179 -1.3976 -0.8858
 9503SOL    HW239969   4.113   0.839  15.893 -0.1895  1.7806  2.7624
 9504SOL     OW39970   0.864   4.111  16.006  0.2090 -0.1411  0.4114
 9504SOL    HW139971   0.823   4.193  15.979 -2.3813 -1.1807  1.1246
 9504SOL    HW239972   0.788   4.060  16.036 -1.0669  0.6175 -1.5464
 9505SOL     OW39973   2.303   3.135  10.369 -0.3768 -0.0304  0.2509
 9505SOL    HW139974   2.346   3.050  10.369  0.2891  0.3075 -0.3938
 9505SOL    HW239975   2.210   3.119  10.382 -0.7258  0.2793 -1.7831
 9506SOL     OW39976   0.751   4.156  13.040 -0.0541 -0.3648  0.5761
 9506SOL    HW139977   0.724   4.087  13.101 -2.7271 -0.4538 -0.7394
 9506SOL    HW239978   0.846   4.139  13.037  0.0125  0.2346 -0.6766
 9507SOL     OW39979   0.364   2.761   7.254  0.2782  0.4552  0.0895
 9507SOL    HW139980   0.312   2.725   7.182  1.2988 -0.5211 -0.1616
 9507SOL    HW239981   0.319   2.733   7.334 -0.5658 -1.1155 -0.9236
 9508SOL     OW39982   0.363   1.162   7.662  0.1857  0.0041 -0.4895
 9508SOL    HW139983   0.433   1.141   7.723 -1.7627 -1.4113  1.2326
 9508SOL    HW239984   0.373   1.256   7.645  1.4681  0.3720  2.4091
 9509SOL     OW39985   3.271   1.481   4.305 -0.1628  0.5085  0.2006
 9509SOL    HW139986   3.283   1.569   4.340  1.7423  0.5767 -0.5932
 9509SOL    HW239987   3.177   1.466   4.309  0.0614 -0.6830  0.9124
 9510SOL     OW39988   3.841   1.996   6.253 -0.0166 -0.0714  0.1590
 9510SOL    HW139989   3.933   2.018   6.267 -0.5811  2.3869 -0.1493
 9510SOL    HW239990   3.832   1.942   6.332  1.0602 -2.3833 -1.2978
 9511SOL     OW39991   3.400   2.759  16.845  0.1331 -0.1737  0.0074
 9511SOL    HW139992   3.445   2.753  16.761 -0.3693 -0.6584 -0.2363
 9511SOL    HW239993   3.345   2.837  16.837  1.6094  1.0607  2.1503
 9512SOL     OW39994   0.403   2.254   0.934 -0.4578 -0.0498  0.0784
 9512SOL    HW139995   0.486   2.297   0.914 -1.0303  1.2632  0.5358
 9512SOL    HW239996   0.346   2.291   0.867  1.5128 -0.1986 -1.6577
 9513SOL     OW39997   0.828   2.670   2.926  0.6943 -0.4846  0.3138
 9513SOL    HW139998   0.830   2.734   2.855  2.1867 -0.0725  0.7332
 9513SOL    HW239999   0.739   2.638   2.913 -0.3612  2.9597 -1.0437
 9514SOL     OW40000   2.684   2.025   2.578 -0.1329  0.1813  0.6045
 9514SOL    HW140001   2.655   2.068   2.497  1.0768  2.2499  1.2873
 9514SOL    HW240002   2.763   1.984   2.543  0.0497  3.0853 -2.4616
 9515SOL     OW40003   3.233   2.305   6.467 -0.1114  0.0676  0.4337
 9515SOL    HW140004   3.281   2.274   6.389  0.0532  1.3803  0.0119
 9515SOL    HW240005   3.145   2.273   6.449  0.1946 -0.5902  0.0628
 9516SOL     OW40006   3.628   2.182  11.441 -0.5518  0.5765 -0.8332
 9516SOL    HW140007   3.705   2.153  11.392 -0.4466  1.4497 -1.1834
 9516SOL    HW240008   3.577   2.102  11.433 -1.1286  1.1789 -3.1727
 9517SOL     OW40009   1.212   1.758  17.024 -0.3186  0.5204 -0.3398
 9517SOL    HW140010   1.275   1.809  17.074 -0.9797 -0.0149  1.0473
 9517SOL    HW240011   1.209   1.677  17.076 -0.2212  1.1475  0.6437
 9518SOL     OW40012   2.451   0.868   9.830 -0.1934 -0.0232 -0.7081
 9518SOL    HW140013   2.423   0.876   9.921  0.3282 -0.1809 -0.5356
 9518SOL    HW240014   2.459   0.774   9.813 -1.0814 -0.6087  2.0992
 9519SOL     OW40015   1.649   1.921   2.423 -0.1454  0.6020  0.4041
 9519SOL    HW140016   1.709   1.848   2.404 -0.7048  0.5587 -1.2434
 9519SOL    HW240017   1.676   1.986   2.359  0.7680 -2.0394 -1.9243
 9520SOL     OW40018   0.256   4.530  10.191 -0.2607 -0.4465  0.1464
 9520SOL    HW140019   0.263   4.440  10.221  0.7028 -0.7238 -0.9267
 9520SOL    HW240020   0.335   4.571  10.225 -1.2983 -1.4363  3.7390
 9521SOL     OW40021   0.085   0.389   5.855 -0.4105  0.2678  0.3285
 9521SOL    HW140022   0.154   0.421   5.913  0.4053 -0.1238 -0.4206
 9521SOL    HW240023   0.063   0.477   5.825  0.0511 -0.3161 -1.7204
 9522SOL     OW40024   3.053   1.775   5.841  0.0821  0.5028  0.7144
 9522SOL    HW140025   2.962   1.804   5.849 -0.2098 -0.0793 -0.5881
 9522SOL    HW240026   3.083   1.845   5.784  1.9243  2.8915  4.6146
 9523SOL     OW40027   0.327   1.784   6.666 -0.1957 -0.1328 -0.0091
 9523SOL    HW140028   0.306   1.715   6.730 -1.6513 -1.0588 -1.4920
 9523SOL    HW240029   0.268   1.849   6.704  0.6134  0.3671  0.3808
 9524SOL     OW40030   2.501   3.289   4.425  0.1630  0.2225  0.4337
 9524SOL    HW140031   2.501   3.338   4.343  0.8165 -2.7595 -1.3369
 9524SOL    HW240032   2.412   3.297   4.459  0.1437  2.4972 -0.1226
 9525SOL     OW40033   4.400   3.341   4.910  0.7627  0.2265  0.1690
 9525SOL    HW140034   4.445   3.419   4.878  1.9222 -0.0059  1.2501
 9525SOL    HW240035   4.411   3.279   4.838 -1.3088  0.6363 -0.5160
 9526SOL     OW40036   1.381   1.974   9.237 -0.6623  0.5004 -0.3778
 9526SOL    HW140037   1.302   1.979   9.292  1.1155 -0.5720  2.2365
 9526SOL    HW240038   1.446   1.980   9.307 -2.5154  1.1874  1.3084
 9527SOL     OW40039   1.562   2.666   2.965 -0.1877  0.1842  0.0716
 9527SOL    HW140040   1.591   2.705   2.883  0.2800 -0.6708 -0.1588
 9527SOL    HW240041   1.578   2.579   2.930 -0.3626  0.4173 -0.5873
 9528SOL     OW40042   1.891   4.175   9.204 -0.1027 -0.2362 -0.7322
 9528SOL    HW140043   1.807   4.197   9.244 -0.5402 -1.0214 -1.2282
 9528SOL    HW240044   1.865   4.093   9.161 -0.0871 -1.1132  0.9494
 9529SOL     OW40045   4.337   3.859   9.314  0.7007  0.2047 -0.2295
 9529SOL    HW140046   4.334   3.804   9.393 -0.9838 -0.6947 -0.9236
 9529SOL    HW240047   4.272   3.924   9.340 -0.7639 -1.3517  0.0100
 9530SOL     OW40048   3.860   4.413  14.802 -0.2103 -0.4585 -0.9112
 9530SOL    HW140049   3.767   4.423  14.822  0.5449  0.7957  2.0476
 9530SOL    HW240050   3.912   4.422  14.882 -1.1957 -2.1192 -0.1032
 9531SOL     OW40051   3.875   0.601   1.527 -0.6358 -0.1172  0.1573
 9531SOL    HW140052   3.967   0.628   1.522 -0.8264  0.2341 -1.5144
 9531SOL    HW240053   3.865   0.562   1.614  0.4386 -0.5016  0.1077
 9532SOL     OW40054   3.009   2.198   5.481 -0.3253  0.2055  0.3801
 9532SOL    HW140055   3.104   2.190   5.489 -0.3014  1.9308  1.8722
 9532SOL    HW240056   2.979   2.108   5.470  1.2731  0.1024 -3.0488
 9533SOL     OW40057   0.453   4.082  17.281  0.0476  0.3671  0.0117
 9533SOL    HW140058   0.442   4.028  17.203  0.4460 -0.3042  0.4254
 9533SOL    HW240059   0.431   4.018  17.348  1.8206 -0.8596 -0.5808
 9534SOL     OW40060   0.263   3.722  10.385 -0.1801 -0.1877  0.4153
 9534SOL    HW140061   0.318   3.709  10.307 -0.0556 -0.8564  0.6154
 9534SOL    HW240062   0.177   3.701  10.347 -0.3936 -1.4847  1.6100
 9535SOL     OW40063   0.636   4.102   5.603 -0.1042 -0.2977 -0.4511
 9535SOL    HW140064   0.715   4.088   5.655 -0.8372  0.0561  0.7585
 9535SOL    HW240065   0.581   4.147   5.667 -0.1673 -1.1963  0.1359
 9536SOL     OW40066   0.780   1.863   4.061  0.1660 -0.5821  0.3958
 9536SOL    HW140067   0.874   1.857   4.078  0.2747  0.8041  0.2820
 9536SOL    HW240068   0.773   1.847   3.967 -0.1184 -0.7888  0.4517
 9537SOL     OW40069   2.174   0.185   7.155 -0.3325  0.4086  0.6946
 9537SOL    HW140070   2.093   0.186   7.103 -0.3163 -1.7487  0.6079
 9537SOL    HW240071   2.184   0.093   7.181 -0.9585 -0.3035 -1.5661
 9538SOL     OW40072   3.324   1.620  10.208 -0.0752 -0.2576  0.1119
 9538SOL    HW140073   3.381   1.678  10.257 -2.4838  1.2402  1.1270
 9538SOL    HW240074   3.341   1.548  10.268  0.2841  0.3104  0.6815
 9539SOL     OW40075   2.105   2.710  12.406 -0.7426 -0.2191 -0.1152
 9539SOL    HW140076   2.104   2.793  12.358  1.9030  0.5679  1.1878
 9539SOL    HW240077   2.167   2.659  12.353 -0.9179  0.6010 -1.1157
 9540SOL     OW40078   4.442   3.473  11.716  0.4786  0.3546 -0.5000
 9540SOL    HW140079   4.509   3.427  11.767 -0.0037  0.9129  0.6343
 9540SOL    HW240080   4.483   3.452  11.632 -0.2369 -4.8971  0.4511
 9541SOL     OW40081   1.440   2.487   3.228  0.0934  0.8788  0.7485
 9541SOL    HW140082   1.502   2.446   3.168 -1.7214 -2.7368  1.3051
 9541SOL    HW240083   1.387   2.546   3.175  0.4095  0.1866 -0.3429
 9542SOL     OW40084   1.226   0.532   7.181 -0.4110  0.1245 -0.3685
 9542SOL    HW140085   1.197   0.507   7.094  0.9053  1.6437 -1.2517
 9542SOL    HW240086   1.255   0.448   7.216  2.3382  0.7087 -1.2215
 9543SOL     OW40087   3.756   1.288   7.297  0.0213 -0.3643  0.1026
 9543SOL    HW140088   3.755   1.281   7.392  0.5034  1.8008  0.2728
 9543SOL    HW240089   3.665   1.294   7.268  0.3343  0.4706 -0.7100
 9544SOL     OW40090   1.627   0.326   3.283 -0.6416 -0.1098 -0.5047
 9544SOL    HW140091   1.605   0.417   3.263 -0.0970  0.3155  0.8733
 9544SOL    HW240092   1.662   0.290   3.201  0.1104  2.2546 -1.2308
 9545SOL     OW40093   3.659   1.669   3.626  0.4484 -0.3200 -0.0672
 9545SOL    HW140094   3.588   1.728   3.603  1.3902  0.0682 -2.0119
 9545SOL    HW240095   3.719   1.725   3.675  0.5578  0.2582 -0.8741
 9546SOL     OW40096   0.794   3.643   7.429 -0.1235 -0.2846 -0.2217
 9546SOL    HW140097   0.735   3.680   7.495 -2.4654 -0.9886 -1.9651
 9546SOL    HW240098   0.735   3.601   7.367  0.8225  0.3726 -1.5860
 9547SOL     OW40099   4.384   3.290   8.445  0.1710 -0.7013 -0.3618
 9547SOL    HW140100   4.448   3.358   8.462 -2.4990  1.9747 -1.0426
 9547SOL    HW240101   4.419   3.269   8.358  1.3713 -1.3093  0.2668
 9548SOL     OW40102   0.618   1.634  14.742  0.2571 -0.3044  0.0692
 9548SOL    HW140103   0.545   1.616  14.802  1.1195 -1.1341  0.8722
 9548SOL    HW240104   0.671   1.707  14.774 -0.2670  1.1275 -2.3777
 9549SOL     OW40105   2.270   4.539   6.233 -0.2098  0.5214  1.0431
 9549SOL    HW140106   2.253   4.541   6.138 -1.0590  0.4313  1.1904
 9549SOL    HW240107   2.340   4.603   6.228 -1.1674  1.3915 -1.3696
 9550SOL     OW40108   3.576   4.515   4.130  0.1396  0.0373 -0.8833
 9550SOL    HW140109   3.651   4.491   4.184 -0.1540  0.9401 -0.0669
 9550SOL    HW240110   3.532   4.587   4.176 -1.3848  0.8655 -3.6260
 9551SOL     OW40111   2.429   4.644   2.494 -0.1407  0.5649  0.6234
 9551SOL    HW140112   2.414   4.569   2.437 -0.5480 -1.4446  3.3636
 9551SOL    HW240113   2.448   4.598   2.576  0.4009  2.1635  1.3964
 9552SOL     OW40114   3.646   1.464   8.533 -0.3119 -0.2801 -0.1070
 9552SOL    HW140115   3.577   1.506   8.481 -0.3994  0.3649  0.5217
 9552SOL    HW240116   3.595   1.402   8.586  0.2917  0.6382  1.5713
 9553SOL     OW40117   0.623   3.428  16.744 -0.0871  0.3031  0.0359
 9553SOL    HW140118   0.606   3.509  16.697  0.2325  0.5173  0.2901
 9553SOL    HW240119   0.615   3.450  16.837  1.7117 -1.0977  0.5404
 9554SOL     OW40120   4.593   3.646   1.066 -0.6931 -0.4620  0.0046
 9554SOL    HW140121   4.498   3.640   1.062 -0.6807 -0.9560  0.4370
 9554SOL    HW240122   4.615   3.628   1.158  0.4450  0.3815 -0.0998
 9555SOL     OW40123   0.918   0.150   8.331  0.2278 -0.0761 -0.8631
 9555SOL    HW140124   0.856   0.078   8.334  1.3232 -0.9588  0.8698
 9555SOL    HW240125   0.859   0.223   8.315 -0.3593 -0.4254 -0.2713
 9556SOL     OW40126   4.428   1.357   3.304 -0.0834 -0.1594 -0.3361
 9556SOL    HW140127   4.442   1.277   3.253  1.4251 -0.8317  1.1555
 9556SOL    HW240128   4.360   1.401   3.253  1.0082  0.1275 -1.5444
 9557SOL     OW40129   2.062   2.194   4.976 -0.4363  0.5448  0.0382
 9557SOL    HW140130   2.116   2.197   5.055 -0.5737  1.6436  0.0984
 9557SOL    HW240131   1.995   2.259   4.997  1.5804  2.8068 -0.5311
 9558SOL     OW40132   0.945   0.919   6.261  0.4472  0.0998  0.6591
 9558SOL    HW140133   0.888   0.845   6.241  1.8180 -0.1299 -2.4469
 9558SOL    HW240134   1.013   0.909   6.193  1.8635 -1.2815  2.2896
 9559SOL     OW40135   0.464   2.664   4.949 -0.2434 -0.1146 -0.0832
 9559SOL    HW140136   0.546   2.624   4.919  0.2705  0.0145  1.1294
 9559SOL    HW240137   0.467   2.630   5.039  0.9156 -2.2315 -0.9257
 9560SOL     OW40138   0.832   1.591  17.343 -0.1022 -0.1948 -0.2202
 9560SOL    HW140139   0.787   1.514  17.308  1.1843 -0.6039 -1.0009
 9560SOL    HW240140   0.831   1.655  17.271 -1.9577 -0.8290 -0.7636
 9561SOL     OW40141   4.665   2.093   2.113 -0.2051  0.3443  0.0109
 9561SOL    HW140142   4.705   2.040   2.044  2.9561  1.3510  1.0781
 9561SOL    HW240143   0.023   2.130   2.141 -0.4336  0.0490  1.0603
 9562SOL     OW40144   0.669   3.552   5.776 -0.1387 -0.5853  0.5004
 9562SOL    HW140145   0.645   3.645   5.771 -0.5881 -0.6310  1.8117
 9562SOL    HW240146   0.758   3.567   5.806 -0.2606  0.3561  0.3860
 9563SOL     OW40147   1.336   3.068  12.745 -0.5600 -0.0851 -0.2119
 9563SOL    HW140148   1.393   2.991  12.734 -1.3717 -0.9931  1.9814
 9563SOL    HW240149   1.403   3.136  12.743  0.2961 -0.8894  0.5825
 9564SOL     OW40150   1.171   4.436   3.627 -0.0122  0.0704  0.0868
 9564SOL    HW140151   1.122   4.509   3.665 -0.3269  0.1946 -0.5490
 9564SOL    HW240152   1.097   4.394   3.584 -0.0326 -0.7863  0.9697
 9565SOL     OW40153   3.382   0.324   5.702 -0.5216  0.6721  0.0707
 9565SOL    HW140154   3.445   0.393   5.681 -1.2784  1.5975  0.7999
 9565SOL    HW240155   3.350   0.342   5.791  0.3793  0.3626  0.4570
   4.72583   4.72583  17.70450
