Membrane in water
40155
    1TCq1    O1    1   0.560   0.998  10.849 -0.6669  0.2590  1.2727
    1TCq1    C1    2   0.538   1.103  10.766  0.3426  0.6427 -0.2542
    1TCq1    O2    3   0.524   1.104  10.645  0.7076  0.3498 -0.0328
    1TCq1    C2    4   0.585   1.226  10.829  0.2404 -0.2540 -0.1309
    1TCq1    C3    5   0.641   1.324  10.753  0.0107  0.8269 -0.8342
    1TCq1    C4    6   0.667   1.450  10.799  0.6561 -0.3616 -0.4005
    1TCq1    C5    7   0.642   1.472  10.933 -0.4973 -0.0945  0.0801
    1TCq1    C6    8   0.594   1.373  11.013  0.1503 -0.1930 -0.4115
    1TCq1    C7    9   0.569   1.250  10.966  0.3205  0.5820 -0.1894
    1TCq1    C8   10   0.584   1.403  11.155 -0.6153 -0.1527  0.1183
    1TCq1    O4   11   0.500   1.341  11.225 -0.4830 -0.4661  0.0483
    1TCq1    C9   12   0.715   1.554  10.707  0.6815  0.0744 -0.2530
    1TCq1    O5   13   0.709   1.677  10.741  0.0893  0.2588  0.7342
    1TCq1    O6   14   0.690   1.523  10.590 -0.0353 -0.6752  0.8029
    1TCq1    H1   15   0.567   1.007  10.947 -1.7079  0.7339  1.3063
    1TCq1    H2   16   0.640   1.302  10.647  2.4478 -1.4601 -0.3723
    1TCq1    H3   17   0.655   1.569  10.981  0.2231 -0.9059  1.5096
    1TCq1    H4   18   0.533   1.178  11.039 -0.1265  0.0052 -0.9825
    2MPD2     C   19   0.734   1.647  11.576 -0.2949 -0.6030 -0.1274
    2MPD2    C1   20   0.614   1.583  11.546  0.0622 -0.2787 -0.0769
    2MPD2    C2   21   0.608   1.519  11.425 -0.2359  0.8821  0.6804
    2MPD2    C3   22   0.710   1.520  11.332 -0.1782  0.3622 -0.0460
    2MPD2    C4   23   0.825   1.574  11.366 -0.3702 -0.3660  0.4843
    2MPD2    C5   24   0.838   1.631  11.491 -0.6594 -0.1760  0.2360
    2MPD2     H   25   0.510   1.471  11.419  0.3530 -0.1161 -1.1228
    2MPD2    H1   26   0.909   1.555  11.300 -0.8523 -3.3721  0.7485
    2MPD2    H2   27   0.756   1.688  11.674 -2.2395 -0.3692  0.2009
    2MPD2    H3   28   0.930   1.680  11.521 -1.1206  1.4547 -0.9764
    2MPD2     N   29   0.694   1.478  11.200  0.3645  0.3205 -0.3466
    2MPD2    H5   30   0.758   1.510  11.128 -1.5833 -0.2842 -2.3502
    2MPD2    N1   31   0.501   1.607  11.624 -0.3214  0.1116 -0.0959
    2MPD2    H7   32   0.413   1.567  11.594  0.2006  0.2316 -1.8035
    3TCq1    O1   33   4.546   3.198  10.984  0.7035  0.2704 -0.1511
    3TCq1    C1   34   4.626   3.096  10.963  0.7331 -0.7165 -0.2818
    3TCq1    O2   35   0.008   3.096  10.893  0.0849 -0.4843  0.0921
    3TCq1    C2   36   4.591   2.986  11.046 -0.5151  0.0498 -0.3053
    3TCq1    C3   37   4.598   2.861  10.988  0.6813 -0.6122  0.4315
    3TCq1    C4   38   4.540   2.760  11.059  0.2880  0.3522 -0.2833
    3TCq1    C5   39   4.481   2.779  11.182 -0.0239 -0.5748  0.4296
    3TCq1    C6   40   4.480   2.907  11.232  0.3716  0.1112 -0.1232
    3TCq1    C7   41   4.543   3.011  11.172  0.0467  0.8069 -0.0587
    3TCq1    C8   42   4.404   2.935  11.351  0.3032 -0.3080  0.4626
    3TCq1    O4   43   4.375   2.842  11.425 -0.3439 -0.1383  0.3776
    3TCq1    C9   44   4.554   2.619  11.018  0.4617  0.3169  0.4267
    3TCq1    O5   45   4.617   2.592  10.911  0.1332 -0.4496  0.0506
    3TCq1    O6   46   4.524   2.533  11.108 -0.3178  0.1664  0.3765
    3TCq1    H1   47   4.459   3.188  11.029  0.8655  4.3000  1.1187
    3TCq1    H2   48   4.640   2.847  10.889 -0.5511  2.5954 -0.5460
    3TCq1    H3   49   4.425   2.693  11.216  0.1383  0.3735  3.0866
    3TCq1    H4   50   4.558   3.113  11.205  2.4598 -0.1641  1.7850
    4MPD2     C   51   4.138   3.260  11.636  0.4086 -0.1281  0.6000
    4MPD2    C1   52   4.176   3.324  11.519  0.7110 -0.7854  0.1333
    4MPD2    C2   53   4.251   3.255  11.428 -0.3024 -0.2262 -0.0667
    4MPD2    C3   54   4.281   3.127  11.450 -0.4253  0.0911 -0.0163
    4MPD2    C4   55   4.248   3.067  11.568  0.3671  0.6389  0.2710
    4MPD2    C5   56   4.171   3.135  11.665  0.6063  0.8950 -0.0409
    4MPD2     H   57   4.275   3.293  11.330  0.1296 -2.2527 -0.7562
    4MPD2    H1   58   4.273   2.967  11.601  0.5249  0.4761 -0.3339
    4MPD2    H2   59   4.076   3.307  11.712 -0.3758  1.2817 -0.8946
    4MPD2    H3   60   4.151   3.097  11.765  1.4347  0.8248  0.1036
    4MPD2     N   61   4.351   3.057  11.347  0.2644 -0.8042 -0.1020
    4MPD2    H5   62   4.379   3.110  11.265  0.1952  1.1109  1.1098
    4MPD2    N1   63   4.126   3.449  11.477 -0.0578 -0.7916  0.7072
    4MPD2    H7   64   4.130   3.472  11.379  0.1818 -1.3636  0.5818
    5TCq1    O1   65   0.421   0.526  10.428 -0.2578 -0.2273  0.0115
    5TCq1    C1   66   0.513   0.432  10.450 -0.0952 -0.8555  0.3349
    5TCq1    O2   67   0.627   0.430  10.409  0.4236  0.2637  0.1259
    5TCq1    C2   68   0.445   0.318  10.511  0.8192 -0.1525 -0.8136
    5TCq1    C3   69   0.339   0.333  10.597  0.1455 -0.1643 -0.6379
    5TCq1    C4   70   0.278   0.223  10.656  1.2135  0.0642 -0.3327
    5TCq1    C5   71   0.327   0.097  10.633 -0.7776  0.3714 -0.3316
    5TCq1    C6   72   0.434   0.085  10.547 -0.6184 -0.2414 -0.8732
    5TCq1    C7   73   0.497   0.198  10.484 -0.1465 -0.0359  0.9132
    5TCq1    C8   74   0.481   4.675  10.516  0.8428 -0.4722 -0.7822
    5TCq1    O4   75   0.408   4.582  10.535  0.6706  0.0453  0.3921
    5TCq1    C9   76   0.176   0.242  10.757  0.4526 -0.2636  1.0440
    5TCq1    O5   77   0.110   0.351  10.756  0.7028 -0.2976 -0.3273
    5TCq1    O6   78   0.173   0.155  10.840  0.3857 -0.0425  0.1603
    5TCq1    H1   79   0.326   0.509  10.447 -0.4296  1.4669  0.6437
    5TCq1    H2   80   0.286   0.421  10.632  3.2032  1.5549 -0.3476
    5TCq1    H3   81   0.281   0.016  10.687 -0.3296  1.6146  1.9354
    5TCq1    H4   82   0.568   0.197  10.403 -1.8376  1.6561 -0.5998
    6MPD2     C   83   0.813   4.594  10.394  0.1523  0.3782  0.2065
    6MPD2    C1   84   0.695   4.570  10.450 -0.8663 -0.1084  0.5176
    6MPD2    C2   85   0.672   4.449  10.511 -0.4458 -0.5132  0.4463
    6MPD2    C3   86   0.776   4.351  10.501 -0.3054 -0.1860  0.6377
    6MPD2    C4   87   0.893   4.378  10.441  0.1537 -0.4946 -0.3268
    6MPD2    C5   88   0.905   4.496  10.382  0.7332 -0.3457  0.2944
    6MPD2     H   89   0.587   4.435  10.576  0.1526 -2.8668  0.6993
    6MPD2    H1   90   0.973   4.304  10.443 -0.5821 -1.3043 -1.4267
    6MPD2    H2   91   0.827   4.689  10.343  1.3198 -1.4046 -2.8640
    6MPD2    H3   92   1.002   4.514  10.336  1.1210 -1.4134  0.6959
    6MPD2     N   93   0.774   4.223  10.554  0.2500  0.0285  0.0580
    6MPD2    H5   94   0.865   4.180  10.562 -0.6617 -1.7641  0.9312
    6MPD2    N1   95   0.607   4.678  10.460 -0.4450 -0.4870  0.0099
    6MPD2    H7   96   0.644   0.039  10.415 -1.9562  0.7190  0.9889
    7TCq1    O1   97   1.529   4.005  12.583 -0.6091  0.5189  0.2767
    7TCq1    C1   98   1.622   3.937  12.655  0.2144  0.4553 -0.0521
    7TCq1    O2   99   1.699   3.854  12.609 -0.7339 -0.0618 -0.2005
    7TCq1    C2  100   1.664   4.032  12.759  0.4185 -0.6551  0.0221
    7TCq1    C3  101   1.588   4.141  12.788 -0.2324  0.9576 -0.0937
    7TCq1    C4  102   1.616   4.215  12.899 -0.2102  0.0472  0.0193
    7TCq1    C5  103   1.713   4.170  12.986  0.6511  0.3513  0.5827
    7TCq1    C6  104   1.785   4.065  12.959 -0.2054  0.4925 -0.4537
    7TCq1    C7  105   1.748   3.986  12.857  0.2026 -0.2355 -0.5013
    7TCq1    C8  106   1.872   4.003  13.055  0.4454  0.2559 -0.7171
    7TCq1    O4  107   1.909   3.890  13.035  1.0370 -0.0016 -0.2711
    7TCq1    C9  108   1.531   4.332  12.925  0.1020  0.4029 -0.1619
    7TCq1    O5  109   1.525   4.356  13.046 -0.7008  0.1472 -0.7263
    7TCq1    O6  110   1.448   4.364  12.838 -0.1790 -0.4852 -0.6334
    7TCq1    H1  111   1.459   4.053  12.632 -1.2201 -1.6853  1.5784
    7TCq1    H2  112   1.505   4.186  12.736 -1.7775  0.4160  1.9270
    7TCq1    H3  113   1.730   4.231  13.074  1.8996 -0.3820  0.8394
    7TCq1    H4  114   1.800   3.892  12.840  0.6386 -0.3073  1.2690
    8MPD2     C  115   2.182   4.036  13.463  0.3104 -0.1722 -0.0957
    8MPD2    C1  116   2.162   3.933  13.372  0.3476 -0.0321  0.2006
    8MPD2    C2  117   2.070   3.952  13.268 -0.5238 -0.2585 -0.0711
    8MPD2    C3  118   2.009   4.073  13.248 -0.3831 -0.4393  0.0913
    8MPD2    C4  119   2.016   4.165  13.346 -0.6638  0.1771  0.0365
    8MPD2    C5  120   2.101   4.154  13.454 -0.4615 -0.0133 -0.3817
    8MPD2     H  121   2.041   3.862  13.215  1.9282 -0.0919 -1.6689
    8MPD2    H1  122   1.966   4.261  13.339 -0.1169  0.4537 -0.1217
    8MPD2    H2  123   2.242   4.021  13.552  0.2389 -1.4241 -0.2525
    8MPD2    H3  124   2.121   4.235  13.523  1.9462 -0.1614 -0.9183
    8MPD2     N  125   1.915   4.095  13.148 -0.0977  1.0123  0.2724
    8MPD2    H5  126   1.862   4.182  13.153 -2.0340 -0.2100  0.7301
    8MPD2    N1  127   2.209   3.806  13.403  0.1809  0.2060  0.9660
    8MPD2    H7  128   2.263   3.801  13.489 -0.2057 -0.6993  1.1521
    9TCq1    O1  129   0.209   2.159  11.065  0.4206 -0.2342 -0.2344
    9TCq1    C1  130   0.331   2.135  11.103 -0.1148  0.3029 -0.0217
    9TCq1    O2  131   0.365   2.018  11.126 -0.0570 -0.8082 -0.0019
    9TCq1    C2  132   0.419   2.229  11.038  0.1880  0.1546  0.4708
    9TCq1    C3  133   0.525   2.177  10.978  0.2398  0.6897 -0.0978
    9TCq1    C4  134   0.641   2.251  10.955 -0.6348  0.1684 -0.0648
    9TCq1    C5  135   0.649   2.380  10.997 -0.5472  0.4501 -0.1392
    9TCq1    C6  136   0.548   2.427  11.076 -0.0784 -0.2552 -0.0047
    9TCq1    C7  137   0.432   2.353  11.099 -0.7202 -0.2545 -0.1029
    9TCq1    C8  138   0.566   2.565  11.117  0.2909  0.0855 -0.6669
    9TCq1    O4  139   0.644   2.634  11.055  0.1238 -0.5017 -0.6757
    9TCq1    C9  140   0.756   2.182  10.897 -0.1341  0.4392 -0.7471
    9TCq1    O5  141   0.872   2.228  10.904  0.4470  0.1578  0.1733
    9TCq1    O6  142   0.733   2.079  10.827  0.2437 -0.1527  0.4126
    9TCq1    H1  143   0.203   2.243  11.014 -0.1658  0.9459  1.8145
    9TCq1    H2  144   0.524   2.077  10.937  0.5392  0.2603  0.9523
    9TCq1    H3  145   0.743   2.433  10.989  0.9927 -2.0542  1.2666
    9TCq1    H4  146   0.346   2.388  11.155  1.0374  2.7747  0.7033
   10MPD2     C  147   0.570   2.813  11.283 -0.1824 -0.0658  0.5903
   10MPD2    C1  148   0.493   2.701  11.310 -0.0014 -0.7375 -0.3262
   10MPD2    C2  149   0.426   2.685  11.429 -0.3193  0.0857  0.2735
   10MPD2    C3  150   0.419   2.785  11.520  0.9292 -0.3517  0.1082
   10MPD2    C4  151   0.498   2.895  11.492 -0.3312  0.7352 -0.0182
   10MPD2    C5  152   0.570   2.913  11.376 -0.3550  0.1820 -0.4621
   10MPD2     H  153   0.384   2.588  11.454 -0.9173  0.6356  1.3994
   10MPD2    H1  154   0.505   2.977  11.562 -1.0133  0.8623 -0.0960
   10MPD2    H2  155   0.633   2.818  11.195 -1.2925 -1.5609 -0.2816
   10MPD2    H3  156   0.617   3.010  11.360 -0.1063 -0.0203 -0.9695
   10MPD2     N  157   0.344   2.800  11.640 -0.3798  0.1971  0.5213
   10MPD2    H5  158   0.355   2.886  11.693 -0.7986  0.6565 -0.1264
   10MPD2    N1  159   0.486   2.589  11.227 -0.4990  0.3791  0.4398
   10MPD2    H7  160   0.432   2.509  11.259 -2.0848  1.0145 -0.6083
   11TCq1    O1  161   1.013   3.112  14.511 -0.2971 -0.4308 -0.3054
   11TCq1    C1  162   1.054   2.993  14.568 -0.0823 -0.0641 -0.3915
   11TCq1    O2  163   1.136   2.981  14.655  0.7069 -0.8211 -0.2347
   11TCq1    C2  164   1.012   2.879  14.487 -0.2876  0.8618  0.1074
   11TCq1    C3  165   0.879   2.859  14.457  0.0273  0.1495 -0.3183
   11TCq1    C4  166   0.840   2.739  14.393  1.0635  0.4376  0.2107
   11TCq1    C5  167   0.939   2.650  14.365  0.3169  0.4160 -0.4218
   11TCq1    C6  168   1.066   2.670  14.408 -0.1353  0.0206  0.5860
   11TCq1    C7  169   1.108   2.782  14.463 -0.2815  0.3087  0.0430
   11TCq1    C8  170   1.172   2.596  14.354  0.0915 -0.2987  0.2892
   11TCq1    O4  171   1.263   2.567  14.434  0.0183  0.0002  0.7727
   11TCq1    C9  172   0.705   2.716  14.353  0.6368 -0.4500 -0.2719
   11TCq1    O5  173   0.618   2.806  14.376  0.8880  0.1878 -0.4134
   11TCq1    O6  174   0.692   2.618  14.277  0.2739  0.6408  0.1871
   11TCq1    H1  175   0.968   3.104  14.424 -1.7502 -0.6771  0.4627
   11TCq1    H2  176   0.802   2.929  14.488 -3.4941 -4.3180  1.0089
   11TCq1    H3  177   0.908   2.560  14.314  0.3114  0.9003 -1.2642
   11TCq1    H4  178   1.211   2.791  14.495 -0.4619  1.8102  0.2031
   12MPD2     C  179   1.373   2.456  14.178  0.1107 -0.5672 -0.0002
   12MPD2    C1  180   1.245   2.487  14.136 -0.4436  0.0655 -0.1785
   12MPD2    C2  181   1.199   2.452  14.012 -0.3907  0.1514  0.7193
   12MPD2    C3  182   1.284   2.379  13.928  0.0107 -0.0515 -0.2801
   12MPD2    C4  183   1.407   2.342  13.973  0.2890  0.3946 -0.0363
   12MPD2    C5  184   1.460   2.389  14.091 -0.9408 -0.0403  0.0467
   12MPD2     H  185   1.096   2.478  13.989 -0.1679  0.4879  0.1067
   12MPD2    H1  186   1.476   2.282  13.914  1.4099  0.2988  1.3905
   12MPD2    H2  187   1.417   2.503  14.265 -0.2362 -3.9757  2.0316
   12MPD2    H3  188   1.563   2.367  14.114 -0.4154  2.6086  0.1887
   12MPD2     N  189   1.241   2.332  13.805 -0.5487  0.6692  0.0083
   12MPD2    H5  190   1.299   2.264  13.756 -0.6180  1.1578 -0.7576
   12MPD2    N1  191   1.155   2.564  14.221 -0.0860 -0.1474  0.0616
   12MPD2    H7  192   1.067   2.584  14.174 -0.6431 -1.2999  0.6004
   13TCq1    O1  193   1.009   2.592  11.347 -0.2173  0.1241 -0.0074
   13TCq1    C1  194   0.917   2.546  11.437 -0.6614 -0.6121 -0.3506
   13TCq1    O2  195   0.898   2.569  11.557 -0.2984 -0.2594  0.7909
   13TCq1    C2  196   0.859   2.428  11.372 -0.4678 -0.1336  0.0456
   13TCq1    C3  197   0.948   2.338  11.306  0.0373  0.3024 -0.6487
   13TCq1    C4  198   0.895   2.217  11.260  0.1320  0.8605  0.1534
   13TCq1    C5  199   0.763   2.183  11.293  0.6132 -0.1433  0.1470
   13TCq1    C6  200   0.684   2.271  11.363 -0.4572  0.4071 -0.0752
   13TCq1    C7  201   0.727   2.394  11.400  0.0077  0.2581 -0.3893
   13TCq1    C8  202   0.545   2.236  11.403  0.3686 -0.3072 -0.2089
   13TCq1    O4  203   0.459   2.324  11.411  0.3367  0.8109 -0.1665
   13TCq1    C9  204   0.977   2.120  11.189  0.1656 -0.0744 -0.2175
   13TCq1    O5  205   1.081   2.158  11.129  0.5744  0.4908 -0.2086
   13TCq1    O6  206   0.936   1.999  11.191  0.1448  0.2729 -0.3417
   13TCq1    H1  207   0.988   2.573  11.253  1.2799 -2.7379  0.2501
   13TCq1    H2  208   1.052   2.366  11.292  0.4934 -1.4345 -0.7145
   13TCq1    H3  209   0.717   2.094  11.251  1.3666  0.2160 -1.4331
   13TCq1    H4  210   0.663   2.466  11.448 -0.2171  1.3025 -2.2547
   14MPD2     C  211   0.410   1.893  11.426 -0.1048  0.8902 -0.3095
   14MPD2    C1  212   0.411   2.030  11.446 -0.2104 -0.1630 -0.2050
   14MPD2    C2  213   0.300   2.090  11.500 -0.2998  0.3456  0.1696
   14MPD2    C3  214   0.185   2.017  11.526 -0.5872  0.2051 -0.5132
   14MPD2    C4  215   0.185   1.883  11.509  0.1021 -0.0698 -0.1213
   14MPD2    C5  216   0.298   1.827  11.460  0.5510  0.1525 -0.4835
   14MPD2     H  217   0.298   2.197  11.518 -1.7274  0.5245 -1.0975
   14MPD2    H1  218   0.094   1.826  11.526 -0.1779  0.1625 -0.8262
   14MPD2    H2  219   0.500   1.841  11.396  1.1563  2.5589  0.5574
   14MPD2    H3  220   0.289   1.720  11.448 -1.3545  0.0911  1.4941
   14MPD2     N  221   0.087   2.092  11.583  0.1660  0.1504  0.1394
   14MPD2    H5  222   0.108   2.191  11.593 -0.4418  0.4475 -1.4979
   14MPD2    N1  223   0.531   2.098  11.415  0.2346 -0.3082 -0.5247
   14MPD2    H7  224   0.608   2.036  11.393  0.3068 -0.6660  0.7500
   15TCq1    O1  225   1.379   2.925   1.438 -0.3495  0.3980  0.3552
   15TCq1    C1  226   1.487   2.862   1.378  0.2468 -0.1035  0.4369
   15TCq1    O2  227   1.517   2.886   1.264 -0.4048 -0.9352  0.4737
   15TCq1    C2  228   1.567   2.783   1.472  0.3524 -0.3916 -0.2532
   15TCq1    C3  229   1.520   2.774   1.608  0.1851 -0.4146  0.4931
   15TCq1    C4  230   1.590   2.682   1.686 -0.5063  0.0219  0.2330
   15TCq1    C5  231   1.697   2.603   1.642 -0.2331 -0.0873  0.9318
   15TCq1    C6  232   1.738   2.622   1.510 -0.1814 -0.5587 -0.0624
   15TCq1    C7  233   1.668   2.707   1.430  0.3591  0.5112 -0.6701
   15TCq1    C8  234   1.825   2.515   1.458 -0.1262 -0.2659 -0.0072
   15TCq1    O4  235   1.874   2.436   1.533  0.1211 -0.2181 -0.2837
   15TCq1    C9  236   1.532   2.648   1.814 -0.3240  0.0085  0.0665
   15TCq1    O5  237   1.416   2.687   1.832  0.0008 -0.0771  0.4818
   15TCq1    O6  238   1.602   2.592   1.904  0.5330  0.2724 -0.3267
   15TCq1    H1  239   1.372   2.933   1.536  0.1040  1.9155  0.2548
   15TCq1    H2  240   1.447   2.838   1.654  0.8071  0.4214  0.3099
   15TCq1    H3  241   1.751   2.537   1.709  2.2710  1.9590  0.9155
   15TCq1    H4  242   1.678   2.706   1.322  1.9564 -2.1550 -0.5093
   16MPD2     C  243   1.930   2.488   1.106  0.1708 -0.3105 -0.1204
   16MPD2    C1  244   1.939   2.468   1.241  0.0873  0.2361  0.2732
   16MPD2    C2  245   2.028   2.369   1.296 -0.3632 -0.3452  0.0562
   16MPD2    C3  246   2.115   2.299   1.219  0.4053 -0.9846  0.2604
   16MPD2    C4  247   2.118   2.333   1.085 -0.5912  0.4855 -0.7617
   16MPD2    C5  248   2.032   2.424   1.035 -0.0446  0.4132  0.0346
   16MPD2     H  249   2.036   2.348   1.402 -3.1886  5.1161  1.3923
   16MPD2    H1  250   2.190   2.292   1.015  0.5033  0.1014  0.5946
   16MPD2    H2  251   1.870   2.563   1.057  0.9893  0.2247 -0.2995
   16MPD2    H3  252   2.031   2.447   0.929  2.7387  1.6976  0.2715
   16MPD2     N  253   2.214   2.223   1.280 -0.1309 -0.0855 -0.7782
   16MPD2    H5  254   2.221   2.224   1.381 -2.1942 -0.5065 -0.6272
   16MPD2    N1  255   1.849   2.542   1.326 -0.2238  0.5480  0.2648
   16MPD2    H7  256   1.802   2.617   1.277 -0.8748  0.6640  1.0871
   17TCq1    O1  257   0.852   1.857  11.002 -0.0112  0.0210 -0.2162
   17TCq1    C1  258   0.915   1.742  11.024  0.1751 -0.4239 -0.0271
   17TCq1    O2  259   0.871   1.629  11.012 -0.3975  0.0905 -0.5826
   17TCq1    C2  260   1.054   1.771  11.002  0.8989  0.0237  0.4903
   17TCq1    C3  261   1.091   1.895  10.954  0.0840  0.0502 -0.0434
   17TCq1    C4  262   1.197   1.906  10.867 -0.2906 -0.4492 -0.3151
   17TCq1    C5  263   1.276   1.793  10.843 -0.5661  0.2606  0.0728
   17TCq1    C6  264   1.238   1.677  10.899 -0.6574 -0.1051  0.0976
   17TCq1    C7  265   1.130   1.663  10.977 -0.0029 -0.5225 -0.1229
   17TCq1    C8  266   1.274   1.548  10.843 -0.1930  1.0428  0.8356
   17TCq1    O4  267   1.277   1.443  10.913  0.0685 -0.2179  0.2063
   17TCq1    C9  268   1.223   2.031  10.795 -0.5322 -0.1173  0.4885
   17TCq1    O5  269   1.323   2.042  10.720 -0.3969 -0.1911 -1.1555
   17TCq1    O6  270   1.142   2.123  10.809  0.1583 -0.2876 -0.2157
   17TCq1    H1  271   0.889   1.929  11.058 -2.9406  0.4689  1.1939
   17TCq1    H2  272   1.032   1.985  10.967  0.0992  0.4150 -2.5658
   17TCq1    H3  273   1.360   1.804  10.775 -0.6475  2.7727  0.3899
   17TCq1    H4  274   1.099   1.566  11.015  1.8718 -0.7217  0.8804
   18MPD2     C  275   1.354   1.343  10.637  0.5445 -0.1799 -0.1473
   18MPD2    C1  276   1.319   1.472  10.613 -0.1029 -0.2460  0.1198
   18MPD2    C2  277   1.327   1.521  10.485 -0.0018 -0.9052  0.3032
   18MPD2    C3  278   1.357   1.436  10.379 -0.1408  0.3900 -0.9185
   18MPD2    C4  279   1.407   1.310  10.407 -0.1672 -0.6781 -0.0411
   18MPD2    C5  280   1.398   1.261  10.538  0.5116  0.0835  0.1493
   18MPD2     H  281   1.313   1.627  10.467  1.6334 -0.7101  0.2282
   18MPD2    H1  282   1.438   1.247  10.325  2.3424  0.6404 -0.0958
   18MPD2    H2  283   1.361   1.307  10.738 -1.9241 -1.6480 -0.5023
   18MPD2    H3  284   1.413   1.156  10.560 -1.2016  0.0116  0.9655
   18MPD2     N  285   1.356   1.475  10.245  0.6069 -0.1970 -0.0083
   18MPD2    H5  286   1.373   1.408  10.171  0.6685  0.8680 -0.9626
   18MPD2    N1  287   1.280   1.566  10.707  0.6249  0.2000  0.6858
   18MPD2    H7  288   1.240   1.654  10.677  0.5507 -0.6350 -1.6604
   19TMC2    C1  289   2.237   2.025  13.955  0.1925  0.4033 -0.1275
   19TMC2    C2  290   2.266   1.972  13.835  0.0874 -0.3179  0.4149
   19TMC2    C3  291   2.197   1.855  13.797 -0.7362 -0.0337 -0.4464
   19TMC2    C4  292   2.150   1.962  14.037 -0.3806  0.4243  0.1518
   19TMC2    C5  293   2.077   1.856  13.990  0.0109 -0.8587  0.2882
   19TMC2    C6  294   2.094   1.803  13.867  0.5536  0.0839  0.1944
   19TMC2     C  295   2.306   2.141  14.016  0.1475  0.0587 -0.0961
   19TMC2     O  296   2.393   2.199  13.956  0.7062  0.5634  0.3955
   19TMC2     H  297   2.335   2.032  13.777  0.0141  1.1566  1.8477
   19TMC2    H1  298   2.105   2.023  14.114 -0.7280 -1.7365  1.6644
   19TMC2    H2  299   2.061   1.705  13.834 -3.6492  2.2055 -1.8860
   19TMC2    C7  300   1.963   1.812  14.072 -0.3450 -0.4591 -0.0774
   19TMC2    C8  301   2.223   1.800  13.670  0.5823 -0.7040  0.6222
   19TMC2    O1  302   1.877   1.749  14.013  0.0782  0.0128 -0.3436
   19TMC2    O2  303   2.214   1.680  13.651  1.0710  0.7768  0.4074
   19TMC2    O5  304   2.190   1.896  13.574 -0.6196 -0.3337  0.5172
   19TMC2    H5  305   2.196   1.992  13.596 -1.3385  0.0886 -1.1494
   20MPD2     C  306   2.333   2.381  14.170 -0.7425  0.0539  0.2523
   20MPD2    C1  307   2.330   2.256  14.229 -0.3850 -0.0845 -0.0653
   20MPD2    C2  308   2.332   2.251  14.371 -0.3332 -0.3785 -0.2705
   20MPD2    C3  309   2.361   2.362  14.448 -0.5996  0.2035  0.3797
   20MPD2    C4  310   2.385   2.484  14.381  0.3721  0.5004 -0.6509
   20MPD2    C5  311   2.361   2.491  14.248 -0.3617  0.2951 -0.1150
   20MPD2     H  312   2.323   2.154  14.419 -0.1959 -0.0193  0.4802
   20MPD2    H1  313   2.411   2.574  14.435  0.5539  1.0132 -1.5881
   20MPD2    H2  314   2.310   2.388  14.064  1.3791  0.3497 -0.1702
   20MPD2    H3  315   2.367   2.588  14.200 -0.6343  0.3896  0.0442
   20MPD2     N  316   2.394   2.347  14.589  0.0557  0.7569 -0.2248
   20MPD2    H5  317   2.432   2.428  14.637  1.6704 -1.2254  1.8442
   20MPD2    N1  318   2.288   2.147  14.149 -0.5067  0.2530 -0.2224
   20MPD2    H7  319   2.243   2.074  14.204 -0.0072  0.1006 -0.0161
   21MPD2     C  320   0.070   3.585  14.555 -0.0272 -1.0463  0.2413
   21MPD2    C1  321   0.065   3.491  14.449  0.5919  0.5172 -0.6254
   21MPD2    C2  322   4.667   3.432  14.409  0.0069  0.0007  0.1212
   21MPD2    C3  323   4.554   3.447  14.487  0.2310 -0.0754  0.3587
   21MPD2    C4  324   4.559   3.532  14.596  0.2274 -0.4537  0.4700
   21MPD2    C5  325   4.675   3.604  14.625 -0.2727  0.7540 -0.3781
   21MPD2     H  326   4.666   3.346  14.344  0.6297  0.1586 -0.1027
   21MPD2    H1  327   4.472   3.542  14.659  0.8635 -0.4848  1.3577
   21MPD2    H2  328   0.164   3.635  14.574 -0.3334  0.0855 -1.2058
   21MPD2    H3  329   4.667   3.677  14.704  1.3222 -1.2527  1.6035
   21MPD2     N  330   4.435   3.374  14.477 -0.4599  0.7251  0.5295
   21MPD2    H5  331   4.367   3.385  14.551 -0.4397 -0.1798  0.6815
   21MPD2    N1  332   0.186   3.451  14.386 -0.0948  0.3735  0.0614
   21MPD2    H7  333   0.180   3.381  14.313  0.9683  0.1020  0.2364
   22TCq2    C1  334   4.421   3.272  14.387  0.0673  0.5437 -0.1936
   22TCq2    O2  335   4.480   3.229  14.290 -0.1378  0.0649  0.3597
   22TCq2    C2  336   4.294   3.206  14.413  1.3444  0.0829 -0.3219
   22TCq2    C3  337   4.310   3.077  14.456  0.2217 -0.5050 -0.0112
   22TCq2    C4  338   4.236   3.032  14.560  0.2815  0.2538 -0.3163
   22TCq2    C5  339   4.133   3.102  14.614 -0.1164 -0.1969 -0.4080
   22TCq2    C6  340   4.114   3.232  14.566  0.4521  0.1549 -0.3225
   22TCq2    C7  341   4.201   3.285  14.474  0.2230 -0.8643 -1.2896
   22TCq2    C8  342   4.022   3.313  14.632 -0.0015  0.0366  0.2808
   22TCq2    O4  343   4.007   3.298  14.751 -0.0925  0.3382 -0.6368
   22TCq2    C9  344   4.252   2.894  14.606 -0.0745 -0.6274 -0.4934
   22TCq2    O5  345   4.169   2.860  14.695 -0.3006 -0.6707  0.1879
   22TCq2    O6  346   4.316   2.815  14.532 -0.3583 -0.2554 -0.4669
   22TCq2    H2  347   4.386   3.018  14.407  0.5221 -1.6228  1.8173
   22TCq2    H3  348   4.078   3.066  14.700 -0.2725  0.9669 -0.0193
   22TCq2    H4  349   4.176   3.386  14.445  1.2130 -0.3638 -0.3963
   23MPD2     C  350   0.698   4.158  14.592 -0.2177 -0.3360  0.6235
   23MPD2    C1  351   0.619   4.106  14.692 -0.6472 -0.8557 -0.0216
   23MPD2    C2  352   0.483   4.118  14.688 -0.2699  0.4076 -0.3829
   23MPD2    C3  353   0.419   4.173  14.575 -0.1534  0.4099 -0.8767
   23MPD2    C4  354   0.499   4.229  14.476  0.1541  0.5510  0.2697
   23MPD2    C5  355   0.636   4.211  14.484  0.2497 -0.5112 -0.0875
   23MPD2     H  356   0.427   4.088  14.776 -2.0398 -2.5082 -2.5286
   23MPD2    H1  357   0.454   4.273  14.388  1.2855 -1.5119 -1.3122
   23MPD2    H2  358   0.803   4.177  14.612  0.1579 -3.7887  1.9010
   23MPD2    H3  359   0.698   4.248  14.404  1.1464  0.4936  1.0792
   23MPD2     N  360   0.274   4.168  14.563 -0.2848  0.3570 -0.0885
   23MPD2    H5  361   0.242   4.225  14.485 -0.0826  1.7348  0.8389
   23MPD2    N1  362   0.674   4.052  14.808  0.0330  0.1713 -0.4022
   23MPD2    H7  363   0.624   4.020  14.890  0.9536  0.4417  0.2565
   24TCq2    C1  364   0.189   4.083  14.631 -0.0507  0.3397 -1.0858
   24TCq2    O2  365   0.210   3.984  14.699  0.2508  0.4529  0.2760
   24TCq2    C2  366   0.043   4.119  14.610 -0.0952  0.0402 -0.1167
   24TCq2    C3  367   0.018   4.254  14.585 -0.0714  0.0278 -0.5503
   24TCq2    C4  368   4.604   4.289  14.582  0.2775  0.2150 -0.6835
   24TCq2    C5  369   4.507   4.190  14.569 -0.0198  0.5760 -0.5259
   24TCq2    C6  370   4.542   4.059  14.573 -0.3647 -0.0923  0.0966
   24TCq2    C7  371   4.671   4.022  14.597 -0.2479  0.1607  0.4585
   24TCq2    C8  372   4.456   3.952  14.533  0.1951 -0.6028 -0.2142
   24TCq2    O4  373   4.505   3.839  14.533 -1.2967 -0.3302 -0.1375
   24TCq2    C9  374   4.564   4.427  14.575 -0.9280  0.7721  0.4522
   24TCq2    O5  375   4.446   4.446  14.538  0.0552  0.3302 -0.5674
   24TCq2    O6  376   4.648   4.518  14.570  0.7552  0.0631 -0.3338
   24TCq2    H2  377   0.092   4.332  14.602  0.5063 -0.9286  1.3255
   24TCq2    H3  378   4.404   4.221  14.559 -0.2327  0.9739  2.6788
   24TCq2    H4  379   4.703   3.919  14.611  0.9602  0.6057  0.9919
   25TMC2    C1  380   4.540   1.183  11.426 -0.9205  0.1413  0.1563
   25TMC2    C2  381   4.618   1.297  11.390 -0.3694 -0.7288  0.4555
   25TMC2    C3  382   4.589   1.408  11.465  0.2857 -0.2119  0.1576
   25TMC2    C4  383   4.459   1.180  11.532 -0.5050 -0.8059 -0.0506
   25TMC2    C5  384   4.456   1.288  11.614  0.5485 -0.4207 -0.5570
   25TMC2    C6  385   4.510   1.406  11.577  0.3248 -0.1770 -0.0295
   25TMC2     C  386   4.537   1.076  11.331  0.1543  0.4140 -0.2741
   25TMC2     O  387   4.633   1.064  11.261 -0.6613 -0.1136  0.1653
   25TMC2     H  388   4.674   1.304  11.297 -1.4299  1.4658 -0.0218
   25TMC2    H1  389   4.402   1.090  11.548  0.9651 -1.9961 -1.5088
   25TMC2    H2  390   4.497   1.493  11.640 -2.3413  0.1823 -1.0721
   25TMC2    C7  391   4.356   1.305  11.721  0.1602 -0.0844  0.5827
   25TMC2    C8  392   4.670   1.521  11.458  0.3681  0.1176  0.4925
   25TMC2    O1  393   4.369   1.398  11.800 -0.1476 -0.1448 -0.1295
   25TMC2    O2  394   4.715   1.559  11.563  0.1221  0.2592  0.4120
   25TMC2    O5  395   0.008   1.525  11.340 -0.0819  0.2352 -0.0996
   25TMC2    H5  396   4.671   1.479  11.277  0.7684  2.0385 -2.2217
   26MPD2     C  397   4.363   0.644  11.130 -0.2801 -0.7602  0.2547
   26MPD2    C1  398   4.247   0.704  11.182 -0.0649  0.2956 -0.5058
   26MPD2    C2  399   4.273   0.819  11.260  0.4678 -0.7545  0.3407
   26MPD2    C3  400   4.399   0.875  11.265  0.0301 -0.3898  0.2505
   26MPD2    C4  401   4.506   0.811  11.198  0.1474  0.1383  0.4535
   26MPD2    C5  402   4.485   0.693  11.141 -0.4080 -0.0936  0.4821
   26MPD2     H  403   4.195   0.871  11.315 -0.8458 -0.6427 -1.6214
   26MPD2    H1  404   4.610   0.839  11.203  0.0701  0.4200  0.4814
   26MPD2    H2  405   4.350   0.558  11.065  2.5535  0.0222 -1.3563
   26MPD2    H3  406   4.567   0.640  11.093 -0.1867  0.3862  0.3249
   26MPD2     N  407   4.417   0.996  11.340  0.0539  0.1848  0.1851
   26MPD2    H5  408   4.335   1.033  11.387 -0.1070 -0.2635  0.2584
   26MPD2    N1  409   4.122   0.643  11.162 -0.0771 -0.0745 -0.9026
   26MPD2    H7  410   4.130   0.573  11.088  2.0507 -3.0191  2.1205
   27TMC2    C1  411   3.026   2.713  11.942  0.4546 -0.2535 -0.0391
   27TMC2    C2  412   3.122   2.706  11.844 -0.0265 -0.5493  0.2157
   27TMC2    C3  413   3.097   2.786  11.732  0.1806 -0.1847  0.2557
   27TMC2    C4  414   2.907   2.782  11.925  0.2081  0.7743 -0.1399
   27TMC2    C5  415   2.893   2.854  11.810 -0.6629 -0.3938  0.6744
   27TMC2    C6  416   2.991   2.870  11.721 -0.0145 -0.0979  0.3713
   27TMC2     C  417   3.072   2.707  12.079  0.2301  0.3113  0.3821
   27TMC2     O  418   3.189   2.691  12.092  0.0715 -0.1478  0.5699
   27TMC2     H  419   3.217   2.653  11.845  0.1128 -0.3485 -1.4145
   27TMC2    H1  420   2.822   2.747  11.982  2.0226  2.1653  3.4100
   27TMC2    H2  421   2.977   2.939  11.639  2.8275 -0.6867 -0.6019
   27TMC2    C7  422   2.827   2.981  11.829  0.4723 -0.1954  0.0927
   27TMC2    C8  423   3.214   2.794  11.641  0.8381  0.2196  0.3796
   27TMC2    O1  424   2.792   3.037  11.730  0.6988 -0.1107  0.4019
   27TMC2    O2  425   3.328   2.815  11.680 -0.0109  0.5283  0.1656
   27TMC2    O5  426   3.162   2.845  11.531  0.4079 -0.2647 -0.4594
   27TMC2    H5  427   3.072   2.810  11.515  0.1651  0.2373 -0.1890
   28MPD2     C  428   3.003   2.764  12.592  0.4959  0.6875  0.7283
   28MPD2    C1  429   2.899   2.823  12.524 -0.3070 -0.2078  0.0576
   28MPD2    C2  430   2.909   2.831  12.386 -0.3248  0.2109  0.2078
   28MPD2    C3  431   2.998   2.759  12.312 -0.1853 -0.0878  0.3291
   28MPD2    C4  432   3.114   2.713  12.384  0.0637  0.4837  0.3673
   28MPD2    C5  433   3.116   2.714  12.521  0.0631  0.0232  0.6812
   28MPD2     H  434   2.832   2.882  12.329 -1.1427  0.2466  1.3385
   28MPD2    H1  435   3.201   2.671  12.334 -0.5430 -1.8559  1.2699
   28MPD2    H2  436   3.000   2.756  12.700 -1.8129 -1.3032  0.5104
   28MPD2    H3  437   3.207   2.689  12.575  0.0574  0.0385  0.6978
   28MPD2     N  438   2.972   2.744  12.176  0.3374  0.1408  0.2559
   28MPD2    H5  439   2.880   2.771  12.143  0.1445 -0.4655  0.2958
   28MPD2    N1  440   2.792   2.876  12.593 -0.4975 -0.4201 -0.3844
   28MPD2    H7  441   2.777   2.857  12.691 -1.8325  1.2752 -0.2560
   29MPD2     C  442   2.494   1.093  14.264 -0.0203 -0.4526 -0.3204
   29MPD2    C1  443   2.566   1.050  14.367 -0.5359 -0.3579 -0.0403
   29MPD2    C2  444   2.611   1.141  14.462 -0.4596  0.2126 -0.0568
   29MPD2    C3  445   2.590   1.276  14.448  0.7127  0.3452 -0.2592
   29MPD2    C4  446   2.528   1.321  14.335 -0.0649  0.4487 -0.0688
   29MPD2    C5  447   2.474   1.230  14.250  0.0573  0.3301 -0.1292
   29MPD2     H  448   2.671   1.109  14.546 -0.6580  2.1716  0.8224
   29MPD2    H1  449   2.489   1.422  14.324 -1.7621 -0.2549 -0.5726
   29MPD2    H2  450   2.448   1.032  14.187 -4.0207  1.9072  0.1736
   29MPD2    H3  451   2.403   1.262  14.174  1.5826  1.6951 -0.9751
   29MPD2     N  452   2.638   1.372  14.537  0.3331 -0.3283 -0.6904
   29MPD2    H5  453   2.610   1.469  14.523  0.1867  0.1909  3.2573
   29MPD2    N1  454   2.613   0.919  14.381  0.1585 -0.2956  0.5845
   29MPD2    H7  455   2.674   0.882  14.453 -0.6327 -4.5927 -0.9785
   30TCq2    C1  456   2.708   1.349  14.651  0.9651  0.1872 -0.3365
   30TCq2    O2  457   2.762   1.252  14.703 -0.7818  0.7819 -0.1394
   30TCq2    C2  458   2.745   1.475  14.708 -0.0803 -0.6664 -0.5368
   30TCq2    C3  459   2.768   1.472  14.840  0.8905  0.0234  0.1979
   30TCq2    C4  460   2.856   1.569  14.895 -0.8076 -0.6822  0.2597
   30TCq2    C5  461   2.915   1.664  14.820  0.0842 -0.3206  0.0107
   30TCq2    C6  462   2.893   1.657  14.687  1.0413  0.4180 -0.5471
   30TCq2    C7  463   2.809   1.567  14.632  0.0756 -0.1158 -0.3132
   30TCq2    C8  464   2.952   1.743  14.583  0.0625 -0.1493  0.5637
   30TCq2    O4  465   2.903   1.750  14.470 -0.2109  0.0127 -0.1104
   30TCq2    C9  466   2.874   1.575  15.040  0.0925 -0.3384  0.2231
   30TCq2    O5  467   2.925   1.681  15.087 -0.3425  0.3908 -0.0057
   30TCq2    O6  468   2.835   1.485  15.117 -0.2560  0.6525  0.0738
   30TCq2    H2  469   2.722   1.400  14.908  1.3376  0.0230  0.5025
   30TCq2    H3  470   2.978   1.743  14.859 -0.7612  0.4419 -0.1814
   30TCq2    H4  471   2.797   1.568  14.524 -0.0555 -0.0303 -0.2974
   31MPD2     C  472   0.662   4.525  14.719  0.5084  0.5521 -0.9599
   31MPD2    C1  473   0.575   4.621  14.761 -0.4422 -0.0960  0.9937
   31MPD2    C2  474   0.529   4.633  14.889 -0.6356 -0.4524  0.2669
   31MPD2    C3  475   0.561   4.526  14.973  0.3563 -0.4795 -0.4973
   31MPD2    C4  476   0.632   4.417  14.921  0.0493  0.1057 -0.5760
   31MPD2    C5  477   0.686   4.424  14.797  0.0013  0.2332  0.1965
   31MPD2     H  478   0.455   4.704  14.925  1.1122  1.0443  0.8937
   31MPD2    H1  479   0.651   4.322  14.970  0.9047  1.4717  1.7471
   31MPD2    H2  480   0.701   4.534  14.618  0.3108  1.8088 -0.9323
   31MPD2    H3  481   0.729   4.332  14.758  1.7649  1.4764 -0.8152
   31MPD2     N  482   0.505   4.510  15.101 -0.1196  0.1002  0.5982
   31MPD2    H5  483   0.544   4.432  15.153 -3.0121 -1.2862  0.6584
   31MPD2    N1  484   0.519   4.706  14.659 -0.3460 -0.5266  0.2931
   31MPD2    H7  485   0.567   4.697  14.570  2.3969 -1.5184  1.8813
   32TCq2    C1  486   0.398   4.578  15.153 -0.0406 -0.0160  0.0320
   32TCq2    O2  487   0.322   4.657  15.092 -0.3557 -0.2265 -0.4440
   32TCq2    C2  488   0.364   4.549  15.297 -0.4222  0.2177 -0.4487
   32TCq2    C3  489   0.239   4.584  15.330 -1.0209 -0.3307 -0.0991
   32TCq2    C4  490   0.212   4.617  15.464 -0.0128 -0.5658  0.5982
   32TCq2    C5  491   0.295   4.604  15.567  0.1422 -0.1586  0.1846
   32TCq2    C6  492   0.425   4.569  15.527  0.3711 -0.0251  0.4064
   32TCq2    C7  493   0.461   4.539  15.397 -0.1077 -0.2220  0.6973
   32TCq2    C8  494   0.516   4.519  15.627  0.0841 -0.0560  0.7118
   32TCq2    O4  495   0.594   4.432  15.586 -0.2385 -0.3634  0.1559
   32TCq2    C9  496   0.071   4.633  15.487  1.0592 -0.1231  0.2307
   32TCq2    O5  497   0.031   4.674  15.600 -0.1100  0.0548 -0.0202
   32TCq2    O6  498   4.718   4.575  15.402  0.2605  0.0524 -0.1234
   32TCq2    H2  499   0.171   4.602  15.248 -1.8404 -1.6427  0.2769
   32TCq2    H3  500   0.258   4.610  15.669 -0.8002  1.3148 -0.2463
   32TCq2    H4  501   0.564   4.517  15.370 -0.9808 -0.5413 -2.3505
   33MPD2     C  502   1.559   2.222   9.763 -0.6254  0.2631 -0.2262
   33MPD2    C1  503   1.452   2.164   9.829 -0.0338  0.5218 -0.1419
   33MPD2    C2  504   1.353   2.244   9.886 -0.5440  0.3437  0.4662
   33MPD2    C3  505   1.360   2.383   9.871 -0.3149 -0.1245 -0.5877
   33MPD2    C4  506   1.469   2.437   9.801  0.3569  0.7185 -0.0545
   33MPD2    C5  507   1.563   2.360   9.753  0.0635 -0.9585 -0.2029
   33MPD2     H  508   1.271   2.203   9.945 -0.1661 -0.3836  0.4890
   33MPD2    H1  509   1.485   2.544   9.792  0.2613  0.9917  2.7471
   33MPD2    H2  510   1.640   2.171   9.713 -0.9135 -1.2993  0.9027
   33MPD2    H3  511   1.637   2.416   9.698 -0.7472  1.7528  1.4690
   33MPD2     N  512   1.261   2.477   9.927 -0.2341  0.2041 -0.5152
   33MPD2    H5  513   1.285   2.573   9.906  0.8826  0.5384  2.2643
   33MPD2    N1  514   1.455   2.022   9.835  0.0493 -0.2216  0.0196
   33MPD2    H7  515   1.530   1.975   9.784 -1.0672 -0.6561 -1.1965
   34TCq2    C1  516   1.151   2.447   9.998  0.1077 -0.0758 -0.2875
   34TCq2    O2  517   1.096   2.336  10.019 -0.3588 -0.5670  0.2192
   34TCq2    C2  518   1.075   2.566  10.047 -0.0417  0.1191  0.5462
   34TCq2    C3  519   0.966   2.539  10.116 -0.3315  0.3874 -0.5970
   34TCq2    C4  520   0.871   2.630  10.127  0.5245 -0.0054  0.7103
   34TCq2    C5  521   0.885   2.756  10.072  0.1101 -0.0252 -1.1035
   34TCq2    C6  522   0.996   2.784   9.993 -0.1256  0.4370 -0.9392
   34TCq2    C7  523   1.100   2.692   9.992  0.0846  0.9786 -0.3242
   34TCq2    C8  524   1.017   2.923   9.952  0.2724  0.6488 -0.4781
   34TCq2    O4  525   1.136   2.958   9.947  0.1885  0.5885  0.0699
   34TCq2    C9  526   0.750   2.601  10.192  0.1666  0.8749 -0.0524
   34TCq2    O5  527   0.665   2.691  10.199 -0.1799  0.1525 -0.7748
   34TCq2    O6  528   0.727   2.479  10.210 -0.0113  0.2999  0.0179
   34TCq2    H2  529   0.947   2.439  10.155 -1.9088  1.6866  1.9590
   34TCq2    H3  530   0.808   2.830  10.093 -0.1576  0.0435 -2.3630
   34TCq2    H4  531   1.188   2.708   9.931  1.4714  0.4243  1.5445
   35MPD2     C  532   2.398   3.666  11.924  0.6608  0.3756  0.0203
   35MPD2    C1  533   2.305   3.568  11.904  0.4142 -0.1101 -0.4666
   35MPD2    C2  534   2.230   3.575  11.787 -1.0714 -0.2262 -0.2263
   35MPD2    C3  535   2.248   3.675  11.693  0.6583  0.3582 -0.1857
   35MPD2    C4  536   2.347   3.771  11.713  0.0584  0.0793 -0.1097
   35MPD2    C5  537   2.418   3.766  11.836  0.0279  0.5149  0.7447
   35MPD2     H  538   2.153   3.502  11.766 -1.4779 -0.0333  0.6209
   35MPD2    H1  539   2.364   3.850  11.641 -1.6570  1.3432  0.8670
   35MPD2    H2  540   2.465   3.676  12.009 -1.1077  1.3841  1.2929
   35MPD2    H3  541   2.489   3.845  11.855  0.7436  0.1650 -0.4499
   35MPD2     N  542   2.163   3.659  11.584  0.0616  0.4543 -0.4097
   35MPD2    H5  543   2.106   3.576  11.588 -0.1810  0.6065 -0.6381
   35MPD2    N1  544   2.274   3.462  11.990  0.1580  0.1443 -0.6972
   35MPD2    H7  545   2.209   3.391  11.957 -0.1292  0.1581 -0.1577
   36TCq2    C1  546   2.149   3.755  11.482  0.3391  0.0794 -0.0378
   36TCq2    O2  547   2.213   3.858  11.467 -0.3557  0.1307 -0.2509
   36TCq2    C2  548   2.041   3.727  11.392  0.2973  0.2218  0.5000
   36TCq2    C3  549   1.999   3.825  11.303  0.0580 -0.0566 -0.3785
   36TCq2    C4  550   1.899   3.799  11.210  0.3533 -0.1160  0.2520
   36TCq2    C5  551   1.819   3.687  11.225  0.1636  0.4440  0.3525
   36TCq2    C6  552   1.851   3.600  11.326  0.4381 -0.5602 -0.4219
   36TCq2    C7  553   1.963   3.614  11.405 -0.1480 -0.2847  0.0941
   36TCq2    C8  554   1.784   3.471  11.344 -0.0874  0.1010  0.3117
   36TCq2    O4  555   1.826   3.398  11.430 -0.5919 -0.4612  0.3368
   36TCq2    C9  556   1.867   3.913  11.126 -0.4369  0.1606 -0.3248
   36TCq2    O5  557   1.848   4.021  11.187  0.7199 -0.6440 -0.5745
   36TCq2    O6  558   1.797   3.883  11.024  0.0725  0.4247  0.2164
   36TCq2    H2  559   2.060   3.914  11.301  0.5283 -0.3799 -0.4007
   36TCq2    H3  560   1.727   3.680  11.170  0.1331 -0.3133  0.5091
   36TCq2    H4  561   1.995   3.535  11.471  1.4015 -1.1858 -1.7053
   37TMC2    C1  562   4.287   3.940  11.612 -0.4291  0.5675 -0.7323
   37TMC2    C2  563   4.298   3.982  11.482 -0.1984  0.9241 -0.4272
   37TMC2    C3  564   4.425   3.987  11.421  0.1533  0.2787 -0.5723
   37TMC2    C4  565   4.404   3.907  11.685 -0.9156  0.6050  0.1638
   37TMC2    C5  566   4.527   3.914  11.622 -0.2365  0.1196  0.3955
   37TMC2    C6  567   4.541   3.966  11.491  0.0137  0.5298 -0.1889
   37TMC2     C  568   4.158   3.961  11.683  0.4601  0.7358  0.3940
   37TMC2     O  569   4.065   4.001  11.614 -0.2406  0.6540 -0.1781
   37TMC2     H  570   4.205   3.988  11.426  0.4133 -0.7790 -1.6371
   37TMC2    H1  571   4.400   3.869  11.786  1.1965 -0.8126 -0.2818
   37TMC2    H2  572   4.635   3.969  11.437  0.1464  1.5590  0.1029
   37TMC2    C7  573   4.645   3.916  11.704  0.0058  0.4561  0.6786
   37TMC2    C8  574   4.440   4.070  11.305 -0.2776  0.3699 -0.8200
   37TMC2    O1  575   4.613   3.943  11.819  0.3857  0.3147  0.1212
   37TMC2    O2  576   4.526   4.158  11.298  0.4202 -0.0849 -0.3902
   37TMC2    O5  577   4.323   4.066  11.237 -0.2464  0.4254  0.1445
   37TMC2    H5  578   4.272   3.983  11.245 -2.4700  2.0217  2.4000
   38MPD2     C  579   3.886   3.975  12.118  0.2154 -0.5488  0.3876
   38MPD2    C1  580   4.023   3.965  12.142  0.3762  0.2322 -0.0499
   38MPD2    C2  581   4.112   3.974  12.043  0.7278  0.3691 -0.2265
   38MPD2    C3  582   4.077   3.992  11.912 -0.4051  0.1961  0.0719
   38MPD2    C4  583   3.942   4.008  11.887 -0.5809  0.5276  0.5357
   38MPD2    C5  584   3.848   3.995  11.988 -0.4482 -0.5333  0.6915
   38MPD2     H  585   4.216   3.947  12.058  0.6668  0.8344  1.0721
   38MPD2    H1  586   3.912   4.039  11.788  1.5179  1.6337  0.2458
   38MPD2    H2  587   3.808   3.988  12.191  1.9390  4.2359  1.3153
   38MPD2    H3  588   3.747   4.030  11.971  0.6776  3.0415  1.3797
   38MPD2     N  589   4.179   3.988  11.814 -0.5612 -0.0851  0.0622
   38MPD2    H5  590   4.270   3.983  11.858  0.2685 -0.1294 -1.6902
   38MPD2    N1  591   4.075   3.931  12.269 -0.1076  0.2894 -0.1626
   38MPD2    H7  592   4.176   3.920  12.276 -0.2497 -2.0273 -1.6548
   39MPD2     C  593   2.560   1.646   1.488  0.8084  0.5467  0.3097
   39MPD2    C1  594   2.505   1.771   1.523  0.2427  0.1995  0.1257
   39MPD2    C2  595   2.373   1.801   1.488 -0.0978 -0.2030  0.0481
   39MPD2    C3  596   2.302   1.701   1.424  0.5031  0.0304 -0.3976
   39MPD2    C4  597   2.355   1.578   1.394 -0.6586 -0.5329  0.0693
   39MPD2    C5  598   2.491   1.555   1.419  0.5126  0.9473 -0.3878
   39MPD2     H  599   2.334   1.899   1.511 -1.1332 -0.6129  0.0427
   39MPD2    H1  600   2.305   1.513   1.323 -0.6421  0.1022 -0.5312
   39MPD2    H2  601   2.662   1.623   1.516  2.1896  3.0097 -2.7512
   39MPD2    H3  602   2.536   1.459   1.397 -1.0033  0.6994 -2.4589
   39MPD2     N  603   2.170   1.720   1.385 -0.0796 -0.2787 -0.1764
   39MPD2    H5  604   2.126   1.642   1.337 -0.6138 -0.4012  0.5008
   39MPD2    N1  605   2.588   1.867   1.584 -0.1549 -0.1486  0.2536
   39MPD2    H7  606   2.685   1.839   1.599 -0.6273 -0.6399  2.2801
   40TCq2    C1  607   2.538   1.986   1.637 -0.1046 -0.3296  0.2772
   40TCq2    O2  608   2.424   2.022   1.665  0.1166  0.3312 -0.2624
   40TCq2    C2  609   2.648   2.064   1.692 -0.0725 -0.2888 -0.3754
   40TCq2    C3  610   2.619   2.149   1.794 -0.4737 -0.0728 -0.2432
   40TCq2    C4  611   2.719   2.237   1.839 -0.2294 -0.0175 -0.3116
   40TCq2    C5  612   2.844   2.232   1.776 -0.2705 -0.3354  0.1812
   40TCq2    C6  613   2.872   2.131   1.692  0.5313 -0.8493  0.1506
   40TCq2    C7  614   2.778   2.048   1.639 -0.0489 -0.2161  0.0273
   40TCq2    C8  615   3.001   2.122   1.622 -0.5695 -0.3159  0.0980
   40TCq2    O4  616   3.025   2.019   1.564 -0.5971 -0.3441 -0.1743
   40TCq2    C9  617   2.697   2.329   1.946  0.4025 -0.2181 -0.1818
   40TCq2    O5  618   2.788   2.407   1.971 -0.0875 -0.1484  0.3487
   40TCq2    O6  619   2.591   2.312   2.015  0.5293  0.7399  0.1178
   40TCq2    H2  620   2.522   2.165   1.840 -0.0710  1.2676  0.1579
   40TCq2    H3  621   2.920   2.298   1.815 -0.9305 -0.0919  1.0582
   40TCq2    H4  622   2.805   1.971   1.568 -0.7722  0.7245 -1.2542
   41TMC2    C1  623   1.019   3.382  13.800 -0.0916 -0.1687 -0.4476
   41TMC2    C2  624   0.938   3.468  13.873  0.2886  0.4102 -0.7603
   41TMC2    C3  625   0.868   3.568  13.817 -0.0751  0.2445  0.5085
   41TMC2    C4  626   1.024   3.389  13.664 -0.1539  0.3270 -0.9224
   41TMC2    C5  627   0.931   3.480  13.608  0.0851  0.2930  0.3510
   41TMC2    C6  628   0.843   3.561  13.684 -0.4861  0.5658 -0.1727
   41TMC2     C  629   1.084   3.268  13.859 -0.4470  0.1071 -0.0507
   41TMC2     O  630   1.113   3.172  13.788 -0.0821 -0.0738  0.3468
   41TMC2     H  631   0.953   3.473  13.980 -2.4468  0.6250 -0.3693
   41TMC2    H1  632   1.087   3.324  13.605  0.7363 -0.4186  0.8430
   41TMC2    H2  633   0.784   3.645  13.648 -0.2709  0.6259 -0.3844
   41TMC2    C7  634   0.939   3.514  13.463 -0.1901  0.4067  0.4961
   41TMC2    C8  635   0.765   3.633  13.898  0.4383  0.0700 -0.3378
   41TMC2    O1  636   0.843   3.569  13.411  0.2180 -0.0017  0.4164
   41TMC2    O2  637   0.650   3.650  13.856  0.1156 -0.5608 -0.2043
   41TMC2    O5  638   0.810   3.660  14.021 -0.4366  0.1665  0.5557
   41TMC2    H5  639   0.908   3.664  14.021 -0.4013 -0.6101 -2.2431
   42MPD2     C  640   1.184   3.077  14.069 -0.4113  0.5679  0.1747
   42MPD2    C1  641   1.170   3.212  14.086  0.3232  0.3261 -0.2661
   42MPD2    C2  642   1.196   3.270  14.202  0.2544 -0.0816  0.3694
   42MPD2    C3  643   1.241   3.199  14.314  0.0149 -0.0314  0.8480
   42MPD2    C4  644   1.253   3.064  14.297  0.3126 -0.9360  0.1823
   42MPD2    C5  645   1.222   2.996  14.178 -0.1891  0.0994  0.3643
   42MPD2     H  646   1.167   3.373  14.225 -0.6377 -0.3285  0.3574
   42MPD2    H1  647   1.280   3.003  14.382 -2.0406 -1.3432  0.6201
   42MPD2    H2  648   1.160   3.021  13.980 -0.6288 -0.7823  1.0795
   42MPD2    H3  649   1.230   2.890  14.161  1.3012  0.1790  0.5371
   42MPD2     N  650   1.288   3.251  14.431  0.6982  0.0120  0.6900
   42MPD2    H5  651   1.305   3.184  14.505 -0.3162  0.3870  1.2666
   42MPD2    N1  652   1.117   3.293  13.989  0.5575  0.4227  0.1155
   42MPD2    H7  653   1.098   3.389  14.017 -0.9394  0.2196 -0.2106
   43MPD2     C  654   2.524   3.121   0.574  0.1908 -0.0857 -0.5034
   43MPD2    C1  655   2.655   3.096   0.599 -0.2184  0.1241  0.0175
   43MPD2    C2  656   2.702   3.129   0.721 -0.1038 -0.1565 -0.7372
   43MPD2    C3  657   2.623   3.191   0.824 -0.0421 -0.0244  0.2208
   43MPD2    C4  658   2.492   3.203   0.796 -0.8827  0.1307  0.1467
   43MPD2    C5  659   2.439   3.171   0.668  0.2162 -0.7274  0.1157
   43MPD2     H  660   2.806   3.105   0.743  0.3972  2.2650 -0.4406
   43MPD2    H1  661   2.421   3.245   0.866  1.6054  2.3093  1.3610
   43MPD2    H2  662   2.467   3.076   0.494  0.8863 -0.8229 -0.5789
   43MPD2    H3  663   2.332   3.187   0.657  0.2652 -1.1179 -0.9190
   43MPD2     N  664   2.656   3.219   0.956 -0.6093 -0.6750  0.4363
   43MPD2    H5  665   2.582   3.255   1.015 -0.0486 -2.0706  1.9622
   43MPD2    N1  666   2.741   3.031   0.506  0.0462  0.3244 -0.1147
   43MPD2    H7  667   2.831   3.010   0.548 -1.2689 -2.9534  1.0498
   44TCq2    C1  668   3.002   3.135   1.435  0.0721  0.0688 -0.2310
   44TCq2    O2  669   3.103   3.135   1.367 -0.1190  0.1247 -0.1152
   44TCq2    C2  670   2.884   3.166   1.360 -0.0239  0.3486 -0.1961
   44TCq2    C3  671   2.793   3.247   1.420  0.0185 -0.1301  0.1076
   44TCq2    C4  672   2.705   3.324   1.345 -0.5990  0.5631 -0.1500
   44TCq2    C5  673   2.706   3.319   1.211  0.3842 -0.5641 -0.1156
   44TCq2    C6  674   2.801   3.240   1.150  0.1104  0.2540 -0.2784
   44TCq2    C7  675   2.890   3.158   1.222  0.3384 -0.1102 -0.0828
   44TCq2    C8  676   2.784   3.213   1.010 -0.3964  0.3809 -0.4647
   44TCq2    O4  677   2.879   3.156   0.957 -0.4757 -0.0585  0.0930
   44TCq2    C9  678   2.602   3.403   1.413 -1.1070  0.2262  0.4105
   44TCq2    O5  679   2.600   3.395   1.542 -0.1665 -0.0827 -0.1262
   44TCq2    O6  680   2.518   3.466   1.346  0.6619 -0.1000 -0.1036
   44TCq2    H2  681   2.795   3.262   1.527 -0.7703 -0.8663  0.2269
   44TCq2    H3  682   2.638   3.381   1.153  1.6166  0.1478 -0.8024
   44TCq2    H4  683   2.971   3.111   1.167  1.0299  1.9261 -0.8020
   45TMC2    C1  684   3.559   3.706   9.573 -0.1550 -0.2567 -0.0583
   45TMC2    C2  685   3.689   3.686   9.535  0.9420 -0.1514 -0.0401
   45TMC2    C3  686   3.767   3.790   9.496  0.5570  0.7424  0.1642
   45TMC2    C4  687   3.513   3.842   9.586  0.8248 -0.9254 -0.2332
   45TMC2    C5  688   3.600   3.941   9.549 -0.1932  0.5847  0.7101
   45TMC2    C6  689   3.721   3.917   9.492 -0.7248  0.1844  0.4978
   45TMC2     C  690   3.471   3.593   9.547  0.0703  0.1406  0.8186
   45TMC2     O  691   3.528   3.485   9.548 -0.0818 -0.2875 -0.1301
   45TMC2     H  692   3.727   3.587   9.514 -0.4333 -0.6145 -0.3123
   45TMC2    H1  693   3.409   3.858   9.614  1.0392 -0.8185  0.4812
   45TMC2    H2  694   3.787   4.001   9.475  2.2557 -2.0549  0.9635
   45TMC2    C7  695   3.535   4.068   9.523  0.7700 -0.0453 -0.3323
   45TMC2    C8  696   3.878   3.755   9.412  0.1555 -0.2558 -0.1276
   45TMC2    O1  697   3.573   4.127   9.425  0.4971 -0.2151 -0.5294
   45TMC2    O2  698   3.960   3.672   9.435 -0.2475  0.2559  0.3833
   45TMC2    O5  699   3.890   3.856   9.322  0.1449  0.1062 -0.2946
   45TMC2    H5  700   3.802   3.899   9.311  0.3401  0.2382 -1.3488
   46MPD2     C  701   3.246   3.415   9.473 -0.0602 -0.5251 -0.5176
   46MPD2    C1  702   3.248   3.554   9.456  1.0822 -0.3188 -0.0371
   46MPD2    C2  703   3.140   3.616   9.397 -0.4508  0.8379 -0.7522
   46MPD2    C3  704   3.029   3.542   9.346  0.5608  0.2913 -0.1893
   46MPD2    C4  705   3.032   3.408   9.363  0.7293 -0.6215  0.1486
   46MPD2    C5  706   3.140   3.345   9.422  0.3818 -0.6380  0.4127
   46MPD2     H  707   3.147   3.723   9.389 -1.4060  0.9891  0.3871
   46MPD2    H1  708   2.943   3.357   9.327  1.1255 -0.8768 -0.4687
   46MPD2    H2  709   3.332   3.369   9.520  1.6587  2.3768 -0.8401
   46MPD2    H3  710   3.131   3.239   9.444  0.1898 -0.5584  0.7115
   46MPD2     N  711   2.924   3.610   9.281  0.0147  0.0335 -0.9503
   46MPD2    H5  712   2.936   3.710   9.273  1.7317 -0.1708 -0.8997
   46MPD2    N1  713   3.356   3.640   9.500  0.1969  0.6667  0.1482
   46MPD2    H7  714   3.340   3.740   9.496 -2.3367  0.2482 -0.0264
   47TMC2    C1  715   0.357   4.695   9.830 -0.0454 -0.2138  0.4628
   47TMC2    C2  716   0.383   4.567   9.859 -0.3763 -0.0910  0.3402
   47TMC2    C3  717   0.301   4.508   9.949  0.1238  0.5898  0.4856
   47TMC2    C4  718   0.245   0.035   9.881  0.9021  0.5065 -0.4933
   47TMC2    C5  719   0.154   4.680   9.955 -0.0044 -0.0965  0.3318
   47TMC2    C6  720   0.187   4.556   9.997  1.0659 -0.6628  0.7814
   47TMC2     C  721   0.421   0.041   9.725  0.5966 -0.3978 -0.4587
   47TMC2     O  722   0.391   0.159   9.719 -0.1485  0.4162  0.1107
   47TMC2     H  723   0.468   4.515   9.816  2.9314  2.4128  3.9165
   47TMC2    H1  724   0.209   0.131   9.847 -0.5335  0.2217  0.1732
   47TMC2    H2  725   0.128   4.498  10.067 -0.0957  0.3721  0.6442
   47TMC2    C7  726   0.017   4.719   9.964  0.1370  0.1077 -0.1128
   47TMC2    C8  727   0.294   4.362   9.936 -0.2979 -0.3361  1.1394
   47TMC2    O1  728   4.711   0.099   9.900  0.6842 -0.0311 -0.0279
   47TMC2    O2  729   0.268   4.311   9.830  0.4265  0.2296 -0.2343
   47TMC2    O5  730   0.266   4.314  10.056  0.3009  1.0526  0.2351
   47TMC2    H5  731   0.303   4.365  10.131 -0.4369  2.2525 -0.2132
   48MPD2     C  732   0.587   0.105   9.487  0.1189 -0.0840  0.0984
   48MPD2    C1  733   0.634   0.037   9.594  0.4476 -0.2594  0.6191
   48MPD2    C2  734   0.770   0.013   9.599  0.4516  0.2518  0.3367
   48MPD2    C3  735   0.859   0.049   9.495 -0.9750  0.4322  0.6000
   48MPD2    C4  736   0.800   0.108   9.385  0.0737  0.1968 -0.4664
   48MPD2    C5  737   0.670   0.141   9.382 -0.3408  0.0146  0.3052
   48MPD2     H  738   0.820   4.690   9.684 -2.7664  0.5787  2.3809
   48MPD2    H1  739   0.858   0.144   9.300 -0.1908 -1.5560 -1.3909
   48MPD2    H2  740   0.484   0.137   9.482  0.0597  0.0116  1.9113
   48MPD2    H3  741   0.624   0.186   9.295  0.5461 -2.2900 -1.3527
   48MPD2     N  742   0.996   0.019   9.501  0.1800 -0.2107 -0.0703
   48MPD2    H5  743   1.029   4.695   9.586 -1.7723 -0.5526  0.4978
   48MPD2    N1  744   0.548   4.713   9.700 -0.0877  0.3031  0.6374
   48MPD2    H7  745   0.583   4.633   9.750  0.5256  0.2298  0.0904
   49MPD2     C  746   4.449   1.843  10.140 -0.8226  0.1989 -0.1513
   49MPD2    C1  747   4.344   1.790  10.214 -0.0485  0.6589  0.9252
   49MPD2    C2  748   4.338   1.824  10.345  0.2816  0.4752 -0.1126
   49MPD2    C3  749   4.421   1.919  10.405 -0.2934  0.3868  0.1502
   49MPD2    C4  750   4.526   1.966  10.326  0.2826  0.0573  0.0531
   49MPD2    C5  751   4.547   1.927  10.202  0.6139 -0.0183  0.2030
   49MPD2     H  752   4.253   1.779  10.396 -0.5171  2.5818  0.4443
   49MPD2    H1  753   4.584   2.050  10.365  3.4952 -0.6997 -3.0954
   49MPD2    H2  754   4.468   1.809  10.039 -3.5389  0.0185 -0.5813
   49MPD2    H3  755   4.637   1.968  10.158 -1.2408  0.6395 -2.9945
   49MPD2     N  756   4.405   1.948  10.541 -0.0908  0.7886  0.3887
   49MPD2    H5  757   4.475   2.005  10.588 -1.2729  1.0965  1.7834
   49MPD2    N1  758   4.243   1.713  10.156  0.0090 -0.0740  0.4387
   49MPD2    H7  759   4.174   1.687  10.226 -0.3992 -0.8594 -0.2508
   50TCq2    C1  760   4.235   1.670  10.028  0.3497 -0.6632  0.3775
   50TCq2    O2  761   4.299   1.710   9.929 -0.4010 -0.1019 -0.0007
   50TCq2    C2  762   4.117   1.590  10.009 -0.3327 -0.4784  0.3910
   50TCq2    C3  763   4.042   1.616   9.899  0.2428 -0.1808  0.3206
   50TCq2    C4  764   3.932   1.539   9.889 -1.0324  0.1906 -0.1452
   50TCq2    C5  765   3.894   1.439   9.973  0.0554 -0.6713 -0.8131
   50TCq2    C6  766   3.978   1.422  10.078 -0.5270  0.6718  0.7701
   50TCq2    C7  767   4.087   1.496  10.102 -0.5661  0.2981  0.4997
   50TCq2    C8  768   3.944   1.321  10.175  0.1160  0.8520  0.5087
   50TCq2    O4  769   3.826   1.284  10.185 -0.4710  0.5891  0.1060
   50TCq2    C9  770   3.843   1.574   9.777 -0.5903  0.0362  0.0544
   50TCq2    O5  771   3.739   1.504   9.757 -0.1294  0.2160 -0.4261
   50TCq2    O6  772   3.899   1.634   9.679 -0.0113 -0.0768  0.3179
   50TCq2    H2  773   4.056   1.706   9.841 -0.6641 -0.7292 -0.7355
   50TCq2    H3  774   3.804   1.381   9.954 -0.2091 -0.1414 -1.1817
   50TCq2    H4  775   4.134   1.497  10.200  0.3456  1.5277  0.0587
   51MPD2     C  776   3.813   1.859   0.925  0.4159  0.5292  0.4014
   51MPD2    C1  777   3.830   1.719   0.934 -0.2787 -0.4609  0.2035
   51MPD2    C2  778   3.914   1.664   1.031  0.5828 -0.7280  0.6448
   51MPD2    C3  779   3.964   1.747   1.133  0.7639 -0.4953  0.0709
   51MPD2    C4  780   3.926   1.881   1.134  0.4212  0.4143  0.1939
   51MPD2    C5  781   3.852   1.934   1.032 -0.6921 -0.2133  0.3392
   51MPD2     H  782   3.936   1.558   1.031 -1.9024 -1.2524 -0.3274
   51MPD2    H1  783   3.972   1.948   1.206 -0.7233  1.0543  0.3220
   51MPD2    H2  784   3.749   1.904   0.849  0.7281  0.0554 -0.1381
   51MPD2    H3  785   3.832   2.041   1.029 -0.9662 -0.2881 -0.4044
   51MPD2     N  786   4.056   1.709   1.230  0.3396  0.2323 -0.4075
   51MPD2    H5  787   4.077   1.781   1.298 -0.8132 -0.9957  1.2448
   51MPD2    N1  788   3.756   1.629   0.860 -0.6752 -0.6354 -0.2970
   51MPD2    H7  789   3.770   1.529   0.869  2.1023 -0.4907 -2.9084
   52TCq2    C1  790   4.136   1.594   1.226  0.5229  0.7790  0.5900
   52TCq2    O2  791   4.118   1.497   1.159  0.5361  0.8570  0.8292
   52TCq2    C2  792   4.254   1.588   1.310  0.6067 -0.5841  0.2738
   52TCq2    C3  793   4.307   1.466   1.343 -0.4556 -0.4806  0.0655
   52TCq2    C4  794   4.431   1.464   1.395  0.8466  0.3049  0.1424
   52TCq2    C5  795   4.510   1.571   1.424 -0.3638 -0.8513 -0.4245
   52TCq2    C6  796   4.451   1.698   1.387  0.1097 -0.4275  0.2256
   52TCq2    C7  797   4.321   1.707   1.337 -0.8509 -0.4631 -0.0077
   52TCq2    C8  798   4.532   1.810   1.350  0.9912 -0.2785 -0.6837
   52TCq2    O4  799   4.481   1.915   1.314  0.2252 -0.2929  0.4152
   52TCq2    C9  800   4.491   1.335   1.414 -0.2512  0.9321 -0.2262
   52TCq2    O5  801   4.419   1.235   1.400 -0.3474 -0.1060  0.6664
   52TCq2    O6  802   4.604   1.332   1.469  0.4092 -0.6512 -0.2827
   52TCq2    H2  803   4.266   1.373   1.305  2.7005 -1.1164 -1.8155
   52TCq2    H3  804   4.614   1.555   1.451 -0.6726  0.3150  1.4846
   52TCq2    H4  805   4.278   1.802   1.310 -0.7055 -0.7235 -1.1339
   53TMC2    C1  806   0.386   4.034  12.272 -0.1446 -0.3604  0.2464
   53TMC2    C2  807   0.487   3.997  12.363  0.2149  0.4190 -0.5993
   53TMC2    C3  808   0.451   4.019  12.492 -0.3917  0.0104  0.0103
   53TMC2    C4  809   0.265   4.084  12.310 -0.4315  0.1345  0.4635
   53TMC2    C5  810   0.238   4.092  12.445 -0.1244 -0.0610 -0.1944
   53TMC2    C6  811   0.328   4.054  12.539  0.0493  0.9294 -0.2787
   53TMC2     C  812   0.413   3.987  12.138 -0.2139 -0.1468  0.0223
   53TMC2     O  813   0.530   3.965  12.115 -0.3307 -0.5038  0.6199
   53TMC2     H  814   0.590   3.967  12.347  1.1025  2.6578  0.9666
   53TMC2    H1  815   0.202   4.131  12.235 -0.9140 -2.2994 -0.6646
   53TMC2    H2  816   0.313   4.052  12.647 -0.5112 -1.0748 -0.3811
   53TMC2    C7  817   0.125   4.175  12.484 -0.4188 -0.3354 -0.0404
   53TMC2    C8  818   0.542   3.947  12.585  1.1090  0.1604  0.1462
   53TMC2    O1  819   0.080   4.248  12.398 -0.5956 -0.2175  0.4138
   53TMC2    O2  820   0.578   3.996  12.689  0.5639  0.0296 -0.0574
   53TMC2    O5  821   0.528   3.811  12.559 -0.2353  0.3225 -0.7116
   53TMC2    H5  822   0.488   3.791  12.472  2.6557 -1.4080 -1.6578
   54MPD2     C  823   0.413   3.929  11.837 -0.4288  0.2939 -0.0302
   54MPD2    C1  824   0.302   3.940  11.918 -0.7052 -0.7120  0.1356
   54MPD2    C2  825   0.183   3.922  11.854  0.4228  1.0099  0.1756
   54MPD2    C3  826   0.174   3.888  11.723 -0.1531 -0.1103 -0.0664
   54MPD2    C4  827   0.281   3.874  11.646 -0.4666 -0.3135 -0.2784
   54MPD2    C5  828   0.399   3.901  11.702  0.0304  0.1730 -0.3086
   54MPD2     H  829   0.097   3.941  11.917 -0.2010 -1.5656  0.1094
   54MPD2    H1  830   0.274   3.855  11.540  1.4236  0.2231 -0.5052
   54MPD2    H2  831   0.511   3.943  11.881 -0.6898 -3.0924  1.5627
   54MPD2    H3  832   0.486   3.886  11.638  0.1029  1.4301 -0.5061
   54MPD2     N  833   0.051   3.894  11.651 -0.0060  0.3304  0.0867
   54MPD2    H5  834   0.058   3.869  11.553  1.7204 -1.4175  0.6485
   54MPD2    N1  835   0.308   3.974  12.057 -0.0468 -0.3602 -0.1932
   54MPD2    H7  836   0.216   3.976  12.102 -0.2761 -0.5986 -0.6549
   55MPD2     C  837   0.761   2.386   0.657  0.0206 -0.3719 -0.4026
   55MPD2    C1  838   0.656   2.316   0.707  0.3907 -0.1349  0.2858
   55MPD2    C2  839   0.539   2.386   0.747  0.3229  1.1984 -0.3820
   55MPD2    C3  840   0.518   2.519   0.711  0.4000 -0.8585  0.1911
   55MPD2    C4  841   0.615   2.578   0.641 -0.0118 -0.0683  0.4440
   55MPD2    C5  842   0.736   2.510   0.613 -0.3108  0.4038 -0.0331
   55MPD2     H  843   0.455   2.340   0.799  1.3431  0.2431  0.4233
   55MPD2    H1  844   0.597   2.681   0.611  0.9918 -0.5911 -1.9465
   55MPD2    H2  845   0.857   2.337   0.646  0.5103  0.0024  2.1814
   55MPD2    H3  846   0.817   2.567   0.569 -1.0603  0.9128 -0.7458
   55MPD2     N  847   0.392   2.581   0.755 -0.8390  0.2857 -0.1842
   55MPD2    H5  848   0.328   2.522   0.807  1.8185 -1.0755  1.5664
   55MPD2    N1  849   0.669   2.183   0.739  0.4333  0.4066  0.0484
   55MPD2    H7  850   0.758   2.141   0.712  0.0071 -0.4596  0.0072
   56TCq2    C1  851   0.578   2.104   0.802 -1.3801  0.2371  0.3290
   56TCq2    O2  852   0.454   2.114   0.806  0.4333  0.4787  0.1821
   56TCq2    C2  853   0.638   2.007   0.886  0.4481  0.1699  0.2786
   56TCq2    C3  854   0.762   2.033   0.940  0.6024  0.4120 -0.2003
   56TCq2    C4  855   0.818   1.943   1.028 -0.7157  0.1559 -0.5858
   56TCq2    C5  856   0.749   1.830   1.070 -0.4795  0.7683  1.0041
   56TCq2    C6  857   0.619   1.822   1.025 -0.2280 -0.3268  1.1607
   56TCq2    C7  858   0.566   1.900   0.930  0.1355  0.1725  0.0789
   56TCq2    C8  859   0.535   1.709   1.079  0.8700  0.2944  0.3534
   56TCq2    O4  860   0.583   1.614   1.145  0.7785  0.2518 -0.1130
   56TCq2    C9  861   0.943   1.973   1.083  0.3287  0.4739  0.1776
   56TCq2    O5  862   0.998   2.083   1.066  0.4086  0.4694  0.5356
   56TCq2    O6  863   0.985   1.892   1.173  0.2492  0.0578 -0.2828
   56TCq2    H2  864   0.818   2.124   0.924 -2.3391  2.1077 -0.9325
   56TCq2    H3  865   0.783   1.779   1.159  0.1399  1.6702  1.2944
   56TCq2    H4  866   0.463   1.893   0.895  0.1727 -0.2937  0.0642
   57TMC2    C1  867   0.407   2.990  13.718  0.3940 -0.3479  0.2169
   57TMC2    C2  868   0.504   2.929  13.801 -2.0207 -0.2870  0.1159
   57TMC2    C3  869   0.549   2.805  13.772  0.3330  0.3590  0.5174
   57TMC2    C4  870   0.354   2.918  13.615  0.4512  0.0952 -0.2222
   57TMC2    C5  871   0.393   2.785  13.607  0.2135  0.6658 -0.4188
   57TMC2    C6  872   0.488   2.726  13.675 -0.6996 -0.2742  0.1736
   57TMC2     C  873   0.347   3.112  13.758  0.2177 -1.2557  0.5840
   57TMC2     O  874   0.353   3.152  13.871 -0.1813  0.0216  0.2613
   57TMC2     H  875   0.546   2.988  13.881  0.9890 -0.7911 -1.1101
   57TMC2    H1  876   0.283   2.956  13.543 -1.8623 -0.3275  1.7993
   57TMC2    H2  877   0.486   2.617  13.679 -0.2314 -0.3406 -1.7488
   57TMC2    C7  878   0.349   2.719  13.487 -0.4178  0.4899  0.2562
   57TMC2    C8  879   0.621   2.744  13.878 -0.1778  0.2563 -0.6128
   57TMC2    O1  880   0.226   2.713  13.475 -0.4702  0.1881  0.4440
   57TMC2    O2  881   0.569   2.748  13.988 -0.2600  0.0141 -0.5634
   57TMC2    O5  882   0.678   2.643  13.818  0.4851 -0.0271 -0.5258
   57TMC2    H5  883   0.680   2.647  13.720  2.1894 -2.1866 -0.5762
   58MPD2     C  884   0.029   3.502  13.672  0.4855 -0.2939  0.3998
   58MPD2    C1  885   0.052   3.423  13.787  0.2411  0.7306 -0.3884
   58MPD2    C2  886   0.140   3.311  13.774  0.9049 -0.3073  0.0317
   58MPD2    C3  887   0.210   3.288  13.660 -0.3050 -0.4633  0.0157
   58MPD2    C4  888   0.180   3.362  13.549 -0.2631 -0.3724  0.1936
   58MPD2    C5  889   0.091   3.462  13.553  0.1914 -0.2463  0.0852
   58MPD2     H  890   0.155   3.256  13.866 -0.2218 -0.2401  0.2533
   58MPD2    H1  891   0.233   3.347  13.456 -0.3916  1.2404 -0.1399
   58MPD2    H2  892   4.672   3.575  13.660  2.1407  1.8736  2.6756
   58MPD2    H3  893   0.076   3.526  13.467  0.5876  2.0786  1.7645
   58MPD2     N  894   0.293   3.175  13.652  0.4925 -0.9120 -0.2519
   58MPD2    H5  895   0.335   3.152  13.562  6.3603 -1.1413  2.5743
   58MPD2    N1  896   4.702   3.440  13.906 -0.1100 -0.9332 -0.2005
   58MPD2    H7  897   4.719   3.370  13.978  0.7933 -1.3684 -0.8439
   59MPD2     C  898   3.326   2.324  12.798  0.5202 -0.1470 -0.0001
   59MPD2    C1  899   3.214   2.404  12.807 -0.1550 -0.3935  0.5188
   59MPD2    C2  900   3.190   2.468  12.924  0.1818  0.3260  0.8966
   59MPD2    C3  901   3.281   2.467  13.024 -0.7060  0.2791 -0.6467
   59MPD2    C4  902   3.399   2.399  13.011  0.2686  0.5112 -0.4469
   59MPD2    C5  903   3.417   2.316  12.896 -0.9916  0.1241 -0.0617
   59MPD2     H  904   3.099   2.526  12.927  0.1957  0.3147  1.4231
   59MPD2    H1  905   3.479   2.409  13.083  0.2459 -3.1885  0.0992
   59MPD2    H2  906   3.350   2.263  12.712  0.7988  2.2092 -1.5701
   59MPD2    H3  907   3.510   2.260  12.891 -1.3481 -0.5549  0.8585
   59MPD2     N  908   3.256   2.538  13.147 -0.3920 -0.4556  0.3581
   59MPD2    H5  909   3.333   2.557  13.210  2.1005  0.7280 -3.0885
   59MPD2    N1  910   3.121   2.413  12.704 -0.2953 -0.3102 -0.0305
   59MPD2    H7  911   3.034   2.454  12.736  0.5281  1.0741  0.4257
   60TCq2    C1  912   3.147   2.363  12.576  0.3517  0.5266  0.2991
   60TCq2    O2  913   3.252   2.310  12.531  0.0986 -0.0206 -0.2370
   60TCq2    C2  914   3.033   2.360  12.489  0.0360 -1.1115  0.6461
   60TCq2    C3  915   3.053   2.357  12.354 -0.4496 -0.0022 -0.3186
   60TCq2    C4  916   2.951   2.393  12.266 -0.1751 -1.1137  0.3440
   60TCq2    C5  917   2.839   2.447  12.322 -0.5705  0.0865 -0.9244
   60TCq2    C6  918   2.819   2.443  12.453  0.3131  0.2897 -0.1447
   60TCq2    C7  919   2.910   2.396  12.542  0.4104 -0.3450 -1.3147
   60TCq2    C8  920   2.688   2.465  12.501  0.4241 -0.1285 -0.1167
   60TCq2    O4  921   2.654   2.391  12.592  0.1236  0.3386  0.1637
   60TCq2    C9  922   2.961   2.372  12.122  0.4991 -0.4366 -0.6815
   60TCq2    O5  923   2.871   2.416  12.049 -0.3682  0.5704  0.3716
   60TCq2    O6  924   3.068   2.315  12.077  0.2597  0.2767  0.6313
   60TCq2    H2  925   3.141   2.321  12.301  0.1203  1.0933 -0.1132
   60TCq2    H3  926   2.754   2.462  12.257 -1.3938  1.2309  0.4256
   60TCq2    H4  927   2.881   2.396  12.646  0.6631 -0.6310 -1.2439
   61MPD2     C  928   1.868   3.713  14.236  0.9274  0.1490 -0.8528
   61MPD2    C1  929   1.751   3.757  14.299 -0.0854 -0.0828  0.3045
   61MPD2    C2  930   1.700   3.886  14.273  0.2706  0.3675  0.4995
   61MPD2    C3  931   1.767   3.977  14.186 -0.1553 -0.1947 -0.1000
   61MPD2    C4  932   1.883   3.928  14.127  0.2680  0.4538  0.5029
   61MPD2    C5  933   1.930   3.800  14.149  0.2311 -1.0441  0.0943
   61MPD2     H  934   1.609   3.918  14.322  0.1507  0.5484  0.1627
   61MPD2    H1  935   1.938   3.989  14.057  1.6311 -2.9996 -1.4182
   61MPD2    H2  936   1.909   3.616  14.259 -0.7687 -0.4150 -0.2129
   61MPD2    H3  937   2.023   3.787  14.095  0.4758 -1.1670  0.5446
   61MPD2     N  938   1.713   4.106  14.158 -0.5760  0.4413 -0.2290
   61MPD2    H5  939   1.776   4.168  14.108  0.4426  0.0038  0.5070
   61MPD2    N1  940   1.680   3.679  14.397 -0.1197 -0.0760 -0.0035
   61MPD2    H7  941   1.590   3.722  14.416 -0.9261 -0.4437 -3.0366
   62TCq2    C1  942   1.736   3.579  14.473  0.2130  0.2365  0.2110
   62TCq2    O2  943   1.834   3.513  14.443  0.1441  0.0085 -0.3501
   62TCq2    C2  944   1.693   3.595  14.613  0.1543  0.4157 -0.3300
   62TCq2    C3  945   1.744   3.513  14.708 -1.0287  0.4374 -0.2627
   62TCq2    C4  946   1.748   3.543  14.845 -0.1283 -0.2649  0.0807
   62TCq2    C5  947   1.680   3.658  14.884 -0.0419  0.0692  1.2085
   62TCq2    C6  948   1.642   3.744  14.790 -0.3695  0.0512 -0.7412
   62TCq2    C7  949   1.644   3.719  14.659 -0.0849  0.4880  0.6896
   62TCq2    C8  950   1.638   3.886  14.817 -0.2676 -0.1309  0.6588
   62TCq2    O4  951   1.696   3.952  14.733  0.4368  0.5040 -0.0356
   62TCq2    C9  952   1.774   3.444  14.945 -0.4746  0.0260  0.4111
   62TCq2    O5  953   1.799   3.492  15.059  0.6030 -0.2793 -0.0121
   62TCq2    O6  954   1.783   3.325  14.908 -0.0292  0.0328  0.0868
   62TCq2    H2  955   1.786   3.421  14.669 -0.9280  0.8114 -1.0232
   62TCq2    H3  956   1.692   3.689  14.987  1.2417  0.8022  0.8444
   62TCq2    H4  957   1.617   3.803  14.596  0.9799 -0.0566 -0.4977
   63TMC2    C1  958   0.915   3.721  10.804  0.1300 -0.1417 -0.0585
   63TMC2    C2  959   0.945   3.722  10.936  0.1842 -0.3870 -0.0345
   63TMC2    C3  960   1.040   3.812  10.972 -0.0172 -0.2845  0.9604
   63TMC2    C4  961   0.971   3.812  10.717 -0.2043  0.2365  0.1174
   63TMC2    C5  962   1.058   3.904  10.757 -0.0142  0.8131  0.1707
   63TMC2    C6  963   1.095   3.904  10.893  0.3655 -0.1760  0.1520
   63TMC2     C  964   0.825   3.616  10.746 -0.6227  0.4034 -0.4531
   63TMC2     O  965   0.734   3.575  10.822 -0.5464 -0.0938 -0.5789
   63TMC2     H  966   0.921   3.639  11.002  1.5099  0.5140  1.5648
   63TMC2    H1  967   0.928   3.821  10.618 -1.7376  0.4746  0.8119
   63TMC2    H2  968   1.176   3.965  10.932 -0.5202  0.8197  0.4042
   63TMC2    C7  969   1.095   4.008  10.666  0.4005 -0.5842 -0.2486
   63TMC2    C8  970   1.084   3.804  11.113  0.4073 -0.2412  0.4542
   63TMC2    O1  971   1.021   4.039  10.574  0.1098 -0.0250  0.0555
   63TMC2    O2  972   1.187   3.841  11.165  0.1247 -0.6952  0.0504
   63TMC2    O5  973   0.972   3.773  11.175  0.4556 -0.6767  0.2931
   63TMC2    H5  974   0.899   3.753  11.112  0.5543  1.2343 -0.4178
   64MPD2     C  975   0.687   3.294  10.384  0.1475  0.0728 -0.7012
   64MPD2    C1  976   0.822   3.310  10.370  0.6773 -0.1606 -0.6125
   64MPD2    C2  977   0.883   3.402  10.454  0.4103 -0.4750  0.8914
   64MPD2    C3  978   0.808   3.481  10.541 -0.1059 -0.3880  0.2178
   64MPD2    C4  979   0.668   3.457  10.548  0.3504  0.3209 -1.3007
   64MPD2    C5  980   0.614   3.363  10.468 -0.0182 -0.3776 -0.4252
   64MPD2     H  981   0.991   3.407  10.448  0.3005  0.0673 -0.4912
   64MPD2    H1  982   0.607   3.524  10.607  2.0245  0.6247  0.1019
   64MPD2    H2  983   0.634   3.220  10.325 -0.0073 -1.4924  1.4012
   64MPD2    H3  984   0.507   3.349  10.474  0.1604 -1.6005 -0.1254
   64MPD2     N  985   0.875   3.568  10.632 -0.7681 -0.2949 -0.0497
   64MPD2    H5  986   0.973   3.585  10.612 -0.5563 -2.1864 -0.6582
   64MPD2    N1  987   0.892   3.206  10.304 -0.4337 -0.3913 -0.0541
   64MPD2    H7  988   0.852   3.113  10.313 -1.1032  0.1786  2.7535
   65MPD2     C  989   2.586   3.951  15.931  0.2690 -0.7637 -0.1435
   65MPD2    C1  990   2.544   3.937  15.796  0.3900  0.5177  0.1307
   65MPD2    C2  991   2.575   3.812  15.732  0.1331 -0.1619 -0.2570
   65MPD2    C3  992   2.624   3.699  15.794  1.0358 -0.1883 -0.1994
   65MPD2    C4  993   2.667   3.713  15.927 -0.4704  0.2605  0.0693
   65MPD2    C5  994   2.642   3.836  15.991  0.4017 -0.3840  0.2276
   65MPD2     H  995   2.538   3.808  15.630  2.3153  1.0585 -1.0817
   65MPD2    H1  996   2.714   3.631  15.981 -1.8549 -0.3794  0.3116
   65MPD2    H2  997   2.575   4.048  15.978 -2.2117 -0.1903 -1.9017
   65MPD2    H3  998   2.669   3.849  16.095 -0.5121  0.3937  0.3672
   65MPD2     N  999   2.628   3.570  15.738  0.2891  0.1746  0.2440
   65MPD2    H5 1000   2.657   3.495  15.800  1.2085  0.0010 -0.3923
   65MPD2    N1 1001   2.475   4.035  15.726  1.2258 -0.3666  0.3868
   65MPD2    H7 1002   2.440   4.003  15.636  0.4134 -0.3970  0.7084
   66TCq2    C1 1003   2.424   4.154  15.771 -0.1497 -0.1685 -0.2219
   66TCq2    O2 1004   2.420   4.212  15.882  0.0036 -0.2067  0.6867
   66TCq2    C2 1005   2.360   4.227  15.657 -0.6212 -0.0187 -0.0137
   66TCq2    C3 1006   2.411   4.203  15.533  0.0637  0.0003 -0.6421
   66TCq2    C4 1007   2.375   4.289  15.427  0.0335  0.5786 -0.3488
   66TCq2    C5 1008   2.281   4.380  15.446  0.2924  0.8415 -0.8463
   66TCq2    C6 1009   2.230   4.402  15.571  0.0703  0.6387 -0.8673
   66TCq2    C7 1010   2.262   4.323  15.679  0.5029  0.0145  0.7400
   66TCq2    C8 1011   2.115   4.494  15.580 -0.2258 -0.1321  0.1353
   66TCq2    O4 1012   2.098   4.560  15.476 -0.3007 -0.0889  0.9114
   66TCq2    C9 1013   2.433   4.274  15.296  0.5385 -0.4375  0.1748
   66TCq2    O5 1014   2.519   4.186  15.290  0.3120  0.4788  0.6765
   66TCq2    O6 1015   2.420   4.372  15.217 -0.0070  0.0519  0.2943
   66TCq2    H2 1016   2.487   4.130  15.508 -0.5812 -0.5888 -0.8828
   66TCq2    H3 1017   2.256   4.448  15.365  1.3988  1.7497 -0.4215
   66TCq2    H4 1018   2.226   4.350  15.777  0.5271  1.5806  0.3274
   67MPD2     C 1019   2.841   3.134  13.988 -0.9454  0.2963  0.0183
   67MPD2    C1 1020   2.799   3.116  14.119  0.1366  0.2788  0.0663
   67MPD2    C2 1021   2.681   3.047  14.141  0.5052  0.5098  0.6156
   67MPD2    C3 1022   2.601   3.004  14.044 -0.4164  0.1955 -0.3377
   67MPD2    C4 1023   2.635   3.041  13.916 -0.0289  0.1264 -0.6265
   67MPD2    C5 1024   2.750   3.109  13.883 -0.3363 -0.0684 -0.4196
   67MPD2     H 1025   2.656   3.044  14.247 -1.5956  1.1543  0.1414
   67MPD2    H1 1026   2.579   3.011  13.828  0.9683 -0.7506 -0.9574
   67MPD2    H2 1027   2.934   3.178  13.955 -0.9359  1.4821  1.6330
   67MPD2    H3 1028   2.780   3.136  13.782  1.2523 -2.3404 -0.5580
   67MPD2     N 1029   2.480   2.932  14.080  0.1175  0.0406  0.3078
   67MPD2    H5 1030   2.413   2.925  14.004  0.5576 -3.7909  0.2584
   67MPD2    N1 1031   2.862   3.177  14.229  0.1389  0.0540 -0.6263
   67MPD2    H7 1032   2.814   3.205  14.314  0.4210 -1.0451 -0.0953
   68TCq2    C1 1033   2.996   3.215  14.227 -0.4518  0.5105 -0.1145
   68TCq2    O2 1034   3.079   3.186  14.143 -0.5353  0.0874  0.1978
   68TCq2    C2 1035   3.031   3.317  14.325 -0.7145 -0.0352 -0.1641
   68TCq2    C3 1036   2.937   3.404  14.373 -0.4639 -0.6977 -0.3146
   68TCq2    C4 1037   2.952   3.465  14.490  0.6125 -0.3321 -0.8863
   68TCq2    C5 1038   3.069   3.459  14.555 -0.7008 -0.5596 -0.6913
   68TCq2    C6 1039   3.173   3.377  14.508  0.3760 -0.0595 -0.2217
   68TCq2    C7 1040   3.154   3.303  14.390 -0.0298 -0.1809  0.0271
   68TCq2    C8 1041   3.280   3.334  14.596 -0.5505 -0.1502  0.7012
   68TCq2    O4 1042   3.382   3.296  14.536 -0.2740 -1.0981 -0.3698
   68TCq2    C9 1043   2.844   3.539  14.552  0.5360 -0.7528  0.7783
   68TCq2    O5 1044   2.733   3.548  14.495 -0.3585  0.6380 -0.0176
   68TCq2    O6 1045   2.860   3.580  14.670  0.1671  0.4079 -0.0914
   68TCq2    H2 1046   2.847   3.418  14.314 -0.2558  1.8909 -0.0273
   68TCq2    H3 1047   3.084   3.531  14.635 -2.8636  1.0717 -1.7401
   68TCq2    H4 1048   3.227   3.229  14.360 -0.6681 -0.5501 -0.6041
   69TMC2    C1 1049   3.987   4.719  11.856  0.6440 -0.0450 -0.7474
   69TMC2    C2 1050   3.886   0.025  11.770 -0.4229  0.1713  0.6788
   69TMC2    C3 1051   3.926   0.085  11.651  0.4734 -0.3053  0.0989
   69TMC2    C4 1052   4.114   0.005  11.819 -0.9834 -1.3649 -0.3468
   69TMC2    C5 1053   4.149   0.054  11.694 -0.6012 -0.7347  0.7114
   69TMC2    C6 1054   4.056   0.100  11.611  0.0333  0.2829 -0.2833
   69TMC2     C 1055   3.944   4.717  11.996 -0.4893  0.2267  0.5102
   69TMC2     O 1056   3.828   4.694  12.022 -1.0007  0.4022  0.0571
   69TMC2     H 1057   3.781   0.025  11.795 -0.7340 -1.3589 -0.5919
   69TMC2    H1 1058   4.200   4.698  11.878  0.5637 -0.7627 -2.2451
   69TMC2    H2 1059   4.088   0.155  11.524  1.9188  1.7165  1.3169
   69TMC2    C7 1060   4.280   0.006  11.643 -0.7127 -0.4559 -0.4151
   69TMC2    C8 1061   3.825   0.094  11.547  0.1479  0.6740 -0.2378
   69TMC2    O1 1062   4.364   4.707  11.733  0.0116  0.3885  0.0032
   69TMC2    O2 1063   3.752   4.720  11.519 -0.1161  0.2027  0.0274
   69TMC2    O5 1064   3.853   0.201  11.463 -0.5462 -0.1195 -0.1181
   69TMC2    H5 1065   3.907   0.271  11.507  1.3299 -0.3756 -2.0416
   70MPD2     C 1066   4.182   4.683  12.266  1.1651  0.3620  0.2785
   70MPD2    C1 1067   4.061   4.688  12.208 -0.4846  0.7367  0.3844
   70MPD2    C2 1068   3.943   4.686  12.287 -0.1699 -0.1917  0.4376
   70MPD2    C3 1069   3.955   4.680  12.423  0.0958 -0.0352  0.6545
   70MPD2    C4 1070   4.082   4.662  12.477 -0.5055  0.4242  0.7013
   70MPD2    C5 1071   4.188   4.670  12.400  0.1890 -0.9694  0.3757
   70MPD2     H 1072   3.845   4.703  12.243 -0.3602 -0.7956  0.6237
   70MPD2    H1 1073   4.103   4.646  12.582 -2.0593 -2.4035  0.5823
   70MPD2    H2 1074   4.275   4.684  12.211 -0.2516 -3.0430 -2.1396
   70MPD2    H3 1075   4.284   4.660  12.448  1.0519  1.8027 -0.7600
   70MPD2     N 1076   3.849   4.675  12.519 -0.5424 -0.0692 -0.6764
   70MPD2    H5 1077   3.884   4.677  12.614  0.6370 -0.8119 -1.0993
   70MPD2    N1 1078   4.059   4.718  12.075 -0.0274  0.3696 -0.0384
   70MPD2    H7 1079   4.147   0.010  12.027  1.6347  1.1869  3.2639
   71TMC2    C1 1080   3.125   0.336   1.801  0.3676 -0.0801  0.0130
   71TMC2    C2 1081   3.170   0.277   1.918 -0.4149  0.8653 -0.6451
   71TMC2    C3 1082   3.119   0.156   1.947 -0.4787 -0.1215 -0.1422
   71TMC2    C4 1083   3.030   0.281   1.722  0.5490 -0.1922 -0.4821
   71TMC2    C5 1084   2.986   0.158   1.751 -0.4914  0.0443  0.1265
   71TMC2    C6 1085   3.019   0.093   1.868  0.0606 -0.4008 -0.4525
   71TMC2     C 1086   3.164   0.473   1.771  0.7224 -0.3132  0.2622
   71TMC2     O 1087   3.181   0.503   1.651 -0.1047 -0.0921 -0.0136
   71TMC2     H 1088   3.255   0.320   1.971 -0.7873  2.5240 -1.3859
   71TMC2    H1 1089   2.997   0.348   1.644  0.9636  0.7560  0.1538
   71TMC2    H2 1090   2.973   0.003   1.907  0.3954  0.1293  1.2106
   71TMC2    C7 1091   2.866   0.110   1.687  0.0596 -0.5899 -0.2249
   71TMC2    C8 1092   3.151   0.089   2.075 -0.2506  0.3333  0.6665
   71TMC2    O1 1093   2.818   0.010   1.741 -0.8625  0.1665 -0.3935
   71TMC2    O2 1094   3.114   4.700   2.107  0.6311 -0.1575  0.1671
   71TMC2    O5 1095   3.189   0.181   2.160 -0.5939 -0.4352  0.2575
   71TMC2    H5 1096   3.177   0.273   2.128  0.1830 -0.5258 -0.2724
   72MPD2     C 1097   3.160   0.970   1.901  0.3545  0.2831  0.0614
   72MPD2    C1 1098   3.145   0.901   1.780  0.5866 -0.1987  0.4835
   72MPD2    C2 1099   3.156   0.762   1.779 -0.7994  0.0779 -0.5098
   72MPD2    C3 1100   3.184   0.691   1.889  0.8213  0.6350  0.0181
   72MPD2    C4 1101   3.209   0.759   2.005  0.3581 -0.1258 -0.1629
   72MPD2    C5 1102   3.194   0.890   2.005  0.2107  0.4125 -0.6453
   72MPD2     H 1103   3.164   0.716   1.682  0.4647  0.3864 -0.5581
   72MPD2    H1 1104   3.228   0.707   2.098  0.1464  1.8436  0.9739
   72MPD2    H2 1105   3.162   1.078   1.912 -1.4909 -0.0284  3.3220
   72MPD2    H3 1106   3.199   0.934   2.104 -0.8784 -1.3299  0.1889
   72MPD2     N 1107   3.169   0.552   1.883  0.3204  0.3715 -0.3066
   72MPD2    H5 1108   3.180   0.504   1.971 -0.9905  1.6451  0.5380
   72MPD2    N1 1109   3.120   0.969   1.655 -0.1055 -0.4714 -0.0984
   72MPD2    H7 1110   3.109   0.916   1.569  2.1152  0.1133 -0.7417
   73TMC2    C1 1111   1.867   1.924  13.497 -0.5258 -0.8028  0.0765
   73TMC2    C2 1112   1.758   1.844  13.509 -0.0468  0.3913 -0.8062
   73TMC2    C3 1113   1.689   1.848  13.632 -0.3862 -0.7394  1.2751
   73TMC2    C4 1114   1.901   2.012  13.600 -0.3099  0.8054 -0.2716
   73TMC2    C5 1115   1.819   2.026  13.709  0.3205 -0.4793  0.4262
   73TMC2    C6 1116   1.705   1.954  13.717 -0.3196 -0.5215 -0.4638
   73TMC2     C 1117   1.920   1.944  13.371 -0.5136  0.2250 -0.3268
   73TMC2     O 1118   1.915   1.851  13.291 -0.0125 -0.0825 -0.9590
   73TMC2     H 1119   1.725   1.774  13.434  1.6548  1.0375 -2.1501
   73TMC2    H1 1120   1.996   2.065  13.600 -0.4059  0.9834  0.6793
   73TMC2    H2 1121   1.636   1.968  13.799 -0.1624 -0.1822 -0.3914
   73TMC2    C7 1122   1.838   2.144  13.804 -0.5680 -0.4084  0.4749
   73TMC2    C8 1123   1.550   1.809  13.613  0.3124  0.0165  0.0619
   73TMC2    O1 1124   1.796   2.135  13.916 -0.1865  0.1500 -0.3811
   73TMC2    O2 1125   1.481   1.835  13.514 -0.3357  0.0623  0.0688
   73TMC2    O5 1126   1.502   1.763  13.731  0.2924 -0.2086  0.2432
   73TMC2    H5 1127   1.565   1.749  13.805  0.3718 -0.1297  0.1910
   74MPD2     C 1128   2.276   2.196  13.108 -0.2140  0.2143  0.5959
   74MPD2    C1 1129   2.242   2.276  13.216 -0.4242 -0.1368  0.4150
   74MPD2    C2 1130   2.133   2.224  13.287  0.2545 -0.5344  0.6591
   74MPD2    C3 1131   2.074   2.101  13.266  0.5203  0.1306 -0.2715
   74MPD2    C4 1132   2.117   2.023  13.161  0.0843 -0.1817 -0.0871
   74MPD2    C5 1133   2.222   2.071  13.089 -0.2668  0.8838 -1.0620
   74MPD2     H 1134   2.099   2.280  13.374 -3.4009 -0.5151 -0.7696
   74MPD2    H1 1135   2.077   1.926  13.137 -0.6394  0.1602 -0.2518
   74MPD2    H2 1136   2.354   2.225  13.039 -1.9137  0.4970 -1.1717
   74MPD2    H3 1137   2.270   2.020  13.007  1.0681  0.2341  0.1347
   74MPD2     N 1138   1.978   2.065  13.355  0.1046 -0.1790  0.9339
   74MPD2    H5 1139   1.958   2.135  13.426  2.3360  1.4505  0.0004
   74MPD2    N1 1140   2.319   2.395  13.253  0.6512  0.1950 -0.3028
   74MPD2    H7 1141   2.394   2.420  13.190  0.9946  1.3912  0.5822
   75TCq2    C1 1142   2.455   2.876  14.204 -0.3715 -0.6069 -0.3452
   75TCq2    O2 1143   2.536   2.832  14.288 -0.7026  0.4251 -0.1724
   75TCq2    C2 1144   2.319   2.848  14.227  0.5251  0.1474 -0.2309
   75TCq2    C3 1145   2.283   2.858  14.358  0.2661  0.5237 -0.8642
   75TCq2    C4 1146   2.150   2.868  14.386 -0.1209 -0.0668  0.6619
   75TCq2    C5 1147   2.060   2.869  14.292  0.3383 -0.1849  0.0998
   75TCq2    C6 1148   2.101   2.861  14.162 -0.2684 -0.2683 -0.8059
   75TCq2    C7 1149   2.230   2.860  14.128  0.0290 -0.0457 -0.0153
   75TCq2    C8 1150   1.993   2.853  14.055  0.1001 -0.2874  0.0624
   75TCq2    O4 1151   2.028   2.901  13.950 -0.5415 -0.9279  0.0415
   75TCq2    C9 1152   2.105   2.857  14.527 -0.2783 -0.1109  0.9775
   75TCq2    O5 1153   2.202   2.872  14.610 -0.6901 -0.4628  0.6359
   75TCq2    O6 1154   1.987   2.897  14.550  0.5069 -0.1365  0.2967
   75TCq2    H2 1155   2.359   2.854  14.435 -1.4091  0.4077  0.7828
   75TCq2    H3 1156   1.957   2.883  14.324  0.2790  1.3858 -0.7905
   75TCq2    H4 1157   2.256   2.854  14.023  0.2886  0.8503 -0.0002
   76MPD2     C 1158   0.451   4.373  12.244  0.0014  0.8422  0.5987
   76MPD2    C1 1159   0.517   4.313  12.144  0.2000  0.0802  0.1629
   76MPD2    C2 1160   0.638   4.245  12.171  0.2609  0.1241  0.4876
   76MPD2    C3 1161   0.688   4.238  12.296 -0.1725  0.1597 -0.2042
   76MPD2    C4 1162   0.623   4.305  12.396 -0.7263  0.0703  0.0810
   76MPD2    C5 1163   0.505   4.369  12.367 -0.7591 -0.0675 -0.0154
   76MPD2     H 1164   0.694   4.195  12.092 -0.8585  0.4672 -0.5231
   76MPD2    H1 1165   0.652   4.296  12.500  1.3161  0.5428 -0.4545
   76MPD2    H2 1166   0.355   4.422  12.228 -0.5876 -0.9344 -1.3400
   76MPD2    H3 1167   0.447   4.422  12.442  1.2284  2.3392 -0.1617
   76MPD2     N 1168   0.802   4.167  12.330 -0.3121 -0.1788 -0.6774
   76MPD2    H5 1169   0.827   4.162  12.428 -0.7129 -1.4626 -0.6318
   76MPD2    N1 1170   0.459   4.306  12.016 -0.2963 -0.3411 -0.3905
   76MPD2    H7 1171   0.524   4.294  11.939  0.2055 -0.8164  0.1136
   77TCq2    C1 1172   0.874   4.080  12.246 -0.3300  0.0123 -0.2119
   77TCq2    O2 1173   0.846   4.024  12.141  0.8073  0.4992  0.5529
   77TCq2    C2 1174   0.996   4.040  12.304  0.3469 -0.1691  0.4262
   77TCq2    C3 1175   1.057   4.116  12.402  0.3622  0.0185  0.2739
   77TCq2    C4 1176   1.159   4.069  12.470 -0.6747  0.2201 -0.2543
   77TCq2    C5 1177   1.202   3.939  12.455 -0.0085 -0.4208 -0.2587
   77TCq2    C6 1178   1.160   3.877  12.343  1.0579  0.4490 -0.2078
   77TCq2    C7 1179   1.057   3.926  12.262  0.2362 -0.3236 -0.8249
   77TCq2    C8 1180   1.198   3.741  12.310  0.2848  0.3944 -0.6647
   77TCq2    O4 1181   1.172   3.711  12.194  0.4259 -0.7935  0.0514
   77TCq2    C9 1182   1.213   4.154  12.575 -0.1939  0.0717 -0.4148
   77TCq2    O5 1183   1.181   4.275  12.567  0.5176  0.2007 -0.3554
   77TCq2    O6 1184   1.289   4.098  12.655 -0.7071 -0.0017 -0.0445
   77TCq2    H2 1185   1.012   4.211  12.429 -0.7670 -0.7263  1.0065
   77TCq2    H3 1186   1.287   3.914  12.517  2.0650 -0.1816 -3.0248
   77TCq2    H4 1187   1.009   3.865  12.186 -0.7928  0.6970 -1.0056
   78MPD1     C 1188   3.003   3.839   1.357  0.3806 -0.4978  0.3149
   78MPD1    C1 1189   2.976   3.753   1.461 -0.2509 -0.0416 -0.2476
   78MPD1    C2 1190   3.052   3.751   1.573 -0.0058  0.1002 -0.0433
   78MPD1    C3 1191   3.152   3.851   1.579  0.3224  0.7654  0.1942
   78MPD1    C4 1192   3.178   3.935   1.480 -0.2183  0.3363  0.1948
   78MPD1    C5 1193   3.102   3.928   1.366  0.1595  0.0908  0.2599
   78MPD1     H 1194   3.029   3.686   1.657  1.4234 -1.1739 -0.6340
   78MPD1    H1 1195   3.241   4.023   1.487  0.7638 -0.2613 -1.1701
   78MPD1    H2 1196   2.943   3.835   1.266  0.5093 -1.0142  0.2535
   78MPD1    H3 1197   3.137   3.978   1.276 -1.3946 -0.0747 -0.4323
   78MPD1     N 1198   3.232   3.876   1.699  0.2511 -0.7661 -0.0093
   78MPD1    H5 1199   3.306   3.944   1.687 -1.5259  0.9557 -1.1582
   78MPD1    N1 1200   2.899   3.638   1.434 -0.6675  0.2328 -0.1496
   78MPD1    H6 1201   2.856   3.601   1.518 -0.4687 -0.6097 -0.4163
   78MPD1    H7 1202   2.821   3.648   1.370 -0.1050  0.5672 -0.7907
   79TCq2    C1 1203   3.216   3.823   1.824  0.1271 -0.5512 -0.6088
   79TCq2    O2 1204   3.150   3.720   1.852  0.1522  0.3600 -0.0458
   79TCq2    C2 1205   3.298   3.889   1.932 -0.4083  0.6078  0.0784
   79TCq2    C3 1206   3.332   3.825   2.042  0.0469  0.2703  0.3110
   79TCq2    C4 1207   3.401   3.890   2.145 -0.1796 -0.7090 -0.2492
   79TCq2    C5 1208   3.432   4.025   2.140  0.0098  0.0963  0.2894
   79TCq2    C6 1209   3.410   4.080   2.019 -0.0291  0.1939  0.1813
   79TCq2    C7 1210   3.326   4.025   1.919 -0.3648  0.2299 -0.2156
   79TCq2    C8 1211   3.451   4.219   1.989 -0.2584 -0.4563  0.2681
   79TCq2    O4 1212   3.428   4.279   1.887 -0.4313  0.4816 -0.4798
   79TCq2    C9 1213   3.437   3.817   2.263 -0.7747  0.3988  0.2176
   79TCq2    O5 1214   3.370   3.714   2.286 -0.0617 -0.0068 -0.1852
   79TCq2    O6 1215   3.483   3.888   2.353  0.1892  0.2513  0.5152
   79TCq2    H2 1216   3.319   3.718   2.047  0.2939  0.3781  3.1986
   79TCq2    H3 1217   3.500   4.064   2.214  0.3462  1.7924 -0.9189
   79TCq2    H4 1218   3.297   4.075   1.827  0.2031 -0.4897 -0.7815
   80MPD2     C 1219   0.207   3.748  12.601 -0.4954  0.2307  0.6800
   80MPD2    C1 1220   0.128   3.751  12.482 -0.3615 -0.3446 -0.2945
   80MPD2    C2 1221   0.006   3.803  12.499  0.5252  0.1978 -0.7066
   80MPD2    C3 1222   4.673   3.832  12.623  0.1492  0.2897 -0.7909
   80MPD2    C4 1223   0.023   3.818  12.737  0.1033 -0.5087  0.4988
   80MPD2    C5 1224   0.154   3.773  12.721  0.7655  0.3689 -0.4330
   80MPD2     H 1225   4.673   3.816  12.406  1.7352 -1.6819 -1.6857
   80MPD2    H1 1226   4.705   3.841  12.835 -0.3275  1.3068 -0.0957
   80MPD2    H2 1227   0.309   3.712  12.591 -0.6221  0.3977 -1.1666
   80MPD2    H3 1228   0.221   3.770  12.807 -0.9392  1.4038  0.9309
   80MPD2     N 1229   4.537   3.851  12.645  0.5587  0.5636 -1.1783
   80MPD2    H5 1230   4.497   3.850  12.739  0.4454 -1.1426 -1.2398
   80MPD2    N1 1231   0.162   3.710  12.348 -0.0599  0.6172  0.0055
   80MPD2    H7 1232   0.087   3.700  12.280 -1.5535 -0.1094  1.7602
   81TCq2    C1 1233   0.290   3.660  12.315  0.5238  0.1545  0.3630
   81TCq2    O2 1234   0.393   3.711  12.361 -0.0286 -0.0983 -0.5282
   81TCq2    C2 1235   0.305   3.596  12.176 -0.2077 -0.6870  0.2770
   81TCq2    C3 1236   0.407   3.643  12.108  0.3030  0.1498  0.0466
   81TCq2    C4 1237   0.426   3.593  11.990  0.8620  0.7212  0.2032
   81TCq2    C5 1238   0.348   3.495  11.935 -0.8429 -0.5047 -0.2842
   81TCq2    C6 1239   0.247   3.446  12.017  0.8733 -0.3217  0.5099
   81TCq2    C7 1240   0.220   3.495  12.140  0.2060 -0.1788 -0.7680
   81TCq2    C8 1241   0.143   3.379  11.951 -0.4172  0.0774  0.1062
   81TCq2    O4 1242   0.149   3.393  11.832  0.0427 -0.4943  0.0348
   81TCq2    C9 1243   0.536   3.642  11.914  0.0085  0.3346 -0.0361
   81TCq2    O5 1244   0.554   3.588  11.800  0.3669  0.2710 -0.5390
   81TCq2    O6 1245   0.626   3.698  11.983 -0.0002  0.1060  0.2510
   81TCq2    H2 1246   0.474   3.717  12.151  0.9404 -0.7680  0.6400
   81TCq2    H3 1247   0.372   3.462  11.834 -1.6695 -0.5347 -0.4709
   81TCq2    H4 1248   0.141   3.466  12.208  0.7350  1.6522  0.6210
   82MPD2     C 1249   2.743   3.002  11.119  0.0623  0.4591  0.4021
   82MPD2    C1 1250   2.760   2.927  11.000  0.5917 -0.4547  0.2615
   82MPD2    C2 1251   2.862   2.834  10.988 -0.7066  0.3371  0.1353
   82MPD2    C3 1252   2.953   2.817  11.091 -0.7851  0.3842 -0.0811
   82MPD2    C4 1253   2.938   2.903  11.199  0.7250  0.5809  0.4186
   82MPD2    C5 1254   2.836   2.990  11.216  0.4522  0.4422  0.2113
   82MPD2     H 1255   2.868   2.760  10.909 -1.5016 -1.2464  1.5449
   82MPD2    H1 1256   3.028   2.910  11.260  0.4377  1.9089  0.6864
   82MPD2    H2 1257   2.673   3.082  11.137 -1.5403 -0.2936 -2.6011
   82MPD2    H3 1258   2.845   3.067  11.291 -1.0609 -0.1270  0.9694
   82MPD2     N 1259   3.054   2.724  11.090 -0.0341  0.8595  0.4227
   82MPD2    H5 1260   3.127   2.734  11.160 -0.0998  0.3467  0.5586
   82MPD2    N1 1261   2.662   2.947  10.899  0.1314  0.2404  0.1241
   82MPD2    H7 1262   2.579   2.999  10.925 -0.6418  0.0027 -1.8997
   83TCq2    C1 1263   3.057   2.613  11.012  0.1183 -0.1182  0.1017
   83TCq2    O2 1264   2.971   2.562  10.949  0.1546 -0.2684  0.2915
   83TCq2    C2 1265   3.158   2.525  11.066  0.3458  1.0696  0.3845
   83TCq2    C3 1266   3.262   2.575  11.141  0.3332  0.2481  0.4382
   83TCq2    C4 1267   3.328   2.487  11.229  0.1151  0.4879  0.6496
   83TCq2    C5 1268   3.282   2.360  11.241  0.0688  0.3244 -0.3405
   83TCq2    C6 1269   3.182   2.315  11.157 -0.4633  0.5356  0.2494
   83TCq2    C7 1270   3.122   2.395  11.062 -0.5052 -0.3917 -0.4200
   83TCq2    C8 1271   3.113   2.194  11.202  0.1357  0.5697 -0.2532
   83TCq2    O4 1272   3.114   2.157  11.320  0.0920 -0.0358  0.3169
   83TCq2    C9 1273   3.428   2.535  11.322  0.2786  0.7584 -0.2664
   83TCq2    O5 1274   3.469   2.460  11.414 -0.3952  0.2356  0.1499
   83TCq2    O6 1275   3.458   2.658  11.310  0.2212  0.0205  0.3865
   83TCq2    H2 1276   3.287   2.680  11.147  1.0336  0.1086 -0.1314
   83TCq2    H3 1277   3.329   2.298  11.317  1.0826  0.2749 -1.0103
   83TCq2    H4 1278   3.022   2.373  11.028 -1.3940  2.3123  0.4859
   84TCq2    C1 1279   4.290   1.924  10.618  0.0572  0.5901 -0.2390
   84TCq2    O2 1280   4.182   1.873  10.598  0.2875  0.1392  0.3550
   84TCq2    C2 1281   4.314   1.962  10.757  0.6665 -0.3864  0.0790
   84TCq2    C3 1282   4.400   2.060  10.797 -0.0222  0.3914 -0.1886
   84TCq2    C4 1283   4.418   2.087  10.928 -0.0678  0.1118 -1.0507
   84TCq2    C5 1284   4.344   2.015  11.021  0.1911 -0.7912  0.6170
   84TCq2    C6 1285   4.249   1.925  10.975  0.0610  0.7659 -0.2322
   84TCq2    C7 1286   4.230   1.896  10.845  0.1786 -0.3928 -0.2504
   84TCq2    C8 1287   4.161   1.860  11.070  0.5122 -0.1517 -0.7411
   84TCq2    O4 1288   4.191   1.848  11.183 -0.1265  0.5309 -0.0190
   84TCq2    C9 1289   4.524   2.180  10.963  0.0046  0.0679  0.3354
   84TCq2    O5 1290   4.567   2.181  11.083 -0.0443  0.3873  0.5543
   84TCq2    O6 1291   4.578   2.241  10.870  0.3262 -0.3290 -0.2957
   84TCq2    H2 1292   4.448   2.122  10.722 -2.1871  0.0410 -1.8450
   84TCq2    H3 1293   4.340   2.057  11.121  0.0639 -1.3022  0.8250
   84TCq2    H4 1294   4.169   1.808  10.829  0.0657 -0.5803  1.2571
   85MPD2     C 1295   0.192   0.172  16.295  0.2927 -0.1686 -0.4480
   85MPD2    C1 1296   0.093   0.192  16.199 -0.2040 -0.0001 -0.0322
   85MPD2    C2 1297   0.110   0.290  16.103  0.5613 -0.0266  0.1432
   85MPD2    C3 1298   0.232   0.354  16.083 -0.0052 -0.5368 -0.5690
   85MPD2    C4 1299   0.333   0.326  16.176  0.2123  0.1741  0.1078
   85MPD2    C5 1300   0.307   0.244  16.282 -0.2604 -0.1663  0.3302
   85MPD2     H 1301   0.025   0.317  16.042  0.1109 -0.1432  0.7254
   85MPD2    H1 1302   0.432   0.370  16.175  0.3824 -0.2524 -2.1989
   85MPD2    H2 1303   0.189   0.104  16.378  0.7499  1.8613  1.2338
   85MPD2    H3 1304   0.382   0.237  16.360  0.2455 -2.3602 -0.3453
   85MPD2     N 1305   0.253   0.440  15.974  0.1968  0.4292  0.2009
   85MPD2    H5 1306   0.170   0.445  15.916  1.7280  2.0887 -1.8451
   85MPD2    N1 1307   4.696   0.114  16.197  0.2636  0.0552  0.2389
   85MPD2    H7 1308   4.636   0.114  16.115 -0.7891 -0.6413  1.0100
   86TCq2    C1 1309   0.380   0.491  15.937 -0.0789 -0.7736  0.4483
   86TCq2    O2 1310   0.488   0.476  15.992 -0.2003  0.3336 -0.6691
   86TCq2    C2 1311   0.390   0.551  15.801  0.1049  0.5461  0.4484
   86TCq2    C3 1312   0.285   0.629  15.760  0.1816 -0.2874 -0.0569
   86TCq2    C4 1313   0.306   0.704  15.641 -0.1744 -0.1946 -0.2357
   86TCq2    C5 1314   0.416   0.680  15.566 -0.8032  0.4286  0.0001
   86TCq2    C6 1315   0.513   0.591  15.609  0.3125  0.1525 -0.2470
   86TCq2    C7 1316   0.498   0.529  15.727  0.3000 -0.1138  0.0903
   86TCq2    C8 1317   0.596   0.521  15.514 -0.1806  0.4259 -0.1448
   86TCq2    O4 1318   0.684   0.449  15.562 -0.8201  0.3526  0.3575
   86TCq2    C9 1319   0.207   0.786  15.586 -0.1350  0.9205 -0.2044
   86TCq2    O5 1320   0.122   0.835  15.670  0.0281 -0.0202  0.3970
   86TCq2    O6 1321   0.235   0.829  15.473 -0.4766  0.2713 -0.2578
   86TCq2    H2 1322   0.201   0.641  15.828 -0.0924  0.8378 -0.5794
   86TCq2    H3 1323   0.433   0.743  15.480  1.2237  0.2014  0.2296
   86TCq2    H4 1324   0.577   0.462  15.758  1.0551  1.0403  0.7144
   87MPD2     C 1325   2.285   0.611   0.373  0.3847  0.3206  0.2090
   87MPD2    C1 1326   2.268   0.492   0.304  0.2102  0.6046 -0.1838
   87MPD2    C2 1327   2.175   0.403   0.352 -0.0224 -1.1029  0.2016
   87MPD2    C3 1328   2.091   0.434   0.462 -0.5494  0.2319  0.2322
   87MPD2    C4 1329   2.114   0.557   0.525 -0.5277 -0.7724 -0.4735
   87MPD2    C5 1330   2.205   0.651   0.476 -0.3361  0.5788  0.0170
   87MPD2     H 1331   2.157   0.311   0.298 -1.3424 -0.9995  0.4613
   87MPD2    H1 1332   2.068   0.577   0.621  0.3803 -1.4491  0.1130
   87MPD2    H2 1333   2.375   0.668   0.350 -0.1900  0.1237 -2.5694
   87MPD2    H3 1334   2.228   0.743   0.529 -0.0390  1.2255 -1.2433
   87MPD2     N 1335   2.007   0.343   0.523 -0.1476  0.0930 -0.4120
   87MPD2    H5 1336   2.008   0.350   0.624  2.9972 -0.6358 -0.4126
   87MPD2    N1 1337   2.360   0.457   0.201  0.3050 -0.8595  0.0257
   87MPD2    H7 1338   2.433   0.525   0.184 -2.5741  2.4715  1.0227
   88TCq2    C1 1339   2.371   0.337   0.132 -0.4546  0.2235 -0.3077
   88TCq2    O2 1340   2.316   0.229   0.151 -0.0853  0.1848  0.4140
   88TCq2    C2 1341   2.470   0.353   0.025 -0.4033  0.6728 -0.3102
   88TCq2    C3 1342   2.505   0.474  17.679  0.2046  0.1399  0.6433
   88TCq2    C4 1343   2.632   0.478  17.621  0.1948  0.3127  0.5038
   88TCq2    C5 1344   2.708   0.375  17.593  0.0739  0.0165 -0.4100
   88TCq2    C6 1345   2.665   0.253  17.634 -0.4563 -0.3924 -0.0732
   88TCq2    C7 1346   2.547   0.238   0.009  0.3717  0.2430  0.1138
   88TCq2    C8 1347   2.737   0.129  17.611 -0.3130  0.6959  0.0821
   88TCq2    O4 1348   2.738   0.045   0.009  0.2138 -0.3569  0.4672
   88TCq2    C9 1349   2.688   0.609  17.605  0.0819  0.4651 -0.6234
   88TCq2    O5 1350   2.608   0.708  17.596 -0.1135 -0.1434 -0.0851
   88TCq2    O6 1351   2.814   0.615  17.624  0.1079 -0.7402  0.5414
   88TCq2    H2 1352   2.448   0.565  17.686 -1.4378 -0.8805  0.6240
   88TCq2    H3 1353   2.805   0.383  17.546  0.3890 -2.4453 -0.1642
   88TCq2    H4 1354   2.526   0.143   0.058  1.5669 -0.6383 -1.0833
   89MPD2     C 1355   3.241   2.200   1.470 -0.0414 -0.3446 -0.1258
   89MPD2    C1 1356   3.177   2.276   1.565 -0.4605 -0.2001 -0.3816
   89MPD2    C2 1357   3.244   2.385   1.607  0.3481 -0.2498 -0.3006
   89MPD2    C3 1358   3.366   2.433   1.556 -0.2564 -0.0028  0.0071
   89MPD2    C4 1359   3.423   2.363   1.452 -0.5637  0.1316  0.2210
   89MPD2    C5 1360   3.363   2.246   1.416 -0.3674 -0.1665 -0.5733
   89MPD2     H 1361   3.200   2.445   1.686 -3.2072 -2.7548 -0.3997
   89MPD2    H1 1362   3.517   2.382   1.402  1.5820 -0.4348  4.0784
   89MPD2    H2 1363   3.201   2.111   1.425  0.1081  0.0247 -0.9930
   89MPD2    H3 1364   3.403   2.196   1.329  0.8939  0.7781 -0.5330
   89MPD2     N 1365   3.420   2.553   1.619 -0.0309 -0.1827 -0.0779
   89MPD2    H5 1366   3.373   2.593   1.700  0.5090  1.3065 -0.4930
   89MPD2    N1 1367   3.063   2.240   1.630  0.6694  0.0875  0.3157
   89MPD2    H7 1368   3.007   2.317   1.668 -0.4295 -0.9790  0.8703
   90TCq2    C1 1369   3.523   2.632   1.564 -0.1319 -0.4307  0.2132
   90TCq2    O2 1370   3.590   2.614   1.464  0.3142 -0.2302 -0.3050
   90TCq2    C2 1371   3.553   2.747   1.644 -0.3264 -0.2143 -0.2680
   90TCq2    C3 1372   3.554   2.739   1.779  0.0324  0.6813 -0.2275
   90TCq2    C4 1373   3.590   2.854   1.842  0.3068 -0.3521  0.0502
   90TCq2    C5 1374   3.586   2.976   1.776 -0.3996  0.0348 -0.5935
   90TCq2    C6 1375   3.580   2.974   1.641  0.5739  0.6752  0.2435
   90TCq2    C7 1376   3.587   2.856   1.575 -0.5054 -0.2357  0.5009
   90TCq2    C8 1377   3.587   3.099   1.569 -0.5972 -0.0395 -0.4330
   90TCq2    O4 1378   3.548   3.201   1.621  0.4443 -0.1954 -0.4040
   90TCq2    C9 1379   3.620   2.853   1.979  0.4798  0.5153  0.0130
   90TCq2    O5 1380   3.593   2.748   2.039  0.0108 -0.5498  0.2085
   90TCq2    O6 1381   3.681   2.950   2.029  0.0072  0.0563  0.0909
   90TCq2    H2 1382   3.553   2.646   1.835  1.5244 -0.1838 -1.6402
   90TCq2    H3 1383   3.596   3.069   1.831 -0.2120 -0.8725  0.9235
   90TCq2    H4 1384   3.566   2.857   1.469  2.0067  2.5777  0.0501
   91TMC2    C1 1385   0.621   1.473  16.519 -0.2262  0.3906  0.5811
   91TMC2    C2 1386   0.655   1.493  16.653 -0.1441  1.0392 -0.1471
   91TMC2    C3 1387   0.561   1.549  16.730  0.2813 -0.0120 -0.1163
   91TMC2    C4 1388   0.493   1.504  16.475 -0.8606  0.3294 -0.6293
   91TMC2    C5 1389   0.408   1.566  16.560  0.2236  0.4627  0.0568
   91TMC2    C6 1390   0.436   1.586  16.690 -0.4369 -0.4480  0.1135
   91TMC2     C 1391   0.708   1.411  16.420  0.4171 -0.3617 -0.0860
   91TMC2     O 1392   0.670   1.369  16.315 -0.6165 -0.2157  0.3924
   91TMC2     H 1393   0.754   1.472  16.693 -0.7840  1.1015  1.4421
   91TMC2    H1 1394   0.468   1.474  16.374 -2.4872  0.0771 -0.1494
   91TMC2    H2 1395   0.359   1.631  16.752 -1.4765 -0.7532 -0.9579
   91TMC2    C7 1396   0.274   1.597  16.525 -0.1948 -0.1263  0.3277
   91TMC2    C8 1397   0.605   1.571  16.860 -0.0962  0.5110 -0.1638
   91TMC2    O1 1398   0.215   1.689  16.576 -0.7234 -0.3619  0.5017
   91TMC2    O2 1399   0.719   1.598  16.895  0.2205  0.0535 -0.4651
   91TMC2    O5 1400   0.498   1.591  16.939  0.5276  0.2431 -0.0991
   91TMC2    H5 1401   0.424   1.551  16.888 -0.8530  1.1472  1.1823
   92MPD2     C 1402   0.961   1.374  16.270  0.3008  0.0824 -0.0284
   92MPD2    C1 1403   0.946   1.452  16.380  0.1181  0.2662 -0.3741
   92MPD2    C2 1404   1.057   1.519  16.429 -0.2474  0.6167  0.1868
   92MPD2    C3 1405   1.172   1.524  16.356  0.3968  0.3879 -0.8656
   92MPD2    C4 1406   1.184   1.449  16.246  0.3564  0.6971  0.5154
   92MPD2    C5 1407   1.077   1.371  16.203 -0.2632 -0.3186 -0.2069
   92MPD2     H 1408   1.059   1.566  16.526  1.8889 -1.2042  1.0427
   92MPD2    H1 1409   1.276   1.451  16.188 -0.6495  0.1071 -1.1258
   92MPD2    H2 1410   0.879   1.303  16.257  0.8843 -1.0482  2.4892
   92MPD2    H3 1411   1.085   1.301  16.120  1.6970 -0.4054  0.0579
   92MPD2     N 1412   1.268   1.611  16.410  0.1466  0.2044  0.3034
   92MPD2    H5 1413   1.246   1.667  16.492 -2.0629 -0.5543  0.2035
   92MPD2    N1 1414   0.831   1.455  16.453 -0.0124 -0.4414  0.4759
   92MPD2    H7 1415   0.841   1.509  16.538  1.0536  1.6788 -0.9948
   93MPD2     C 1416   1.476   1.158  14.294  0.3563  0.1702 -0.2942
   93MPD2    C1 1417   1.528   1.236  14.198  0.3800 -0.0719  0.2302
   93MPD2    C2 1418   1.457   1.252  14.077  0.3565  0.3206 -0.4869
   93MPD2    C3 1419   1.337   1.187  14.057  0.1221 -0.5639  0.0599
   93MPD2    C4 1420   1.279   1.114  14.162  0.0114  0.3526  0.3831
   93MPD2    C5 1421   1.349   1.104  14.283 -0.4492 -0.3185 -0.5067
   93MPD2     H 1422   1.507   1.308  13.998  0.5504  0.8956  0.0382
   93MPD2    H1 1423   1.187   1.058  14.155 -0.1600  0.4585  1.7476
   93MPD2    H2 1424   1.517   1.163  14.394 -0.1659 -0.8272 -0.0295
   93MPD2    H3 1425   1.302   1.056  14.368  2.2279 -0.1127  1.1078
   93MPD2     N 1426   1.264   1.193  13.934  0.1714  1.4639  0.2626
   93MPD2    H5 1427   1.172   1.150  13.925  0.9624 -1.1319  4.6049
   93MPD2    N1 1428   1.647   1.304  14.224  0.2862 -0.9107 -0.2662
   93MPD2    H7 1429   1.672   1.301  14.322  0.5776 -0.1755 -0.3165
   94TCq2    C1 1430   1.722   1.379  14.138 -0.1275  0.5897 -0.1133
   94TCq2    O2 1431   1.706   1.386  14.018  1.2483 -0.4236 -0.8465
   94TCq2    C2 1432   1.833   1.445  14.198  0.0688  0.4833  0.0896
   94TCq2    C3 1433   1.852   1.462  14.331 -0.5598  0.2176 -0.5079
   94TCq2    C4 1434   1.977   1.501  14.376  0.0248  0.0040 -0.5478
   94TCq2    C5 1435   2.086   1.515  14.298  0.0472  0.0340  0.2260
   94TCq2    C6 1436   2.064   1.496  14.167 -0.0935  0.5016  0.3507
   94TCq2    C7 1437   1.939   1.463  14.112  0.1947 -0.2789  0.0823
   94TCq2    C8 1438   2.179   1.506  14.075  0.0088 -0.0511 -1.1389
   94TCq2    O4 1439   2.161   1.472  13.958  0.0096 -0.2465  0.0141
   94TCq2    C9 1440   1.990   1.528  14.513  0.6367  0.1983  0.0426
   94TCq2    O5 1441   2.105   1.544  14.557 -0.3621 -0.5886  0.3046
   94TCq2    O6 1442   1.895   1.508  14.588 -0.1033  0.1171 -0.0858
   94TCq2    H2 1443   1.775   1.451  14.407  0.5222  0.0929  0.5703
   94TCq2    H3 1444   2.179   1.538  14.350 -0.3322  0.3953  0.7401
   94TCq2    H4 1445   1.942   1.412  14.017 -0.4863  0.0002 -0.0938
   95TMC2    C1 1446   1.789   3.154  16.171  0.4945 -0.8616 -0.7508
   95TMC2    C2 1447   1.777   3.062  16.268  0.3712 -0.5667  0.2252
   95TMC2    C3 1448   1.659   3.072  16.347  0.1416 -0.0089  0.8359
   95TMC2    C4 1449   1.688   3.249  16.141 -0.2013 -0.4195  0.5886
   95TMC2    C5 1450   1.576   3.242  16.217  0.2532  0.3316  0.2322
   95TMC2    C6 1451   1.560   3.162  16.321  0.4061 -0.5338 -0.4647
   95TMC2     C 1452   1.893   3.137  16.066 -0.7918  0.0744  0.0329
   95TMC2     O 1453   1.921   3.242  16.002 -0.0926 -0.4766 -0.4630
   95TMC2     H 1454   1.851   2.983  16.275  2.5719  1.4032 -1.1121
   95TMC2    H1 1455   1.703   3.329  16.070  1.5760 -0.1127  1.2947
   95TMC2    H2 1456   1.468   3.162  16.379  0.0351  3.0345 -1.0644
   95TMC2    C7 1457   1.457   3.323  16.180  0.6834 -0.1125  0.1369
   95TMC2    C8 1458   1.631   2.979  16.456 -0.0468  0.1652 -0.1424
   95TMC2    O1 1459   1.476   3.439  16.152 -0.4316  0.3318  0.0214
   95TMC2    O2 1460   1.550   2.997  16.540 -0.3964  0.1951  0.3785
   95TMC2    O5 1461   1.654   2.859  16.398  0.1575  0.8981  0.2833
   95TMC2    H5 1462   1.703   2.854  16.312 -0.2702  1.4824  0.0079
   96MPD2     C 1463   2.138   2.874  15.698  0.2540  0.0635  0.1663
   96MPD2    C1 1464   2.157   3.006  15.743 -0.5756 -0.2339  0.2322
   96MPD2    C2 1465   2.101   3.049  15.862 -0.2481 -0.3508  0.1631
   96MPD2    C3 1466   2.018   2.967  15.931 -0.3054  0.4957 -0.4475
   96MPD2    C4 1467   2.025   2.828  15.898 -0.5080  0.4699  0.0600
   96MPD2    C5 1468   2.082   2.780  15.789  0.5126 -0.0862 -0.7345
   96MPD2     H 1469   2.117   3.150  15.899 -1.4497  0.9559 -2.8660
   96MPD2    H1 1470   1.972   2.752  15.954  0.7493 -1.3347 -1.1963
   96MPD2    H2 1471   2.194   2.837  15.614 -0.6868  1.1807 -0.9597
   96MPD2    H3 1472   2.088   2.673  15.770  0.0931 -0.4841  1.4431
   96MPD2     N 1473   1.932   3.003  16.040 -0.6266  0.3011  0.2586
   96MPD2    H5 1474   1.878   2.928  16.081  1.5941 -1.1142  0.5949
   96MPD2    N1 1475   2.237   3.086  15.662  0.3949 -0.0580 -0.0349
   96MPD2    H7 1476   2.289   3.030  15.596 -0.9089 -1.2724 -0.0471
   97MPD2     C 1477   3.040   1.348   0.362 -0.4331  0.0361 -0.4265
   97MPD2    C1 1478   3.140   1.439   0.366 -0.3004  0.3392 -0.1740
   97MPD2    C2 1479   3.212   1.459   0.251 -0.3615  0.3235 -0.0190
   97MPD2    C3 1480   3.177   1.408   0.130 -0.1907  0.0985  0.4739
   97MPD2    C4 1481   3.079   1.310   0.126 -0.2974  0.0431  1.1027
   97MPD2    C5 1482   3.019   1.279   0.244 -0.3532  0.0832  0.4925
   97MPD2     H 1483   3.306   1.513   0.253  1.6087 -3.1180 -0.7703
   97MPD2    H1 1484   3.051   1.261   0.034 -1.1037  0.6535  1.0258
   97MPD2    H2 1485   2.985   1.322   0.451  1.5959  0.2440  0.8761
   97MPD2    H3 1486   2.942   1.203   0.244 -1.4579  1.1944  2.4780
   97MPD2     N 1487   3.234   1.455   0.014 -0.4332 -0.4213  0.1651
   97MPD2    H5 1488   3.220   1.407  17.617 -0.7705  1.2571 -0.6912
   97MPD2    N1 1489   3.177   1.497   0.495 -0.2854 -0.1008 -0.5082
   97MPD2    H7 1490   3.124   1.472   0.577 -3.5751 -1.8195 -3.1952
   98TCq2    C1 1491   3.315   1.569   0.001  1.2566  0.3922 -0.3497
   98TCq2    O2 1492   3.364   1.646   0.092  0.1290 -0.0487 -0.0788
   98TCq2    C2 1493   3.357   1.593  17.555 -0.2270  0.4088  0.2954
   98TCq2    C3 1494   3.321   1.497  17.456 -0.0362 -0.0915  0.2504
   98TCq2    C4 1495   3.414   1.475  17.354 -0.1129 -0.8135 -0.0479
   98TCq2    C5 1496   3.540   1.533  17.354  0.0930 -0.0511  0.3571
   98TCq2    C6 1497   3.574   1.622  17.455 -0.1399 -0.1169  0.2058
   98TCq2    C7 1498   3.479   1.660  17.548  0.4179 -0.2474  0.4267
   98TCq2    C8 1499   3.705   1.687  17.468  0.3425 -0.8197  0.5743
   98TCq2    O4 1500   3.732   1.722  17.581 -0.3902 -0.3181  0.5520
   98TCq2    C9 1501   3.380   1.371  17.261  0.2302  0.4755 -0.6554
   98TCq2    O5 1502   3.281   1.301  17.291  0.5515  0.3425  0.5959
   98TCq2    O6 1503   3.455   1.354  17.160  0.0046  0.2149 -0.3307
   98TCq2    H2 1504   3.223   1.453  17.459 -0.9527  1.8033 -1.7359
   98TCq2    H3 1505   3.604   1.511  17.268 -1.5650 -0.4060 -0.7809
   98TCq2    H4 1506   3.511   1.724  17.629 -2.7798  0.5147  1.0943
   99MPD2     C 1507   3.233   2.961   1.857 -0.3184 -0.4954  0.0288
   99MPD2    C1 1508   3.100   2.924   1.863  0.3887 -0.4262  0.1751
   99MPD2    C2 1509   3.023   2.956   1.755  0.0757  0.6905  0.3979
   99MPD2    C3 1510   3.065   3.026   1.648 -0.0427 -0.3369  0.2595
   99MPD2    C4 1511   3.190   3.075   1.646  0.0309  0.5950 -0.1653
   99MPD2    C5 1512   3.265   3.038   1.750  0.0714 -0.2808  0.5040
   99MPD2     H 1513   2.921   2.924   1.769  0.4005 -0.4507  0.1170
   99MPD2    H1 1514   3.227   3.139   1.567 -0.3440  0.1142 -0.7307
   99MPD2    H2 1515   3.305   2.937   1.935 -2.5687 -2.0130  1.6345
   99MPD2    H3 1516   3.358   3.095   1.756  0.6858 -1.2997  0.6009
   99MPD2     N 1517   2.970   3.069   1.553  0.3146  0.4822  0.4087
   99MPD2    H5 1518   2.872   3.069   1.579 -0.2275  3.4997 -1.6421
   99MPD2    N1 1519   3.044   2.851   1.969  0.2678 -0.6031 -0.2138
   99MPD2    H7 1520   2.947   2.834   1.944  0.0498 -0.0659  0.2789
  100TCq2    C1 1521   3.108   2.815   2.086 -0.6932 -0.4440  0.0900
  100TCq2    O2 1522   3.227   2.818   2.119 -0.0951 -0.0201 -0.2347
  100TCq2    C2 1523   3.018   2.765   2.195  0.0116 -0.7523 -0.2683
  100TCq2    C3 1524   3.062   2.763   2.319 -0.5620  0.2865  0.6201
  100TCq2    C4 1525   2.974   2.771   2.422  0.8332 -0.1423 -0.3948
  100TCq2    C5 1526   2.843   2.775   2.405 -0.3357  0.2155  0.1024
  100TCq2    C6 1527   2.796   2.788   2.280  0.7717  1.1566  0.2791
  100TCq2    C7 1528   2.879   2.784   2.170  0.0139  0.7028 -0.4801
  100TCq2    C8 1529   2.649   2.800   2.261 -0.6643 -0.2180 -0.2817
  100TCq2    O4 1530   2.586   2.830   2.363  0.1564 -0.4500 -0.5789
  100TCq2    C9 1531   3.020   2.774   2.559 -1.3041  0.0077 -0.2043
  100TCq2    O5 1532   3.139   2.802   2.581 -0.2066  0.6086  0.4519
  100TCq2    O6 1533   2.937   2.764   2.653 -0.1761 -0.0744 -0.5454
  100TCq2    H2 1534   3.167   2.767   2.344  0.4560 -3.3454 -3.1053
  100TCq2    H3 1535   2.776   2.776   2.491 -0.9029 -1.1454 -0.3073
  100TCq2    H4 1536   2.835   2.793   2.072  0.7225  2.2009 -0.6659
  101MPD2     C 1537   3.539   3.453  12.945 -0.1671  0.2120  0.0267
  101MPD2    C1 1538   3.400   3.446  12.946  0.3154 -0.0970 -0.1553
  101MPD2    C2 1539   3.331   3.349  13.013  0.7989 -0.6705 -0.1491
  101MPD2    C3 1540   3.403   3.242  13.054 -0.1787 -0.3716 -0.0983
  101MPD2    C4 1541   3.536   3.235  13.043  0.3094  0.0151 -0.3806
  101MPD2    C5 1542   3.601   3.347  12.996 -0.9259  0.2250  0.3101
  101MPD2     H 1543   3.223   3.345  13.020  0.8056  1.2221  1.0124
  101MPD2    H1 1544   3.598   3.155  13.081 -0.7341 -0.0368  1.2328
  101MPD2    H2 1545   3.599   3.523  12.888  2.3058 -0.6245  1.5966
  101MPD2    H3 1546   3.708   3.337  12.984 -0.9440 -0.4565  0.7171
  101MPD2     N 1547   3.342   3.130  13.107 -0.1731 -0.6718  0.6738
  101MPD2    H5 1548   3.244   3.148  13.127 -0.7161  0.5594 -3.2066
  101MPD2    N1 1549   3.335   3.550  12.884 -0.3340  0.5011 -0.4354
  101MPD2    H7 1550   3.392   3.622  12.842 -2.3934  1.9667 -0.7344
  102TCq2    C1 1551   3.341   3.955  12.592 -0.4168 -0.6693  0.0803
  102TCq2    O2 1552   3.457   3.930  12.614 -0.0479  0.2727  0.0160
  102TCq2    C2 1553   3.237   3.863  12.640  0.1170  0.2833 -0.0118
  102TCq2    C3 1554   3.112   3.870  12.588  0.3538 -0.3537  0.3926
  102TCq2    C4 1555   3.017   3.807  12.651  0.6940  0.7754 -0.3813
  102TCq2    C5 1556   3.044   3.720  12.756  0.2806 -0.0581 -0.0744
  102TCq2    C6 1557   3.175   3.691  12.786 -0.6839 -0.6494 -0.4188
  102TCq2    C7 1558   3.271   3.767  12.735 -0.2257 -0.0960 -0.7860
  102TCq2    C8 1559   3.203   3.580  12.876  0.1153  0.1034 -0.4198
  102TCq2    O4 1560   3.108   3.526  12.926  0.4279 -0.5740  0.0488
  102TCq2    C9 1561   2.883   3.809  12.597 -0.0036 -0.7530  0.6736
  102TCq2    O5 1562   2.873   3.860  12.482  0.0807  0.1228  0.2820
  102TCq2    O6 1563   2.788   3.781  12.675 -0.0045  0.2739  0.1488
  102TCq2    H2 1564   3.090   3.928  12.499  0.6630 -1.6337 -0.5230
  102TCq2    H3 1565   2.973   3.651  12.800  0.1062 -0.0054 -0.2720
  102TCq2    H4 1566   3.378   3.759  12.752 -0.1419  2.1034 -0.2338
  103TMC2    C1 1567   1.667   3.406  12.867 -0.2542 -0.1894 -0.1382
  103TMC2    C2 1568   1.698   3.270  12.859  0.5282 -0.3960  0.0553
  103TMC2    C3 1569   1.718   3.207  12.982  0.0485 -0.1735  0.3480
  103TMC2    C4 1570   1.649   3.474  12.984 -0.8186 -0.1379 -0.0918
  103TMC2    C5 1571   1.635   3.400  13.098 -0.3771 -0.4380 -1.0494
  103TMC2    C6 1572   1.668   3.270  13.096  0.0259 -0.5792  0.0730
  103TMC2     C 1573   1.576   3.457  12.768  0.6519  0.1861 -0.6597
  103TMC2     O 1574   1.488   3.530  12.806 -0.2986  0.2637  0.0324
  103TMC2     H 1575   1.718   3.223  12.764 -0.6999 -0.6253 -0.0815
  103TMC2    H1 1576   1.627   3.579  12.972  3.8978  0.9629  0.8836
  103TMC2    H2 1577   1.647   3.208  13.182  0.0028  0.2113  0.6334
  103TMC2    C7 1578   1.515   3.426  13.178  0.7677 -0.1542 -0.9683
  103TMC2    C8 1579   1.759   3.066  12.977  0.0191 -0.2076  0.2877
  103TMC2    O1 1580   1.507   3.369  13.286 -0.2970 -0.2076  0.2494
  103TMC2    O2 1581   1.717   2.991  12.890  0.3089  0.0402  0.1931
  103TMC2    O5 1582   1.781   3.028  13.105 -0.3332  0.5992  0.1030
  103TMC2    H5 1583   1.835   3.102  13.140  1.8754 -0.8426 -0.2431
  104MPD2     C 1584   1.520   3.357  12.416 -0.3247 -0.1311  0.0636
  104MPD2    C1 1585   1.503   3.428  12.532 -0.1354 -0.2381 -0.3728
  104MPD2    C2 1586   1.409   3.530  12.531 -0.0595 -0.2424  0.3402
  104MPD2    C3 1587   1.354   3.572  12.412 -0.1447 -0.4957 -0.1604
  104MPD2    C4 1588   1.354   3.489  12.301 -0.0276 -0.6763 -0.4521
  104MPD2    C5 1589   1.438   3.382  12.308 -0.5652 -0.3891  0.1044
  104MPD2     H 1590   1.383   3.600  12.609  0.3594 -0.0642  0.3192
  104MPD2    H1 1591   1.291   3.497  12.214  3.8397  3.2653 -2.8469
  104MPD2    H2 1592   1.582   3.268  12.410  0.3460  0.2628  1.1617
  104MPD2    H3 1593   1.452   3.326  12.216 -1.6251  1.2292 -1.0519
  104MPD2     N 1594   1.275   3.685  12.411 -0.2347  0.2260 -0.4659
  104MPD2    H5 1595   1.283   3.738  12.498 -1.5014 -0.1919 -0.0891
  104MPD2    N1 1596   1.586   3.393  12.649  0.0123  0.1931 -0.3114
  104MPD2    H7 1597   1.659   3.323  12.639 -0.5403 -0.3114 -0.8445
  105MPD2     C 1598   3.599   3.577  17.607  0.0845  0.7408  0.5723
  105MPD2    C1 1599   3.459   3.588  17.613  0.0182 -0.4952  0.4043
  105MPD2    C2 1600   3.397   3.706  17.646  0.0020  0.2692  0.4480
  105MPD2    C3 1601   3.466   3.820  17.663  0.3444 -0.4346 -0.2229
  105MPD2    C4 1602   3.606   3.807  17.652 -0.0269  0.3640  0.2366
  105MPD2    C5 1603   3.670   3.689  17.630 -0.0163 -0.0663 -0.1137
  105MPD2     H 1604   3.289   3.718  17.641  0.1620  1.7851  0.7401
  105MPD2    H1 1605   3.666   3.896  17.667  0.9539 -0.4021  0.8377
  105MPD2    H2 1606   3.654   3.483  17.602 -1.7520 -0.2829 -0.1811
  105MPD2    H3 1607   3.777   3.678  17.619  0.1012 -1.3448  2.4508
  105MPD2     N 1608   3.403   3.940   0.013  0.4582  0.0330 -0.1180
  105MPD2    H5 1609   3.301   3.936   0.015  0.3894  0.9950 -2.3604
  105MPD2    N1 1610   3.372   3.480  17.589  0.3134  0.1360 -0.3354
  105MPD2    H7 1611   3.276   3.502  17.610  0.8884 -0.3925  2.8555
  106TCq2    C1 1612   3.464   4.065   0.027  0.0570 -0.6665  0.3839
  106TCq2    O2 1613   3.575   4.107  17.675  0.0348  0.0260 -0.1255
  106TCq2    C2 1614   3.362   4.167   0.047 -0.9529 -0.5055 -0.3524
  106TCq2    C3 1615   3.268   4.138   0.142  0.0845  0.3185  0.2694
  106TCq2    C4 1616   3.144   4.195   0.134  0.0285  0.0554 -0.0829
  106TCq2    C5 1617   3.112   4.278   0.034  0.1340 -0.8630 -0.0911
  106TCq2    C6 1618   3.208   4.309  17.632  0.1933 -0.0681  0.4831
  106TCq2    C7 1619   3.336   4.252  17.632 -0.8237 -0.4576  0.2925
  106TCq2    C8 1620   3.168   4.387  17.516  0.7858 -0.0167  0.0850
  106TCq2    O4 1621   3.206   4.347  17.409 -0.1118 -0.6539 -0.3264
  106TCq2    C9 1622   3.046   4.176   0.244 -0.3112 -0.0954 -0.3757
  106TCq2    O5 1623   2.931   4.219   0.224 -0.3742 -0.0641 -0.0336
  106TCq2    O6 1624   3.088   4.093   0.334 -0.6219  0.1236 -0.3512
  106TCq2    H2 1625   3.286   4.064   0.219 -0.2856  1.0066  1.0153
  106TCq2    H3 1626   3.007   4.307   0.029 -0.2385 -2.0069  0.9714
  106TCq2    H4 1627   3.403   4.255  17.547 -0.5205  0.1093  0.5520
  107TMC2    C1 1628   3.762   1.396  11.726  0.7388 -0.0482  0.3398
  107TMC2    C2 1629   3.667   1.300  11.732  0.6699 -0.2347  0.1243
  107TMC2    C3 1630   3.654   1.200  11.638 -0.1613  0.0436  0.6132
  107TMC2    C4 1631   3.828   1.415  11.607 -0.7140  0.9129  0.1743
  107TMC2    C5 1632   3.801   1.322  11.507  0.4084 -0.5490  0.1849
  107TMC2    C6 1633   3.717   1.212  11.517 -0.4685 -0.3625  0.1310
  107TMC2     C 1634   3.749   1.521  11.807 -0.2912  0.1943 -1.0773
  107TMC2     O 1635   3.650   1.526  11.873 -0.1396 -0.0839  0.3282
  107TMC2     H 1636   3.588   1.311  11.806 -0.3921 -0.8906 -0.9246
  107TMC2    H1 1637   3.873   1.511  11.584 -2.0985  1.5849  0.2847
  107TMC2    H2 1638   3.700   1.138  11.439  1.1272 -0.6957  0.0940
  107TMC2    C7 1639   3.812   1.364  11.369 -0.1689 -0.3706 -0.0422
  107TMC2    C8 1640   3.575   1.081  11.669  0.7428  0.1985  0.4888
  107TMC2    O1 1641   3.765   1.280  11.292 -0.3450  0.1981  0.1135
  107TMC2    O2 1642   3.568   0.995  11.585 -0.2088  0.1813 -0.0425
  107TMC2    O5 1643   3.573   1.055  11.798  0.4245 -0.4671 -0.0468
  107TMC2    H5 1644   3.588   1.124  11.866 -1.2861 -0.7103  0.5835
  108MPD2     C 1645   3.998   1.799  11.856  0.4787  0.1232  0.2028
  108MPD2    C1 1646   3.876   1.732  11.869  0.2734  0.3197  0.2798
  108MPD2    C2 1647   3.769   1.800  11.928  0.8074 -0.1165 -0.5563
  108MPD2    C3 1648   3.789   1.923  11.979  0.3111 -0.3097  0.0186
  108MPD2    C4 1649   3.911   1.985  11.972 -0.3800  0.9133  0.3899
  108MPD2    C5 1650   4.019   1.919  11.916 -0.6036 -0.4325  0.3501
  108MPD2     H 1651   3.674   1.748  11.940  1.8647 -1.9498 -0.1055
  108MPD2    H1 1652   3.929   2.079  12.023 -0.6420  1.0667  0.2023
  108MPD2    H2 1653   4.083   1.746  11.815  0.6367  0.4127  0.1565
  108MPD2    H3 1654   4.119   1.960  11.915  0.3410 -2.6848  1.5092
  108MPD2     N 1655   3.686   1.987  12.056 -0.1099  1.1084  1.0138
  108MPD2    H5 1656   3.707   2.069  12.112  0.9434  0.4944  1.5253
  108MPD2    N1 1657   3.862   1.605  11.798 -0.3711 -0.2823 -0.4358
  108MPD2    H7 1658   3.940   1.576  11.740  1.7181  2.6388  0.8737
  109MPD2     C 1659   3.695   0.627   2.008  0.2020 -0.1321  0.2199
  109MPD2    C1 1660   3.611   0.623   1.889  0.8070 -0.4391 -0.2824
  109MPD2    C2 1661   3.546   0.742   1.839 -0.5392  0.0197  0.0885
  109MPD2    C3 1662   3.561   0.860   1.912  0.2858 -0.6304  0.1743
  109MPD2    C4 1663   3.637   0.859   2.026 -0.3265 -0.0426  0.1730
  109MPD2    C5 1664   3.700   0.746   2.070 -0.3189 -0.5534  0.1912
  109MPD2     H 1665   3.472   0.738   1.760  2.1149 -0.2373 -2.3800
  109MPD2    H1 1666   3.656   0.946   2.088  1.1288  0.4172 -0.9299
  109MPD2    H2 1667   3.753   0.542   2.043  0.4912 -0.2933 -0.6334
  109MPD2    H3 1668   3.756   0.746   2.163 -0.3900 -2.4834  0.2450
  109MPD2     N 1669   3.495   0.975   1.861  0.1606 -0.0747  0.4880
  109MPD2    H5 1670   3.454   0.978   1.768 -0.7797 -0.4121  0.8922
  109MPD2    N1 1671   3.605   0.501   1.817 -0.5376 -0.4234 -0.2680
  109MPD2    H7 1672   3.645   0.427   1.872 -1.5849 -1.7751 -1.3131
  110TCq2    C1 1673   3.494   1.099   1.922 -0.8548  0.1476  0.2273
  110TCq2    O2 1674   3.536   1.130   2.031  0.4296 -0.1648 -0.2630
  110TCq2    C2 1675   3.442   1.205   1.840 -0.1609 -0.3668  0.6529
  110TCq2    C3 1676   3.388   1.314   1.902 -0.0044 -0.4561  0.4572
  110TCq2    C4 1677   3.350   1.428   1.839  0.2085  0.4589 -0.1467
  110TCq2    C5 1678   3.350   1.432   1.698  0.0342 -0.4834 -0.7504
  110TCq2    C6 1679   3.388   1.315   1.638 -0.4314 -1.0359 -0.1128
  110TCq2    C7 1680   3.434   1.201   1.702 -0.4699  0.2754 -0.1130
  110TCq2    C8 1681   3.353   1.316   1.498  0.8455  0.2062 -0.5239
  110TCq2    O4 1682   3.290   1.412   1.458  0.6189  0.5574  0.4001
  110TCq2    C9 1683   3.312   1.545   1.919  0.4373 -0.2942 -0.3581
  110TCq2    O5 1684   3.323   1.533   2.044  0.0710 -0.4001  0.2138
  110TCq2    O6 1685   3.290   1.650   1.856  0.2814 -0.2969 -0.3469
  110TCq2    H2 1686   3.399   1.313   2.010 -0.8244  0.5526  0.5555
  110TCq2    H3 1687   3.317   1.525   1.654  1.6344  0.9551  1.1143
  110TCq2    H4 1688   3.486   1.120   1.653 -1.1466 -0.1573 -0.1054
  111TMC2    C1 1689   3.841   4.223  11.370 -0.8451 -0.3667  0.5765
  111TMC2    C2 1690   3.912   4.218  11.257  0.1678 -0.5885 -0.2830
  111TMC2    C3 1691   4.038   4.276  11.263 -0.7947  0.1521  0.1571
  111TMC2    C4 1692   3.883   4.287  11.485  0.2224 -0.1041  0.9242
  111TMC2    C5 1693   4.011   4.345  11.485 -0.7025  0.0905  0.4107
  111TMC2    C6 1694   4.083   4.348  11.369 -0.0633 -0.0042  0.3551
  111TMC2     C 1695   3.702   4.193  11.366 -0.4674  0.2517  0.6450
  111TMC2     O 1696   3.643   4.173  11.257  0.5998  0.6230 -0.6817
  111TMC2     H 1697   3.859   4.177  11.171 -0.3861 -1.6157  0.5484
  111TMC2    H1 1698   3.826   4.286  11.578 -1.6533  2.9586 -0.1762
  111TMC2    H2 1699   4.183   4.389  11.367 -0.3170  0.6798  1.7488
  111TMC2    C7 1700   4.071   4.387  11.609  0.0932 -1.2086  0.1260
  111TMC2    C8 1701   4.104   4.306  11.138 -0.0915 -0.0883 -0.5324
  111TMC2    O1 1702   3.989   4.408  11.698  0.4963 -0.3036  0.2121
  111TMC2    O2 1703   4.150   4.413  11.114  0.3995  0.6321  0.2624
  111TMC2    O5 1704   4.074   4.209  11.051 -0.1168  0.2011 -0.1464
  111TMC2    H5 1705   4.034   4.136  11.102  0.2068  0.5905  0.6574
  112MPD2     C 1706   3.243   4.066  11.586 -0.1240  0.3306 -0.1807
  112MPD2    C1 1707   3.283   4.072  11.456  0.2965  0.5844 -0.4917
  112MPD2    C2 1708   3.418   4.098  11.425 -0.0777  0.3195  0.2620
  112MPD2    C3 1709   3.518   4.112  11.515 -0.2094 -0.3633 -0.2796
  112MPD2    C4 1710   3.480   4.090  11.644 -0.8363 -1.0762 -0.0686
  112MPD2    C5 1711   3.343   4.070  11.679 -0.0284  1.1725 -0.7088
  112MPD2     H 1712   3.447   4.096  11.320 -0.7711 -1.1310  0.0889
  112MPD2    H1 1713   3.558   4.097  11.719 -1.7748 -1.9313  0.9780
  112MPD2    H2 1714   3.141   4.041  11.612  0.1903 -0.7090  0.0476
  112MPD2    H3 1715   3.315   4.038  11.778 -0.8946  1.4566 -0.8647
  112MPD2     N 1716   3.654   4.152  11.491 -0.0796  0.0377  0.6498
  112MPD2    H5 1717   3.722   4.151  11.567 -0.8038  0.0298  1.2921
  112MPD2    N1 1718   3.198   4.051  11.350 -0.5804  1.0404  0.0909
  112MPD2    H7 1719   3.248   4.047  11.262  0.2446 -2.4209  0.7082
  113MPD2     C 1720   2.670   2.947   1.377  0.0533  0.6526  0.2556
  113MPD2    C1 1721   2.551   3.016   1.389 -0.4941  0.9955 -0.0121
  113MPD2    C2 1722   2.456   3.022   1.291  0.0708  0.1049 -0.0928
  113MPD2    C3 1723   2.473   2.951   1.169  0.2577  0.2117  0.9701
  113MPD2    C4 1724   2.594   2.877   1.157 -0.9296 -0.1663 -0.0969
  113MPD2    C5 1725   2.680   2.881   1.258 -0.3962  0.0065 -0.1489
  113MPD2     H 1726   2.355   3.056   1.310 -0.1701  1.1282 -3.1829
  113MPD2    H1 1727   2.620   2.822   1.067  1.7393  0.9211  0.0038
  113MPD2    H2 1728   2.750   2.945   1.450  1.0083 -1.5306 -0.8298
  113MPD2    H3 1729   2.767   2.818   1.251 -0.2424  0.2239 -0.1930
  113MPD2     N 1730   2.384   2.957   1.055  0.1455 -0.2266 -0.3133
  113MPD2    H5 1731   2.402   2.893   0.979 -0.1174 -0.9792  0.2515
  113MPD2    N1 1732   2.515   3.074   1.519  0.6798 -0.3213 -0.2612
  113MPD2    H7 1733   2.423   3.116   1.525  0.9380 -0.0151  1.4784
  114TCq2    C1 1734   2.279   3.051   1.045 -0.2183 -0.1647  0.1842
  114TCq2    O2 1735   2.260   3.156   1.108  0.1762  0.6716  1.0230
  114TCq2    C2 1736   2.201   3.038   0.922 -0.0272 -0.6038 -0.1319
  114TCq2    C3 1737   2.142   3.148   0.875  0.4279 -0.5137 -0.5220
  114TCq2    C4 1738   2.037   3.132   0.789  0.2803 -0.0071 -0.0802
  114TCq2    C5 1739   2.005   3.007   0.743 -0.2191  0.6229  1.2396
  114TCq2    C6 1740   2.063   2.894   0.800 -0.2237 -0.8084 -0.1147
  114TCq2    C7 1741   2.163   2.912   0.894  0.3082 -0.5580  0.1907
  114TCq2    C8 1742   1.996   2.765   0.787  0.0244  0.1060 -0.2039
  114TCq2    O4 1743   2.070   2.672   0.766  0.2649 -0.4246  0.4866
  114TCq2    C9 1744   1.965   3.243   0.727 -0.4653 -0.2300 -0.1575
  114TCq2    O5 1745   1.909   3.227   0.620 -0.2878  0.4573 -0.2669
  114TCq2    O6 1746   2.013   3.353   0.751 -0.1523  0.2106  0.0383
  114TCq2    H2 1747   2.175   3.248   0.902 -2.1985  0.2369 -0.0576
  114TCq2    H3 1748   1.925   2.996   0.672  0.6720 -0.7396  0.4385
  114TCq2    H4 1749   2.189   2.822   0.949 -0.4425 -0.1047  1.2750
  115TMC2    C1 1750   2.268   0.754  17.470  0.8305 -0.5091 -0.6024
  115TMC2    C2 1751   2.195   0.724  17.579 -0.5925  0.0830 -0.3937
  115TMC2    C3 1752   2.170   0.818  17.674  0.0559  0.1285  0.1108
  115TMC2    C4 1753   2.322   0.879  17.451  0.2590  0.1209  1.0223
  115TMC2    C5 1754   2.306   0.970  17.550  0.2662 -0.4145  0.0372
  115TMC2    C6 1755   2.231   0.940  17.667 -0.7177  0.1035  0.5615
  115TMC2     C 1756   2.299   0.648  17.377  0.2792 -0.0053 -0.4909
  115TMC2     O 1757   2.252   0.535  17.392  0.0505 -0.6175  0.0997
  115TMC2     H 1758   2.155   0.624  17.595 -1.7547  0.6353  0.1684
  115TMC2    H1 1759   2.336   0.919  17.351 -0.6873 -1.3825  0.2843
  115TMC2    H2 1760   2.189   1.020   0.037 -1.9701  1.1605 -1.6957
  115TMC2    C7 1761   2.362   1.099  17.538 -0.6184 -0.0607  0.2416
  115TMC2    C8 1762   2.102   0.785   0.113  0.0686  0.6521 -0.1253
  115TMC2    O1 1763   2.311   1.186  17.598 -0.2063 -0.6541 -0.6812
  115TMC2    O2 1764   2.104   0.859   0.213 -0.1804  0.1535  0.2266
  115TMC2    O5 1765   2.034   0.668   0.103 -0.1032 -0.0809  0.5876
  115TMC2    H5 1766   2.027   0.616   0.021  0.3835  0.3265  0.2846
  116MPD2     C 1767   2.513   0.497  16.943  0.1402  0.6514  0.0916
  116MPD2    C1 1768   2.404   0.441  17.010  0.1503 -0.5642  0.2124
  116MPD2    C2 1769   2.357   0.507  17.125 -0.2759 -0.7338  0.2002
  116MPD2    C3 1770   2.431   0.615  17.176  0.4824 -0.3875  0.4943
  116MPD2    C4 1771   2.539   0.661  17.105  0.2066  0.7136 -0.0163
  116MPD2    C5 1772   2.581   0.605  16.986 -0.0776  0.0441 -0.3660
  116MPD2     H 1773   2.262   0.480  17.169 -1.0880  0.4178 -0.8620
  116MPD2    H1 1774   2.591   0.746  17.146 -0.4992  0.5359  1.2605
  116MPD2    H2 1775   2.549   0.460  16.847 -0.8463  2.0396 -0.8116
  116MPD2    H3 1776   2.664   0.653  16.934 -0.6992 -2.8825 -4.0700
  116MPD2     N 1777   2.399   0.689  17.292  0.7665 -0.4623  0.4120
  116MPD2    H5 1778   2.452   0.773  17.313  1.6161 -1.4454  2.1572
  116MPD2    N1 1779   2.339   0.326  16.959  1.1931  0.3998  0.2206
  116MPD2    H7 1780   2.367   0.294  16.867 -1.7945 -0.6041 -0.3610
  117TMC2    C1 1781   1.175   1.457  14.215 -0.6578  0.2743 -0.1556
  117TMC2    C2 1782   1.138   1.403  14.340 -0.8659 -0.4658  0.0534
  117TMC2    C3 1783   1.229   1.426  14.438 -0.0549 -0.7771 -0.0518
  117TMC2    C4 1784   1.293   1.529  14.202 -0.7128  0.2518  0.1501
  117TMC2    C5 1785   1.384   1.544  14.308  0.0129 -0.0139  0.3542
  117TMC2    C6 1786   1.351   1.494  14.425 -0.2082  0.6830 -0.1120
  117TMC2     C 1787   1.089   1.434  14.101 -0.6876 -0.0699 -0.2341
  117TMC2     O 1788   1.025   1.334  14.101  0.1924 -0.4051  0.8916
  117TMC2     H 1789   1.044   1.350  14.353  0.7537 -2.9051  1.6555
  117TMC2    H1 1790   1.304   1.569  14.102  3.1117  0.1825  0.5699
  117TMC2    H2 1791   1.425   1.500  14.504  0.2224 -0.4091 -0.4337
  117TMC2    C7 1792   1.498   1.626  14.283 -1.1610 -0.1996 -0.0392
  117TMC2    C8 1793   1.196   1.381  14.572  0.0592 -0.1905  0.0743
  117TMC2    O1 1794   1.522   1.663  14.170 -0.0548  0.0653  0.0950
  117TMC2    O2 1795   1.119   1.285  14.596 -0.1047  0.7107 -0.2126
  117TMC2    O5 1796   1.202   1.485  14.657 -0.2091  0.5517  0.4722
  117TMC2    H5 1797   1.260   1.557  14.622  2.0129 -0.4499  2.0490
  118MPD2     C 1798   1.702   1.824  14.515 -0.0140  0.0845 -0.0201
  118MPD2    C1 1799   1.675   1.763  14.396  0.6493 -0.4370  0.4813
  118MPD2    C2 1800   1.765   1.778  14.291  0.1124  0.3501  0.0336
  118MPD2    C3 1801   1.883   1.846  14.307 -0.6567 -0.3581 -0.1803
  118MPD2    C4 1802   1.905   1.913  14.427 -0.5347  0.7800 -0.0701
  118MPD2    C5 1803   1.812   1.900  14.526 -0.1894 -0.9311 -0.0472
  118MPD2     H 1804   1.753   1.719  14.201 -1.1389  0.5940  0.0418
  118MPD2    H1 1805   1.995   1.968  14.451 -0.5539  1.0395 -0.6004
  118MPD2    H2 1806   1.638   1.810  14.601  1.1833 -1.4200  0.6350
  118MPD2    H3 1807   1.830   1.958  14.616 -3.5000  0.3147 -0.2019
  118MPD2     N 1808   1.979   1.850  14.200 -0.7401 -0.5244 -0.4465
  118MPD2    H5 1809   2.068   1.891  14.226 -1.2325 -0.4233  1.0897
  118MPD2    N1 1810   1.551   1.689  14.393 -0.0386  0.3338  0.1080
  118MPD2    H7 1811   1.501   1.686  14.482 -2.1493  1.5701 -1.0513
  119MPD2     C 1812   4.195   4.068  14.001  0.4137  0.0847 -0.3952
  119MPD2    C1 1813   4.184   3.936  13.959 -0.3289 -0.1709  0.2392
  119MPD2    C2 1814   4.116   3.908  13.841  0.3090 -0.4158 -0.7050
  119MPD2    C3 1815   4.080   4.015  13.758 -0.0618 -0.2527  0.4829
  119MPD2    C4 1816   4.095   4.147  13.796 -0.0385  0.1591  0.3470
  119MPD2    C5 1817   4.146   4.170  13.923 -0.4208  0.3190 -0.1370
  119MPD2     H 1818   4.103   3.803  13.817  1.1703 -0.8913  0.9362
  119MPD2    H1 1819   4.068   4.232  13.733  2.5217  0.1240 -0.7732
  119MPD2    H2 1820   4.234   4.096  14.098  0.9045  0.0143 -0.5741
  119MPD2    H3 1821   4.152   4.276  13.948 -0.9231  0.2449  0.3067
  119MPD2     N 1822   4.030   4.007  13.624  0.0377  0.1209  0.0120
  119MPD2    H5 1823   3.975   4.083  13.588 -0.1160 -0.3161 -0.6748
  119MPD2    N1 1824   4.234   3.829  14.031  0.5631 -0.4315 -0.4437
  119MPD2    H7 1825   4.206   3.737  13.999  0.3785 -0.2372 -0.8523
  120TCq2    C1 1826   4.010   3.895  13.548  0.5907 -0.1348 -0.7940
  120TCq2    O2 1827   4.044   3.778  13.574 -0.9471 -0.6530  0.0758
  120TCq2    C2 1828   3.945   3.918  13.417 -0.1165  0.6231 -0.2767
  120TCq2    C3 1829   3.945   4.040  13.350 -0.4735 -0.1597 -0.1227
  120TCq2    C4 1830   3.891   4.046  13.225  0.0413  0.2496  0.2177
  120TCq2    C5 1831   3.833   3.931  13.178  0.0976 -0.4088 -0.3757
  120TCq2    C6 1832   3.844   3.811  13.229  0.5493 -0.0948  0.1352
  120TCq2    C7 1833   3.914   3.800  13.349  0.0868  0.1276  1.2279
  120TCq2    C8 1834   3.745   3.708  13.205 -0.1943 -0.4474  0.2672
  120TCq2    O4 1835   3.632   3.746  13.179 -0.2439 -0.2181  0.1414
  120TCq2    C9 1836   3.883   4.169  13.150 -0.6439 -0.7027  0.0016
  120TCq2    O5 1837   3.802   4.170  13.054 -0.1905 -0.4665  0.1037
  120TCq2    O6 1838   3.939   4.273  13.198 -0.1420  0.0296 -0.4738
  120TCq2    H2 1839   3.996   4.124  13.395 -0.0799 -0.8812  0.7774
  120TCq2    H3 1840   3.775   3.936  13.087 -3.2625  1.8343  1.9065
  120TCq2    H4 1841   3.930   3.703  13.396  0.5366  0.1036  1.0212
  121TMC2    C1 1842   0.408   4.671  14.289 -0.0303  0.2151 -0.0569
  121TMC2    C2 1843   0.340   4.576  14.359  0.4966  0.0339  0.6957
  121TMC2    C3 1844   0.203   4.570  14.333 -0.2889  0.4195 -0.1434
  121TMC2    C4 1845   0.348   0.051  14.221  0.7528  0.0416 -0.7067
  121TMC2    C5 1846   0.208   0.040  14.208  0.0985  0.0723  0.3993
  121TMC2    C6 1847   0.141   4.652  14.248 -0.5935  0.0613 -0.1804
  121TMC2     C 1848   0.549   4.668  14.301 -0.3016 -0.1997 -0.3799
  121TMC2     O 1849   0.590   4.613  14.401 -0.0056 -0.2484  0.5054
  121TMC2     H 1850   0.389   4.492  14.408  1.1593 -0.4047 -0.7319
  121TMC2    H1 1851   0.398   0.137  14.177  0.4597 -1.2946 -3.6348
  121TMC2    H2 1852   0.038   4.644  14.217 -0.5207  0.9401 -0.6464
  121TMC2    C7 1853   0.144   0.127  14.110  0.1299 -0.0464  0.2225
  121TMC2    C8 1854   0.147   4.441  14.335  0.2789 -0.2261 -0.0393
  121TMC2    O1 1855   0.216   0.195  14.037 -0.5158  0.7436  0.3595
  121TMC2    O2 1856   0.209   4.344  14.371  0.6532  0.0107 -0.2617
  121TMC2    O5 1857   0.015   4.443  14.310  0.0071 -0.1299 -0.2671
  121TMC2    H5 1858   4.686   4.527  14.317  1.4149  0.8046 -1.1835
  122MPD2     C 1859   0.831   0.003  14.310  0.2615  0.3252  0.1363
  122MPD2    C1 1860   0.752   0.035  14.199 -0.6490  0.1709  0.0903
  122MPD2    C2 1861   0.807   0.082  14.083  0.2093 -0.1437  0.2007
  122MPD2    C3 1862   0.938   0.102  14.065 -0.1985  0.1236 -0.5234
  122MPD2    C4 1863   1.018   0.083  14.179  0.0132 -0.2910 -0.1631
  122MPD2    C5 1864   0.962   0.033  14.295  0.0418  0.6879  0.5031
  122MPD2     H 1865   0.740   0.106  14.001  0.7524  1.8146  0.3195
  122MPD2    H1 1866   1.125   0.097  14.182 -0.0682  0.8870 -2.9257
  122MPD2    H2 1867   0.797   4.688  14.406  2.0359 -0.3378  0.4947
  122MPD2    H3 1868   1.019   0.036  14.387  1.8471 -2.1629 -0.4836
  122MPD2     N 1869   0.994   0.150  13.941  0.2160  0.0690 -0.8284
  122MPD2    H5 1870   1.096   0.157  13.939  0.2959 -1.8570 -4.2401
  122MPD2    N1 1871   0.616   0.014  14.202  0.2541  0.1873 -0.6612
  122MPD2    H7 1872   0.561   0.061  14.131 -1.4026  0.3258  0.7028
  123MPD2     C 1873   4.053   3.044   8.930  0.2758  0.0593  0.4656
  123MPD2    C1 1874   4.100   2.979   9.045 -1.2204 -0.6639 -0.4475
  123MPD2    C2 1875   4.213   3.026   9.104 -0.4402 -0.2680  0.2692
  123MPD2    C3 1876   4.274   3.141   9.059  0.1567 -0.6006 -0.4350
  123MPD2    C4 1877   4.216   3.205   8.947  0.8704 -0.4064  0.2966
  123MPD2    C5 1878   4.101   3.166   8.890 -0.3625 -0.1080  0.3807
  123MPD2     H 1879   4.258   2.968   9.184 -0.6305 -1.1289 -0.2530
  123MPD2    H1 1880   4.252   3.304   8.921 -0.5044  0.1916  0.6458
  123MPD2    H2 1881   3.967   3.005   8.878  0.3542 -1.3928  1.4326
  123MPD2    H3 1882   4.059   3.230   8.813 -0.7124  0.0131  0.6708
  123MPD2     N 1883   4.402   3.174   9.114  0.0431 -0.2349  0.2826
  123MPD2    H5 1884   4.425   3.135   9.205 -3.4850  1.3811  1.8889
  123MPD2    N1 1885   4.028   2.867   9.083  0.3742  0.4886 -0.0774
  123MPD2    H7 1886   3.942   2.848   9.032 -0.0268  0.2144  0.7027
  124TCq2    C1 1887   4.475   3.279   9.080  0.2337  0.1065  0.1371
  124TCq2    O2 1888   4.470   3.342   8.976  0.3571 -0.7193  0.4239
  124TCq2    C2 1889   4.600   3.296   9.154  0.0576  0.5120  1.1288
  124TCq2    C3 1890   4.685   3.390   9.112 -0.3949 -0.2330  0.0015
  124TCq2    C4 1891   0.096   3.377   9.144 -0.0321  0.4196 -0.1749
  124TCq2    C5 1892   0.140   3.292   9.235  0.5978  0.0922 -0.3512
  124TCq2    C6 1893   0.050   3.214   9.302 -0.1954  0.8780 -0.1723
  124TCq2    C7 1894   4.645   3.212   9.253 -0.2283  0.5876 -0.2452
  124TCq2    C8 1895   0.084   3.134   9.412 -0.6144 -0.6556 -0.0648
  124TCq2    O4 1896   0.002   3.055   9.464  0.9863  0.1038  0.7696
  124TCq2    C9 1897   0.180   3.467   9.083 -0.5431  0.1618 -0.4252
  124TCq2    O5 1898   0.303   3.449   9.112 -0.0118  0.0197  0.1786
  124TCq2    O6 1899   0.133   3.577   9.042  0.0918 -0.0773 -0.3459
  124TCq2    H2 1900   4.648   3.463   9.040 -0.7369  1.0244  1.4677
  124TCq2    H3 1901   0.246   3.290   9.259  1.1784 -1.5730 -3.1616
  124TCq2    H4 1902   4.580   3.140   9.300 -2.2768  1.9164 -1.0277
  125TMC2    C1 1903   3.945   0.475   9.917 -0.1555 -0.6811  0.1689
  125TMC2    C2 1904   4.037   0.568   9.895 -0.8289 -0.0884 -0.0447
  125TMC2    C3 1905   4.163   0.525   9.899  0.3901 -0.1400 -0.1309
  125TMC2    C4 1906   3.971   0.346   9.940  0.6193 -0.3940 -0.2857
  125TMC2    C5 1907   4.096   0.300   9.951 -0.6567  0.6044  0.2010
  125TMC2    C6 1908   4.198   0.396   9.932  0.2268  0.2695 -0.4560
  125TMC2     C 1909   3.806   0.506   9.898  0.4600  0.7164 -0.3082
  125TMC2     O 1910   3.724   0.446   9.969 -0.3639 -0.0715 -0.2051
  125TMC2     H 1911   4.009   0.672   9.884  2.3922  0.8070  0.2163
  125TMC2    H1 1912   3.886   0.279   9.947  2.0533 -2.1426  0.5904
  125TMC2    H2 1913   4.302   0.370   9.918 -0.0988 -1.5046  0.4078
  125TMC2    C7 1914   4.115   0.159   9.983 -0.5233  0.0778  0.1553
  125TMC2    C8 1915   4.266   0.614   9.872 -0.1348  0.3341 -0.3219
  125TMC2    O1 1916   4.017   0.086   9.991  0.7238 -0.2577  0.2950
  125TMC2    O2 1917   4.260   0.710   9.793  0.4943  0.0597 -0.4220
  125TMC2    O5 1918   4.356   0.586   9.968 -0.2128 -0.1321  0.2432
  125TMC2    H5 1919   4.327   0.519  10.033 -1.5107 -0.0464 -0.2370
  126MPD1     C 1920   3.416   0.692   9.623 -0.5391 -0.2227 -0.2478
  126MPD1    C1 1921   3.528   0.770   9.599  0.1619 -0.3139  0.3667
  126MPD1    C2 1922   3.650   0.735   9.664 -0.0284  0.6797 -0.5076
  126MPD1    C3 1923   3.657   0.626   9.746 -0.3102 -0.3856  0.3557
  126MPD1    C4 1924   3.541   0.557   9.770  0.4122  0.0500 -0.7843
  126MPD1    C5 1925   3.421   0.584   9.704 -0.0119 -0.1651  0.4106
  126MPD1     H 1926   3.732   0.802   9.642  4.2050 -4.9672 -1.8751
  126MPD1    H1 1927   3.534   0.467   9.830  1.5764 -0.0992 -0.8803
  126MPD1    H2 1928   3.319   0.713   9.580 -0.5358 -2.3943 -1.3314
  126MPD1    H3 1929   3.325   0.539   9.721  0.2886 -1.4574 -1.2580
  126MPD1     N 1930   3.783   0.598   9.802  0.0808 -0.4027 -0.0156
  126MPD1    H5 1931   3.860   0.658   9.773  1.6685 -1.8207  1.2913
  126MPD1    N1 1932   3.519   0.892   9.529 -0.0599 -0.1190 -0.4587
  126MPD1    H6 1933   3.605   0.922   9.485 -0.7898  1.6244 -0.7341
  126MPD1    H7 1934   3.444   0.889   9.460  0.3702 -1.2394 -0.8575
  127MPD2     C 1935   1.345   3.916   9.287 -0.3394  0.3692 -0.9242
  127MPD2    C1 1936   1.366   3.964   9.413  1.0722  0.0226 -0.1486
  127MPD2    C2 1937   1.389   4.097   9.442  0.0612  0.1875  0.0025
  127MPD2    C3 1938   1.377   4.183   9.334 -0.1376 -0.2524  0.0998
  127MPD2    C4 1939   1.353   4.142   9.203 -0.5028  0.1489  0.4050
  127MPD2    C5 1940   1.339   4.008   9.181 -0.6260 -0.3810 -0.5336
  127MPD2     H 1941   1.403   4.135   9.542  1.6311 -0.6785  0.1087
  127MPD2    H1 1942   1.353   4.210   9.118 -1.1348  0.2553  0.4898
  127MPD2    H2 1943   1.329   3.812   9.260 -0.5198  0.6640 -1.9369
  127MPD2    H3 1944   1.333   3.957   9.086 -0.0306  0.9894 -1.2993
  127MPD2     N 1945   1.385   4.319   9.372 -0.4446 -0.2549  0.3667
  127MPD2    H5 1946   1.381   4.337   9.472  0.9642  0.5536  0.2838
  127MPD2    N1 1947   1.358   3.873   9.522 -0.1692 -0.2754 -0.4341
  127MPD2    H7 1948   1.327   3.778   9.503  2.3678 -0.9602 -1.1124
  128TCq2    C1 1949   1.412   3.895   9.647  0.4342 -0.0405 -0.4830
  128TCq2    O2 1950   1.488   3.983   9.685  0.3928 -0.6265 -0.0491
  128TCq2    C2 1951   1.369   3.795   9.747  0.4214 -0.3317  0.0638
  128TCq2    C3 1952   1.437   3.791   9.868  0.3955 -0.1598 -0.3073
  128TCq2    C4 1953   1.407   3.702   9.968 -0.1299 -0.0956  0.9307
  128TCq2    C5 1954   1.298   3.620   9.956 -0.6328 -0.0720  0.2387
  128TCq2    C6 1955   1.217   3.648   9.851  0.5971  0.3087 -0.9855
  128TCq2    C7 1956   1.251   3.728   9.743  0.5345  0.0761  0.3668
  128TCq2    C8 1957   1.085   3.591   9.849  0.1249 -0.0916  0.2502
  128TCq2    O4 1958   1.001   3.652   9.793 -0.5498  0.1550  0.3236
  128TCq2    C9 1959   1.491   3.705  10.088  0.8112 -0.0616 -0.2680
  128TCq2    O5 1960   1.603   3.763  10.084 -0.0683  0.2120  0.3540
  128TCq2    O6 1961   1.457   3.617  10.169 -0.3140  0.1957 -0.4903
  128TCq2    H2 1962   1.522   3.858   9.873  0.4197 -0.1783 -0.4726
  128TCq2    H3 1963   1.275   3.544  10.031 -1.1293 -1.2004 -1.0440
  128TCq2    H4 1964   1.186   3.734   9.657 -1.5850  0.0192  1.9735
  129MPD2     C 1965   3.491   0.788   0.995  0.5099 -0.5203  0.1835
  129MPD2    C1 1966   3.600   0.859   1.028 -0.1646 -0.0311 -0.7223
  129MPD2    C2 1967   3.609   0.989   0.980  0.2474 -0.5151 -0.0983
  129MPD2    C3 1968   3.520   1.037   0.884 -0.2892 -0.9040 -0.0915
  129MPD2    C4 1969   3.404   0.968   0.852  0.3262  0.1543 -0.0952
  129MPD2    C5 1970   3.391   0.845   0.913  0.0484  0.1313 -0.2351
  129MPD2     H 1971   3.700   1.045   1.001  0.8864 -0.0991 -3.9802
  129MPD2    H1 1972   3.329   0.998   0.780  1.0149  0.0203 -0.8607
  129MPD2    H2 1973   3.461   0.695   1.042 -1.7157  0.8370  1.4188
  129MPD2    H3 1974   3.304   0.785   0.890 -0.3774  0.3055  0.9840
  129MPD2     N 1975   3.554   1.160   0.822 -0.6788  0.3577  0.1150
  129MPD2    H5 1976   3.637   1.210   0.854  0.5272 -1.0471 -0.7818
  129MPD2    N1 1977   3.696   0.810   1.115 -0.5947  0.0742  0.1135
  129MPD2    H7 1978   3.782   0.860   1.135 -1.2041  1.3435 -0.4710
  130TCq2    C1 1979   3.688   0.692   1.186  0.0528 -0.2148  0.0921
  130TCq2    O2 1980   3.589   0.622   1.207 -0.4264 -0.4132 -0.4625
  130TCq2    C2 1981   3.811   0.640   1.256 -1.0807  0.3887  0.0899
  130TCq2    C3 1982   3.919   0.720   1.261  0.0453 -0.8067  0.4893
  130TCq2    C4 1983   4.013   0.691   1.347  0.6675 -0.8309  0.0713
  130TCq2    C5 1984   4.006   0.578   1.426 -0.5897  0.7803  0.3810
  130TCq2    C6 1985   3.900   0.496   1.407 -0.1385 -0.1145  0.0464
  130TCq2    C7 1986   3.792   0.524   1.327  0.2147 -0.2483  0.3648
  130TCq2    C8 1987   3.887   0.391   1.508 -0.3202 -0.2479 -0.3139
  130TCq2    O4 1988   3.821   0.297   1.475 -0.1908 -0.3253  0.3359
  130TCq2    C9 1989   4.127   0.779   1.359 -0.3334  0.7864 -0.3544
  130TCq2    O5 1990   4.220   0.742   1.431  0.2066  0.3486  0.0999
  130TCq2    O6 1991   4.133   0.883   1.283 -0.1648  0.4632 -0.2459
  130TCq2    H2 1992   3.933   0.814   1.208  1.8480 -0.8666  0.8427
  130TCq2    H3 1993   4.087   0.557   1.496  2.1518 -1.1127 -3.3970
  130TCq2    H4 1994   3.706   0.459   1.335 -0.8721  1.2905  1.1676
  131MPD2     C 1995   3.318   3.025   9.570 -0.4203 -0.2156 -0.6458
  131MPD2    C1 1996   3.453   3.058   9.581  0.5722 -0.1613  0.1420
  131MPD2    C2 1997   3.542   2.999   9.499  0.2980 -0.2701 -0.4800
  131MPD2    C3 1998   3.506   2.888   9.420 -0.2238 -0.6086  0.2128
  131MPD2    C4 1999   3.376   2.849   9.417  0.4471 -0.3332  0.1599
  131MPD2    C5 2000   3.283   2.924   9.489 -0.2480  0.5786  0.2449
  131MPD2     H 2001   3.649   3.016   9.505  0.4528 -1.5920  0.5576
  131MPD2    H1 2002   3.333   2.772   9.353  0.0466  0.1795 -0.1918
  131MPD2    H2 2003   3.241   3.076   9.627  2.1768  2.1773  0.7161
  131MPD2    H3 2004   3.178   2.896   9.486 -0.4148  1.1700  0.7415
  131MPD2     N 2005   3.606   2.813   9.361 -0.2345  0.7184  0.4528
  131MPD2    H5 2006   3.692   2.867   9.363 -1.3052  2.3778  1.2875
  131MPD2    N1 2007   3.485   3.158   9.683  0.3124  0.1483  0.8485
  131MPD2    H7 2008   3.412   3.192   9.745  2.0148  1.7928  1.9635
  132TCq2    C1 2009   3.879   3.587   9.849 -0.0930 -0.5228 -0.0594
  132TCq2    O2 2010   3.972   3.530   9.791  0.3816 -0.6037  0.6277
  132TCq2    C2 2011   3.765   3.496   9.878  0.4523  0.1866  0.1260
  132TCq2    C3 2012   3.671   3.531   9.967 -0.3179  0.0392  0.3156
  132TCq2    C4 2013   3.560   3.455   9.968 -0.0366  0.2885 -0.3241
  132TCq2    C5 2014   3.530   3.350   9.888 -0.8492  0.0301 -0.2233
  132TCq2    C6 2015   3.624   3.318   9.789 -0.6227  0.1289 -0.5572
  132TCq2    C7 2016   3.742   3.388   9.793  0.0425 -0.1388 -0.1624
  132TCq2    C8 2017   3.609   3.213   9.689  0.3472 -0.4457 -0.1576
  132TCq2    O4 2018   3.718   3.179   9.639  0.8331  0.1683  0.2874
  132TCq2    C9 2019   3.455   3.491  10.058 -0.8087  0.5592  0.6659
  132TCq2    O5 2020   3.354   3.412  10.072 -0.0613 -0.1139 -0.2639
  132TCq2    O6 2021   3.473   3.583  10.143  0.0148 -0.5069 -0.0751
  132TCq2    H2 2022   3.677   3.620  10.029  3.0458 -1.1906  1.7309
  132TCq2    H3 2023   3.433   3.303   9.898  0.0432 -1.8818 -0.6050
  132TCq2    H4 2024   3.818   3.355   9.722 -1.1828 -0.4002 -1.3478
  133MPD2     C 2025   2.657   4.490   9.077 -0.0881  0.7788  0.2299
  133MPD2    C1 2026   2.743   4.410   9.146  0.5684  0.4739  0.5512
  133MPD2    C2 2027   2.747   4.274   9.118  0.1933  0.0435 -0.0345
  133MPD2    C3 2028   2.654   4.221   9.030  0.6179 -0.2882  0.3146
  133MPD2    C4 2029   2.559   4.303   8.970  0.6543 -0.3087 -0.2708
  133MPD2    C5 2030   2.568   4.439   8.992 -0.1727  0.7651 -0.4684
  133MPD2     H 2031   2.825   4.208   9.156 -1.4748 -2.4901 -0.9552
  133MPD2    H1 2032   2.472   4.262   8.921  0.7712 -0.2798 -0.5028
  133MPD2    H2 2033   2.662   4.596   9.100  0.3511  0.8469 -0.1832
  133MPD2    H3 2034   2.492   4.502   8.947 -0.7000 -0.5773 -1.4418
  133MPD2     N 2035   2.648   4.078   9.006  0.1281  0.6022 -0.0762
  133MPD2    H5 2036   2.583   4.046   8.934  0.1064  0.2568  0.0982
  133MPD2    N1 2037   2.824   4.476   9.244 -0.6808  0.1676 -0.6190
  133MPD2    H7 2038   2.834   4.577   9.254  1.1145  0.1696 -2.4276
  134TCq2    C1 2039   2.884   4.412   9.347 -0.2930  0.5051 -0.1704
  134TCq2    O2 2040   2.884   4.298   9.389 -0.7093 -0.2833 -0.1822
  134TCq2    C2 2041   2.933   4.510   9.448  0.1101  0.4329  0.0088
  134TCq2    C3 2042   2.988   4.627   9.410 -0.0839  0.0640 -0.0725
  134TCq2    C4 2043   3.037   4.706   9.512 -0.1953 -0.1583 -0.0894
  134TCq2    C5 2044   3.015   4.679   9.647  0.5558 -0.8726 -0.8080
  134TCq2    C6 2045   2.944   4.570   9.676 -0.0639 -0.5199  1.1675
  134TCq2    C7 2046   2.908   4.479   9.579  0.1949  0.0456 -0.3336
  134TCq2    C8 2047   2.901   4.527   9.814  0.1586 -0.0209 -0.6291
  134TCq2    O4 2048   2.863   4.410   9.832 -0.0039 -0.0197 -0.1869
  134TCq2    C9 2049   3.120   0.098   9.475 -0.4298  0.3016  0.1923
  134TCq2    O5 2050   3.157   0.100   9.358 -0.2754  0.4764  0.4475
  134TCq2    O6 2051   3.153   0.174   9.568  0.2698 -0.2579  0.1826
  134TCq2    H2 2052   3.000   4.650   9.305  2.0196 -0.9645 -0.0589
  134TCq2    H3 2053   3.068   0.013   9.723  0.1523  1.1745 -2.0324
  134TCq2    H4 2054   2.849   4.392   9.604 -3.3271  2.3870 -0.3917
  135MPD2     C 2055   1.108   0.295   9.771 -0.2128  0.3412  0.6580
  135MPD2    C1 2056   0.966   0.301   9.746 -0.1392  0.3276 -0.1426
  135MPD2    C2 2057   0.923   0.359   9.627  0.3550  0.3803 -0.6183
  135MPD2    C3 2058   1.017   0.396   9.528 -0.0547 -0.3292  0.9302
  135MPD2    C4 2059   1.152   0.376   9.558  0.1731 -0.6530  0.6489
  135MPD2    C5 2060   1.201   0.326   9.682 -0.8853  0.0415 -0.8236
  135MPD2     H 2061   0.817   0.356   9.605  0.7955 -2.5235 -2.2925
  135MPD2    H1 2062   1.222   0.384   9.476 -3.1785 -0.5352 -2.2519
  135MPD2    H2 2063   1.145   0.249   9.861 -0.5518 -0.5984  0.3256
  135MPD2    H3 2064   1.306   0.297   9.687 -1.5445 -1.5028  3.9028
  135MPD2     N 2065   0.986   0.425   9.392  0.1989  0.3147 -0.4107
  135MPD2    H5 2066   1.061   0.446   9.327  2.5630  1.1874  2.6188
  135MPD2    N1 2067   0.870   0.254   9.835  0.0225 -0.4615 -0.2057
  135MPD2    H7 2068   0.775   0.279   9.811  0.4614  2.0606  0.6969
  136TCq2    C1 2069   0.894   0.152   9.928  1.0997 -0.2991  0.1472
  136TCq2    O2 2070   0.999   0.099   9.958  0.1452 -0.2328  0.4261
  136TCq2    C2 2071   0.785   0.096  10.005  0.2649 -0.4434 -0.3197
  136TCq2    C3 2072   0.796   4.687  10.032 -0.3343 -0.0600  0.6947
  136TCq2    C4 2073   0.690   4.623  10.088 -0.5417  0.0023 -0.6440
  136TCq2    C5 2074   0.577   4.682  10.113  0.8216 -0.3597  0.4877
  136TCq2    C6 2075   0.570   0.096  10.079 -0.1537 -0.2863  0.3732
  136TCq2    C7 2076   0.670   0.168  10.021 -0.0376  0.4121  0.1396
  136TCq2    C8 2077   0.452   0.178  10.123  0.4282 -0.5326  0.0270
  136TCq2    O4 2078   0.458   0.293  10.092 -0.0837 -0.1498 -0.2683
  136TCq2    C9 2079   0.702   4.481  10.106  0.5271  0.8613  0.0757
  136TCq2    O5 2080   0.595   4.414  10.132 -0.7685 -0.0927 -0.1984
  136TCq2    O6 2081   0.815   4.424  10.089 -0.7231  0.4131  0.3935
  136TCq2    H2 2082   0.883   4.629  10.002 -0.6377 -0.7476  1.1274
  136TCq2    H3 2083   0.491   4.634  10.158 -0.6887 -0.0117 -2.0321
  136TCq2    H4 2084   0.666   0.276  10.011 -1.4736  0.4133  0.7348
  137MPD2     C 2085   4.452   4.407   9.678  0.3972  0.4114  0.3806
  137MPD2    C1 2086   4.585   4.443   9.669 -0.5344  0.0269  0.7892
  137MPD2    C2 2087   4.683   4.354   9.715  0.1669  0.1843  0.0377
  137MPD2    C3 2088   4.651   4.225   9.758  0.3581 -0.2275  0.1274
  137MPD2    C4 2089   4.519   4.191   9.758 -0.9668  0.1813 -0.2012
  137MPD2    C5 2090   4.425   4.274   9.702  0.5831  0.3574 -0.0860
  137MPD2     H 2091   0.059   4.399   9.722  1.0619 -1.6731 -0.8582
  137MPD2    H1 2092   4.482   4.098   9.801  2.0681 -0.6955  0.4871
  137MPD2    H2 2093   4.368   4.471   9.654 -0.1299 -1.0099 -1.5311
  137MPD2    H3 2094   4.320   4.247   9.697  0.9057 -0.7416 -0.9092
  137MPD2     N 2095   0.028   4.143   9.819  0.2303 -0.0397 -0.5673
  137MPD2    H5 2096   0.116   4.193   9.828  0.9426 -1.4426  0.2881
  137MPD2    N1 2097   4.611   4.571   9.635 -0.5995 -0.0607  0.1887
  137MPD2    H7 2098   4.536   4.637   9.617 -1.5563 -1.7369 -1.9356
  138TCq2    C1 2099   0.011   4.637   9.631  0.0448 -0.1093  0.1484
  138TCq2    O2 2100   0.121   4.588   9.630  0.3330  0.1132 -0.1954
  138TCq2    C2 2101   0.003   0.055   9.590  0.2662  0.2606 -0.1733
  138TCq2    C3 2102   0.107   0.113   9.523 -0.3972  0.2308  0.9774
  138TCq2    C4 2103   0.077   0.227   9.450 -0.1146 -0.0381  0.1098
  138TCq2    C5 2104   4.677   0.294   9.462 -0.0213 -0.1024  0.2190
  138TCq2    C6 2105   4.584   0.235   9.537  0.2040  0.5858  1.0349
  138TCq2    C7 2106   4.607   0.113   9.594  0.5808  0.0435 -0.4416
  138TCq2    C8 2107   4.461   0.304   9.558 -0.3217 -0.2268  0.3552
  138TCq2    O4 2108   4.450   0.425   9.558 -0.0874 -0.3763  0.0238
  138TCq2    C9 2109   0.169   0.279   9.347 -0.1352  0.0105  0.2525
  138TCq2    O5 2110   0.155   0.400   9.312 -0.1624 -0.0147  0.0093
  138TCq2    O6 2111   0.246   0.193   9.299  0.0094 -0.3955 -0.3578
  138TCq2    H2 2112   0.202   0.059   9.518  0.2091  1.3722  0.0965
  138TCq2    H3 2113   4.660   0.388   9.410  1.2930  0.5314  0.9524
  138TCq2    H4 2114   4.533   0.075   9.664  0.5681  0.5340 -0.1900
  139TMC2    C1 2115   0.971   2.713  13.218 -0.0403 -0.1916  0.3726
  139TMC2    C2 2116   0.892   2.676  13.111 -0.3505  0.6875  0.0328
  139TMC2    C3 2117   0.769   2.731  13.110 -0.1505 -0.2026  0.5015
  139TMC2    C4 2118   0.944   2.822  13.298 -0.0980 -0.0677 -0.2194
  139TMC2    C5 2119   0.820   2.874  13.283  0.5098 -0.3862 -0.8058
  139TMC2    C6 2120   0.733   2.835  13.188  0.1405 -0.0274 -0.0399
  139TMC2     C 2121   1.096   2.644  13.230  0.1299 -0.0356  0.3208
  139TMC2     O 2122   1.137   2.588  13.130  0.1697  0.1844 -0.1588
  139TMC2     H 2123   0.910   2.581  13.060 -1.4785  1.3199 -1.5449
  139TMC2    H1 2124   1.022   2.868  13.356 -0.4131  2.0758 -1.4928
  139TMC2    H2 2125   0.635   2.878  13.177  0.1280 -0.0161  0.1150
  139TMC2    C7 2126   0.770   2.978  13.372  0.6246  0.3309  0.2399
  139TMC2    C8 2127   0.703   2.702  12.987  0.6541  0.7867  0.3049
  139TMC2    O1 2128   0.661   3.034  13.343  0.5907  0.0170 -0.7398
  139TMC2    O2 2129   0.589   2.746  12.967  0.0825 -0.0825  0.1417
  139TMC2    O5 2130   0.805   2.707  12.896  0.2457  0.1088 -0.3814
  139TMC2    H5 2131   0.899   2.703  12.921  0.1770 -3.7171 -0.7703
  140MPD2     C 2132   1.298   2.562  13.532 -0.0750  0.2212  0.5776
  140MPD2    C1 2133   1.253   2.556  13.404 -0.4134 -0.1191 -0.6799
  140MPD2    C2 2134   1.321   2.468  13.320 -0.1105 -0.1628 -0.2643
  140MPD2    C3 2135   1.429   2.393  13.361 -0.1146  0.0874 -0.1389
  140MPD2    C4 2136   1.463   2.394  13.495  0.7777  0.1863  0.0320
  140MPD2    C5 2137   1.400   2.487  13.576  0.1335  0.0907 -0.9443
  140MPD2     H 2138   1.306   2.465  13.213 -0.6298 -0.9297 -0.1703
  140MPD2    H1 2139   1.544   2.334  13.536  0.7029  0.5214  0.6728
  140MPD2    H2 2140   1.255   2.631  13.604 -2.8684 -0.6839 -0.2250
  140MPD2    H3 2141   1.426   2.499  13.680 -3.6509  0.3060 -0.0290
  140MPD2     N 2142   1.493   2.319  13.260 -0.6076 -0.2054  0.1574
  140MPD2    H5 2143   1.456   2.326  13.165 -3.2300  1.1281  1.2754
  140MPD2    N1 2144   1.145   2.634  13.363  0.2056 -0.2038  0.1357
  140MPD2    H7 2145   1.099   2.692  13.433 -0.8936 -2.3973  1.2260
  141TCq2    C1 2146   1.304   3.387  14.454  0.0189 -0.2662 -0.2531
  141TCq2    O2 2147   1.298   3.481  14.372 -0.5546  0.3305 -0.2513
  141TCq2    C2 2148   1.326   3.425  14.593 -0.2087  0.1726 -0.5423
  141TCq2    C3 2149   1.378   3.342  14.685  0.5945 -0.0068 -0.0337
  141TCq2    C4 2150   1.398   3.395  14.809  0.3419  0.5937  0.6707
  141TCq2    C5 2151   1.359   3.520  14.842  0.8093  0.5215  0.6993
  141TCq2    C6 2152   1.299   3.601  14.750  0.1167 -0.6942 -0.5179
  141TCq2    C7 2153   1.279   3.551  14.627 -1.6427 -0.1044  0.1877
  141TCq2    C8 2154   1.277   3.738  14.780 -0.2632 -0.5128 -0.6044
  141TCq2    O4 2155   1.232   3.776  14.888  0.8066  0.1902 -0.2675
  141TCq2    C9 2156   1.450   3.302  14.909  0.8234  0.0149  0.4410
  141TCq2    O5 2157   1.466   3.181  14.875 -0.2137  0.2721  0.3617
  141TCq2    O6 2158   1.473   3.351  15.021 -0.9025  0.2076  0.2029
  141TCq2    H2 2159   1.413   3.241  14.665  0.8955  0.1292 -0.1859
  141TCq2    H3 2160   1.385   3.562  14.938  2.2731  1.2355 -0.0062
  141TCq2    H4 2161   1.246   3.614  14.546 -0.6091  2.3862  1.7216
  142MPD2     C 2162   4.583   1.800   9.820 -0.0668 -0.0639 -0.4936
  142MPD2    C1 2163   4.548   1.933   9.811 -0.5576 -0.5372 -0.0408
  142MPD2    C2 2164   4.647   2.023   9.780  0.1403 -0.4428  0.4058
  142MPD2    C3 2165   0.057   1.995   9.793  0.0706  0.4509 -0.3810
  142MPD2    C4 2166   0.089   1.866   9.823 -0.2086  0.4726 -0.1851
  142MPD2    C5 2167   4.711   1.765   9.822 -0.2044  0.5602 -0.1579
  142MPD2     H 2168   4.610   2.124   9.766  2.1428 -0.0682 -2.1454
  142MPD2    H1 2169   0.192   1.835   9.830 -0.8530 -0.9944  2.6934
  142MPD2    H2 2170   4.507   1.722   9.827  0.1951 -0.4983 -2.4611
  142MPD2    H3 2171   0.005   1.660   9.844  3.2222  1.0778 -0.3188
  142MPD2     N 2172   0.154   2.094   9.779 -0.0587  0.0467  0.1440
  142MPD2    H5 2173   0.250   2.080   9.808  0.2067  3.6441  1.0862
  142MPD2    N1 2174   4.413   1.964   9.830  0.6141 -0.3733  0.0295
  142MPD2    H7 2175   4.345   1.890   9.840  1.5972 -1.1823  0.7404
  143TCq2    C1 2176   0.136   2.225   9.728  0.0982  0.3133  0.0172
  143TCq2    O2 2177   0.029   2.273   9.693  0.0942 -0.3019  0.2767
  143TCq2    C2 2178   0.249   2.317   9.730  0.0664  0.0228  0.3437
  143TCq2    C3 2179   0.312   2.311   9.852 -0.5072 -0.0292  0.3309
  143TCq2    C4 2180   0.363   2.421   9.909  1.1249 -0.4912  0.1975
  143TCq2    C5 2181   0.356   2.543   9.851  0.2355 -0.6249  0.2850
  143TCq2    C6 2182   0.285   2.551   9.738 -0.3586  0.0888  0.5533
  143TCq2    C7 2183   0.230   2.442   9.672  0.1819  0.0319  0.3506
  143TCq2    C8 2184   0.265   2.683   9.682  0.1585 -0.2353  0.3572
  143TCq2    O4 2185   0.182   2.691   9.590 -0.6959  0.7049  0.2921
  143TCq2    C9 2186   0.425   2.419  10.043  0.2149 -0.0006  0.4342
  143TCq2    O5 2187   0.403   2.518  10.116 -0.1048 -0.2546 -0.1142
  143TCq2    O6 2188   0.460   2.311  10.096 -0.6285  0.2685 -0.2996
  143TCq2    H2 2189   0.310   2.220   9.910  0.4806 -0.3670 -0.1671
  143TCq2    H3 2190   0.403   2.621   9.908 -0.0155 -0.6868  0.5754
  143TCq2    H4 2191   0.168   2.447   9.583  0.5230 -1.3936  0.0258
  144MPD2     C 2192   1.764   2.045   0.914  0.2903  0.3472 -0.0711
  144MPD2    C1 2193   1.810   1.961   0.818 -0.8422  0.6932  0.5608
  144MPD2    C2 2194   1.943   1.927   0.818  0.4421  0.5792 -0.4079
  144MPD2    C3 2195   2.034   1.977   0.911 -0.0891  0.4309  0.2355
  144MPD2    C4 2196   1.979   2.054   1.011 -1.0781  0.6188 -1.2745
  144MPD2    C5 2197   1.845   2.087   1.014 -0.4400 -0.9664  0.3226
  144MPD2     H 2198   1.981   1.860   0.741 -1.4682  0.7197 -1.4719
  144MPD2    H1 2199   2.035   2.080   1.100 -1.5717 -0.2416 -0.7095
  144MPD2    H2 2200   1.662   2.079   0.926  0.6672  1.8137 -0.9425
  144MPD2    H3 2201   1.805   2.137   1.102 -1.4984 -1.1877 -0.0334
  144MPD2     N 2202   2.174   1.955   0.915  0.6417 -0.6487  0.3258
  144MPD2    H5 2203   2.232   2.003   0.983  1.0433 -1.1571  0.3440
  144MPD2    N1 2204   1.714   1.916   0.719 -0.0970 -0.2623 -0.2585
  144MPD2    H7 2205   1.617   1.944   0.730  0.2221  1.3302 -1.4091
  145TCq2    C1 2206   2.243   1.856   0.848 -0.7394 -0.6168 -0.6589
  145TCq2    O2 2207   2.185   1.769   0.778  0.5426 -0.0134  0.2070
  145TCq2    C2 2208   2.385   1.847   0.878  0.4149 -0.9790  0.1613
  145TCq2    C3 2209   2.445   1.727   0.862 -0.3326 -0.3827 -0.6514
  145TCq2    C4 2210   2.580   1.723   0.849  0.5907 -0.0686  0.0622
  145TCq2    C5 2211   2.655   1.837   0.854 -0.0516 -0.3073  0.5730
  145TCq2    C6 2212   2.589   1.954   0.866 -0.0161  0.4285 -0.7200
  145TCq2    C7 2213   2.453   1.963   0.868 -0.5450 -0.0944 -0.1865
  145TCq2    C8 2214   2.666   2.078   0.877  0.0707 -0.2856  0.4274
  145TCq2    O4 2215   2.787   2.063   0.863 -0.0611 -0.4324 -0.1048
  145TCq2    C9 2216   2.642   1.592   0.830 -0.1086  0.6359  0.1964
  145TCq2    O5 2217   2.770   1.581   0.831 -0.0014 -0.0411  0.4934
  145TCq2    O6 2218   2.570   1.490   0.797  0.1031 -0.1574  0.1583
  145TCq2    H2 2219   2.386   1.637   0.851 -0.3156 -0.3479 -1.0363
  145TCq2    H3 2220   2.762   1.827   0.850  0.1300  2.0590 -0.5798
  145TCq2    H4 2221   2.399   2.057   0.859  0.4695  0.5798  0.7812
  146TMC2    C1 2222   2.101   0.076  12.623 -0.9341  0.4211  0.3136
  146TMC2    C2 2223   1.970   0.081  12.579 -0.0414  0.2524  0.2840
  146TMC2    C3 2224   1.915   4.686  12.530 -0.2378 -0.4178  0.4629
  146TMC2    C4 2225   2.180   4.686  12.606  0.9105 -0.5652  0.4158
  146TMC2    C5 2226   2.116   4.576  12.561  0.5500 -0.2029  0.1006
  146TMC2    C6 2227   1.986   4.569  12.523 -0.7460  0.2330  1.2609
  146TMC2     C 2228   2.147   0.203  12.693  0.4029  0.1599  0.5440
  146TMC2     O 2229   2.082   0.299  12.654 -0.6403  0.0306  0.2284
  146TMC2     H 2230   1.907   0.167  12.599  1.7902  1.2725  1.6745
  146TMC2    H1 2231   2.287   4.689  12.621  0.4327  0.2467  3.6604
  146TMC2    H2 2232   1.937   4.476  12.500  1.0123 -0.4712  0.3547
  146TMC2    C7 2233   2.177   4.442  12.563 -0.3748 -0.4309 -0.4360
  146TMC2    C8 2234   1.772   4.665  12.503  0.1052 -0.1741 -0.4728
  146TMC2    O1 2235   2.131   4.354  12.493 -0.7090 -0.1580 -0.1800
  146TMC2    O2 2236   1.703   4.569  12.538  0.0410  0.5697  0.4336
  146TMC2    O5 2237   1.716   0.058  12.471 -0.5778  0.2641  0.3452
  146TMC2    H5 2238   1.778   0.118  12.425 -1.5962  0.1444 -1.2184
  147MPD2     C 2239   2.542   4.128  12.731  0.5713 -0.6797  0.4146
  147MPD2    C1 2240   2.568   4.255  12.784  0.1356  0.3773 -0.2428
  147MPD2    C2 2241   2.489   4.366  12.748  0.0598 -0.0879  0.0135
  147MPD2    C3 2242   2.375   4.336  12.671 -0.0550  0.2001 -0.9220
  147MPD2    C4 2243   2.353   4.210  12.614 -0.7250 -0.6265  0.4806
  147MPD2    C5 2244   2.436   4.110  12.654  0.2645  0.5449 -0.3495
  147MPD2     H 2245   2.500   4.467  12.784 -0.7562 -0.2617  0.7262
  147MPD2    H1 2246   2.269   4.180  12.552  0.3648 -0.0554 -1.2506
  147MPD2    H2 2247   2.600   4.040  12.756  0.9030 -0.4216  0.5551
  147MPD2    H3 2248   2.406   4.010  12.627 -0.1631  0.5889 -0.0349
  147MPD2     N 2249   2.282   4.442  12.647 -0.1630  0.2926 -0.1872
  147MPD2    H5 2250   2.306   4.533  12.683  1.0249 -0.1652  0.1917
  147MPD2    N1 2251   2.678   4.268  12.870 -0.4759 -0.8450  0.1523
  147MPD2    H7 2252   2.736   4.186  12.882  1.8134  0.5109 -1.5312
  148MPD2     C 2253   3.264   3.138  10.774  0.6533 -0.1903 -0.2667
  148MPD2    C1 2254   3.258   3.197  10.649  0.4069  0.2881 -0.2252
  148MPD2    C2 2255   3.154   3.161  10.567  0.1955 -0.7613 -0.1764
  148MPD2    C3 2256   3.062   3.063  10.602 -0.3076 -0.1972 -0.1963
  148MPD2    C4 2257   3.080   3.003  10.718  0.1424 -0.2832 -0.5652
  148MPD2    C5 2258   3.178   3.039  10.807 -0.5045  0.0653 -0.0705
  148MPD2     H 2259   3.148   3.214  10.473  2.0738  0.1928  0.2285
  148MPD2    H1 2260   3.020   2.924  10.762  0.3811 -0.6210 -0.8517
  148MPD2    H2 2261   3.344   3.159  10.844 -0.0445 -0.1043  0.5114
  148MPD2    H3 2262   3.174   3.002  10.908 -0.7041  0.7054  0.1543
  148MPD2     N 2263   2.963   3.014  10.511 -0.5419 -0.2527  0.0765
  148MPD2    H5 2264   2.922   2.925  10.538  1.9399 -1.1377  0.9798
  148MPD2    N1 2265   3.359   3.290  10.598 -0.1527 -0.5370  0.8372
  148MPD2    H7 2266   3.340   3.331  10.507  1.0124 -1.2383  0.2792
  149TCq2    C1 2267   3.474   3.339  10.670  0.3722 -0.0488  0.6988
  149TCq2    O2 2268   3.496   3.329  10.789  0.0284  0.0892  0.4273
  149TCq2    C2 2269   3.565   3.418  10.577  0.3329 -0.3666 -0.0845
  149TCq2    C3 2270   3.676   3.469  10.643 -0.3803 -0.4378  0.0949
  149TCq2    C4 2271   3.797   3.493  10.578 -1.2208  0.5415 -0.4594
  149TCq2    C5 2272   3.819   3.438  10.452  0.9959 -0.5657 -0.3870
  149TCq2    C6 2273   3.714   3.384  10.392 -0.9716 -0.0324  0.3989
  149TCq2    C7 2274   3.589   3.374  10.449  0.2535 -0.5412 -0.3135
  149TCq2    C8 2275   3.735   3.282  10.289 -0.9158  0.4651  0.2040
  149TCq2    O4 2276   3.654   3.189  10.290  0.2487  0.3878 -0.4970
  149TCq2    C9 2277   3.918   3.528  10.656  0.1008 -0.1428 -0.3745
  149TCq2    O5 2278   3.904   3.573  10.771  0.3523  0.2656  0.3300
  149TCq2    O6 2279   4.033   3.493  10.614  0.1127  0.4924 -0.3215
  149TCq2    H2 2280   3.662   3.493  10.748 -0.9793 -0.7785  0.0908
  149TCq2    H3 2281   3.921   3.431  10.417  1.1785  0.0404  0.0277
  149TCq2    H4 2282   3.514   3.311  10.402  0.4350 -1.4980  0.6985
  150MPD2     C 2283   0.103   3.147  12.385  0.1107  0.0915  0.0207
  150MPD2    C1 2284   0.198   3.108  12.291 -0.4881  0.7538 -0.1608
  150MPD2    C2 2285   0.317   3.176  12.283 -0.1736  0.5148  0.7380
  150MPD2    C3 2286   0.353   3.273  12.382  0.7358  0.0077 -0.0155
  150MPD2    C4 2287   0.261   3.313  12.476 -0.0125  0.0451 -0.1473
  150MPD2    C5 2288   0.140   3.248  12.473  0.0411  0.6962 -0.0638
  150MPD2     H 2289   0.386   3.149  12.204 -2.7656 -1.1327 -1.0009
  150MPD2    H1 2290   0.276   3.384  12.557 -0.4844  0.7720 -0.6940
  150MPD2    H2 2291   0.009   3.097  12.404 -0.1548 -0.7261 -3.4578
  150MPD2    H3 2292   0.063   3.270  12.546  1.8180 -2.6826  2.7946
  150MPD2     N 2293   0.478   3.333  12.363 -0.2429 -0.0018 -0.1006
  150MPD2    H5 2294   0.536   3.290  12.291  0.8947  1.0692  0.1653
  150MPD2    N1 2295   0.150   3.010  12.201 -0.3991 -0.1288 -0.4367
  150MPD2    H7 2296   0.057   2.972  12.210  0.0834 -0.6738  2.1352
  151TCq2    C1 2297   0.537   3.423  12.448 -0.5230  0.2635  0.5843
  151TCq2    O2 2298   0.495   3.458  12.555  0.2045  0.3564  0.2062
  151TCq2    C2 2299   0.676   3.445  12.417  0.1638  0.2383 -0.2277
  151TCq2    C3 2300   0.714   3.419  12.288 -0.1101 -0.0440  0.1029
  151TCq2    C4 2301   0.837   3.379  12.251 -0.0944  0.4354  0.7241
  151TCq2    C5 2302   0.930   3.362  12.344 -0.3174 -0.1456 -0.3898
  151TCq2    C6 2303   0.886   3.373  12.476  0.3648 -0.0368  0.0889
  151TCq2    C7 2304   0.768   3.430  12.521 -0.6295 -0.1316  0.4536
  151TCq2    C8 2305   0.984   3.339  12.577 -0.0906  0.0772  0.3709
  151TCq2    O4 2306   0.975   3.400  12.685 -0.6679 -0.1183  0.1063
  151TCq2    C9 2307   0.856   3.342  12.113  0.8977  0.5824 -0.7803
  151TCq2    O5 2308   0.934   3.249  12.091  0.5413  0.5421  0.4392
  151TCq2    O6 2309   0.789   3.399  12.020 -0.3142 -0.1505  0.1036
  151TCq2    H2 2310   0.650   3.429  12.201  0.7504  0.7406 -0.4421
  151TCq2    H3 2311   1.032   3.337  12.317 -0.5524  0.7358 -2.0924
  151TCq2    H4 2312   0.738   3.434  12.625  0.0483 -1.2495  0.6872
  152MPD2     C 2313   0.235   2.723  12.908 -0.5791  0.4673  0.5082
  152MPD2    C1 2314   0.244   2.806  12.797 -0.0848  0.1669 -0.3864
  152MPD2    C2 2315   0.130   2.825  12.722  0.0838 -0.6983 -0.0839
  152MPD2    C3 2316   0.013   2.762  12.749  0.2559 -0.6054  0.1676
  152MPD2    C4 2317   4.721   2.693  12.869  0.4761  0.3240 -0.3362
  152MPD2    C5 2318   0.113   2.675  12.948  0.3568 -0.2692 -0.0040
  152MPD2     H 2319   0.137   2.907  12.651  1.2364 -0.0390  0.7838
  152MPD2    H1 2320   4.629   2.642  12.897  1.2421  0.0143  1.6161
  152MPD2    H2 2321   0.317   2.696  12.973 -2.0479 -1.1985  1.6724
  152MPD2    H3 2322   0.107   2.616  13.039  0.4899  0.1432  0.2751
  152MPD2     N 2323   4.623   2.788  12.661  0.2869 -0.1978 -0.0886
  152MPD2    H5 2324   4.649   2.833  12.574  0.2280 -1.3677 -0.7037
  152MPD2    N1 2325   0.374   2.841  12.762  0.1030  0.6061 -0.4717
  152MPD2    H7 2326   0.441   2.827  12.837 -0.0384  0.6335 -0.3402
  153TCq2    C1 2327   0.410   2.896  12.644 -0.0734 -0.1407 -0.2826
  153TCq2    O2 2328   0.344   2.896  12.540 -0.1470 -0.5995  0.1375
  153TCq2    C2 2329   0.549   2.935  12.637  0.0124 -0.0170  0.1724
  153TCq2    C3 2330   0.617   2.933  12.517 -0.0380  0.1684 -0.4236
  153TCq2    C4 2331   0.748   2.968  12.522 -1.0476 -0.0169 -0.6136
  153TCq2    C5 2332   0.813   3.000  12.642 -0.0180 -0.2285  0.0022
  153TCq2    C6 2333   0.746   2.987  12.756  0.6227 -0.6133  0.2160
  153TCq2    C7 2334   0.615   2.957  12.754 -0.7689  0.0344  0.5335
  153TCq2    C8 2335   0.791   3.065  12.874  0.2627  0.5011  0.1845
  153TCq2    O4 2336   0.705   3.115  12.947  0.2062  0.1442 -0.3383
  153TCq2    C9 2337   0.811   2.986  12.394 -0.0217 -0.9086 -0.4258
  153TCq2    O5 2338   0.905   3.066  12.377  0.7286 -0.0143 -0.1841
  153TCq2    O6 2339   0.755   2.937  12.292  0.1230 -0.0608 -0.3296
  153TCq2    H2 2340   0.566   2.931  12.422  1.4692 -1.0477 -1.2163
  153TCq2    H3 2341   0.914   3.041  12.641  0.1438 -0.6437 -0.6177
  153TCq2    H4 2342   0.571   2.957  12.853 -0.9004 -1.0600  0.4803
  154MPD2     C 2343   3.157   4.452   0.978 -0.5469  0.3340  0.2091
  154MPD2    C1 2344   3.036   4.506   0.953 -0.4812  0.4008  0.2062
  154MPD2    C2 2345   2.925   4.462   1.020 -0.5410  0.7891  0.6783
  154MPD2    C3 2346   2.930   4.362   1.114  0.0044  0.5855 -0.3563
  154MPD2    C4 2347   3.049   4.302   1.133  0.0776 -0.1172 -0.4632
  154MPD2    C5 2348   3.163   4.356   1.069  0.1594  0.3648 -0.1512
  154MPD2     H 2349   2.834   4.520   1.013 -1.4886 -0.6997  0.6291
  154MPD2    H1 2350   3.068   4.227   1.209  0.8410  2.1922  1.6558
  154MPD2    H2 2351   3.246   4.484   0.925  0.6573 -2.2755  0.6712
  154MPD2    H3 2352   3.262   4.318   1.090 -0.4255  0.5800  2.9624
  154MPD2     N 2353   2.809   4.323   1.183 -0.1760 -0.4758  0.2633
  154MPD2    H5 2354   2.720   4.362   1.152  1.0561  1.4725 -0.8352
  154MPD2    N1 2355   3.032   4.611   0.858  0.2492 -0.0257 -0.5546
  154MPD2    H7 2356   3.125   4.642   0.830  1.2255 -0.6831  1.8965
  155TCq2    C1 2357   2.927   4.690   0.818 -0.2912  0.0530  0.3549
  155TCq2    O2 2358   2.810   4.683   0.849 -0.2561  0.4345 -0.3510
  155TCq2    C2 2359   2.967   0.076   0.726  0.4997  0.3742 -0.6162
  155TCq2    C3 2360   2.888   0.190   0.719 -0.5004  0.5442 -0.1683
  155TCq2    C4 2361   2.926   0.293   0.635 -0.0137  0.0333  1.2345
  155TCq2    C5 2362   3.041   0.285   0.563  0.0226 -0.5151 -0.2287
  155TCq2    C6 2363   3.107   0.168   0.560 -0.4925 -0.3459 -0.5278
  155TCq2    C7 2364   3.073   0.058   0.644 -0.6097  0.2683 -0.5543
  155TCq2    C8 2365   3.209   0.149   0.454 -0.2945 -0.1272 -0.0173
  155TCq2    O4 2366   3.243   0.248   0.397  0.4539  0.2536  0.3485
  155TCq2    C9 2367   2.835   0.405   0.620 -0.1221  0.4596  0.2139
  155TCq2    O5 2368   2.873   0.493   0.534 -0.5220  0.3885  0.0957
  155TCq2    O6 2369   2.723   0.404   0.676  0.3361  0.2113  0.3019
  155TCq2    H2 2370   2.797   0.195   0.779  0.1631  2.2108  0.7057
  155TCq2    H3 2371   3.066   0.367   0.497  2.9511 -0.7649  0.5992
  155TCq2    H4 2372   3.140   4.696   0.657 -0.7623  0.1468 -0.5516
  156MPD2     C 2373   4.627   0.266  12.558  0.4613 -0.4983  0.2275
  156MPD2    C1 2374   0.012   0.332  12.505 -0.3862 -0.5664  0.3669
  156MPD2    C2 2375   0.112   0.374  12.587  0.6372  0.8685  0.7104
  156MPD2    C3 2376   0.118   0.346  12.717  1.1207 -0.4412  0.3224
  156MPD2    C4 2377   0.014   0.268  12.770  0.4071  0.3548 -0.4092
  156MPD2    C5 2378   4.636   0.232  12.688  0.0482  0.1027 -0.0232
  156MPD2     H 2379   0.188   0.442  12.551 -1.4241  2.3906 -0.7942
  156MPD2    H1 2380   0.014   0.246  12.876 -0.3584  0.3466 -0.4084
  156MPD2    H2 2381   4.540   0.238  12.500  1.6194 -0.5751 -1.4761
  156MPD2    H3 2382   4.547   0.179  12.720  0.3888  0.2002  1.0553
  156MPD2     N 2383   0.238   0.390  12.784  0.3368  0.3611 -0.0421
  156MPD2    H5 2384   0.310   0.440  12.732 -0.7685  1.2620 -0.7066
  156MPD2    N1 2385   0.018   0.346  12.367 -0.0210 -0.4840 -0.5944
  156MPD2    H7 2386   4.673   0.302  12.305  0.5529 -0.9875 -0.8584
  157TCq2    C1 2387   0.112   0.424  12.305  0.1144 -0.7911  0.0026
  157TCq2    O2 2388   0.172   0.521  12.347  0.6912  0.6259 -0.0757
  157TCq2    C2 2389   0.112   0.404  12.164 -0.1056 -0.4084 -0.2346
  157TCq2    C3 2390   0.046   0.296  12.107  0.3493 -0.2578  0.7992
  157TCq2    C4 2391   0.014   0.300  11.974  0.0293  0.0804 -0.0674
  157TCq2    C5 2392   0.059   0.404  11.901 -0.0720 -0.5023 -0.0829
  157TCq2    C6 2393   0.132   0.503  11.960 -1.1363  0.3229 -0.2780
  157TCq2    C7 2394   0.154   0.510  12.093 -0.0259 -0.5032 -0.1015
  157TCq2    C8 2395   0.198   0.601  11.869 -0.6142  0.0408 -0.9794
  157TCq2    O4 2396   0.299   0.656  11.909  0.2757  0.2868 -0.4408
  157TCq2    C9 2397   4.653   0.190  11.923  0.3169 -0.2542  0.4467
  157TCq2    O5 2398   4.586   0.133  12.011  0.7436 -0.0847  0.4256
  157TCq2    O6 2399   4.650   0.153  11.798  0.3716  1.0115  0.1985
  157TCq2    H2 2400   0.005   0.210  12.160 -0.3564 -0.2050  0.3318
  157TCq2    H3 2401   0.052   0.403  11.793  0.1210 -0.2584 -0.0956
  157TCq2    H4 2402   0.220   0.585  12.137  1.3705 -1.2816 -0.8797
  158TMC2    C1 2403   1.349   3.792  13.362  0.2566  0.0429  0.1320
  158TMC2    C2 2404   1.438   3.773  13.257 -0.6284  0.2497 -0.0465
  158TMC2    C3 2405   1.406   3.830  13.141 -0.5927 -0.0196 -0.0437
  158TMC2    C4 2406   1.221   3.840  13.338 -0.1340 -0.1127  0.1110
  158TMC2    C5 2407   1.194   3.887  13.212  0.3547  0.3959  0.8087
  158TMC2    C6 2408   1.286   3.881  13.112  0.3269  0.1655  0.8573
  158TMC2     C 2409   1.392   3.751  13.489  0.0475  0.2762 -0.3780
  158TMC2     O 2410   1.488   3.678  13.490 -0.3439  0.7878 -0.2363
  158TMC2     H 2411   1.534   3.727  13.278 -1.0634  0.0655  1.5703
  158TMC2    H1 2412   1.146   3.839  13.416  1.3688 -1.0343  1.5455
  158TMC2    H2 2413   1.263   3.905  13.009 -1.1698 -1.8833  0.7171
  158TMC2    C7 2414   1.072   3.967  13.175 -0.0449  0.8726 -0.1971
  158TMC2    C8 2415   1.496   3.825  13.026  0.9319 -0.0073  0.8372
  158TMC2    O1 2416   1.068   4.018  13.064  0.1103 -0.3263  0.2103
  158TMC2    O2 2417   1.455   3.809  12.913 -0.3440  0.1446 -0.5560
  158TMC2    O5 2418   1.621   3.807  13.066  0.5414 -0.0774 -0.3407
  158TMC2    H5 2419   1.634   3.842  13.157 -2.2519  0.7425 -0.2580
  159MPD2     C 2420   1.477   3.893  13.975 -0.5632  0.9739 -0.0034
  159MPD2    C1 2421   1.353   3.941  13.942 -0.3458  0.3615 -0.3195
  159MPD2    C2 2422   1.309   3.927  13.808  0.2678  0.6503 -0.1463
  159MPD2    C3 2423   1.381   3.854  13.717  0.1968 -0.0549  0.1936
  159MPD2    C4 2424   1.500   3.803  13.763  0.2732  0.1938 -0.3120
  159MPD2    C5 2425   1.558   3.830  13.887  0.1444  0.2755 -0.0888
  159MPD2     H 2426   1.219   3.977  13.773 -0.3438 -0.5182 -0.2532
  159MPD2    H1 2427   1.555   3.736  13.698  2.2603  3.6138 -2.1774
  159MPD2    H2 2428   1.517   3.907  14.075 -0.6441  0.7894  0.0552
  159MPD2    H3 2429   1.656   3.792  13.916 -1.7558 -1.4547  4.0097
  159MPD2     N 2430   1.340   3.838  13.586 -0.7188 -0.0036 -0.5372
  159MPD2    H5 2431   1.267   3.898  13.548 -1.2656  0.3262  1.0381
  159MPD2    N1 2432   1.282   4.016  14.040 -0.1129  0.1652  0.1212
  159MPD2    H7 2433   1.325   4.030  14.131 -0.8247 -1.1449  0.6833
  160TMC2    C1 2434   1.305   2.481   0.663  0.2930  0.5280 -0.2342
  160TMC2    C2 2435   1.366   2.371   0.612  0.4392  0.0923 -0.1492
  160TMC2    C3 2436   1.462   2.387   0.519  0.8100  1.0372 -0.2583
  160TMC2    C4 2437   1.334   2.606   0.637 -0.2056 -0.2776  0.0568
  160TMC2    C5 2438   1.429   2.623   0.540 -1.0637  0.0878 -0.5535
  160TMC2    C6 2439   1.505   2.514   0.487  0.1717 -0.3883 -0.2168
  160TMC2     C 2440   1.189   2.454   0.751  0.0290  0.6792 -0.4289
  160TMC2     O 2441   1.205   2.345   0.805  0.1558  0.4745  0.1108
  160TMC2     H 2442   1.340   2.271   0.645 -1.9555  0.5523 -0.6113
  160TMC2    H1 2443   1.274   2.693   0.662  0.9907  0.9238 -1.2630
  160TMC2    H2 2444   1.570   2.533   0.402  0.9394  1.6587  0.8365
  160TMC2    C7 2445   1.491   2.747   0.514  0.0109  0.2853  0.2340
  160TMC2    C8 2446   1.522   2.277   0.450  0.2207  0.0987 -0.0272
  160TMC2    O1 2447   1.573   2.751   0.426  0.3820  0.0517  0.1325
  160TMC2    O2 2448   1.532   2.267   0.328  0.4190 -0.1958 -0.0377
  160TMC2    O5 2449   1.554   2.189   0.544 -0.5336  0.1283  0.2348
  160TMC2    H5 2450   1.487   2.199   0.615  0.8080 -0.9249  1.6679
  161MPD2     C 2451   0.945   2.457   0.927  0.9274 -0.6768  0.3783
  161MPD2    C1 2452   0.988   2.556   0.842  0.3178  0.2922 -0.0619
  161MPD2    C2 2453   0.900   2.660   0.829  0.6122 -0.5882  0.2649
  161MPD2    C3 2454   0.783   2.679   0.896  0.0641 -0.7762 -0.0710
  161MPD2    C4 2455   0.754   2.576   0.983  0.5025 -0.1135  0.7048
  161MPD2    C5 2456   0.832   2.466   1.000 -0.5072  0.1917  0.4584
  161MPD2     H 2457   0.949   2.736   0.769  0.4364  0.6260  1.6622
  161MPD2    H1 2458   0.663   2.573   1.042  0.2504  0.1370  0.3263
  161MPD2    H2 2459   1.003   2.366   0.942  2.3389  0.5581  2.3562
  161MPD2    H3 2460   0.791   2.387   1.061  0.9962  0.3752  1.6978
  161MPD2     N 2461   0.710   2.796   0.906 -0.2523  0.1150  0.0060
  161MPD2    H5 2462   0.624   2.796   0.960 -0.3122  0.0633 -0.0890
  161MPD2    N1 2463   1.098   2.558   0.765 -0.2292 -0.5587 -0.0039
  161MPD2    H7 2464   1.116   2.642   0.709  1.3631 -0.9911 -0.1521
  162TMC2    C1 2465   3.176   0.194   1.035  0.3099 -0.5919  0.7029
  162TMC2    C2 2466   3.062   0.260   1.010 -0.1979  0.8530 -0.0062
  162TMC2    C3 2467   2.959   0.238   1.097  0.4967 -0.3284 -0.4838
  162TMC2    C4 2468   3.175   0.089   1.121 -0.4188 -0.5782 -0.2978
  162TMC2    C5 2469   3.070   0.076   1.211 -0.0170  0.3453  0.1476
  162TMC2    C6 2470   2.962   0.161   1.201  0.4856  0.0709  0.0075
  162TMC2     C 2471   3.257   0.168   0.912 -0.4158  0.5191 -0.6711
  162TMC2     O 2472   3.309   0.062   0.889 -0.0875 -0.0505  0.4980
  162TMC2     H 2473   3.054   0.324   0.923 -0.7125  0.5903 -0.1498
  162TMC2    H1 2474   3.266   0.030   1.126  1.9147  3.1347  0.1580
  162TMC2    H2 2475   2.877   0.167   1.268 -0.0832 -0.2449 -0.6803
  162TMC2    C7 2476   3.054   4.685   1.296  0.2375  0.3609  0.3584
  162TMC2    C8 2477   2.836   0.306   1.073  0.7509  0.1221  0.4521
  162TMC2    O1 2478   2.942   4.645   1.330  0.3775  0.0104  0.2190
  162TMC2    O2 2479   2.838   0.413   1.011 -0.2095 -0.5933 -0.4428
  162TMC2    O5 2480   2.738   0.219   1.065 -0.2634 -0.0909 -0.4928
  162TMC2    H5 2481   2.759   0.138   1.117 -1.2030  1.7814  2.8235
  163MPD2     C 2482   3.552   0.369   0.528  0.2190  0.5239  0.1988
  163MPD2    C1 2483   3.569   0.244   0.592 -0.2296  0.0978 -0.1811
  163MPD2    C2 2484   3.473   0.213   0.689 -0.3157 -0.3618 -0.1987
  163MPD2    C3 2485   3.381   0.309   0.732 -0.6684  0.6213  0.5416
  163MPD2    C4 2486   3.381   0.431   0.674  0.6744 -0.5016 -0.1180
  163MPD2    C5 2487   3.462   0.459   0.569 -0.0503  0.4741 -1.1423
  163MPD2     H 2488   3.472   0.111   0.725 -1.4534 -0.1474  0.3721
  163MPD2    H1 2489   3.307   0.502   0.709  1.2111  0.5603 -1.1405
  163MPD2    H2 2490   3.619   0.390   0.446 -0.6329  1.0723 -0.3573
  163MPD2    H3 2491   3.445   0.549   0.510 -1.0891  1.4551  0.6393
  163MPD2     N 2492   3.284   0.286   0.839  0.0389 -0.8036  0.7853
  163MPD2    H5 2493   3.243   0.370   0.878  0.6076  0.3683 -1.1433
  163MPD2    N1 2494   3.666   0.156   0.550 -0.6267  0.2194  0.3529
  163MPD2    H7 2495   3.726   0.189   0.475 -0.9844 -0.2670 -0.1520
  164TCq2    C1 2496   4.057   3.534  11.560  0.2250 -0.2353  0.1870
  164TCq2    O2 2497   4.028   3.529  11.680  0.1634 -0.9193 -0.1276
  164TCq2    C2 2498   4.011   3.650  11.478 -0.1110  0.3282 -0.0911
  164TCq2    C3 2499   4.086   3.715  11.384  0.3369  0.3685 -0.8459
  164TCq2    C4 2500   4.019   3.803  11.300  0.0445 -0.4220  0.1804
  164TCq2    C5 2501   3.889   3.841  11.322 -0.5274  0.0669 -0.2036
  164TCq2    C6 2502   3.818   3.786  11.427  0.0325  0.6085  0.2100
  164TCq2    C7 2503   3.880   3.684  11.502  0.5293  0.6942  0.3733
  164TCq2    C8 2504   3.675   3.780  11.415  0.3358  0.4660 -0.6951
  164TCq2    O4 2505   3.621   3.784  11.306 -0.1994 -0.9021 -0.3356
  164TCq2    C9 2506   4.097   3.864  11.201 -0.7198  0.1149 -0.6645
  164TCq2    O5 2507   4.046   3.971  11.161 -0.1385  0.1396  0.2178
  164TCq2    O6 2508   4.221   3.844  11.206  0.0691 -0.2270  0.0420
  164TCq2    H2 2509   4.193   3.701  11.374 -0.3422 -5.4270  0.0783
  164TCq2    H3 2510   3.849   3.922  11.262 -0.1031  0.2399 -0.2477
  164TCq2    H4 2511   3.823   3.637  11.581 -1.4458 -0.3044 -1.6398
  165MPD2     C 2512   0.175   1.816   1.356 -0.2986 -0.2786 -0.0454
  165MPD2    C1 2513   0.050   1.864   1.325  0.4953 -0.2511  0.1626
  165MPD2    C2 2514   0.041   2.000   1.303 -0.9173  0.4691 -0.4285
  165MPD2    C3 2515   0.159   2.087   1.308 -0.1831 -0.0774  1.0184
  165MPD2    C4 2516   0.276   2.031   1.337 -0.0911  0.6863 -0.2040
  165MPD2    C5 2517   0.284   1.894   1.361 -0.2631 -0.1066  0.4987
  165MPD2     H 2518   4.669   2.045   1.275 -1.9858 -0.1844  2.1996
  165MPD2    H1 2519   0.365   2.093   1.330  1.1997 -0.8302  2.3239
  165MPD2    H2 2520   0.200   1.713   1.382  0.6896  0.3669  1.5764
  165MPD2    H3 2521   0.382   1.850   1.379 -1.4805 -1.9455  2.6545
  165MPD2     N 2522   0.156   2.229   1.305 -0.2882  0.1123  0.1640
  165MPD2    H5 2523   0.242   2.282   1.306  0.7972 -1.6780  2.5413
  165MPD2    N1 2524   4.666   1.775   1.340  0.3037  0.2660 -0.2704
  165MPD2    H7 2525   4.685   1.676   1.355  1.6814  0.6050  0.2540
  166TCq2    C1 2526   0.040   2.298   1.295  0.3832 -0.9487  0.5133
  166TCq2    O2 2527   4.648   2.270   1.326 -0.1813 -0.2807  0.1628
  166TCq2    C2 2528   0.072   2.442   1.272  0.5862  0.1602  0.6931
  166TCq2    C3 2529   4.712   2.530   1.343  0.0519  0.3314  0.6938
  166TCq2    C4 2530   0.017   2.660   1.337  0.8235 -0.0661  0.4504
  166TCq2    C5 2531   0.135   2.704   1.290 -0.1509  0.4375 -0.2860
  166TCq2    C6 2532   0.223   2.618   1.235 -0.2924  0.8655  0.3799
  166TCq2    C7 2533   0.193   2.486   1.230 -0.3837 -0.1554  0.1906
  166TCq2    C8 2534   0.359   2.663   1.214 -0.6930  0.0987 -0.3558
  166TCq2    O4 2535   0.442   2.577   1.199  0.0390 -0.3648  0.4588
  166TCq2    C9 2536   4.645   2.745   1.400 -0.3829 -0.2811  0.6224
  166TCq2    O5 2537   4.671   2.871   1.386  0.1534 -0.4185 -0.0167
  166TCq2    O6 2538   4.556   2.698   1.473  0.4059 -0.3202  0.2005
  166TCq2    H2 2539   4.619   2.505   1.393 -0.0751  1.2671  0.9237
  166TCq2    H3 2540   0.157   2.807   1.315  1.9814  0.0768 -0.6870
  166TCq2    H4 2541   0.262   2.419   1.180  0.5418 -0.7518  2.2629
  167TMC2    C1 2542   2.799   3.408  12.547 -0.7698  0.4239 -0.7778
  167TMC2    C2 2543   2.760   3.499  12.636 -0.2435 -0.1189  0.2054
  167TMC2    C3 2544   2.800   3.477  12.765  0.6447  0.1682  0.2195
  167TMC2    C4 2545   2.882   3.304  12.578  0.2069  0.5798  0.0384
  167TMC2    C5 2546   2.908   3.278  12.712 -0.0905 -0.1544  0.1997
  167TMC2    C6 2547   2.865   3.367  12.810 -0.2719 -0.4721  0.3694
  167TMC2     C 2548   2.757   3.427  12.409  1.7016  0.5093  0.0410
  167TMC2     O 2549   2.694   3.525  12.381  0.2527  0.4363  0.0824
  167TMC2     H 2550   2.691   3.576  12.602 -0.8660 -1.7883 -2.3076
  167TMC2    H1 2551   2.931   3.236  12.509  0.3761  0.4598  0.2776
  167TMC2    H2 2552   2.876   3.343  12.915  2.4083 -1.0536 -0.0535
  167TMC2    C7 2553   2.967   3.158  12.771  0.1361  0.5735  0.1194
  167TMC2    C8 2554   2.696   3.511  12.863  0.3495  0.1602 -0.1399
  167TMC2    O1 2555   2.922   3.125  12.880  0.7007 -0.2449  0.1354
  167TMC2    O2 2556   2.674   3.441  12.963 -0.7268  1.1168 -0.3744
  167TMC2    O5 2557   2.667   3.643  12.844  0.0526  0.5572  0.5201
  167TMC2    H5 2558   2.716   3.685  12.771 -0.6428  2.2431  1.0340
  168MPD2     C 2559   2.720   3.395  12.110 -0.4629 -0.0995  0.2990
  168MPD2    C1 2560   2.756   3.293  12.195 -0.4065 -0.3149 -0.5767
  168MPD2    C2 2561   2.789   3.166  12.146 -0.6846  0.4662  0.1097
  168MPD2    C3 2562   2.783   3.147  12.007 -0.7237  0.0251  0.3055
  168MPD2    C4 2563   2.738   3.247  11.927 -0.0017 -0.2606 -0.3546
  168MPD2    C5 2564   2.712   3.375  11.974  0.7454 -0.1620 -0.0735
  168MPD2     H 2565   2.835   3.089  12.207 -0.9902  0.7046  0.6417
  168MPD2    H1 2566   2.719   3.238  11.821 -0.0449 -2.7339 -0.1404
  168MPD2    H2 2567   2.701   3.494  12.149  1.7687  0.1559  0.7400
  168MPD2    H3 2568   2.667   3.447  11.907  2.3619  1.3970  0.5378
  168MPD2     N 2569   2.822   3.019  11.962  0.3090  0.1992  0.3923
  168MPD2    H5 2570   2.872   2.965  12.032 -1.1403 -0.0965  1.2125
  168MPD2    N1 2571   2.767   3.315  12.332 -0.4464  0.5330 -0.1886
  168MPD2    H7 2572   2.798   3.233  12.382  0.5443  1.0353  0.0243
  169MPD1     C 2573   0.051   2.958   9.051 -0.6865 -0.0179  0.0584
  169MPD1    C1 2574   0.075   2.857   9.144 -0.7284  0.1207 -0.7085
  169MPD1    C2 2575   0.190   2.860   9.225  0.2169 -0.1841 -0.0289
  169MPD1    C3 2576   0.294   2.949   9.193 -0.0293 -0.1408 -0.9588
  169MPD1    C4 2577   0.274   3.033   9.082  0.0639  0.9299 -0.3195
  169MPD1    C5 2578   0.154   3.038   9.021  0.5744 -0.8177 -0.4584
  169MPD1     H 2579   0.203   2.788   9.305  0.3082 -0.2515 -0.1032
  169MPD1    H1 2580   0.344   3.110   9.054  0.9491 -0.0866 -0.8933
  169MPD1    H2 2581   4.679   2.972   8.999 -0.1068  0.2625 -0.9247
  169MPD1    H3 2582   0.139   3.116   8.948 -0.8990 -2.1183 -1.5305
  169MPD1     N 2583   0.422   2.948   9.260 -0.3456  0.0587 -0.1814
  169MPD1    H5 2584   0.436   2.860   9.309 -0.0274  2.0828  3.3295
  169MPD1    N1 2585   4.692   2.773   9.173  0.1215  0.1337  0.5444
  169MPD1    H6 2586   4.621   2.759   9.102  0.2058  0.3271  0.4220
  169MPD1    H7 2587   0.002   2.687   9.217  1.2153 -0.5089 -1.5134
  170MPD1     C 2588   3.508   1.625  13.363  0.4496  1.0945 -0.4903
  170MPD1    C1 2589   3.640   1.658  13.324 -0.1106 -0.3796 -0.3569
  170MPD1    C2 2590   3.739   1.657  13.421  0.2757  0.2656  0.0342
  170MPD1    C3 2591   3.709   1.652  13.554 -0.4318 -0.1553 -0.2200
  170MPD1    C4 2592   3.576   1.624  13.589 -0.0447 -0.0657 -0.1257
  170MPD1    C5 2593   3.482   1.617  13.498  0.1109  0.1505 -0.2844
  170MPD1     H 2594   3.845   1.670  13.399  0.5351 -1.6853  0.1449
  170MPD1    H1 2595   3.541   1.617  13.691 -0.7849 -1.4878 -0.4769
  170MPD1    H2 2596   3.421   1.593  13.305 -0.3574 -0.5517  1.6512
  170MPD1    H3 2597   3.384   1.590  13.536  0.7677 -1.9139 -0.0487
  170MPD1     N 2598   3.808   1.669  13.646  0.4836  0.4865  0.5850
  170MPD1    H5 2599   3.899   1.686  13.605  0.0566  0.9681 -0.1530
  170MPD1    N1 2600   3.680   1.641  13.189  0.6133  0.1358 -0.0776
  170MPD1    H6 2601   3.769   1.684  13.164 -0.7071  2.1539 -1.2770
  170MPD1    H7 2602   3.615   1.646  13.111 -1.7536  0.6202  1.9371
  171MPD1     C 2603   3.063   2.642  15.610  0.0763 -0.2042 -0.5117
  171MPD1    C1 2604   3.015   2.513  15.570  0.2030 -0.6842 -1.4173
  171MPD1    C2 2605   3.063   2.404  15.630  0.0517  0.5223 -0.0242
  171MPD1    C3 2606   3.170   2.407  15.725 -0.7035 -0.2464  0.1039
  171MPD1    C4 2607   3.229   2.529  15.750  0.5021 -0.4017  1.0415
  171MPD1    C5 2608   3.162   2.648  15.704 -0.2414 -0.2327 -0.4980
  171MPD1     H 2609   3.013   2.311  15.606  1.7414 -0.6026  0.8074
  171MPD1    H1 2610   3.301   2.530  15.831  0.9984  2.2245  0.5579
  171MPD1    H2 2611   3.016   2.733  15.576 -2.3245 -1.3153 -0.2102
  171MPD1    H3 2612   3.190   2.746  15.741  0.1047 -0.7010  0.4702
  171MPD1     N 2613   3.220   2.291  15.789 -0.6917 -0.4664  0.1678
  171MPD1    H5 2614   3.275   2.309  15.872  0.8516 -0.9897 -0.7363
  171MPD1    N1 2615   2.936   2.501  15.464  0.0169  0.1086  0.2504
  171MPD1    H6 2616   2.973   2.537  15.376 -0.1140  1.2477  0.6626
  171MPD1    H7 2617   2.912   2.404  15.443  1.1581 -0.1761  0.2659
  172MPD1     C 2618   1.835   1.455  17.651 -0.4646  0.1337  0.3632
  172MPD1    C1 2619   1.972   1.455  17.669 -0.1768 -0.8816 -0.5624
  172MPD1    C2 2620   2.048   1.565  17.628 -0.1918 -0.5224  0.1699
  172MPD1    C3 2621   1.988   1.682  17.598 -0.3207 -0.3184  0.0699
  172MPD1    C4 2622   1.849   1.690  17.606 -0.7309  0.9209 -0.2314
  172MPD1    C5 2623   1.773   1.575  17.627 -0.5227  0.9792 -0.1477
  172MPD1     H 2624   2.155   1.556  17.641 -0.1312 -2.8058 -1.9129
  172MPD1    H1 2625   1.801   1.786  17.591  0.2154  1.5786  0.9141
  172MPD1    H2 2626   1.787   1.360  17.671  0.2936 -0.2561  0.3275
  172MPD1    H3 2627   1.666   1.585  17.623 -0.5146  0.8728 -0.5658
  172MPD1     N 2628   2.056   1.800  17.568 -0.2297 -0.0522  0.0634
  172MPD1    H5 2629   2.006   1.881  17.532 -0.1206  0.4827  1.1232
  172MPD1    N1 2630   2.035   1.338   0.008  0.0177  0.4460  0.1160
  172MPD1    H6 2631   2.135   1.343   0.026 -0.3113  3.2144  1.2899
  172MPD1    H7 2632   1.986   1.301   0.089  3.1233  1.8359  2.6139
  173MPD1     C 2633   3.393   1.695  14.815 -0.9985 -0.0960 -0.5236
  173MPD1    C1 2634   3.354   1.638  14.695  0.2679  0.0157 -0.9979
  173MPD1    C2 2635   3.273   1.523  14.697 -0.4728  0.5839 -0.4964
  173MPD1    C3 2636   3.223   1.471  14.815  0.1496 -0.2920 -0.4454
  173MPD1    C4 2637   3.264   1.532  14.933 -0.2285 -0.1199 -0.0284
  173MPD1    C5 2638   3.350   1.640  14.933 -0.2854 -0.7870 -1.1251
  173MPD1     H 2639   3.257   1.465  14.607  0.0539  2.1762 -1.6092
  173MPD1    H1 2640   3.247   1.489  15.031 -0.5502 -1.7883 -0.8152
  173MPD1    H2 2641   3.464   1.776  14.822  1.1324 -2.0288  0.4986
  173MPD1    H3 2642   3.377   1.685  15.028  3.5699 -3.2501 -1.0195
  173MPD1     N 2643   3.139   1.358  14.815  0.3024  0.1447  1.2517
  173MPD1    H5 2644   3.093   1.328  14.729 -1.0306 -2.1774  2.7542
  173MPD1    N1 2645   3.421   1.679  14.577 -0.1155  0.3941 -0.2511
  173MPD1    H6 2646   3.364   1.665  14.494 -1.1481 -3.1119  1.0149
  173MPD1    H7 2647   3.450   1.776  14.584 -0.5747  0.7279 -3.0744
  174MPD1     C 2648   2.929   1.079  14.072  0.3255 -0.1501  0.1080
  174MPD1    C1 2649   2.966   0.966  14.137 -0.5176 -0.1088 -0.3417
  174MPD1    C2 2650   2.966   0.959  14.274 -0.0480  0.5862  0.4392
  174MPD1    C3 2651   2.945   1.073  14.349  0.1071  0.7492 -0.2322
  174MPD1    C4 2652   2.919   1.196  14.283  0.1097 -0.4588  0.1444
  174MPD1    C5 2653   2.908   1.194  14.143  0.1461  0.3761  0.1317
  174MPD1     H 2654   3.001   0.874  14.333  0.1100  0.6840  0.4869
  174MPD1    H1 2655   2.908   1.291  14.334 -2.1255 -0.3222 -0.5884
  174MPD1    H2 2656   2.929   1.085  13.964  0.0499  0.1246  0.1229
  174MPD1    H3 2657   2.893   1.289  14.092 -1.5853  0.5826  1.0382
  174MPD1     N 2658   2.954   1.079  14.494 -0.5971 -0.0645  0.2037
  174MPD1    H5 2659   2.955   1.174  14.530  3.9158  0.5216 -1.3844
  174MPD1    N1 2660   3.025   0.865  14.053 -0.6801 -0.2469  0.5308
  174MPD1    H6 2661   3.013   0.777  14.103  1.1326 -1.0768 -0.5167
  174MPD1    H7 2662   2.971   0.852  13.968  0.6425 -0.2886 -0.3083
  175MPD1     C 2663   1.586   1.785  15.488 -0.4842 -0.5064  0.5235
  175MPD1    C1 2664   1.687   1.884  15.482 -0.4070  0.4563 -0.4466
  175MPD1    C2 2665   1.717   1.950  15.600 -0.0403 -0.1201  0.5479
  175MPD1    C3 2666   1.646   1.938  15.723 -0.0119  0.1366  0.5791
  175MPD1    C4 2667   1.529   1.860  15.716  0.2306 -0.1663  0.2482
  175MPD1    C5 2668   1.514   1.779  15.603  0.3289 -0.1010 -0.5393
  175MPD1     H 2669   1.806   2.013  15.601  0.3571 -0.6807  0.7748
  175MPD1    H1 2670   1.464   1.856  15.802  2.0211  0.9382  1.6432
  175MPD1    H2 2671   1.559   1.711  15.414 -0.2276 -0.3708  0.2967
  175MPD1    H3 2672   1.433   1.708  15.593 -0.8498  1.0574  0.7002
  175MPD1     N 2673   1.665   2.020  15.841 -0.3085 -0.1113 -0.2189
  175MPD1    H5 2674   1.597   2.016  15.916  0.5096  0.0561  0.5344
  175MPD1    N1 2675   1.769   1.901  15.372  0.0159 -0.1735 -0.0043
  175MPD1    H6 2676   1.789   2.000  15.359  1.7485 -0.2017  2.4882
  175MPD1    H7 2677   1.737   1.890  15.276 -1.8763  1.4432  0.4517
  176MPD1     C 2678   3.951   3.349  17.181 -0.3949 -0.6724  0.0245
  176MPD1    C1 2679   3.822   3.303  17.197 -0.5330  0.1652  0.1060
  176MPD1    C2 2680   3.725   3.403  17.218  0.5223  0.2033 -0.4267
  176MPD1    C3 2681   3.762   3.536  17.220 -0.6538  0.0059  0.8944
  176MPD1    C4 2682   3.890   3.576  17.183  0.0538 -0.8808  0.0120
  176MPD1    C5 2683   3.980   3.481  17.162 -0.1488 -0.0769 -0.6389
  176MPD1     H 2684   3.620   3.379  17.230  0.7720 -1.1678 -0.9536
  176MPD1    H1 2685   3.922   3.679  17.191 -0.8506 -0.5743 -0.3046
  176MPD1    H2 2686   4.036   3.285  17.161 -3.0630 -4.0751 -0.4823
  176MPD1    H3 2687   4.085   3.509  17.153  0.4653 -2.1820 -0.1438
  176MPD1     N 2688   3.661   3.635  17.238  0.2413  0.5928 -0.2348
  176MPD1    H5 2689   3.566   3.603  17.253  0.7761  0.9519  3.8238
  176MPD1    N1 2690   3.793   3.170  17.236  0.4742 -0.0549 -0.0220
  176MPD1    H6 2691   3.706   3.134  17.197 -0.0949  1.9603 -0.6479
  176MPD1    H7 2692   3.869   3.109  17.208 -1.0178 -1.7983 -0.2499
  177MPD1     C 2693   1.804   4.570  10.064 -0.2400  0.1473 -0.0582
  177MPD1    C1 2694   1.772   4.446  10.002 -0.0589  0.2881  0.2216
  177MPD1    C2 2695   1.672   4.445   9.909  0.2094  0.4565  0.0742
  177MPD1    C3 2696   1.616   4.562   9.871  0.1321  0.1088 -0.5279
  177MPD1    C4 2697   1.631   4.682   9.944 -0.3753 -0.4702  0.0236
  177MPD1    C5 2698   1.735   4.682  10.034  0.6144 -0.0428 -0.0457
  177MPD1     H 2699   1.640   4.355   9.857  0.4419  1.4907 -1.8830
  177MPD1    H1 2700   1.587   0.052   9.910  1.9153  0.4220 -0.5476
  177MPD1    H2 2701   1.880   4.571  10.141  1.1091 -1.4887 -1.3598
  177MPD1    H3 2702   1.775   0.052  10.072  2.5534 -1.3283  1.0156
  177MPD1     N 2703   1.526   4.557   9.759 -0.1364 -1.3180  0.4447
  177MPD1    H5 2704   1.535   4.470   9.709 -0.3862 -1.3452  0.4490
  177MPD1    N1 2705   1.813   4.331  10.078  0.6399  0.0731 -0.4007
  177MPD1    H6 2706   1.908   4.334  10.116 -0.3524  0.4900  2.0495
  177MPD1    H7 2707   1.799   4.248  10.020 -0.5248  0.8203 -1.1666
  178MPD1     C 2708   4.100   1.543  17.204  0.0428  0.7022  0.1191
  178MPD1    C1 2709   4.235   1.573  17.212  0.3633 -0.0849  0.2511
  178MPD1    C2 2710   4.327   1.481  17.181 -0.0643  0.1942 -0.0760
  178MPD1    C3 2711   4.285   1.355  17.124 -0.4865 -0.5427 -0.7080
  178MPD1    C4 2712   4.150   1.333  17.113  0.9769  0.3586  0.1436
  178MPD1    C5 2713   4.057   1.429  17.146  1.2603  0.4797 -0.0884
  178MPD1     H 2714   4.432   1.501  17.199 -0.6950  3.2346  0.2327
  178MPD1    H1 2715   4.122   1.234  17.079  3.5872 -0.8722  1.6036
  178MPD1    H2 2716   4.024   1.611  17.242 -1.0385 -0.2990 -0.2585
  178MPD1    H3 2717   3.951   1.408  17.138  1.3335 -0.0617  0.3825
  178MPD1     N 2718   4.374   1.245  17.091  0.2565 -0.2459 -0.0811
  178MPD1    H5 2719   4.326   1.160  17.064 -2.3182  0.9150  0.8492
  178MPD1    N1 2720   4.274   1.691  17.279 -0.5054 -0.0341  0.3123
  178MPD1    H6 2721   4.368   1.718  17.248  0.2960 -0.2090  2.6291
  178MPD1    H7 2722   4.209   1.768  17.264  0.4578  0.8308  0.5479
  179MPD1     C 2723   4.180   3.920  16.147  0.2792  0.0643  0.4746
  179MPD1    C1 2724   4.050   3.879  16.177 -0.3683 -0.2246  0.4843
  179MPD1    C2 2725   4.022   3.750  16.129 -1.0113 -0.3395 -0.2481
  179MPD1    C3 2726   4.114   3.670  16.067  0.1579  0.1088 -0.4439
  179MPD1    C4 2727   4.245   3.715  16.051 -0.0918  0.0654 -0.0210
  179MPD1    C5 2728   4.271   3.839  16.088 -0.3322 -0.1460 -0.5519
  179MPD1     H 2729   3.919   3.722  16.146 -0.8844  0.1710  1.3358
  179MPD1    H1 2730   4.323   3.649  16.016  0.1545 -0.8270  2.2009
  179MPD1    H2 2731   4.222   4.017  16.170 -1.3314  0.8666  0.0723
  179MPD1    H3 2732   4.368   3.889  16.087  0.2033 -1.1670  1.1547
  179MPD1     N 2733   4.086   3.539  16.013  0.0572 -0.4829 -0.2590
  179MPD1    H5 2734   4.167   3.479  15.999  0.0395 -0.2965 -1.1744
  179MPD1    N1 2735   3.940   3.958  16.210  0.0914 -0.4331 -0.2605
  179MPD1    H6 2736   3.860   3.916  16.257  0.5994 -1.9231 -0.7198
  179MPD1    H7 2737   3.973   4.034  16.268 -0.2659  0.0753 -0.7187
  180MPD1     C 2738   4.201   4.490  15.302 -0.3583 -0.8654 -0.0723
  180MPD1    C1 2739   4.230   4.588  15.214 -0.4044 -0.6170 -0.7020
  180MPD1    C2 2740   4.143   4.607  15.103 -0.1225 -0.6373  0.5597
  180MPD1    C3 2741   4.031   4.532  15.091  0.2864  0.4107 -0.1967
  180MPD1    C4 2742   3.998   4.440  15.183  0.2318 -0.4209  0.3496
  180MPD1    C5 2743   4.084   4.419  15.286 -0.1425  0.2719  0.5139
  180MPD1     H 2744   4.156   4.687  15.031  0.1701 -1.2745 -0.0993
  180MPD1    H1 2745   3.906   4.382  15.175  0.8278 -1.3279  0.0109
  180MPD1    H2 2746   4.264   4.463  15.386 -0.2936  2.8542  1.0953
  180MPD1    H3 2747   4.070   4.341  15.360 -1.7745 -0.3892 -0.4892
  180MPD1     N 2748   3.952   4.565  14.980  0.2726 -0.0334 -0.0695
  180MPD1    H5 2749   3.978   4.643  14.920 -0.2781 -1.2931 -1.9413
  180MPD1    N1 2750   4.355   4.642  15.205  0.3047  0.4462  0.0706
  180MPD1    H6 2751   4.405   4.654  15.293  0.2746  3.3162 -0.3151
  180MPD1    H7 2752   4.356   0.003  15.146 -0.5520 -0.7176 -1.6066
  181MPD1     C 2753   0.521   2.254   9.098  0.1994  0.0214  0.2428
  181MPD1    C1 2754   0.547   2.123   9.137 -0.7162 -0.0739  0.1926
  181MPD1    C2 2755   0.663   2.090   9.200 -0.2090 -0.5855 -0.3165
  181MPD1    C3 2756   0.739   2.192   9.256 -0.4085  0.3386 -0.1841
  181MPD1    C4 2757   0.716   2.324   9.227 -0.0419  0.2764 -0.9602
  181MPD1    C5 2758   0.608   2.346   9.148 -1.2388  0.3623 -0.0409
  181MPD1     H 2759   0.687   1.987   9.221  0.3686  0.0509  2.1170
  181MPD1    H1 2760   0.791   2.400   9.248  0.4459 -0.6502  0.6443
  181MPD1    H2 2761   0.430   2.285   9.048  0.0269  1.2356  1.3144
  181MPD1    H3 2762   0.587   2.450   9.124 -1.7086  0.7206  1.8769
  181MPD1     N 2763   0.859   2.174   9.333  0.1403 -0.3369 -0.3427
  181MPD1    H5 2764   0.918   2.250   9.362  0.7991 -0.5579 -1.1153
  181MPD1    N1 2765   0.462   2.026   9.081 -0.5687 -0.0386  0.4669
  181MPD1    H6 2766   0.372   2.063   9.053  1.2353  1.7502 -3.0712
  181MPD1    H7 2767   0.466   1.932   9.119  1.9173  1.0098  2.8298
  182MPD1     C 2768   2.241   0.953   0.842  0.0412  0.1544 -0.4068
  182MPD1    C1 2769   2.116   0.943   0.794  0.0847  0.3929  0.5148
  182MPD1    C2 2770   2.014   1.030   0.828  0.2292  0.2384 -0.2878
  182MPD1    C3 2771   2.037   1.112   0.935  0.0428  0.2833 -0.3774
  182MPD1    C4 2772   2.165   1.126   0.985 -0.0289  0.3585  0.3724
  182MPD1    C5 2773   2.271   1.043   0.943  0.8116  0.7277  0.1395
  182MPD1     H 2774   1.915   1.003   0.796 -0.0904 -0.2872  1.1386
  182MPD1    H1 2775   2.179   1.188   1.073 -0.8110 -0.4299  1.0495
  182MPD1    H2 2776   2.320   0.899   0.791 -0.8030 -1.6310  0.2089
  182MPD1    H3 2777   2.368   1.059   0.988  0.5771 -1.6709  1.5382
  182MPD1     N 2778   1.952   1.185   1.012 -0.3402  0.2831  0.8307
  182MPD1    H5 2779   1.984   1.233   1.096 -0.0922 -0.7193  1.3199
  182MPD1    N1 2780   2.087   0.855   0.697  0.0942 -0.6054 -0.4218
  182MPD1    H6 2781   2.154   0.778   0.701  2.7618  1.8555  1.5643
  182MPD1    H7 2782   1.994   0.814   0.697 -0.0453 -0.2909  1.9382
  183MPD1     C 2783   3.544   1.063  10.171 -0.0375 -0.2957  0.0642
  183MPD1    C1 2784   3.488   1.170  10.099 -0.2030 -0.1766  0.2677
  183MPD1    C2 2785   3.350   1.164  10.079  0.0529 -0.3842  0.4376
  183MPD1    C3 2786   3.270   1.056  10.115  0.4510 -0.1305  0.6992
  183MPD1    C4 2787   3.333   0.952  10.186 -0.0372 -0.2679  0.2939
  183MPD1    C5 2788   3.465   0.962  10.218 -0.3214  0.1459  0.4495
  183MPD1     H 2789   3.312   1.244  10.016  0.2706 -0.2365  0.4922
  183MPD1    H1 2790   3.284   0.859  10.211  2.1885 -1.6513 -0.5082
  183MPD1    H2 2791   3.652   1.062  10.187 -0.0458  1.0047  0.2147
  183MPD1    H3 2792   3.509   0.878  10.270 -1.3170 -1.7333 -1.7451
  183MPD1     N 2793   3.126   1.045  10.095  0.1293  0.2758 -0.0056
  183MPD1    H5 2794   3.090   1.106  10.023  1.5415  0.8426 -0.2311
  183MPD1    N1 2795   3.570   1.265  10.045 -0.1166 -0.8710 -0.0124
  183MPD1    H6 2796   3.661   1.258  10.090 -1.0348 -0.8871  1.8693
  183MPD1    H7 2797   3.529   1.352  10.081 -0.5328 -1.3794  0.7532
  184MPD1     C 2798   0.527   3.599  10.230 -0.3482 -0.4520  0.4330
  184MPD1    C1 2799   0.439   3.602  10.120 -0.0824 -0.1555 -0.1610
  184MPD1    C2 2800   0.493   3.649  10.005 -0.0059  1.2640  0.0309
  184MPD1    C3 2801   0.624   3.695   9.994  0.3293  0.1609  0.0633
  184MPD1    C4 2802   0.707   3.691  10.102  0.6256  0.6773 -0.9596
  184MPD1    C5 2803   0.649   3.644  10.217 -0.2414  0.3856 -0.0543
  184MPD1     H 2804   0.423   3.646   9.922  0.9936 -1.3303 -0.7390
  184MPD1    H1 2805   0.812   3.715  10.107  0.8159  0.0206 -1.8837
  184MPD1    H2 2806   0.499   3.579  10.333 -0.3700 -1.4017  0.2386
  184MPD1    H3 2807   0.703   3.653  10.310 -0.1584  0.0016 -0.0680
  184MPD1     N 2808   0.680   3.753   9.883 -0.2236  0.2352 -0.8454
  184MPD1    H5 2809   0.773   3.792   9.897 -0.2769 -0.0040  0.2312
  184MPD1    N1 2810   0.308   3.552  10.134 -0.2148 -0.1814 -0.6303
  184MPD1    H6 2811   0.281   3.536  10.230  0.4432 -2.1167 -0.7602
  184MPD1    H7 2812   0.236   3.601  10.081 -1.2762  0.7477  1.6992
  185MPD1     C 2813   0.494   4.317   8.971  0.2874  0.4209 -0.1718
  185MPD1    C1 2814   0.426   4.213   9.025  0.2639  0.1201 -0.3770
  185MPD1    C2 2815   0.488   4.140   9.127 -0.5959 -0.3274 -0.4444
  185MPD1    C3 2816   0.616   4.178   9.173 -0.0627 -0.1565  0.2684
  185MPD1    C4 2817   0.678   4.285   9.112  0.2888  0.3950 -0.4910
  185MPD1    C5 2818   0.619   4.348   9.007 -0.5055  0.6054 -0.3382
  185MPD1     H 2819   0.437   4.055   9.171 -0.2302 -0.0079  0.5828
  185MPD1    H1 2820   0.771   4.323   9.152  1.1422 -1.8632 -0.3357
  185MPD1    H2 2821   0.460   4.380   8.889  0.1683 -1.1832 -1.3609
  185MPD1    H3 2822   0.665   4.436   8.964  1.7270  0.1653  1.1393
  185MPD1     N 2823   0.681   4.117   9.283 -0.1136 -0.0828  0.4335
  185MPD1    H5 2824   0.766   4.161   9.316 -1.2017  0.4217  2.5217
  185MPD1    N1 2825   0.309   4.164   8.962  0.2093 -0.0817  0.7783
  185MPD1    H6 2826   0.250   4.237   8.922  0.9917 -0.5961 -1.2783
  185MPD1    H7 2827   0.253   4.101   9.019 -0.2890  0.4940  0.9277
  186MPD1     C 2828   4.605   3.241  15.958 -1.0606 -0.1570  0.3177
  186MPD1    C1 2829   4.532   3.206  16.069 -0.5872 -0.2825 -1.1001
  186MPD1    C2 2830   4.530   3.292  16.173 -0.0885  0.3722 -0.0275
  186MPD1    C3 2831   4.577   3.424  16.155 -0.3589 -0.0404  0.6924
  186MPD1    C4 2832   4.651   3.446  16.042 -0.0843  0.4960  0.0690
  186MPD1    C5 2833   4.668   3.360  15.945 -0.2277  0.0644  0.6009
  186MPD1     H 2834   4.496   3.255  16.268  0.5395  1.2805  0.5515
  186MPD1    H1 2835   4.687   3.546  16.023  0.1842  0.3631 -0.1171
  186MPD1    H2 2836   4.627   3.170  15.878  0.7199 -0.9676  1.5156
  186MPD1    H3 2837   4.721   3.384  15.854  0.3077 -0.6443  0.7278
  186MPD1     N 2838   4.552   3.537  16.234  0.6411 -0.7406 -0.1349
  186MPD1    H5 2839   4.585   3.627  16.201 -2.4661  0.3509 -0.2856
  186MPD1    N1 2840   4.506   3.071  16.091  0.6247  0.2091 -0.3100
  186MPD1    H6 2841   4.426   3.077  16.154  0.2752  2.0118 -0.9117
  186MPD1    H7 2842   4.483   3.028  16.001 -1.1915 -0.4889  0.4963
  187MPD1     C 2843   3.141   0.188   0.085  0.0894 -0.0481  0.5582
  187MPD1    C1 2844   3.182   0.167  17.642  0.0482 -0.1840 -0.3171
  187MPD1    C2 2845   3.157   0.271  17.552 -0.1293 -0.3941  0.1278
  187MPD1    C3 2846   3.067   0.369  17.586 -0.5336 -0.2476 -0.5366
  187MPD1    C4 2847   3.017   0.377   0.020 -0.0298  0.2843  0.0100
  187MPD1    C5 2848   3.067   0.297   0.119 -0.8648 -0.8638 -0.1009
  187MPD1     H 2849   3.213   0.259  17.460  1.3229 -0.2274  0.9848
  187MPD1    H1 2850   2.954   0.452   0.066  2.2683  1.5299  1.1572
  187MPD1    H2 2851   3.167   0.115   0.161  0.6371 -1.0069 -0.5489
  187MPD1    H3 2852   3.031   0.309   0.221  0.1376  3.9750 -0.2941
  187MPD1     N 2853   3.032   0.475  17.501  0.5330 -0.2685  0.0753
  187MPD1    H5 2854   2.971   0.547  17.538  1.8980 -0.0645  1.9273
  187MPD1    N1 2855   3.253   0.046  17.603 -0.2651 -0.2423 -0.2057
  187MPD1    H6 2856   3.238   4.700  17.678 -2.4424 -0.2725 -0.6907
  187MPD1    H7 2857   3.209   0.006  17.521  0.3407  2.8625 -2.0336
  188MPD1     C 2858   2.782   0.488  10.328  0.7992  0.1554 -0.2746
  188MPD1    C1 2859   2.782   0.465  10.192  0.7453 -0.3624  0.1245
  188MPD1    C2 2860   2.738   0.346  10.146  0.5392  0.4836  0.4888
  188MPD1    C3 2861   2.667   0.258  10.230  0.4459 -0.0532  0.6960
  188MPD1    C4 2862   2.643   0.299  10.359  0.5959  0.5152  0.7582
  188MPD1    C5 2863   2.709   0.406  10.408  0.0248 -0.2049  0.5940
  188MPD1     H 2864   2.758   0.320  10.043 -0.8717 -0.8110  0.5319
  188MPD1    H1 2865   2.588   0.241  10.433  2.3686  0.6206  2.1514
  188MPD1    H2 2866   2.818   0.584  10.364  0.1721  0.9606 -1.8006
  188MPD1    H3 2867   2.695   0.433  10.512 -0.3434 -1.3676  0.8464
  188MPD1     N 2868   2.605   0.137  10.185 -0.2645  0.8699  0.3081
  188MPD1    H5 2869   2.573   0.084  10.265  2.2164  0.8051  1.2722
  188MPD1    N1 2870   2.858   0.541  10.106  0.0550 -0.0092 -0.3698
  188MPD1    H6 2871   2.825   0.555  10.010 -0.2971 -0.2313 -0.2812
  188MPD1    H7 2872   2.870   0.637  10.138  0.3665  0.3218 -1.4629
  189MPD1     C 2873   4.547   1.571   0.676  0.6571 -0.4377  0.9457
  189MPD1    C1 2874   4.458   1.521   0.584  0.4763  0.4349  0.2345
  189MPD1    C2 2875   4.396   1.610   0.501 -0.1355 -0.2357  0.2824
  189MPD1    C3 2876   4.412   1.747   0.511  0.4804  0.0547 -0.8462
  189MPD1    C4 2877   4.485   1.795   0.613  0.1634 -0.3652  0.3624
  189MPD1    C5 2878   4.556   1.711   0.689  0.4858  0.7939 -0.0287
  189MPD1     H 2879   4.329   1.569   0.426  0.3329 -0.3264 -0.0894
  189MPD1    H1 2880   4.494   1.902   0.634 -1.2859 -0.3272  0.7978
  189MPD1    H2 2881   4.609   1.514   0.745 -0.3341 -0.6180  1.6791
  189MPD1    H3 2882   4.612   1.750   0.773 -0.5805 -2.0867  1.9917
  189MPD1     N 2883   4.333   1.826   0.415  0.2768  0.4836 -0.2583
  189MPD1    H5 2884   4.281   1.783   0.338 -1.8140 -1.0869  2.0230
  189MPD1    N1 2885   4.448   1.385   0.572  1.2589 -0.4750  0.4978
  189MPD1    H6 2886   4.474   1.341   0.659 -1.6500 -0.9504  1.1438
  189MPD1    H7 2887   4.355   1.359   0.539  0.4157  0.1318  2.4056
  190MPD1     C 2888   3.314   4.489  16.379  0.5115 -0.0182  0.3998
  190MPD1    C1 2889   3.358   4.620  16.392  0.4898  0.1390  0.1659
  190MPD1    C2 2890   3.481   4.644  16.323 -0.1571  0.7577  0.3357
  190MPD1    C3 2891   3.545   4.550  16.248  0.6958 -0.3297 -0.0960
  190MPD1    C4 2892   3.498   4.422  16.234 -0.3030 -0.3297  0.0475
  190MPD1    C5 2893   3.377   4.396  16.303 -0.2011 -0.2357 -0.1766
  190MPD1     H 2894   3.531   0.018  16.330 -1.5174  1.4441  0.5983
  190MPD1    H1 2895   3.552   4.345  16.180 -2.4310 -1.8840  0.1310
  190MPD1    H2 2896   3.229   4.459  16.439 -0.1854  0.8387 -0.1657
  190MPD1    H3 2897   3.342   4.293  16.306  1.5626 -0.7921  1.9115
  190MPD1     N 2898   3.663   4.587  16.172 -0.1810  0.0338  0.2881
  190MPD1    H5 2899   3.699   4.679  16.196 -0.4726  0.3900 -0.6689
  190MPD1    N1 2900   3.304   4.710  16.487  0.5020 -0.3147  0.1071
  190MPD1    H6 2901   3.204   4.692  16.495  0.4796  0.3170  1.1446
  190MPD1    H7 2902   3.315   0.086  16.462  1.9920 -0.4123  0.4219
  191MPD1     C 2903   3.410   0.916  13.052  0.3077 -0.0243  0.0168
  191MPD1    C1 2904   3.286   0.935  12.997 -0.3206  0.8749  0.1883
  191MPD1    C2 2905   3.266   1.042  12.911  1.0210  0.2839  0.2865
  191MPD1    C3 2906   3.375   1.123  12.878  0.0892 -0.0576  0.2909
  191MPD1    C4 2907   3.503   1.096  12.930 -0.6900 -0.4802 -0.1976
  191MPD1    C5 2908   3.516   0.997  13.023  0.0520  0.3727  0.5568
  191MPD1     H 2909   3.172   1.065  12.862  1.2322  0.1432 -0.1883
  191MPD1    H1 2910   3.589   1.156  12.903  0.3872 -0.4016  3.4780
  191MPD1    H2 2911   3.426   0.841  13.129  3.9849 -0.9931 -1.7032
  191MPD1    H3 2912   3.611   0.980  13.073  0.9325 -0.7792 -1.4986
  191MPD1     N 2913   3.359   1.227  12.779  0.0632  0.6110  0.0493
  191MPD1    H5 2914   3.284   1.208  12.713  0.2662  0.1707 -0.0560
  191MPD1    N1 2915   3.199   0.831  13.006 -0.5666  0.2961  0.1949
  191MPD1    H6 2916   3.231   0.782  13.090  0.2191 -1.6448 -1.2446
  191MPD1    H7 2917   3.104   0.866  13.017 -0.2570  0.8979  0.9375
  192MPD1     C 2918   2.768   1.561  12.059 -0.0189 -0.6712  0.2327
  192MPD1    C1 2919   2.766   1.462  12.154 -0.1432 -0.1227 -0.6560
  192MPD1    C2 2920   2.878   1.452  12.234 -0.1292 -0.1002 -0.0601
  192MPD1    C3 2921   2.987   1.541  12.230 -0.0810  1.0621  0.7107
  192MPD1    C4 2922   2.989   1.626  12.122 -1.3553 -0.8265 -0.2759
  192MPD1    C5 2923   2.878   1.636  12.040 -0.2325 -0.0895 -0.3144
  192MPD1     H 2924   2.887   1.361  12.293 -0.4259  0.4152  0.7781
  192MPD1    H1 2925   3.077   1.689  12.106 -0.0852 -2.3062  0.8673
  192MPD1    H2 2926   2.680   1.582  11.998  1.0508  1.1736 -0.6783
  192MPD1    H3 2927   2.880   1.714  11.964  1.6353 -2.2061 -2.4445
  192MPD1     N 2928   3.099   1.538  12.308 -0.2947 -0.1956  0.1218
  192MPD1    H5 2929   3.171   1.609  12.298  0.6990 -0.9680  1.7257
  192MPD1    N1 2930   2.653   1.392  12.189 -0.3236  0.2471 -0.2869
  192MPD1    H6 2931   2.588   1.378  12.112  1.0698  0.9278 -1.5733
  192MPD1    H7 2932   2.666   1.303  12.237 -0.9027 -1.0137 -2.4683
  193MPD1     C 2933   3.392   1.461  16.396 -0.0808  0.3213 -0.5072
  193MPD1    C1 2934   3.394   1.511  16.526  0.3063 -0.0689 -0.4045
  193MPD1    C2 2935   3.428   1.645  16.550  0.2372  0.2663  0.0000
  193MPD1    C3 2936   3.442   1.734  16.441 -0.5034 -0.8991  0.1941
  193MPD1    C4 2937   3.423   1.684  16.313 -0.1294 -0.9601 -0.4165
  193MPD1    C5 2938   3.396   1.551  16.289  0.4777 -0.3224 -0.2438
  193MPD1     H 2939   3.432   1.690  16.649 -0.8476 -0.6580  0.4648
  193MPD1    H1 2940   3.428   1.754  16.230  0.6567 -2.7292 -1.8572
  193MPD1    H2 2941   3.375   1.357  16.373  2.3062 -0.4119  0.9191
  193MPD1    H3 2942   3.383   1.520  16.186 -1.7329  2.7919 -0.9136
  193MPD1     N 2943   3.476   1.873  16.438  0.8256  0.3249  0.0195
  193MPD1    H5 2944   3.502   1.909  16.346  0.7058  2.7295  0.9229
  193MPD1    N1 2945   3.402   1.421  16.631 -0.1327 -0.1850  0.1939
  193MPD1    H6 2946   3.329   1.353  16.611  0.1909 -0.9065  1.4227
  193MPD1    H7 2947   3.392   1.463  16.723 -2.9577 -0.4806  0.0157
  194MPD1     C 2948   1.002   4.561  16.991  0.1308 -0.1791  1.0401
  194MPD1    C1 2949   0.970   4.524  16.861  0.7678  0.4269  0.2065
  194MPD1    C2 2950   0.951   4.392  16.839 -0.1113 -1.0359 -0.3314
  194MPD1    C3 2951   0.950   4.301  16.940  0.2700  0.2285  0.4950
  194MPD1    C4 2952   0.982   4.337  17.065 -0.5700 -0.1547 -0.1975
  194MPD1    C5 2953   1.004   4.467  17.090 -0.1314 -0.8080  0.4448
  194MPD1     H 2954   0.951   4.360  16.735  2.1328 -1.8472 -0.0917
  194MPD1    H1 2955   0.989   4.261  17.142  1.1710 -0.7694 -0.9874
  194MPD1    H2 2956   1.024   4.663  17.020 -0.2066  0.7722 -1.9521
  194MPD1    H3 2957   1.012   4.491  17.196 -0.2040 -1.2961  0.5630
  194MPD1     N 2958   0.929   4.166  16.916 -0.5506 -0.3310 -0.4699
  194MPD1    H5 2959   0.920   4.115  17.003 -0.4258  0.4380  0.0018
  194MPD1    N1 2960   0.988   4.611  16.747 -0.0718  0.8879 -0.1870
  194MPD1    H6 2961   0.925   4.582  16.672  1.6143  1.2596 -1.7309
  194MPD1    H7 2962   0.979   4.708  16.775  0.1012  0.5760  0.9257
  195MPD1     C 2963   2.646   0.229  17.090 -0.0806 -0.0200  0.0945
  195MPD1    C1 2964   2.662   0.107  17.034 -0.0246 -0.5607  0.9994
  195MPD1    C2 2965   2.606   4.722  17.098  0.6985  0.0666 -0.4329
  195MPD1    C3 2966   2.544   0.007  17.218 -0.4377  0.4570  0.3468
  195MPD1    C4 2967   2.542   0.133  17.282 -0.0982  0.5750 -0.4799
  195MPD1    C5 2968   2.590   0.241  17.212 -0.1987 -0.4161 -0.1470
  195MPD1     H 2969   2.613   4.625  17.051 -1.0516 -1.1713  1.8484
  195MPD1    H1 2970   2.486   0.150  17.373 -0.1416 -0.0344 -0.3955
  195MPD1    H2 2971   2.685   0.314  17.034 -1.9263 -0.3536 -1.7012
  195MPD1    H3 2972   2.594   0.338  17.259 -0.0998 -0.8722  0.7856
  195MPD1     N 2973   2.497   4.622  17.295 -0.0445 -0.2528 -0.0005
  195MPD1    H5 2974   2.437   4.645  17.373 -0.4118  0.0708 -0.3734
  195MPD1    N1 2975   2.718   0.093  16.907 -0.3451  0.4805 -0.1834
  195MPD1    H6 2976   2.764   0.003  16.898 -1.2315  0.0963 -0.9443
  195MPD1    H7 2977   2.785   0.169  16.894  1.0254 -0.7043 -0.0084
  196MPD1     C 2978   2.674   0.833   0.779  0.0739  0.2627  0.0214
  196MPD1    C1 2979   2.737   0.752   0.875  0.2900  0.8383 -0.2122
  196MPD1    C2 2980   2.776   0.819   0.998  0.1400  0.2407 -0.6924
  196MPD1    C3 2981   2.731   0.951   1.022 -0.8228  0.7752  0.2012
  196MPD1    C4 2982   2.652   1.017   0.930  0.2128 -0.1090  0.1233
  196MPD1    C5 2983   2.626   0.955   0.814  0.4042  0.2711 -0.3010
  196MPD1     H 2984   2.846   0.772   1.065  1.5161  0.7836 -1.7497
  196MPD1    H1 2985   2.622   1.121   0.938  0.2909 -0.1890  1.4407
  196MPD1    H2 2986   2.656   0.787   0.682 -1.3100  1.4706 -0.2895
  196MPD1    H3 2987   2.569   1.009   0.739 -2.2077  1.5904  2.6554
  196MPD1     N 2988   2.763   1.028   1.140 -0.0084  0.3148 -0.6330
  196MPD1    H5 2989   2.722   1.121   1.147  0.6205  0.5882 -0.5724
  196MPD1    N1 2990   2.804   0.631   0.847  0.4041  0.0407 -0.2188
  196MPD1    H6 2991   2.823   0.573   0.928 -0.2848 -1.4783 -1.1403
  196MPD1    H7 2992   2.750   0.565   0.791 -0.5570  1.4308 -0.9170
  197MPD1     C 2993   1.420   2.809  17.677  0.2282 -0.2017 -0.2531
  197MPD1    C1 2994   1.539   2.762  17.643  1.2355  0.5388  0.6284
  197MPD1    C2 2995   1.591   2.802  17.516 -0.4702 -0.0826 -0.5978
  197MPD1    C3 2996   1.510   2.877  17.425 -0.0127  0.3614 -0.4417
  197MPD1    C4 2997   1.383   2.906  17.461  0.0074  0.2766 -0.4458
  197MPD1    C5 2998   1.342   2.876  17.588  0.7521 -0.0140 -0.5046
  197MPD1     H 2999   1.693   2.776  17.492 -0.1385  1.5956 -1.0198
  197MPD1    H1 3000   1.326   2.985  17.413 -0.1548 -0.1831 -1.0000
  197MPD1    H2 3001   1.372   2.781   0.079  1.6824  0.0765  0.5911
  197MPD1    H3 3002   1.243   2.904  17.622  2.5303  1.1751  3.6389
  197MPD1     N 3003   1.558   2.936  17.307 -0.1336  0.8291  0.5616
  197MPD1    H5 3004   1.488   2.982  17.250 -1.0317 -1.1754  0.0558
  197MPD1    N1 3005   1.618   2.698   0.043  0.6498 -0.2500  0.9843
  197MPD1    H6 3006   1.567   2.622   0.086 -1.7673  1.8338  1.7932
  197MPD1    H7 3007   1.701   2.658  17.690 -0.2816 -0.7139 -0.3451
  198MPD1     C 3008   0.381   0.719  16.373 -0.4205 -0.2065 -0.8497
  198MPD1    C1 3009   0.391   0.853  16.364  0.4108  0.0097 -0.3437
  198MPD1    C2 3010   0.304   0.920  16.278 -0.4298  0.2711  0.5397
  198MPD1    C3 3011   0.216   0.848  16.199  0.4119 -0.3140  0.9755
  198MPD1    C4 3012   0.215   0.704  16.215  0.4549  0.4645  0.1060
  198MPD1    C5 3013   0.300   0.645  16.298  0.1891  0.0072 -0.0679
  198MPD1     H 3014   0.320   1.027  16.286 -1.9130  0.4672  0.8362
  198MPD1    H1 3015   0.138   0.639  16.175  1.6235 -0.0324 -1.3362
  198MPD1    H2 3016   0.461   0.664  16.422 -0.7274 -0.7326 -0.9367
  198MPD1    H3 3017   0.310   0.537  16.305  0.8389  0.1733  1.6200
  198MPD1     N 3018   0.115   0.911  16.131  0.1081 -0.6580  0.4776
  198MPD1    H5 3019   0.126   1.012  16.123  0.2098 -0.6809  0.3242
  198MPD1    N1 3020   0.456   0.924  16.459  0.1638  0.5135 -0.0651
  198MPD1    H6 3021   0.537   0.877  16.499 -0.8190  0.8713  2.3803
  198MPD1    H7 3022   0.486   1.018  16.433  0.3239  0.1568 -1.1482
  199MPD1     C 3023   0.704   1.230   9.562  0.2371 -0.3627  0.0522
  199MPD1    C1 3024   0.723   1.334   9.652 -0.1740 -0.2695  0.2898
  199MPD1    C2 3025   0.677   1.458   9.618  0.4547 -0.2249  0.6175
  199MPD1    C3 3026   0.584   1.472   9.512  0.0535  0.4768  0.4665
  199MPD1    C4 3027   0.567   1.362   9.430 -0.3267 -0.6751 -0.1355
  199MPD1    C5 3028   0.627   1.247   9.451 -0.4906  0.2099 -0.3689
  199MPD1     H 3029   0.708   1.543   9.678  0.5278 -1.8010  2.7764
  199MPD1    H1 3030   0.516   1.378   9.335  0.6010  2.9237 -0.0217
  199MPD1    H2 3031   0.744   1.135   9.597 -0.8955 -1.5557 -1.9397
  199MPD1    H3 3032   0.632   1.166   9.379 -0.9613  0.2800 -0.4817
  199MPD1     N 3033   0.535   1.599   9.468  0.3270  0.1865  0.0239
  199MPD1    H5 3034   0.461   1.597   9.399  0.4431 -2.3458 -0.0163
  199MPD1    N1 3035   0.822   1.326   9.752 -0.1817  0.1380  0.1750
  199MPD1    H6 3036   0.832   1.237   9.800 -0.5377 -0.5110 -0.9672
  199MPD1    H7 3037   0.828   1.390   9.831 -0.9905 -0.2876  0.5772
  200MPD1     C 3038   4.448   2.440  15.235 -0.4655 -0.3133  0.3468
  200MPD1    C1 3039   4.568   2.414  15.290  0.3676 -0.4928 -0.9996
  200MPD1    C2 3040   4.682   2.412  15.212 -0.0805  0.3352  0.4684
  200MPD1    C3 3041   4.675   2.421  15.077  0.1667 -0.1675 -0.5027
  200MPD1    C4 3042   4.559   2.456  15.020 -0.0467  0.0310 -0.2872
  200MPD1    C5 3043   4.446   2.467  15.099 -0.8931  1.0231  0.4442
  200MPD1     H 3044   0.055   2.380  15.253  0.3633 -0.0407 -0.8632
  200MPD1    H1 3045   4.550   2.462  14.912 -0.4475 -1.4438 -0.3348
  200MPD1    H2 3046   4.351   2.439  15.283 -0.4717  1.8636  0.3979
  200MPD1    H3 3047   4.350   2.500  15.063 -1.0235 -0.5631 -0.6734
  200MPD1     N 3048   0.068   2.402  15.001  0.1861  0.5991  0.2821
  200MPD1    H5 3049   0.154   2.389  15.052  0.9691 -1.0516 -1.4615
  200MPD1    N1 3050   4.557   2.359  15.423  0.7031 -0.0279 -0.2604
  200MPD1    H6 3051   4.652   2.356  15.461  0.6020  0.9468  0.0533
  200MPD1    H7 3052   4.501   2.426  15.475  0.8324 -0.3238  0.2646
  201MPD1     C 3053   1.775   1.129  13.302 -0.7612 -0.6642  0.2821
  201MPD1    C1 3054   1.890   1.138  13.235  0.1153  0.1398 -0.0175
  201MPD1    C2 3055   1.942   1.014  13.192  0.4745 -0.0279  0.3021
  201MPD1    C3 3056   1.880   0.892  13.208  0.4142 -0.0784 -0.0818
  201MPD1    C4 3057   1.766   0.892  13.277  0.3021  0.5935  0.2050
  201MPD1    C5 3058   1.712   1.007  13.323 -0.4626  0.1840 -0.1575
  201MPD1     H 3059   2.037   1.020  13.140  0.1260 -2.4962 -0.6518
  201MPD1    H1 3060   1.704   0.806  13.303 -1.2429  1.0148 -2.0800
  201MPD1    H2 3061   1.734   1.214  13.355  4.0100  0.4294  2.1667
  201MPD1    H3 3062   1.620   1.017  13.379 -0.8957  1.9819 -1.1926
  201MPD1     N 3063   1.932   0.775  13.149  0.2471 -0.4499 -0.3811
  201MPD1    H5 3064   2.025   0.780  13.107 -1.4785 -2.8654 -4.3966
  201MPD1    N1 3065   1.955   1.260  13.231  0.1600 -0.0405 -0.2044
  201MPD1    H6 3066   2.027   1.270  13.160 -0.3651  0.2691 -0.7043
  201MPD1    H7 3067   1.897   1.344  13.230 -2.2414 -1.6491  2.1141
  202MPD1     C 3068   2.123   0.393   9.575 -0.0915 -0.1503 -0.4336
  202MPD1    C1 3069   2.137   0.258   9.597  0.1570 -0.2285 -0.0681
  202MPD1    C2 3070   2.155   0.223   9.727  1.1741 -0.6726 -0.5613
  202MPD1    C3 3071   2.125   0.312   9.827 -0.4597  0.1050  0.5129
  202MPD1    C4 3072   2.103   0.443   9.802  0.3325  0.3725 -0.0698
  202MPD1    C5 3073   2.106   0.482   9.674 -0.3716 -0.2393  0.2504
  202MPD1     H 3074   2.178   0.119   9.752 -1.0636 -1.4730 -1.8736
  202MPD1    H1 3075   2.085   0.519   9.879  4.2731 -0.6338  1.8195
  202MPD1    H2 3076   2.122   0.430   9.473  0.2805  0.6916 -0.1319
  202MPD1    H3 3077   2.100   0.587   9.647  0.5100 -0.3862 -0.5259
  202MPD1     N 3078   2.124   0.274   9.963 -0.4472  0.2798  0.2001
  202MPD1    H5 3079   2.127   0.347  10.034 -0.4668  0.2974  0.1828
  202MPD1    N1 3080   2.189   0.173   9.498  0.2791 -0.1284  0.4696
  202MPD1    H6 3081   2.159   0.080   9.526  1.3404 -0.1405  1.5581
  202MPD1    H7 3082   2.152   0.189   9.404 -0.9805 -1.8617  0.6720
  203MPD1     C 3083   1.280   1.769  13.085  0.9080  0.6563 -0.3697
  203MPD1    C1 3084   1.193   1.703  13.180  0.0275  0.5292 -0.2115
  203MPD1    C2 3085   1.152   1.576  13.148  0.4960  0.2049 -0.1499
  203MPD1    C3 3086   1.215   1.502  13.046 -0.6343 -0.2613 -0.2414
  203MPD1    C4 3087   1.306   1.570  12.959 -0.4150 -0.0991  0.3774
  203MPD1    C5 3088   1.329   1.701  12.983 -0.1230  0.8748  0.4149
  203MPD1     H 3089   1.093   1.525  13.223  1.4220 -0.8392 -0.1253
  203MPD1    H1 3090   1.349   1.525  12.870 -0.8164 -0.4636  0.3698
  203MPD1    H2 3091   1.303   1.874  13.101 -2.5662  1.1035  1.8611
  203MPD1    H3 3092   1.392   1.745  12.907 -1.9824  1.8623 -0.5570
  203MPD1     N 3093   1.168   1.369  13.023 -0.5770 -0.6964 -0.1429
  203MPD1    H5 3094   1.102   1.331  13.089  0.3000 -1.8323  0.0858
  203MPD1    N1 3095   1.136   1.762  13.293  0.2555  0.0947 -0.2580
  203MPD1    H6 3096   1.162   1.723  13.383  0.0808  0.5097 -0.0292
  203MPD1    H7 3097   1.170   1.858  13.292  1.2737 -0.2681 -0.7114
  204MPD1     C 3098   0.660   3.549  17.546 -0.3340 -0.8374  0.5322
  204MPD1    C1 3099   0.596   3.449  17.620 -0.2495 -0.2444 -0.2214
  204MPD1    C2 3100   0.596   3.320  17.570  0.4421  0.2007 -0.2142
  204MPD1    C3 3101   0.641   3.290  17.440 -0.2063  0.3673  0.1958
  204MPD1    C4 3102   0.691   3.393  17.364 -0.6850  0.6098  0.0282
  204MPD1    C5 3103   0.698   3.520  17.419  0.1009  0.2074  0.0338
  204MPD1     H 3104   0.554   3.240  17.629 -0.9780  1.7157  0.8159
  204MPD1    H1 3105   0.718   3.381  17.260  0.3517 -1.0850  0.4770
  204MPD1    H2 3106   0.662   3.654  17.571 -0.8934 -0.9308  0.9790
  204MPD1    H3 3107   0.731   3.595  17.349 -0.0316  0.3814  0.1568
  204MPD1     N 3108   0.627   3.160  17.382 -0.0122  0.5655  0.0667
  204MPD1    H5 3109   0.613   3.081  17.445  0.7589  0.5057  0.1711
  204MPD1    N1 3110   0.559   3.477   0.067  0.2111  0.0102  0.6390
  204MPD1    H6 3111   0.528   3.572   0.089 -0.1297  0.6174 -2.4659
  204MPD1    H7 3112   0.481   3.421   0.101 -0.6787  0.6359 -0.3594
  205MPD1     C 3113   1.300   1.495   0.317  0.0481  0.1178 -0.6568
  205MPD1    C1 3114   1.267   1.542   0.190  0.5364 -0.1718  0.6452
  205MPD1    C2 3115   1.180   1.644   0.192 -0.8984 -0.0978 -0.0456
  205MPD1    C3 3116   1.123   1.707   0.307 -0.2395 -0.0127  0.6537
  205MPD1    C4 3117   1.154   1.643   0.426  0.6553 -0.7268 -0.9131
  205MPD1    C5 3118   1.242   1.539   0.433 -0.1143 -0.2004 -0.9339
  205MPD1     H 3119   1.146   1.673   0.093 -2.0090 -1.0317  0.0544
  205MPD1    H1 3120   1.115   1.684   0.519  1.1934 -1.5443 -0.3196
  205MPD1    H2 3121   1.376   1.418   0.326 -0.0503 -0.2882 -3.4758
  205MPD1    H3 3122   1.276   1.500   0.528  1.2286 -0.6180 -1.5779
  205MPD1     N 3123   1.034   1.814   0.314  0.0716  0.0816 -0.0225
  205MPD1    H5 3124   0.996   1.848   0.402  0.4022  1.4682 -0.4230
  205MPD1    N1 3125   1.333   1.505   0.077 -0.3914  0.2054 -0.1990
  205MPD1    H6 3126   1.402   1.431   0.091  1.7411  2.1125 -0.7146
  205MPD1    H7 3127   1.280   1.482  17.684 -1.8582  0.5664  0.6418
  206MPD1     C 3128   1.295   3.551  16.680  0.0275  0.4967 -0.0275
  206MPD1    C1 3129   1.180   3.620  16.707 -0.2072 -0.4230 -0.2339
  206MPD1    C2 3130   1.128   3.691  16.606  0.9315  0.1346 -0.2002
  206MPD1    C3 3131   1.173   3.674  16.477 -0.1535 -0.3090  0.5367
  206MPD1    C4 3132   1.278   3.589  16.442  0.4214 -0.2339  0.4067
  206MPD1    C5 3133   1.338   3.535  16.549 -0.0298 -0.4276  0.2932
  206MPD1     H 3134   1.038   3.751  16.618  0.3750 -0.1121 -3.0158
  206MPD1    H1 3135   1.315   3.567  16.342 -1.1048 -1.9456  0.2117
  206MPD1    H2 3136   1.363   3.511  16.755  0.6817  2.0536  0.2087
  206MPD1    H3 3137   1.437   3.490  16.548 -1.8939 -4.4918 -1.7739
  206MPD1     N 3138   1.126   3.745  16.366  0.8650  0.2437  0.0605
  206MPD1    H5 3139   1.183   3.734  16.282  0.5510  0.4360 -0.1781
  206MPD1    N1 3140   1.146   3.640  16.841 -0.1944 -0.1438  0.4437
  206MPD1    H6 3141   1.045   3.651  16.838 -0.0324  1.6310  1.6769
  206MPD1    H7 3142   1.174   3.557  16.892  2.5551  2.0218  2.4622
  207MPD1     C 3143   3.895   2.837   9.586 -0.7629 -0.1015 -0.2218
  207MPD1    C1 3144   3.806   2.746   9.642  0.0203 -0.1743  0.7280
  207MPD1    C2 3145   3.859   2.627   9.696 -0.1203 -0.0017 -1.0397
  207MPD1    C3 3146   3.987   2.586   9.663  0.0180  0.7833 -0.4169
  207MPD1    C4 3147   4.063   2.674   9.591 -0.0279  0.3312 -0.2828
  207MPD1    C5 3148   4.020   2.799   9.570 -0.1320 -0.5998 -0.3250
  207MPD1     H 3149   3.791   2.570   9.758 -1.5476  1.1223 -1.5934
  207MPD1    H1 3150   4.162   2.647   9.557 -0.7739 -1.9120 -0.7163
  207MPD1    H2 3151   3.866   2.932   9.541 -0.1457  1.2450  2.2498
  207MPD1    H3 3152   4.080   2.876   9.524 -0.3305 -0.6477 -0.6602
  207MPD1     N 3153   4.023   2.450   9.683  0.0306 -0.0221  0.3007
  207MPD1    H5 3154   4.120   2.426   9.664  0.3482  0.6225  1.1405
  207MPD1    N1 3155   3.675   2.787   9.683  0.0706  0.2314  0.3267
  207MPD1    H6 3156   3.606   2.712   9.686 -0.4047  0.6229 -1.0846
  207MPD1    H7 3157   3.652   2.846   9.604 -1.5018  0.6146  1.0513
  208MPD1     C 3158   0.565   0.465   1.090  0.3454  0.6367 -0.0095
  208MPD1    C1 3159   0.654   0.538   1.161 -0.1553 -0.1865 -0.1687
  208MPD1    C2 3160   0.652   0.671   1.138 -0.0411 -0.0290  0.3131
  208MPD1    C3 3161   0.573   0.729   1.033  0.0680  0.0439 -0.0364
  208MPD1    C4 3162   0.497   0.647   0.957  0.4401  0.3324  0.3730
  208MPD1    C5 3163   0.490   0.515   0.984 -0.2018 -0.1047  0.5466
  208MPD1     H 3164   0.724   0.732   1.193 -1.0228  1.2710  0.1696
  208MPD1    H1 3165   0.425   0.690   0.888 -1.3839 -1.4600  1.1763
  208MPD1    H2 3166   0.562   0.357   1.103 -1.5102  0.6118 -0.6035
  208MPD1    H3 3167   0.431   0.448   0.923 -1.9586  1.1593  0.8557
  208MPD1     N 3168   0.604   0.868   1.003 -0.1757  0.3507  0.1915
  208MPD1    H5 3169   0.663   0.921   1.067  2.5936  1.2222 -3.1179
  208MPD1    N1 3170   0.729   0.482   1.266  0.1495 -0.1022  0.2371
  208MPD1    H6 3171   0.759   0.389   1.236  2.7386 -0.0726  2.7590
  208MPD1    H7 3172   0.807   0.541   1.295  0.1318 -0.5014  1.0628
  209MPD1     C 3173   3.646   0.862  11.021 -0.2038 -0.9756  0.2882
  209MPD1    C1 3174   3.676   0.978  11.090  0.0387  0.2423 -0.0353
  209MPD1    C2 3175   3.714   1.087  11.018 -0.6400  0.3563 -0.6211
  209MPD1    C3 3176   3.711   1.101  10.885 -0.7929  0.0612  0.1514
  209MPD1    C4 3177   3.670   0.990  10.806  0.4041  0.4377 -0.0335
  209MPD1    C5 3178   3.641   0.877  10.884 -0.8594 -0.1513  0.3288
  209MPD1     H 3179   3.738   1.177  11.074 -0.1404 -0.1600 -0.0024
  209MPD1    H1 3180   3.674   0.992  10.698 -0.3948 -0.3273 -0.0767
  209MPD1    H2 3181   3.630   0.767  11.070  0.1025 -1.7568 -1.1513
  209MPD1    H3 3182   3.609   0.785  10.837 -1.2660  0.5474 -0.7688
  209MPD1     N 3183   3.778   1.217  10.829  0.2846 -0.3875 -0.1634
  209MPD1    H5 3184   3.827   1.267  10.903  0.4653  1.2362 -1.3811
  209MPD1    N1 3185   3.692   0.975  11.231 -0.1596 -0.2134 -0.4668
  209MPD1    H6 3186   3.681   1.064  11.279 -3.0259  0.1108 -1.7612
  209MPD1    H7 3187   3.651   0.893  11.276  1.2365 -0.1918  0.8288
  210MPD1     C 3188   4.628   1.727  10.837  0.1500  0.0598 -0.3842
  210MPD1    C1 3189   4.535   1.691  10.935 -0.3875 -0.6043  0.1545
  210MPD1    C2 3190   4.416   1.630  10.902 -0.3883  0.5561 -0.2822
  210MPD1    C3 3191   4.395   1.608  10.768  0.1089 -0.4493  0.1665
  210MPD1    C4 3192   4.490   1.642  10.675  0.8825  1.0368  0.0564
  210MPD1    C5 3193   4.609   1.701  10.706 -0.1712  0.7984  0.0137
  210MPD1     H 3194   4.342   1.598  10.974 -0.9388  0.0744 -1.0664
  210MPD1    H1 3195   4.474   1.626  10.569  1.0388  0.6642  0.0880
  210MPD1    H2 3196   4.719   1.779  10.861  0.4182  0.6121 -2.5914
  210MPD1    H3 3197   4.676   1.741  10.632  0.4716 -2.6406 -1.2427
  210MPD1     N 3198   4.280   1.553  10.711 -0.4113  0.2165 -0.1051
  210MPD1    H5 3199   4.271   1.542  10.611 -0.7695 -0.9645  0.0584
  210MPD1    N1 3200   4.564   1.725  11.069 -0.1670  0.4383  0.5856
  210MPD1    H6 3201   4.649   1.781  11.073  0.9649 -1.2911  0.7651
  210MPD1    H7 3202   4.487   1.778  11.110  1.8253  0.0192  4.8175
  211MPD1     C 3203   1.905   1.341  16.958 -0.4640 -0.2053  1.2253
  211MPD1    C1 3204   1.775   1.344  16.977  0.2692  0.4265  0.0919
  211MPD1    C2 3205   1.701   1.444  16.911 -0.1654 -0.3185  0.1571
  211MPD1    C3 3206   1.763   1.546  16.838  0.5389  0.2538 -0.2001
  211MPD1    C4 3207   1.898   1.536  16.815  0.1057 -0.4984  0.5071
  211MPD1    C5 3208   1.966   1.434  16.878 -0.1983 -0.1084 -0.3646
  211MPD1     H 3209   1.593   1.444  16.909 -0.1811  0.8618  1.8879
  211MPD1    H1 3210   1.959   1.608  16.761  0.6221  0.6889  2.6930
  211MPD1    H2 3211   1.959   1.255  16.999  0.7487  0.4075  0.9201
  211MPD1    H3 3212   2.073   1.426  16.862 -0.5852 -2.7256 -1.5552
  211MPD1     N 3213   1.676   1.638  16.767  0.2341 -0.3893 -0.3082
  211MPD1    H5 3214   1.579   1.655  16.792  0.6695  1.6765 -0.0022
  211MPD1    N1 3215   1.707   1.243  17.054  0.2628  0.1575  0.2559
  211MPD1    H6 3216   1.615   1.220  17.016  0.4437  0.9151 -0.6597
  211MPD1    H7 3217   1.761   1.157  17.061  0.4441  0.1830 -0.8380
  212MPD1     C 3218   0.779   4.588  16.477  0.0527 -0.9743 -0.1268
  212MPD1    C1 3219   0.695   4.669  16.543  0.5928 -0.3241 -0.0157
  212MPD1    C2 3220   0.581   4.624  16.611  0.1659  0.5993  0.6246
  212MPD1    C3 3221   0.555   4.488  16.627  0.3872  0.8134 -0.2519
  212MPD1    C4 3222   0.651   4.402  16.564 -0.6317  0.1204  0.5788
  212MPD1    C5 3223   0.760   4.454  16.494  0.0647 -1.1739 -0.0728
  212MPD1     H 3224   0.524   4.696  16.669  1.0654  1.4665  0.4207
  212MPD1    H1 3225   0.646   4.294  16.573 -0.7401 -0.1575 -2.8402
  212MPD1    H2 3226   0.862   4.632  16.423 -2.1593  2.2620 -0.8506
  212MPD1    H3 3227   0.828   4.384  16.447  0.1736  0.0892 -1.7793
  212MPD1     N 3228   0.452   4.429  16.702  0.0432  0.5563  0.5462
  212MPD1    H5 3229   0.450   4.328  16.706  1.0559  0.5453  0.8158
  212MPD1    N1 3230   0.723   0.084  16.533 -0.4955 -0.8968  0.2262
  212MPD1    H6 3231   0.693   0.146  16.608 -0.1658  3.4206 -3.2592
  212MPD1    H7 3232   0.824   0.096  16.530 -0.6451  0.4403  0.6814
  213MPD1     C 3233   3.100   0.135  15.810 -0.3798  0.6047  0.3008
  213MPD1    C1 3234   3.099   0.051  15.698 -0.6133  0.2569  0.1513
  213MPD1    C2 3235   3.084   0.116  15.578 -0.1368  0.5543  0.3150
  213MPD1    C3 3236   3.101   0.249  15.559 -0.9400  0.1044 -0.6685
  213MPD1    C4 3237   3.126   0.326  15.671  0.5286  0.0663 -0.4138
  213MPD1    C5 3238   3.121   0.268  15.796  0.1152  0.3781 -0.5549
  213MPD1     H 3239   3.062   0.049  15.496  1.5926  2.2301 -1.5125
  213MPD1    H1 3240   3.139   0.433  15.664  1.7629 -0.1999 -2.1807
  213MPD1    H2 3241   3.117   0.093  15.909 -0.0020 -1.9031 -0.8075
  213MPD1    H3 3242   3.120   0.333  15.883  0.3797  0.0948 -0.3413
  213MPD1     N 3243   3.089   0.302  15.432  0.6621 -0.1941 -0.1776
  213MPD1    H5 3244   3.050   0.235  15.366 -0.4789  0.5960 -0.3057
  213MPD1    N1 3245   3.054   4.637  15.699 -0.0822  0.1254  0.6689
  213MPD1    H6 3246   3.080   4.593  15.787  2.4129  0.0988 -0.0793
  213MPD1    H7 3247   3.090   4.580  15.623  2.4918  1.2219  1.0657
  214MPD1     C 3248   2.719   4.580  14.840  0.1749 -0.1476 -0.2979
  214MPD1    C1 3249   2.682   4.701  14.786  0.4629 -0.1947 -0.3219
  214MPD1    C2 3250   2.713   0.099  14.854  0.2445 -0.3846 -0.1487
  214MPD1    C3 3251   2.769   0.098  14.980  0.5940 -0.3992  0.1958
  214MPD1    C4 3252   2.804   4.699  15.032  0.1138  0.6527 -0.0420
  214MPD1    C5 3253   2.771   4.582  14.965 -0.2289 -0.0905 -0.1696
  214MPD1     H 3254   2.686   0.196  14.813  0.5936 -0.9901 -1.8207
  214MPD1    H1 3255   2.855   4.687  15.127 -0.1388 -1.0119 -0.1275
  214MPD1    H2 3256   2.720   4.486  14.788 -0.1982  0.5156 -1.5019
  214MPD1    H3 3257   2.793   4.485  15.009 -1.4921 -1.4954 -2.6920
  214MPD1     N 3258   2.802   0.212  15.060  0.1426  0.0655 -0.2272
  214MPD1    H5 3259   2.844   0.187  15.149 -0.1162 -0.5412 -0.2748
  214MPD1    N1 3260   2.627   4.696  14.659 -0.4654  0.4836 -0.2866
  214MPD1    H6 3261   2.571   4.612  14.646 -3.3175  2.4353 -0.7461
  214MPD1    H7 3262   2.560   0.048  14.641 -0.8996  0.4068  1.0015
  215MPD1     C 3263   3.299   0.378  10.885 -0.2716 -0.3484 -0.4812
  215MPD1    C1 3264   3.344   0.418  11.009 -0.1014 -0.5583  0.3632
  215MPD1    C2 3265   3.344   0.551  11.053  0.3080  1.6516 -0.3504
  215MPD1    C3 3266   3.307   0.649  10.958  0.0957  0.3107 -0.1853
  215MPD1    C4 3267   3.286   0.607  10.826 -0.4903  0.0820 -0.3946
  215MPD1    C5 3268   3.282   0.473  10.791  0.2277 -0.4295  0.1597
  215MPD1     H 3269   3.368   0.577  11.156 -0.8135  0.4005  0.2209
  215MPD1    H1 3270   3.265   0.687  10.755 -3.2389  0.1159  0.4595
  215MPD1    H2 3271   3.295   0.274  10.854  0.5317 -0.2691 -0.8518
  215MPD1    H3 3272   3.261   0.442  10.689  2.4275  0.0695 -0.4454
  215MPD1     N 3273   3.314   0.786  10.999  0.5885  0.6257  0.0625
  215MPD1    H5 3274   3.355   0.799  11.091  0.9719  0.1691 -0.0457
  215MPD1    N1 3275   3.375   0.317  11.096 -0.0446 -0.4367 -0.0514
  215MPD1    H6 3276   3.410   0.235  11.048 -0.5237 -0.6440 -0.0489
  215MPD1    H7 3277   3.432   0.347  11.175  1.1613  2.1330 -1.8950
  216MPD1     C 3278   0.614   4.278  16.974  0.2491 -0.1073 -0.4047
  216MPD1    C1 3279   0.534   4.175  16.940 -0.5372  0.6597 -0.4289
  216MPD1    C2 3280   0.450   4.118  17.033 -0.5610 -0.0271  0.2563
  216MPD1    C3 3281   0.447   4.167  17.165 -0.5284 -0.3590 -0.6128
  216MPD1    C4 3282   0.531   4.271  17.191 -0.1651  0.4072  0.4254
  216MPD1    C5 3283   0.618   4.323  17.098 -0.4970 -0.1082  0.6069
  216MPD1     H 3284   0.386   4.038  16.998  0.0575  0.6286 -2.3999
  216MPD1    H1 3285   0.544   4.305  17.293 -1.1922  1.0474  0.3472
  216MPD1    H2 3286   0.673   4.333  16.902 -0.6029 -0.2476 -1.2233
  216MPD1    H3 3287   0.681   4.406  17.128  1.6984 -0.8535 -1.9627
  216MPD1     N 3288   0.368   4.097  17.260 -0.7178  0.2940  0.4659
  216MPD1    H5 3289   0.314   4.015  17.235  0.6547 -0.2992 -0.5272
  216MPD1    N1 3290   0.526   4.132  16.810 -0.1379  0.4245 -0.2678
  216MPD1    H6 3291   0.610   4.145  16.753 -0.3007 -2.3448 -1.1192
  216MPD1    H7 3292   0.489   4.039  16.792  1.2457 -0.0751 -0.5649
  217MPD1     C 3293   0.542   4.528   8.694  0.1031  0.7399 -0.5063
  217MPD1    C1 3294   0.479   4.644   8.740 -0.9968 -0.0418  0.4780
  217MPD1    C2 3295   0.543   0.008   8.828 -0.1066 -0.1897  0.0143
  217MPD1    C3 3296   0.678   4.713   8.850  0.1306 -1.1072 -0.3299
  217MPD1    C4 3297   0.742   4.605   8.800  0.7451 -0.6851  0.3343
  217MPD1    C5 3298   0.678   4.515   8.721 -0.3118  0.1422 -0.8658
  217MPD1     H 3299   0.492   0.099   8.859  2.0137  0.2983  2.1026
  217MPD1    H1 3300   0.843   4.595   8.838  1.2730 -1.2617 -1.2189
  217MPD1    H2 3301   0.498   4.468   8.615  0.2562  1.0621 -0.8363
  217MPD1    H3 3302   0.725   4.428   8.675  2.0843  0.8764  0.1598
  217MPD1     N 3303   0.755   0.084   8.934 -0.1579  0.3523  0.2634
  217MPD1    H5 3304   0.855   0.070   8.941 -0.1403 -0.0368 -0.8915
  217MPD1    N1 3305   0.342   4.651   8.731 -0.3500  0.1370  0.3196
  217MPD1    H6 3306   0.310   0.018   8.767 -1.8288  0.5133 -1.9866
  217MPD1    H7 3307   0.304   4.637   8.638  1.3489  0.4265 -0.4032
  218MPD1     C 3308   1.993   0.068  12.227  0.4688 -0.6531  0.3225
  218MPD1    C1 3309   1.950   0.192  12.270 -0.4759  0.2907  0.0061
  218MPD1    C2 3310   2.052   0.275  12.327 -0.1333 -0.3026  0.1909
  218MPD1    C3 3311   2.188   0.244  12.324  0.0636  0.5790 -0.1808
  218MPD1    C4 3312   2.226   0.125  12.267  0.4707  0.5642  0.4729
  218MPD1    C5 3313   2.129   0.039  12.229  0.4473 -0.3023 -0.5278
  218MPD1     H 3314   2.031   0.378  12.353 -0.6416 -0.5596  0.7696
  218MPD1    H1 3315   2.329   0.104  12.242 -0.0525 -0.5297 -0.7814
  218MPD1    H2 3316   1.922   4.716  12.191 -0.7773  0.3897  0.6597
  218MPD1    H3 3317   2.168   4.673  12.178  1.3060 -1.4597  2.1280
  218MPD1     N 3318   2.285   0.327  12.382 -0.2665  0.3119  0.4384
  218MPD1    H5 3319   2.256   0.415  12.424 -2.4700  0.1662 -0.7913
  218MPD1    N1 3320   1.809   0.217  12.275  0.1065 -0.2449 -0.6622
  218MPD1    H6 3321   1.753   0.182  12.197 -2.1480  0.0972  0.8099
  218MPD1    H7 3322   1.795   0.318  12.281 -1.0327 -0.4524  0.0786
  219MPD1     C 3323   2.074   1.126  12.410 -0.3346 -0.0840 -0.4579
  219MPD1    C1 3324   2.209   1.135  12.445  0.4296 -0.2127 -0.4618
  219MPD1    C2 3325   2.285   1.021  12.475 -0.0395  0.2466  0.5136
  219MPD1    C3 3326   2.223   0.893  12.461 -0.5126  0.1206 -0.0890
  219MPD1    C4 3327   2.086   0.888  12.433  0.4154 -0.0612  0.6349
  219MPD1    C5 3328   2.012   1.001  12.399 -0.0718 -0.3445 -0.4804
  219MPD1     H 3329   2.390   1.027  12.497  0.1185  1.5549 -0.6300
  219MPD1    H1 3330   2.024   0.802  12.411 -1.0066  1.0156  0.3725
  219MPD1    H2 3331   2.017   1.218  12.396 -2.9179 -1.8903 -1.8043
  219MPD1    H3 3332   1.904   0.997  12.388 -0.0867 -2.5659  0.5842
  219MPD1     N 3333   2.288   0.768  12.493  0.8232  0.7562  0.0042
  219MPD1    H5 3334   2.230   0.684  12.495 -0.1998  1.4722  0.3002
  219MPD1    N1 3335   2.277   1.260  12.429  0.7152  0.0903  0.1913
  219MPD1    H6 3336   2.361   1.262  12.485  0.0952  0.8747  1.0901
  219MPD1    H7 3337   2.216   1.341  12.436 -1.0291 -1.0957 -1.0556
  220MPD1     C 3338   2.974   1.492   9.303 -0.9547 -0.6564  0.0349
  220MPD1    C1 3339   2.888   1.400   9.363 -0.2928 -0.7570 -0.9569
  220MPD1    C2 3340   2.900   1.381   9.505  0.1202  0.4497  0.0955
  220MPD1    C3 3341   2.967   1.468   9.588 -0.4956 -0.1544  0.1684
  220MPD1    C4 3342   3.034   1.572   9.525  0.4896 -0.4472 -0.2313
  220MPD1    C5 3343   3.043   1.573   9.386 -0.3162 -0.1593 -0.1206
  220MPD1     H 3344   2.854   1.294   9.550 -0.6427  0.3409 -0.9005
  220MPD1    H1 3345   3.084   1.646   9.586  1.0130  0.3128 -1.5680
  220MPD1    H2 3346   2.984   1.511   9.196 -0.5122 -0.4824  0.1038
  220MPD1    H3 3347   3.093   1.659   9.344 -1.1131  0.1117 -0.5127
  220MPD1     N 3348   2.958   1.448   9.730  0.0082  0.3690  0.0010
  220MPD1    H5 3349   2.895   1.378   9.767 -0.7342  0.8648 -0.3035
  220MPD1    N1 3350   2.841   1.297   9.279  0.3819  0.1774  0.3651
  220MPD1    H6 3351   2.757   1.253   9.315 -1.1927  0.5051 -2.8625
  220MPD1    H7 3352   2.813   1.337   9.189  1.7093 -0.5817 -0.3925
  221MPD1     C 3353   0.589   0.954  16.126 -0.2642 -0.5245 -0.9137
  221MPD1    C1 3354   0.643   0.854  16.053  0.1773  0.0152 -0.2307
  221MPD1    C2 3355   0.784   0.846  16.048 -0.2196  0.1286  0.1852
  221MPD1    C3 3356   0.856   0.908  16.148  0.1027 -0.5078  0.1783
  221MPD1    C4 3357   0.800   1.010  16.224  0.3263 -0.3369 -0.8616
  221MPD1    C5 3358   0.667   1.039  16.203 -1.3740 -0.6885  0.0762
  221MPD1     H 3359   0.824   0.772  15.980  0.6776 -0.5271  1.4258
  221MPD1    H1 3360   0.851   1.076  16.293 -0.9946 -0.0939 -0.1086
  221MPD1    H2 3361   0.485   0.980  16.113 -0.4659 -0.0397  1.7123
  221MPD1    H3 3362   0.618   1.128  16.243  0.0305  0.0131  0.2252
  221MPD1     N 3363   0.989   0.870  16.166  0.6451 -0.5805  0.4025
  221MPD1    H5 3364   1.027   0.812  16.092  0.4714  0.8188 -0.7815
  221MPD1    N1 3365   0.569   0.781  15.962 -0.1727 -0.4908  0.5474
  221MPD1    H6 3366   0.626   0.702  15.932  0.2280 -0.3390  0.9081
  221MPD1    H7 3367   0.490   0.748  16.016 -0.2363 -0.2980  0.5717
  222MPD1     C 3368   0.346   4.606  17.119  0.0166  0.7905 -0.3777
  222MPD1    C1 3369   0.295   0.012  17.087 -0.2108 -0.4877 -0.0074
  222MPD1    C2 3370   0.228   0.080  17.181  0.2552  0.1487  0.6049
  222MPD1    C3 3371   0.183   0.031  17.302 -0.0726 -0.0078 -0.3772
  222MPD1    C4 3372   0.221   4.621  17.326 -0.6682 -0.2747 -0.1526
  222MPD1    C5 3373   0.306   4.551  17.239 -1.0489  0.2778 -0.0475
  222MPD1     H 3374   0.191   0.179  17.158 -0.6945 -0.2821  0.2708
  222MPD1    H1 3375   0.190   4.563  17.413 -1.9152  2.0635  0.9649
  222MPD1    H2 3376   0.415   4.549  17.058  1.0341  1.1991  0.3834
  222MPD1    H3 3377   0.337   4.455  17.277  1.5099  0.5751 -1.3593
  222MPD1     N 3378   0.100   0.102  17.395 -0.0959 -1.0561 -0.7345
  222MPD1    H5 3379   0.070   0.045  17.473  0.7622 -0.3231  0.1232
  222MPD1    N1 3380   0.326   0.084  16.970  0.2663  0.2963  0.4434
  222MPD1    H6 3381   0.332   0.020  16.891 -1.0891  1.4960 -0.6492
  222MPD1    H7 3382   0.256   0.155  16.948 -1.1860 -1.5282 -0.7457
  223MPD1     C 3383   0.053   0.250   0.647 -0.6833 -1.0581  0.7278
  223MPD1    C1 3384   0.030   0.381   0.602  0.2974  0.1430  0.6994
  223MPD1    C2 3385   4.705   0.400   0.475 -0.4930 -0.1869  0.1622
  223MPD1    C3 3386   4.677   0.290   0.394  0.1716  0.9991 -0.5028
  223MPD1    C4 3387   4.693   0.157   0.446  0.4977  0.9613 -0.1031
  223MPD1    C5 3388   0.024   0.142   0.569  0.0454  0.5271 -0.0100
  223MPD1     H 3389   4.686   0.499   0.434 -0.3358  0.5269  1.8390
  223MPD1    H1 3390   4.670   0.070   0.385 -0.7002  2.8772 -2.4017
  223MPD1    H2 3391   0.088   0.228   0.747 -0.6227 -0.5983  0.8075
  223MPD1    H3 3392   0.039   0.040   0.600 -1.1770  0.5159  0.5588
  223MPD1     N 3393   4.642   0.314   0.257  0.1631 -0.5862  0.4415
  223MPD1    H5 3394   4.619   0.408   0.225  2.1821  0.1269  1.0906
  223MPD1    N1 3395   0.038   0.489   0.690  0.6496 -0.4835  0.5573
  223MPD1    H6 3396   0.117   0.486   0.754 -0.9185 -0.7666  2.4684
  223MPD1    H7 3397   0.057   0.574   0.638  0.8779 -0.6190  0.4169
  224MPD1     C 3398   2.370   1.170   8.997  0.3205  0.6732  0.1492
  224MPD1    C1 3399   2.347   1.281   9.076 -0.1284 -0.0001  0.3714
  224MPD1    C2 3400   2.238   1.279   9.160  0.1710 -0.2381 -0.3942
  224MPD1    C3 3401   2.158   1.163   9.171  0.3833 -0.6190 -0.3810
  224MPD1    C4 3402   2.191   1.049   9.100  0.0474  0.0152  0.2374
  224MPD1    C5 3403   2.292   1.057   9.007  0.3299  0.3320  0.0634
  224MPD1     H 3404   2.222   1.353   9.237 -0.2677 -1.2010  0.4359
  224MPD1    H1 3405   2.130   0.961   9.112  2.9334 -1.8048  1.7031
  224MPD1    H2 3406   2.458   1.170   8.935 -0.3561  0.0572 -0.8103
  224MPD1    H3 3407   2.324   0.972   8.948 -1.7086 -0.4324  0.0944
  224MPD1     N 3408   2.050   1.151   9.259  0.5093  0.2572  0.7104
  224MPD1    H5 3409   2.015   1.056   9.253 -0.9952  0.9238 -1.0868
  224MPD1    N1 3410   2.423   1.399   9.059 -0.7535  0.1440 -0.2351
  224MPD1    H6 3411   2.438   1.448   9.147  1.0510  0.6092 -0.8192
  224MPD1    H7 3412   2.513   1.379   9.016 -0.1249 -1.6690  1.9496
  225MPD1     C 3413   2.999   2.107  12.945  0.0478 -0.0370  0.1197
  225MPD1    C1 3414   2.968   1.987  12.880 -0.3936 -0.4388 -0.8974
  225MPD1    C2 3415   2.871   1.979  12.782  0.1134 -0.0431 -0.9000
  225MPD1    C3 3416   2.808   2.095  12.746  0.3411  0.4313  0.0396
  225MPD1    C4 3417   2.833   2.210  12.810 -0.3522  0.8837 -0.3961
  225MPD1    C5 3418   2.923   2.218  12.913 -0.1065 -0.5294  0.4398
  225MPD1     H 3419   2.847   1.880  12.745 -1.0275 -0.2033  0.3089
  225MPD1    H1 3420   2.788   2.305  12.781  1.1230  2.6418  3.0242
  225MPD1    H2 3421   3.063   2.113  13.032 -3.4217 -1.1667  2.7949
  225MPD1    H3 3422   2.950   2.318  12.943  0.2463 -0.6409  0.5016
  225MPD1     N 3423   2.716   2.103  12.645  0.7132 -0.6132 -0.7980
  225MPD1    H5 3424   2.687   2.197  12.621 -0.2692 -1.8540 -4.5668
  225MPD1    N1 3425   3.023   1.869  12.918  0.6090 -0.0496 -0.4712
  225MPD1    H6 3426   3.107   1.883  12.973  0.6876 -0.7973 -0.4055
  225MPD1    H7 3427   3.046   1.816  12.834 -1.8684 -0.1514 -1.0975
  226MPD1     C 3428   2.455   2.475   9.185  0.1311 -0.7242 -0.7435
  226MPD1    C1 3429   2.524   2.460   9.307  0.0947 -0.6630 -1.1432
  226MPD1    C2 3430   2.569   2.331   9.331  0.5809  0.3622 -0.3422
  226MPD1    C3 3431   2.537   2.225   9.249  0.1314 -0.2978  0.4890
  226MPD1    C4 3432   2.462   2.244   9.136 -0.4590 -0.7560  0.7507
  226MPD1    C5 3433   2.432   2.373   9.110 -0.9091 -0.6826  0.3571
  226MPD1     H 3434   2.620   2.310   9.425  0.0937  0.6430 -0.0119
  226MPD1    H1 3435   2.432   2.162   9.072 -1.9658 -1.4731  2.3509
  226MPD1    H2 3436   2.402   2.562   9.149  2.6283  1.3181  0.5889
  226MPD1    H3 3437   2.365   2.396   9.027  1.0561 -1.8683 -1.5675
  226MPD1     N 3438   2.589   2.093   9.277  0.1055  0.3537  0.5581
  226MPD1    H5 3439   2.662   2.087   9.348 -0.5554 -1.3212  1.1017
  226MPD1    N1 3440   2.521   2.559   9.408 -0.1163 -0.3501  0.4409
  226MPD1    H6 3441   2.596   2.547   9.475  1.3465  1.1345 -0.9331
  226MPD1    H7 3442   2.519   2.651   9.364  0.5745 -0.4200  0.2694
  227MPD1     C 3443   3.064   1.910  10.024 -0.3317  0.1084  0.2286
  227MPD1    C1 3444   2.940   1.844  10.031 -0.2957 -0.1021  0.4724
  227MPD1    C2 3445   2.874   1.824   9.912  0.2413 -0.4346  0.1163
  227MPD1    C3 3446   2.931   1.860   9.787  0.1004  0.8985  0.6735
  227MPD1    C4 3447   3.044   1.932   9.786  0.0507 -0.7556 -0.5373
  227MPD1    C5 3448   3.114   1.953   9.904  0.4849 -0.4204  0.1794
  227MPD1     H 3449   2.773   1.785   9.910 -0.9173  2.7441 -1.6552
  227MPD1    H1 3450   3.090   1.959   9.691 -1.7221  1.1747 -0.8426
  227MPD1    H2 3451   3.117   1.936  10.114  0.1372 -0.8366  0.2239
  227MPD1    H3 3452   3.208   2.007   9.905  0.4138 -0.2703 -1.9468
  227MPD1     N 3453   2.857   1.826   9.669  0.2055  0.8371  0.5941
  227MPD1    H5 3454   2.771   1.773   9.668 -0.1413  1.3467  2.1850
  227MPD1    N1 3455   2.880   1.839  10.155 -0.3096  0.6300 -0.4979
  227MPD1    H6 3456   2.945   1.844  10.233 -0.7946  2.4034 -0.2172
  227MPD1    H7 3457   2.818   1.759  10.163  1.0447 -0.2856  0.9776
  228MPD1     C 3458   3.321   0.064  12.429  0.5055 -0.1911 -0.4198
  228MPD1    C1 3459   3.226   4.698  12.398  0.2269  0.3411  0.3442
  228MPD1    C2 3460   3.170   4.626  12.506  0.0482 -0.5070  0.0699
  228MPD1    C3 3461   3.208   4.643  12.635  0.1949 -0.2166 -0.5234
  228MPD1    C4 3462   3.293   0.018  12.663 -0.1709 -0.3809 -0.2058
  228MPD1    C5 3463   3.359   0.080  12.558 -0.0675  0.1070  0.2504
  228MPD1     H 3464   3.098   4.549  12.484  0.6705 -1.4957  1.4705
  228MPD1    H1 3465   3.316   0.045  12.766  0.1853 -1.6991  0.0591
  228MPD1    H2 3466   3.385   0.119  12.360  0.2484  0.9678  0.2507
  228MPD1    H3 3467   3.447   0.141  12.573 -0.0875  0.9276 -3.0663
  228MPD1     N 3468   3.139   4.560  12.732 -0.3895  0.2729 -0.7373
  228MPD1    H5 3469   3.059   4.505  12.700 -0.1102 -1.8520  2.2228
  228MPD1    N1 3470   3.164   4.693  12.275  0.5028 -0.3999 -0.6286
  228MPD1    H6 3471   3.227   0.001  12.201  1.5806  1.2600  0.9650
  228MPD1    H7 3472   3.106   4.611  12.259  0.2125 -0.1214 -0.9902
  229MPD1     C 3473   3.875   3.474  15.638  0.6679 -0.0151  0.0847
  229MPD1    C1 3474   3.840   3.366  15.564  0.3435 -0.7121 -0.3218
  229MPD1    C2 3475   3.934   3.270  15.526 -0.1003 -0.3566  1.6913
  229MPD1    C3 3476   4.067   3.289  15.559 -0.2354 -0.0672  0.7544
  229MPD1    C4 3477   4.101   3.410  15.616 -0.4784 -0.3627 -0.4391
  229MPD1    C5 3478   4.006   3.495  15.660 -0.0780 -0.0170  0.1992
  229MPD1     H 3479   3.902   3.180  15.476 -0.5733  0.6145  0.2367
  229MPD1    H1 3480   4.204   3.443  15.625 -0.4982 -1.1802  2.7456
  229MPD1    H2 3481   3.798   3.541  15.674  0.2983 -0.4521  0.1044
  229MPD1    H3 3482   4.034   3.589  15.708 -0.7456  0.0546  0.4361
  229MPD1     N 3483   4.165   3.207  15.513  0.4888  0.2742  0.3621
  229MPD1    H5 3484   4.258   3.224  15.551  0.6710 -0.1236  0.0965
  229MPD1    N1 3485   3.703   3.336  15.540  0.3138  0.1710 -0.0746
  229MPD1    H6 3486   3.657   3.427  15.537  2.6112  1.3862  1.0342
  229MPD1    H7 3487   3.683   3.287  15.453  3.6818  1.8674 -1.8455
  230MPD1     C 3488   0.386   3.020  15.710  0.3539  0.1946 -0.3707
  230MPD1    C1 3489   0.364   2.916  15.621  0.4349 -0.1209 -0.3566
  230MPD1    C2 3490   0.240   2.895  15.566 -0.0364 -0.2444 -0.4936
  230MPD1    C3 3491   0.123   2.965  15.612 -0.9760 -0.0540  0.2666
  230MPD1    C4 3492   0.149   3.072  15.702 -0.0910 -0.4358 -0.0413
  230MPD1    C5 3493   0.275   3.086  15.752 -0.0414  0.1031 -0.9084
  230MPD1     H 3494   0.236   2.818  15.490  0.5142 -0.2892 -0.4761
  230MPD1    H1 3495   0.081   3.153  15.724  2.5849  1.9486 -0.5282
  230MPD1    H2 3496   0.486   3.053  15.736 -0.1730  1.4754  0.0222
  230MPD1    H3 3497   0.282   3.170  15.820  1.7064 -0.7872 -0.0042
  230MPD1     N 3498   4.718   2.939  15.548 -0.0235  0.5454  0.1706
  230MPD1    H5 3499   4.720   2.859  15.485 -0.1154 -0.7412  1.8158
  230MPD1    N1 3500   0.483   2.869  15.558  0.1853 -0.1521  0.0091
  230MPD1    H6 3501   0.515   2.954  15.512  1.0588 -0.7396 -0.4763
  230MPD1    H7 3502   0.470   2.796  15.489 -1.1899 -0.3145  0.4409
  231MPD1     C 3503   1.594   4.696  15.325 -0.0470 -0.4764  0.1032
  231MPD1    C1 3504   1.651   0.095  15.340 -0.1274 -0.2273  0.1078
  231MPD1    C2 3505   1.783   0.104  15.305 -0.0011 -0.4318  0.1714
  231MPD1    C3 3506   1.853   0.007  15.229  1.1290  0.4428 -0.1579
  231MPD1    C4 3507   1.784   4.611  15.204 -0.3759  0.5229 -0.6239
  231MPD1    C5 3508   1.660   4.598  15.254  1.0259  0.6636  0.2628
  231MPD1     H 3509   1.839   0.191  15.338  0.0594 -0.6616  0.6768
  231MPD1    H1 3510   1.821   4.525  15.150  0.7860  1.0632 -0.6991
  231MPD1    H2 3511   1.493   4.676  15.359 -0.6902 -1.0159 -2.1482
  231MPD1    H3 3512   1.619   4.499  15.239  1.4173  0.5805 -0.2581
  231MPD1     N 3513   1.985   0.037  15.189 -0.4367  0.1840 -0.2655
  231MPD1    H5 3514   2.013   0.135  15.195 -2.6903  0.8099 -0.0671
  231MPD1    N1 3515   1.578   0.195  15.412  0.2810  0.9025  0.4333
  231MPD1    H6 3516   1.481   0.203  15.383  0.6253  0.2332 -0.9048
  231MPD1    H7 3517   1.621   0.283  15.383  2.6957 -0.7721 -1.0469
  232MPD1     C 3518   4.623   4.550   0.035  0.4300 -0.2199  0.4769
  232MPD1    C1 3519   4.538   4.515   0.138  0.7222  1.2016 -0.1806
  232MPD1    C2 3520   4.476   4.392   0.141 -1.0636  0.2418 -0.1229
  232MPD1    C3 3521   4.498   4.304   0.039  0.6149  0.0720  0.2331
  232MPD1    C4 3522   4.578   4.343  17.628 -0.3366  0.4236 -0.1774
  232MPD1    C5 3523   4.644   4.465  17.622 -0.3890  0.3146  0.6546
  232MPD1     H 3524   4.422   4.360   0.229 -0.5870 -1.5787 -0.4929
  232MPD1    H1 3525   4.612   4.277  17.549 -1.6064 -0.0346 -0.3341
  232MPD1    H2 3526   4.683   4.640   0.032 -2.7489  1.8900 -0.2526
  232MPD1    H3 3527   4.690   4.493  17.528  1.0350  0.5331  1.4227
  232MPD1     N 3528   4.432   4.178   0.040 -0.0276  0.2915 -0.0298
  232MPD1    H5 3529   4.360   4.160   0.110 -0.2256 -1.4136 -0.6845
  232MPD1    N1 3530   4.531   4.599   0.253 -0.2524  0.2870 -0.2051
  232MPD1    H6 3531   4.565   4.692   0.229  3.0634 -0.8026  0.2664
  232MPD1    H7 3532   4.441   4.598   0.300  0.4293 -0.1096  1.1086
  233MPD1     C 3533   2.817   2.122   2.235 -0.4744  0.3120  0.1167
  233MPD1    C1 3534   2.688   2.079   2.270  0.0514  0.0954  0.2082
  233MPD1    C2 3535   2.626   1.984   2.194 -0.6932  0.2413  0.0085
  233MPD1    C3 3536   2.691   1.926   2.088 -0.0332  0.2824 -0.1318
  233MPD1    C4 3537   2.808   1.980   2.057 -0.6843 -0.0521 -0.2866
  233MPD1    C5 3538   2.868   2.078   2.118  0.0123  0.0476  0.0250
  233MPD1     H 3539   2.526   1.955   2.224 -1.7274  3.6838 -0.0962
  233MPD1    H1 3540   2.843   1.950   1.959 -0.3681  0.1845 -0.2486
  233MPD1    H2 3541   2.865   2.207   2.282 -1.4446 -0.6548  2.8209
  233MPD1    H3 3542   2.967   2.106   2.082  0.3060  1.3764  1.8611
  233MPD1     N 3543   2.631   1.827   2.010  0.3669 -0.4690  0.4275
  233MPD1    H5 3544   2.688   1.792   1.934 -0.0656  1.1881 -0.6481
  233MPD1    N1 3545   2.623   2.151   2.371 -0.3947  0.4573 -0.2257
  233MPD1    H6 3546   2.566   2.079   2.417 -0.6611  0.5261 -0.4460
  233MPD1    H7 3547   2.686   2.194   2.438  1.7476 -0.8348 -1.4331
  234MPD1     C 3548   2.137   4.232   9.830  0.0441  0.1676  0.0893
  234MPD1    C1 3549   2.123   4.333   9.928  0.6943  0.2249 -1.0014
  234MPD1    C2 3550   2.065   4.453   9.893  1.0664 -0.0143  0.7173
  234MPD1    C3 3551   2.025   4.481   9.761 -0.1033  0.4484 -0.2194
  234MPD1    C4 3552   2.036   4.370   9.676  0.3331 -0.4703 -0.2977
  234MPD1    C5 3553   2.086   4.248   9.706  0.0989 -0.3767  0.2795
  234MPD1     H 3554   2.046   4.532   9.965  1.1539 -0.7155  1.5116
  234MPD1    H1 3555   2.010   4.378   9.571 -0.0586  1.9771 -0.0300
  234MPD1    H2 3556   2.187   4.141   9.861 -0.6305 -0.3397 -0.2873
  234MPD1    H3 3557   2.076   4.161   9.641 -0.3344 -1.4432  1.7760
  234MPD1     N 3558   1.960   4.603   9.727  0.1023 -0.2794  0.4972
  234MPD1    H5 3559   1.974   4.676   9.796  2.1497 -0.3097  0.1268
  234MPD1    N1 3560   2.139   4.289  10.065 -0.0968 -0.1229 -0.1681
  234MPD1    H6 3561   2.208   4.216  10.081 -2.6435 -3.2241 -3.3038
  234MPD1    H7 3562   2.157   4.368  10.126  1.8111 -1.2093  0.6721
  235MPD1     C 3563   4.212   1.945   9.507  0.1836 -0.3287  0.0514
  235MPD1    C1 3564   4.297   2.054   9.487  0.6427 -0.1384 -1.1402
  235MPD1    C2 3565   4.247   2.174   9.447 -0.3449  0.0274 -0.0026
  235MPD1    C3 3566   4.108   2.196   9.432 -1.2226 -0.2625 -0.9502
  235MPD1    C4 3567   4.028   2.085   9.448 -0.2686 -0.2545 -0.7353
  235MPD1    C5 3568   4.074   1.964   9.499  0.3646  0.1312 -0.2126
  235MPD1     H 3569   4.314   2.257   9.429  0.2056 -0.3994  0.0972
  235MPD1    H1 3570   3.920   2.087   9.446 -0.2427  1.0735 -0.8428
  235MPD1    H2 3571   4.254   1.848   9.528  0.8900  0.3398  1.7219
  235MPD1    H3 3572   4.004   1.882   9.509  2.2901 -1.6760 -1.5727
  235MPD1     N 3573   4.055   2.321   9.377  0.1203 -0.3655  0.8170
  235MPD1    H5 3574   4.126   2.389   9.355  0.5851 -1.4431 -0.9696
  235MPD1    N1 3575   4.435   2.039   9.488 -0.1513 -0.0269  0.2459
  235MPD1    H6 3576   4.461   1.968   9.556 -1.0587  0.4582  1.0907
  235MPD1    H7 3577   4.488   2.125   9.504  0.3631 -0.1315 -0.8255
  236MPD1     C 3578   2.432   3.420   9.733  0.3864 -0.2586  0.4599
  236MPD1    C1 3579   2.406   3.283   9.746 -0.2508 -0.4174 -0.3312
  236MPD1    C2 3580   2.492   3.209   9.818  0.4798  0.3908 -0.3334
  236MPD1    C3 3581   2.582   3.274   9.898 -0.4947  0.4352 -0.4353
  236MPD1    C4 3582   2.593   3.408   9.909 -0.8175 -0.2633  0.6773
  236MPD1    C5 3583   2.522   3.477   9.817  0.5693  0.3590 -0.0503
  236MPD1     H 3584   2.480   3.102   9.809 -2.3108  0.6943 -0.0793
  236MPD1    H1 3585   2.661   3.454   9.979  0.3809 -0.0286 -0.6287
  236MPD1    H2 3586   2.372   3.482   9.668 -1.8971 -2.1181  0.8246
  236MPD1    H3 3587   2.542   3.582   9.800  1.7225 -0.1620 -1.8667
  236MPD1     N 3588   2.674   3.196   9.982  0.3125  0.0168 -0.0130
  236MPD1    H5 3589   2.748   3.249  10.026 -2.1450  1.8355  1.9692
  236MPD1    N1 3590   2.312   3.224   9.657 -0.5161  0.7463 -0.5044
  236MPD1    H6 3591   2.263   3.138   9.682  3.1996 -1.5543 -1.0160
  236MPD1    H7 3592   2.240   3.288   9.626 -1.4639  0.2990  0.7834
  237MPD1     C 3593   2.790   2.291  15.853 -0.1847  0.0643 -0.3067
  237MPD1    C1 3594   2.779   2.209  15.963  0.0868  0.0467  0.5133
  237MPD1    C2 3595   2.698   2.096  15.949 -0.0229  0.3328  0.1250
  237MPD1    C3 3596   2.628   2.068  15.832 -0.9155 -0.0079  0.0385
  237MPD1    C4 3597   2.651   2.145  15.717 -0.7624  0.1005 -0.2432
  237MPD1    C5 3598   2.734   2.259  15.728  0.3446  0.0784  0.3563
  237MPD1     H 3599   2.678   2.041  16.041  1.2437  0.4171  0.4495
  237MPD1    H1 3600   2.606   2.119  15.622 -0.7140  0.6356 -0.4099
  237MPD1    H2 3601   2.844   2.384  15.866  0.7269 -0.8728  2.4990
  237MPD1    H3 3602   2.742   2.328  15.645 -1.3432  0.5737  0.6147
  237MPD1     N 3603   2.542   1.954  15.821  0.2693  0.0879 -1.0904
  237MPD1    H5 3604   2.504   1.928  15.731  0.7577 -0.4691 -1.1405
  237MPD1    N1 3605   2.825   2.244  16.088  0.6942  0.2393  0.0833
  237MPD1    H6 3606   2.860   2.165  16.141  2.4857  1.1436  0.2402
  237MPD1    H7 3607   2.903   2.309  16.085  0.1020  0.9256 -0.5869
  238MPD1     C 3608   4.488   0.176  15.196  0.5280  0.3979 -0.3578
  238MPD1    C1 3609   4.503   0.184  15.056 -0.0049  0.4237  0.2003
  238MPD1    C2 3610   4.397   0.244  14.987 -0.3602  0.2388 -0.0481
  238MPD1    C3 3611   4.279   0.284  15.050  0.2482  0.3852 -0.1866
  238MPD1    C4 3612   4.280   0.284  15.188 -0.8083  0.0433  0.1616
  238MPD1    C5 3613   4.378   0.230  15.258 -0.2959 -0.0508 -0.2096
  238MPD1     H 3614   4.386   0.230  14.880 -0.0183 -2.9317  0.3140
  238MPD1    H1 3615   4.191   0.312  15.244 -1.1026  0.1706 -0.3724
  238MPD1    H2 3616   4.560   0.123  15.257 -0.1128 -1.5969 -1.3341
  238MPD1    H3 3617   4.352   0.221  15.362 -0.0656  0.6046 -0.0963
  238MPD1     N 3618   4.171   0.337  14.986 -0.1463 -0.7247  0.1846
  238MPD1    H5 3619   4.100   0.379  15.046  0.2776 -0.9515  0.8491
  238MPD1    N1 3620   4.606   0.112  14.981 -0.9999  0.0277  0.0854
  238MPD1    H6 3621   4.617   0.152  14.888 -0.5074  1.4008  0.7210
  238MPD1    H7 3622   4.699   0.101  15.020 -0.5622 -1.4853 -1.3910
  239MPD1     C 3623   4.653   1.382  15.027 -0.3223 -0.1408 -0.6452
  239MPD1    C1 3624   0.018   1.461  14.960  0.3726 -0.1833  0.5367
  239MPD1    C2 3625   4.691   1.535  14.849 -0.7393 -0.4418 -0.3275
  239MPD1    C3 3626   4.559   1.519  14.801  0.0509  0.2641  0.2164
  239MPD1    C4 3627   4.479   1.429  14.864  0.1007 -0.8114  0.1739
  239MPD1    C5 3628   4.528   1.363  14.974  0.0556  0.1287  0.2872
  239MPD1     H 3629   0.049   1.592  14.804 -0.9056 -0.7691 -1.0317
  239MPD1    H1 3630   4.381   1.403  14.824 -0.1365  0.2061  0.1004
  239MPD1    H2 3631   4.679   1.330  15.119 -0.7917 -2.1174 -1.6200
  239MPD1    H3 3632   4.463   1.296  15.030  0.5989 -1.3821 -0.9043
  239MPD1     N 3633   4.508   1.588  14.688  0.4991  0.3045 -0.1692
  239MPD1    H5 3634   4.408   1.584  14.674  0.5594  1.4216 -0.9697
  239MPD1    N1 3635   0.145   1.492  15.018  0.0847 -0.3635 -0.4685
  239MPD1    H6 3636   0.165   1.422  15.089 -0.4103 -0.3579 -0.3280
  239MPD1    H7 3637   0.215   1.502  14.945  0.6499  0.9807  0.2354
  240MPD1     C 3638   4.065   1.296  13.801 -0.1439  0.3451 -0.4712
  240MPD1    C1 3639   4.128   1.220  13.895  0.1541  0.3166 -0.2266
  240MPD1    C2 3640   4.062   1.157  13.999  0.0778 -0.4285 -0.0229
  240MPD1    C3 3641   3.920   1.160  14.007 -0.2085 -0.3718  0.4812
  240MPD1    C4 3642   3.857   1.231  13.909  0.0367  0.1156  0.6836
  240MPD1    C5 3643   3.928   1.295  13.815 -0.2915 -0.3407 -0.4053
  240MPD1     H 3644   4.114   1.101  14.076  0.5696 -1.8633 -1.3807
  240MPD1    H1 3645   3.750   1.250  13.915 -0.0364 -0.5552  1.5609
  240MPD1    H2 3646   4.110   1.361  13.727  0.1259 -0.3101 -0.8853
  240MPD1    H3 3647   3.868   1.362  13.755 -3.0049 -1.6956  0.8064
  240MPD1     N 3648   3.858   1.092  14.113 -0.2049  0.3129  0.0849
  240MPD1    H5 3649   3.909   1.049  14.189 -1.8389 -1.2682  0.2892
  240MPD1    N1 3650   4.269   1.243  13.903  0.2741  0.3726  0.9318
  240MPD1    H6 3651   4.308   1.177  13.970 -0.9865 -0.7141  0.5925
  240MPD1    H7 3652   4.317   1.236  13.814 -1.4561 -0.3899  0.0565
  241MPD1     C 3653   4.047   1.174  14.916 -0.1322 -0.0121  0.0307
  241MPD1    C1 3654   3.918   1.122  14.912  0.1872 -0.1386 -0.0231
  241MPD1    C2 3655   3.883   1.043  14.803 -0.1784 -0.6501 -0.5990
  241MPD1    C3 3656   3.972   1.039  14.700 -0.1591  0.0383 -0.6750
  241MPD1    C4 3657   4.082   1.118  14.698 -0.1997 -0.3562 -0.0450
  241MPD1    C5 3658   4.126   1.178  14.807  0.0252 -0.3234  0.1691
  241MPD1     H 3659   3.784   0.999  14.808 -0.3523  0.0203  1.9740
  241MPD1    H1 3660   4.140   1.130  14.607 -1.1555 -0.7876 -0.7047
  241MPD1    H2 3661   4.084   1.235  14.997  0.9284  0.1282 -0.5613
  241MPD1    H3 3662   4.219   1.232  14.796  0.1986 -1.1735 -2.4462
  241MPD1     N 3663   3.937   0.982  14.576 -0.3728 -0.2588 -0.3271
  241MPD1    H5 3664   3.980   1.011  14.489 -0.6117  1.9258  0.2804
  241MPD1    N1 3665   3.843   1.115  15.024  0.5781 -0.1874 -0.3291
  241MPD1    H6 3666   3.742   1.114  15.011  0.7226  2.6162 -1.5436
  241MPD1    H7 3667   3.868   1.179  15.100 -1.6436 -2.2145  2.1134
  242MPD1     C 3668   3.542   4.721  15.413 -0.3348  0.6073  0.3403
  242MPD1    C1 3669   3.452   4.622  15.426 -0.0597 -0.2074  0.4304
  242MPD1    C2 3670   3.460   4.515  15.338 -0.1601  0.2760  0.1566
  242MPD1    C3 3671   3.553   4.506  15.231 -0.4375  0.4128 -0.6510
  242MPD1    C4 3672   3.643   4.612  15.220  1.0780  0.4133  0.4439
  242MPD1    C5 3673   3.624   4.718  15.303 -0.4973  0.4622  0.0061
  242MPD1     H 3674   3.385   4.438  15.355  1.5002 -1.4838 -0.4279
  242MPD1    H1 3675   3.722   4.619  15.146 -0.5411  0.2534 -1.2988
  242MPD1    H2 3676   3.536   0.088  15.475 -1.6147  1.0533 -0.4198
  242MPD1    H3 3677   3.693   0.077  15.286 -1.4383  0.8439 -2.0065
  242MPD1     N 3678   3.559   4.401  15.142  0.1641 -0.6782  0.1216
  242MPD1    H5 3679   3.646   4.398  15.091  0.7064  0.8380  0.9821
  242MPD1    N1 3680   3.380   4.602  15.548 -0.0645 -0.0927 -0.7339
  242MPD1    H6 3681   3.355   4.688  15.596  0.5085  0.2069 -0.9686
  242MPD1    H7 3682   3.298   4.544  15.532 -0.1759 -0.0114 -0.4580
  243MPD1     C 3683   0.520   1.454   0.324 -0.0586  0.7321 -0.2253
  243MPD1    C1 3684   0.394   1.512   0.332  0.5176 -0.0129 -0.7448
  243MPD1    C2 3685   0.380   1.632   0.275 -0.4653 -0.0371 -0.6449
  243MPD1    C3 3686   0.487   1.698   0.229 -0.0684  0.3437  0.1257
  243MPD1    C4 3687   0.611   1.639   0.227  0.5706  0.1416  0.5099
  243MPD1    C5 3688   0.633   1.517   0.281 -0.1322  0.1902 -0.5494
  243MPD1     H 3689   0.280   1.673   0.264 -1.3784 -2.4464 -1.2538
  243MPD1    H1 3690   0.697   1.685   0.177 -0.8105  2.3974  0.2108
  243MPD1    H2 3691   0.539   1.350   0.348 -0.5457  0.7246  0.1279
  243MPD1    H3 3692   0.722   1.460   0.257  0.4452 -0.1765  2.5115
  243MPD1     N 3693   0.449   1.820   0.167 -0.2696 -0.4396 -0.2826
  243MPD1    H5 3694   0.351   1.849   0.169 -0.3100 -0.7212  2.2346
  243MPD1    N1 3695   0.287   1.439   0.373 -0.2427 -0.8640  0.4568
  243MPD1    H6 3696   0.202   1.491   0.392  0.6349  1.4262 -1.8844
  243MPD1    H7 3697   0.315   1.383   0.453  0.8682  0.9275  1.3045
  244MPD1     C 3698   0.096   2.430   0.593 -0.4433 -0.0509 -0.3991
  244MPD1    C1 3699   0.183   2.323   0.618 -0.3987  0.7061 -0.0108
  244MPD1    C2 3700   0.257   2.284   0.507 -0.0921 -0.1920 -0.1666
  244MPD1    C3 3701   0.241   2.336   0.378 -0.3510 -0.9848  0.0908
  244MPD1    C4 3702   0.166   2.450   0.365  0.1109 -0.6653  0.3115
  244MPD1    C5 3703   0.098   2.502   0.481 -0.2493 -0.9839 -0.3285
  244MPD1     H 3704   0.334   2.208   0.516  0.5610  0.2858 -1.7860
  244MPD1    H1 3705   0.159   2.505   0.272 -0.1885  1.7477  1.7542
  244MPD1    H2 3706   0.028   2.460   0.672  2.1686  2.2295  1.0190
  244MPD1    H3 3707   0.039   2.591   0.460  0.1391 -0.6309  0.0676
  244MPD1     N 3708   0.310   2.277   0.275 -0.3166  0.1980  0.2917
  244MPD1    H5 3709   0.376   2.207   0.304  1.0070  1.6474  0.7613
  244MPD1    N1 3710   0.176   2.255   0.738  0.1575 -0.5571  0.0092
  244MPD1    H6 3711   0.140   2.310   0.816 -0.0707  0.4434 -0.8160
  244MPD1    H7 3712   0.269   2.217   0.752  0.7730  1.3388  0.9877
  245MPD1     C 3713   2.526   2.775  13.147 -0.5968 -0.7100  0.2495
  245MPD1    C1 3714   2.624   2.866  13.179 -0.7838 -0.1423  0.0821
  245MPD1    C2 3715   2.587   2.997  13.192 -0.3762 -0.3855 -0.1944
  245MPD1    C3 3716   2.461   3.036  13.208  0.4077  0.6482 -0.3667
  245MPD1    C4 3717   2.364   2.932  13.203  0.7787 -0.0829 -0.4901
  245MPD1    C5 3718   2.392   2.805  13.168 -0.1037  0.0550 -0.1555
  245MPD1     H 3719   2.663   3.074  13.205  1.0210 -2.1351  1.9453
  245MPD1    H1 3720   2.260   2.954  13.220  0.7363  0.6165 -1.6342
  245MPD1    H2 3721   2.560   2.679  13.109  0.0636  0.0827 -1.1261
  245MPD1    H3 3722   2.319   2.726  13.152  0.2259 -0.0215 -1.2715
  245MPD1     N 3723   2.445   3.173  13.243  0.0062 -0.1651 -0.7417
  245MPD1    H5 3724   2.534   3.217  13.263 -0.7978  0.9441  0.3301
  245MPD1    N1 3725   2.765   2.839  13.163  1.0597 -0.1049  0.8733
  245MPD1    H6 3726   2.811   2.897  13.233 -1.0695  1.3560  1.0487
  245MPD1    H7 3727   2.795   2.745  13.190 -0.3938 -1.1890 -1.3241
  246MPD1     C 3728   2.975   4.631  10.314  0.3290 -0.0240  0.4528
  246MPD1    C1 3729   2.950   0.033  10.248  0.0973 -0.1276  0.3789
  246MPD1    C2 3730   2.929   0.032  10.112 -0.2781 -0.0836  0.6164
  246MPD1    C3 3731   2.908   4.637  10.039  0.1173  0.0144  0.1304
  246MPD1    C4 3732   2.905   4.517  10.110  0.0619 -0.4546  0.3205
  246MPD1    C5 3733   2.953   4.512  10.243 -0.9182 -0.2145 -0.2886
  246MPD1     H 3734   2.932   0.129  10.065 -2.6216 -1.4580 -2.4286
  246MPD1    H1 3735   2.904   4.429  10.047 -1.8004  1.4741 -2.3474
  246MPD1    H2 3736   2.990   4.632  10.421 -3.4750  1.4437  0.9669
  246MPD1    H3 3737   2.940   4.424  10.304 -0.7809 -0.6031 -0.8288
  246MPD1     N 3738   2.909   4.637   9.897 -0.3125 -0.0493 -0.1278
  246MPD1    H5 3739   2.914   0.005   9.850 -2.8723 -0.1901 -0.6748
  246MPD1    N1 3740   2.969   0.152  10.320 -0.0346  0.7609 -0.5883
  246MPD1    H6 3741   2.897   0.217  10.287 -0.6618  0.4999  0.2512
  246MPD1    H7 3742   2.943   0.141  10.418 -1.5721 -0.7399 -1.1697
  247MPD1     C 3743   1.001   3.294  15.965  0.6226 -0.9775 -0.1352
  247MPD1    C1 3744   1.091   3.399  15.968  0.3144  0.2014  0.2717
  247MPD1    C2 3745   1.205   3.386  16.040 -0.0311  1.1355  1.0559
  247MPD1    C3 3746   1.224   3.280  16.128  0.3554  0.5501 -0.1686
  247MPD1    C4 3747   1.121   3.178  16.133 -0.0144  0.1761  0.5528
  247MPD1    C5 3748   1.016   3.190  16.052  0.3403  0.1220  0.2915
  247MPD1     H 3749   1.276   3.468  16.041  0.7893  0.4250  1.1163
  247MPD1    H1 3750   1.137   3.089  16.193 -2.0082 -1.6815 -1.6357
  247MPD1    H2 3751   0.912   3.289  15.903  0.4009 -1.9424  0.2776
  247MPD1    H3 3752   0.943   3.111  16.036  0.8993 -0.3856  0.2477
  247MPD1     N 3753   1.343   3.249  16.194 -0.3590 -0.2283  0.4686
  247MPD1    H5 3754   1.358   3.155  16.227 -0.3201  0.3535  2.1302
  247MPD1    N1 3755   1.078   3.508  15.876 -0.3875 -0.0606 -0.1011
  247MPD1    H6 3756   1.154   3.575  15.885  1.4604 -2.2991  0.8971
  247MPD1    H7 3757   0.988   3.555  15.864  0.5160  1.2909 -1.5928
  248MPD1     C 3758   3.525   4.598   0.173  0.7649 -0.2329 -0.1762
  248MPD1    C1 3759   3.464   4.516   0.262  0.4522  0.5218 -0.0336
  248MPD1    C2 3760   3.380   4.569   0.359  0.1696  0.6654  0.3584
  248MPD1    C3 3761   3.364   4.703   0.371  0.0916 -0.4930 -0.0155
  248MPD1    C4 3762   3.433   0.064   0.284 -0.4881  0.4319 -0.2343
  248MPD1    C5 3763   3.508   0.011   0.180  0.2808  0.1564 -0.7396
  248MPD1     H 3764   3.314   4.512   0.424  0.5772 -0.3866 -0.1481
  248MPD1    H1 3765   3.432   0.171   0.299 -1.4220  0.5442 -1.1770
  248MPD1    H2 3766   3.599   4.557   0.106  0.6754 -1.8393  0.6953
  248MPD1    H3 3767   3.565   0.065   0.106 -0.2127  2.0998  0.2757
  248MPD1     N 3768   3.259   0.021   0.458  0.0199  0.5800  0.0138
  248MPD1    H5 3769   3.209   4.668   0.505 -0.6140  0.8857 -0.1761
  248MPD1    N1 3770   3.490   4.379   0.261 -0.5987  0.4357  0.1231
  248MPD1    H6 3771   3.427   4.321   0.317  1.8741 -1.2833  1.1205
  248MPD1    H7 3772   3.511   4.349   0.166  0.2753  2.3489 -0.2831
  249MPD1     C 3773   4.086   0.991  10.539  0.3391 -0.9255 -0.1532
  249MPD1    C1 3774   4.193   1.078  10.518  0.2561  0.5713  0.7060
  249MPD1    C2 3775   4.180   1.162  10.405 -0.4761  0.4995 -0.2087
  249MPD1    C3 3776   4.067   1.173  10.327  0.5454  0.8740 -0.5792
  249MPD1    C4 3777   3.957   1.091  10.357 -0.0027 -0.0348  0.1846
  249MPD1    C5 3778   3.977   0.998  10.460 -0.2017  0.1722 -0.4079
  249MPD1     H 3779   4.266   1.226  10.389  0.7361 -0.8016  1.0027
  249MPD1    H1 3780   3.863   1.095  10.305  0.0798 -1.0080 -0.0473
  249MPD1    H2 3781   4.080   0.918  10.619  0.3630 -0.0891  0.6096
  249MPD1    H3 3782   3.895   0.929  10.477 -0.1008  0.2574  0.4069
  249MPD1     N 3783   4.058   1.276  10.235  0.3578  0.0163 -0.0677
  249MPD1    H5 3784   4.141   1.329  10.212  1.5334 -0.5009  2.8766
  249MPD1    N1 3785   4.318   1.059  10.581  0.3847 -0.1663  0.5735
  249MPD1    H6 3786   4.373   1.143  10.600  1.6190 -0.6986 -0.6686
  249MPD1    H7 3787   4.298   1.030  10.676  0.5864 -0.9276  0.3854
  250MPD2     C 3788   0.961   1.620  12.829  0.8320 -0.4153  0.5227
  250MPD2    C1 3789   0.894   1.699  12.916  0.1481 -0.0693 -0.1783
  250MPD2    C2 3790   0.756   1.672  12.933 -0.4085 -0.2112  0.2037
  250MPD2    C3 3791   0.694   1.558  12.876 -0.5026  0.2169  0.1219
  250MPD2    C4 3792   0.770   1.478  12.783  0.2500  0.0429  1.2293
  250MPD2    C5 3793   0.898   1.518  12.765  0.2629  0.6406 -0.2029
  250MPD2     H 3794   0.694   1.748  12.979 -0.1699 -0.0015  0.1790
  250MPD2    H1 3795   0.726   1.397  12.726  0.1137 -0.1978  1.6782
  250MPD2    H2 3796   1.066   1.640  12.810 -0.0412  2.6062 -1.0729
  250MPD2    H3 3797   0.949   1.469  12.682  2.0957  0.6708  0.8972
  250MPD2     N 3798   0.555   1.521  12.890 -0.2078  0.5885 -0.6661
  250MPD2    H5 3799   0.522   1.442  12.834  3.9376 -1.7505  0.1651
  250MPD2    N1 3800   0.960   1.817  12.966  0.0831  0.2308 -0.1891
  250MPD2    H7 3801   1.047   1.844  12.920  1.9570 -1.8543  2.1375
  251TMC3    C1 3802   0.947   2.029  13.061  0.6204 -0.5433  0.1543
  251TMC3    C2 3803   0.854   2.111  13.109  0.6320 -0.3205 -0.6743
  251TMC3    C3 3804   0.894   2.240  13.139  0.1068  0.1758 -0.2236
  251TMC3    C4 3805   1.081   2.060  13.027  0.0905 -0.3832 -0.3377
  251TMC3    C5 3806   1.113   2.185  13.055 -0.4889 -0.5302  0.8890
  251TMC3    C6 3807   1.028   2.279  13.115  0.0042 -0.5961 -0.9766
  251TMC3     C 3808   0.906   1.892  13.064 -0.4752 -0.5661 -0.0637
  251TMC3     O 3809   0.809   1.867  13.134 -0.3414  0.6529 -0.4354
  251TMC3     H 3810   0.756   2.074  13.135 -0.8635  4.7328  0.9978
  251TMC3    H1 3811   1.157   1.986  13.005 -0.7747 -1.2168 -0.5168
  251TMC3    H2 3812   1.065   2.375  13.150  0.7809 -2.3155  2.7691
  251TMC3    C7 3813   1.245   2.223  13.015 -0.1400 -0.1782 -0.0697
  251TMC3    C8 3814   0.803   2.339  13.198 -0.7006 -0.1300 -0.1429
  251TMC3    O1 3815   1.331   2.134  13.020 -0.2745 -0.3816 -0.1985
  251TMC3    O2 3816   0.847   2.434  13.262  1.0661 -0.1696  0.2996
  252TMC3    C1 3817   0.633   3.004   9.347 -0.2128  0.6485 -0.2585
  252TMC3    C2 3818   0.732   3.096   9.346 -0.5600 -0.9965 -0.2985
  252TMC3    C3 3819   0.810   3.093   9.456 -0.5274  0.4010  0.1024
  252TMC3    C4 3820   0.611   2.907   9.439  0.3546  0.6007  0.5426
  252TMC3    C5 3821   0.682   2.919   9.550  0.4668  0.3464  0.9260
  252TMC3    C6 3822   0.780   3.014   9.562  0.1113  0.2869  0.5821
  252TMC3     C 3823   0.530   3.038   9.248 -0.6973  0.2711 -0.2002
  252TMC3     O 3824   0.545   3.142   9.189  0.7329  0.2056 -0.7063
  252TMC3     H 3825   0.748   3.177   9.276  1.2183 -0.0387  1.2095
  252TMC3    H1 3826   0.521   2.846   9.439 -1.4373  3.2065 -0.3649
  252TMC3    H2 3827   0.822   3.036   9.659  2.3791 -1.3536 -0.0305
  252TMC3    C7 3828   0.679   2.812   9.651  0.7395  0.0758  0.2125
  252TMC3    C8 3829   0.912   3.195   9.477 -0.4997  0.1772  0.4017
  252TMC3    O1 3830   0.722   2.842   9.760  0.2685  0.4406 -0.1651
  252TMC3    O2 3831   0.885   3.308   9.445  0.0337  0.7908 -0.1420
  253MPD2     C 3832   1.911   1.379  15.181 -0.0571  0.3608 -0.1691
  253MPD2    C1 3833   1.773   1.403  15.188  0.7258 -0.6985  0.3979
  253MPD2    C2 3834   1.720   1.424  15.312  0.5866  0.4831  0.6183
  253MPD2    C3 3835   1.807   1.436  15.423 -0.6227 -0.3667 -0.2964
  253MPD2    C4 3836   1.943   1.418  15.407 -0.4954  0.0153 -0.7231
  253MPD2    C5 3837   1.992   1.388  15.290 -0.5987 -0.0465 -0.0030
  253MPD2     H 3838   1.613   1.441  15.324  0.1732 -1.4633 -0.2892
  253MPD2    H1 3839   2.009   1.445  15.489 -1.5815 -0.6984  0.3900
  253MPD2    H2 3840   1.962   1.352  15.090 -1.0099  0.2445 -0.6697
  253MPD2    H3 3841   2.098   1.389  15.265 -0.3621 -0.8998  0.9629
  253MPD2     N 3842   1.767   1.469  15.560 -0.0265  0.1484  0.5076
  253MPD2    H5 3843   1.845   1.494  15.620 -1.5531 -0.9368  2.9934
  253MPD2    N1 3844   1.678   1.414  15.084 -0.1987 -0.2599  1.3091
  253MPD2    H7 3845   1.582   1.433  15.108 -0.0928 -1.3082  2.5592
  254TMC3    C1 3846   1.624   1.498  15.753  0.0663 -0.7921 -0.5753
  254TMC3    C2 3847   1.499   1.505  15.799  0.5430 -1.4222 -0.0505
  254TMC3    C3 3848   1.472   1.553  15.920  0.2850 -0.1361  0.1743
  254TMC3    C4 3849   1.728   1.552  15.823  0.2141  0.1713 -0.3945
  254TMC3    C5 3850   1.697   1.612  15.942  0.0785  0.3578  0.2447
  254TMC3    C6 3851   1.569   1.625  15.987  1.1114  0.4926 -0.2159
  254TMC3     C 3852   1.639   1.467  15.606 -0.6062 -0.0657  0.4771
  254TMC3     O 3853   1.531   1.450  15.549 -0.3234 -0.0168 -0.1790
  254TMC3     H 3854   1.419   1.461  15.740 -1.0470  1.5822 -0.1432
  254TMC3    H1 3855   1.824   1.542  15.775 -0.2607 -4.1769 -0.4667
  254TMC3    H2 3856   1.543   1.670  16.083  2.6632 -2.0719  1.4070
  254TMC3    C7 3857   1.787   1.690  16.022 -1.3706  0.1594  0.0526
  254TMC3    C8 3858   1.332   1.574  15.953 -0.2447  0.8915  0.8382
  254TMC3    O1 3859   1.752   1.727  16.136 -0.0083 -0.5292  0.0997
  254TMC3    O2 3860   1.244   1.517  15.892 -0.2521 -0.2712  0.0690
  255MPD2     C 3861   0.100   4.201  10.636 -0.0377 -0.3276  0.1184
  255MPD2    C1 3862   0.007   4.213  10.541 -0.5345 -0.6821 -0.5513
  255MPD2    C2 3863   0.000   4.124  10.434  0.3610 -0.1402  0.1294
  255MPD2    C3 3864   0.105   4.037  10.418  0.3506 -0.6982 -0.4545
  255MPD2    C4 3865   0.209   4.025  10.515  0.1240  0.6151 -0.0892
  255MPD2    C5 3866   0.202   4.109  10.617  0.2366  0.0828  0.5718
  255MPD2     H 3867   4.642   4.127  10.361 -0.9836  3.2176  1.7640
  255MPD2    H1 3868   0.295   3.959  10.509 -1.7323 -1.9161  1.1082
  255MPD2    H2 3869   0.095   4.260  10.727  2.2029  1.1976 -0.7501
  255MPD2    H3 3870   0.271   4.098  10.700  0.6737 -0.8885  0.0727
  255MPD2     N 3871   0.108   3.966  10.299  0.4850  0.3292 -0.5353
  255MPD2    H5 3872   0.036   3.987  10.231  2.2809  0.0403 -2.5438
  255MPD2    N1 3873   4.634   4.309  10.562  0.8260 -0.2874  0.0747
  255MPD2    H7 3874   4.651   4.386  10.626 -0.5830  0.0781 -0.0001
  256TMC3    C1 3875   4.441   4.440  10.506 -0.0557 -0.3921 -0.2350
  256TMC3    C2 3876   4.528   4.551  10.498  0.4536 -0.4190 -0.8672
  256TMC3    C3 3877   4.469   4.677  10.510  0.4599  0.1636  0.5529
  256TMC3    C4 3878   4.299   4.449  10.510 -0.3582  0.5701  0.3770
  256TMC3    C5 3879   4.249   4.575  10.511  0.0843  0.4814  0.5640
  256TMC3    C6 3880   4.334   4.687  10.518 -0.2722  0.3839  0.0281
  256TMC3     C 3881   4.506   4.310  10.504 -0.4444 -0.4985  0.3116
  256TMC3     O 3882   4.430   4.218  10.480 -0.1094  0.1636 -0.1707
  256TMC3     H 3883   4.635   4.542  10.484  0.8642 -0.3199  2.1582
  256TMC3    H1 3884   4.240   4.358  10.501  0.5744  0.1046 -1.1130
  256TMC3    H2 3885   4.288   0.063  10.519  1.1137  1.0368 -0.4763
  256TMC3    C7 3886   4.118   4.592  10.455 -0.2540  0.1571 -0.0885
  256TMC3    C8 3887   4.541   0.076  10.478  0.3949 -0.4906 -0.4720
  256TMC3    O1 3888   4.071   4.502  10.384 -0.1354 -0.4629  0.1145
  256TMC3    O2 3889   4.488   0.181  10.498 -0.7622  0.2345 -0.3962
  257MPD2     C 3890   4.503   2.062  13.410  0.1971  0.2479 -0.3677
  257MPD2    C1 3891   4.416   1.978  13.346 -0.1130  0.0076  0.1402
  257MPD2    C2 3892   4.335   1.892  13.423  0.5133  0.0182  0.1476
  257MPD2    C3 3893   4.342   1.880  13.560  0.3257  0.3047 -0.5792
  257MPD2    C4 3894   4.443   1.956  13.620 -0.7543  0.5139  0.2909
  257MPD2    C5 3895   4.513   2.041  13.541  0.6468 -0.2070 -0.1500
  257MPD2     H 3896   4.261   1.833  13.370  0.1014  1.7754 -1.2299
  257MPD2    H1 3897   4.464   1.961  13.726 -0.5624 -1.5327  0.3414
  257MPD2    H2 3898   4.571   2.135  13.368 -0.5977  2.1568  1.6712
  257MPD2    H3 3899   4.588   2.101  13.592  0.4442 -1.9980  2.2600
  257MPD2     N 3900   4.259   1.789  13.633 -0.2065 -0.2637  0.0181
  257MPD2    H5 3901   4.193   1.744  13.570 -0.0576  0.2199 -0.4812
  257MPD2    N1 3902   4.403   1.985  13.202  0.2408 -0.4868 -0.2136
  257MPD2    H7 3903   4.447   2.062  13.152  0.2961 -0.1262  0.3828
  258TMC3    C1 3904   4.159   1.670  13.807  0.0575  0.7758  0.7766
  258TMC3    C2 3905   4.032   1.710  13.782 -0.4159  0.2162  0.1624
  258TMC3    C3 3906   3.931   1.658  13.849 -0.0024 -0.8446 -0.2283
  258TMC3    C4 3907   4.195   1.592  13.915  0.6192  0.8862  0.6805
  258TMC3    C5 3908   4.087   1.541  13.991  0.1755  0.4068  0.3008
  258TMC3    C6 3909   3.957   1.575  13.950 -0.2435  0.0843  0.1612
  258TMC3     C 3910   4.261   1.763  13.766 -0.1120 -0.0821  0.1659
  258TMC3     O 3911   4.336   1.798  13.854 -0.1269 -0.2857 -0.2185
  258TMC3     H 3912   4.019   1.792  13.711  1.2544  1.4157  1.2355
  258TMC3    H1 3913   4.298   1.563  13.927  1.0404  1.9937 -0.1583
  258TMC3    H2 3914   3.875   1.539  14.011 -1.8314  1.5006 -1.1314
  258TMC3    C7 3915   4.100   1.484  14.128 -0.1337 -0.1609  0.2669
  258TMC3    C8 3916   3.805   1.653  13.782 -0.1114  0.1719  0.0616
  258TMC3    O1 3917   4.012   1.499  14.213  0.2521  0.5314 -0.3143
  258TMC3    O2 3918   3.710   1.611  13.853  0.3142 -0.2549 -0.3245
  259MPD2     C 3919   2.944   3.566   1.082 -0.7726  0.0500 -0.0238
  259MPD2    C1 3920   3.074   3.533   1.087  0.4331  0.4926 -0.4959
  259MPD2    C2 3921   3.146   3.530   0.971  0.1049  0.0422  0.2567
  259MPD2    C3 3922   3.081   3.528   0.847  0.1053 -0.0001 -0.2932
  259MPD2    C4 3923   2.946   3.551   0.846 -0.6459  0.0862  0.3324
  259MPD2    C5 3924   2.883   3.575   0.958 -0.2386  0.2667  0.6997
  259MPD2     H 3925   3.253   3.514   0.970  0.2685  1.1767 -0.2339
  259MPD2    H1 3926   2.885   3.562   0.757  2.2663  1.3379 -1.4931
  259MPD2    H2 3927   2.887   3.572   1.174  0.0987 -0.0876  0.5226
  259MPD2    H3 3928   2.780   3.609   0.947 -0.9719 -0.8951  4.0265
  259MPD2     N 3929   3.161   3.526   0.733 -0.5268  0.5367 -0.4139
  259MPD2    H5 3930   3.261   3.517   0.747 -0.6073  0.9014  0.4000
  259MPD2    N1 3931   3.124   3.527   1.222 -0.5072 -0.4570  0.2387
  259MPD2    H7 3932   3.056   3.537   1.296 -1.3325 -2.8006 -0.1870
  260TMC3    C1 3933   3.228   3.540   0.511  0.2686  0.1238 -0.2955
  260TMC3    C2 3934   3.323   3.634   0.505  0.1090 -0.9945  0.0186
  260TMC3    C3 3935   3.408   3.629   0.399 -0.4289 -0.2955  0.6088
  260TMC3    C4 3936   3.198   3.461   0.405  0.0370  0.5600 -0.5110
  260TMC3    C5 3937   3.288   3.458   0.303 -0.1401 -0.1460  0.8654
  260TMC3    C6 3938   3.400   3.535   0.301  0.1569 -0.2900 -0.0810
  260TMC3     C 3939   3.117   3.544   0.604 -0.8306 -0.2213  0.2512
  260TMC3     O 3940   3.008   3.561   0.564 -0.1607  0.4879  0.1922
  260TMC3     H 3941   3.324   3.716   0.577  0.0282 -0.5782 -0.4568
  260TMC3    H1 3942   3.116   3.392   0.420  0.2357 -0.6338 -4.8211
  260TMC3    H2 3943   3.466   3.524   0.216  0.6584  0.3302  0.2276
  260TMC3    C7 3944   3.282   3.335   0.220 -0.2573  0.0449 -0.1732
  260TMC3    C8 3945   3.464   3.756   0.367 -0.0764 -0.9079  0.1016
  260TMC3    O1 3946   3.389   3.293   0.184  0.3452  0.1815  1.2868
  260TMC3    O2 3947   3.399   3.847   0.415 -0.0938 -0.4974  0.1695
  261MPD2     C 3948   0.075   1.258  12.476 -0.4855 -0.6251  0.5513
  261MPD2    C1 3949   0.142   1.380  12.499 -0.3573 -0.6187 -1.2989
  261MPD2    C2 3950   0.184   1.462  12.392  0.0002 -0.2025 -0.4894
  261MPD2    C3 3951   0.168   1.412  12.268  0.4944 -0.1793 -0.7392
  261MPD2    C4 3952   0.106   1.291  12.248  0.5394 -0.3648 -0.1240
  261MPD2    C5 3953   0.050   1.223  12.350  0.5828  0.6253 -0.3907
  261MPD2     H 3954   0.232   1.559  12.402 -0.3266  0.0980 -1.9971
  261MPD2    H1 3955   0.098   1.254  12.147  0.5883 -1.4430  0.2688
  261MPD2    H2 3956   0.031   1.198  12.555 -0.2493 -1.3876  0.1084
  261MPD2    H3 3957   4.718   1.132  12.330  1.1880 -0.1981  1.6738
  261MPD2     N 3958   0.213   1.492  12.163  0.8571 -0.1372 -0.1140
  261MPD2    H5 3959   0.252   1.583  12.187 -0.2458  0.0991  0.8098
  261MPD2    N1 3960   0.162   1.432  12.628  0.0998  0.4614  0.6156
  261MPD2    H7 3961   0.200   1.525  12.640  0.7198  0.2238  0.4589
  262TMC3    C1 3962   0.241   1.590  11.963  0.2272  0.1632  0.5802
  262TMC3    C2 3963   0.186   1.707  11.999 -0.5127 -0.3900  0.0922
  262TMC3    C3 3964   0.234   1.820  11.935 -0.2057 -0.0168  0.7765
  262TMC3    C4 3965   0.328   1.577  11.861  0.6234 -0.3310 -0.0553
  262TMC3    C5 3966   0.374   1.691  11.803 -0.7402 -0.3041 -0.5331
  262TMC3    C6 3967   0.328   1.812  11.835  0.2206 -0.0899 -0.1246
  262TMC3     C 3968   0.206   1.469  12.032  0.9662  0.2895  0.0529
  262TMC3     O 3969   0.193   1.364  11.971 -0.1482  0.0550  0.1585
  262TMC3     H 3970   0.112   1.711  12.078 -1.5017  3.2737 -1.0323
  262TMC3    H1 3971   0.369   1.483  11.824 -2.7071 -1.4956 -0.7682
  262TMC3    H2 3972   0.365   1.908  11.800 -1.0563  0.8565  1.1446
  262TMC3    C7 3973   0.503   1.686  11.735  0.2750  0.0343  0.2278
  262TMC3    C8 3974   0.172   1.948  11.956 -0.0406 -0.2816 -0.1196
  262TMC3    O1 3975   0.585   1.765  11.789  0.5412 -0.3259 -0.9156
  262TMC3    O2 3976   0.210   2.036  11.881  0.5158  0.5335 -0.1107
  263MPD2     C 3977   0.835   0.512  11.401 -0.4530  0.5330  0.1343
  263MPD2    C1 3978   0.934   0.569  11.477 -0.7130 -0.7699 -0.4334
  263MPD2    C2 3979   1.037   0.648  11.415  1.1523  0.3727 -0.6264
  263MPD2    C3 3980   1.039   0.657  11.282  0.9176 -0.6005 -0.0379
  263MPD2    C4 3981   0.935   0.607  11.208  0.5145  0.3870  0.0352
  263MPD2    C5 3982   0.838   0.533  11.271 -0.2067 -0.1172  0.4123
  263MPD2     H 3983   1.106   0.711  11.470  3.0142 -1.5403 -0.7803
  263MPD2    H1 3984   0.929   0.614  11.100  1.0028  0.6123  0.0223
  263MPD2    H2 3985   0.747   0.462  11.442  0.0877  1.8560  2.9363
  263MPD2    H3 3986   0.757   0.483  11.219  0.4587 -0.0910 -0.6463
  263MPD2     N 3987   1.128   0.744  11.218  0.0742  0.0254 -0.0790
  263MPD2    H5 3988   1.187   0.799  11.279  0.9306 -1.9022  0.8281
  263MPD2    N1 3989   0.930   0.542  11.618 -0.3804  0.3008  0.4024
  263MPD2    H7 3990   0.857   0.478  11.646 -1.0800  0.5361 -0.9243
  264TMC3    C1 3991   1.226   0.874  11.053  0.2105 -0.2038 -0.6654
  264TMC3    C2 3992   1.210   0.990  11.137 -0.0705 -0.0661  0.0009
  264TMC3    C3 3993   1.230   1.109  11.073 -0.3218  0.2382 -0.1872
  264TMC3    C4 3994   1.287   0.879  10.931 -0.4242  0.5578 -0.5823
  264TMC3    C5 3995   1.317   1.004  10.879 -0.5685  0.1442  0.4783
  264TMC3    C6 3996   1.286   1.113  10.944 -0.2445  0.5534 -0.0720
  264TMC3     C 3997   1.162   0.748  11.086  0.0902 -0.3340 -0.3148
  264TMC3     O 3998   1.136   0.676  10.995 -0.1533 -0.3011  0.1897
  264TMC3     H 3999   1.158   0.980  11.232 -1.3604 -0.7507 -0.7799
  264TMC3    H1 4000   1.308   0.793  10.869 -0.4672  0.2020 -0.1011
  264TMC3    H2 4001   1.283   1.207  10.891  1.6735 -0.1402 -1.4299
  264TMC3    C7 4002   1.444   1.011  10.806  0.2994  0.5216 -0.1361
  264TMC3    C8 4003   1.307   1.206  11.149 -0.4329 -0.4463  0.3620
  264TMC3    O1 4004   1.471   0.922  10.727 -0.0017 -0.0883  0.9984
  264TMC3    O2 4005   1.427   1.193  11.130 -0.3558  0.0380  0.0313
  265MPD2     C 4006   3.421   1.442  15.690 -0.3064  0.3298  0.2542
  265MPD2    C1 4007   3.425   1.563  15.617  0.6784 -0.4516 -0.0176
  265MPD2    C2 4008   3.481   1.552  15.493  0.2802  0.6535 -0.4605
  265MPD2    C3 4009   3.523   1.441  15.427 -0.3694 -0.0973 -0.0117
  265MPD2    C4 4010   3.507   1.324  15.499  0.2273  0.6392 -0.2782
  265MPD2    C5 4011   3.445   1.319  15.627 -0.0708 -0.2068 -0.4430
  265MPD2     H 4012   3.489   1.649  15.445  1.3468 -0.4022 -2.4108
  265MPD2    H1 4013   3.519   1.228  15.449 -1.2989  0.2505  0.1092
  265MPD2    H2 4014   3.382   1.441  15.791 -3.7812 -1.7402 -1.0994
  265MPD2    H3 4015   3.442   1.232  15.693  3.9641  0.4489  0.6460
  265MPD2     N 4016   3.574   1.434  15.296 -0.6123  0.3586  0.5247
  265MPD2    H5 4017   3.607   1.349  15.252 -0.6715  0.2706  0.6522
  265MPD2    N1 4018   3.391   1.691  15.672 -0.3476  0.3461 -0.1419
  265MPD2    H7 4019   3.382   1.774  15.614 -3.1796 -0.2220 -0.5106
  266TMC3    C1 4020   3.359   1.851  15.852 -0.0120  0.0907  0.6810
  266TMC3    C2 4021   3.413   1.886  15.973 -0.5224  0.2534 -1.0690
  266TMC3    C3 4022   3.394   2.014  16.021  0.4874 -0.7119  0.0518
  266TMC3    C4 4023   3.279   1.934  15.778  0.0455  0.5286 -0.6461
  266TMC3    C5 4024   3.270   2.062  15.830  0.5007  0.1290 -0.3649
  266TMC3    C6 4025   3.305   2.097  15.966 -0.3359 -0.1837 -0.2947
  266TMC3     C 4026   3.382   1.714  15.804  0.0639  0.0607  0.5570
  266TMC3     O 4027   3.398   1.632  15.891  0.3617 -0.2411 -0.0756
  266TMC3     H 4028   3.478   1.815  16.022 -1.1514  0.0130 -0.5725
  266TMC3    H1 4029   3.240   1.911  15.679 -0.1418 -0.5508 -0.3197
  266TMC3    H2 4030   3.284   2.196  16.005 -0.3448 -1.3309  2.6060
  266TMC3    C7 4031   3.202   2.162  15.749 -0.3671 -0.7570 -0.6478
  266TMC3    C8 4032   3.485   2.069  16.123 -0.1779 -0.3845  0.5224
  266TMC3    O1 4033   3.134   2.121  15.658  0.4740  0.3259  0.1031
  266TMC3    O2 4034   3.561   1.980  16.166  0.2644 -0.1590  0.2335
  267MPD2     C 4035   0.602   4.197   0.408 -0.3336 -0.0773 -0.5882
  267MPD2    C1 4036   0.593   4.072   0.352  0.8292 -0.2026 -0.1457
  267MPD2    C2 4037   0.482   4.043   0.270  0.5265 -0.2267 -0.5913
  267MPD2    C3 4038   0.387   4.138   0.235 -0.3376  0.1453 -0.3325
  267MPD2    C4 4039   0.404   4.267   0.290 -0.9929 -0.1240  0.4806
  267MPD2    C5 4040   0.508   4.294   0.379  0.1727 -0.5522 -0.6164
  267MPD2     H 4041   0.467   3.946   0.225 -0.0919 -0.5243  0.2519
  267MPD2    H1 4042   0.328   4.343   0.274  0.0318  0.7774 -0.0396
  267MPD2    H2 4043   0.686   4.218   0.474  0.1286  0.6350 -1.4027
  267MPD2    H3 4044   0.511   4.394   0.419  0.4477 -0.7907 -0.0493
  267MPD2     N 4045   0.278   4.121   0.149 -0.0538 -0.0877 -0.1996
  267MPD2    H5 4046   0.224   4.203   0.122  0.3786  0.2606 -0.0086
  267MPD2    N1 4047   0.697   3.980   0.385  0.0688  0.8592 -1.0091
  267MPD2    H7 4048   0.782   4.012   0.430  0.5094 -1.2509 -0.3688
  268TMC3    C1 4049   0.858   3.815   0.310  0.7163 -0.6006  0.0170
  268TMC3    C2 4050   0.910   3.769   0.191  0.3160 -0.2153  0.3733
  268TMC3    C3 4051   1.042   3.732   0.192 -0.3283 -0.4424  0.3088
  268TMC3    C4 4052   0.935   3.815   0.426  0.4046  0.3465 -0.6940
  268TMC3    C5 4053   1.062   3.776   0.417 -0.2131  0.2946  0.4049
  268TMC3    C6 4054   1.121   3.722   0.303 -0.2106 -0.2135 -0.3911
  268TMC3     C 4055   0.720   3.864   0.306  0.5624 -0.7365 -0.0597
  268TMC3     O 4056   0.646   3.816   0.222 -0.3512  0.4216 -0.4110
  268TMC3     H 4057   0.849   3.766   0.101  0.4398 -0.2525  0.2898
  268TMC3    H1 4058   0.901   3.850   0.523 -0.1604  0.1015 -0.8035
  268TMC3    H2 4059   1.222   3.684   0.308  0.3160  0.9372 -2.3253
  268TMC3    C7 4060   1.138   3.776   0.537 -0.1339 -0.1084  0.0537
  268TMC3    C8 4061   1.103   3.699   0.063 -0.3248 -0.4811 -0.2977
  268TMC3    O1 4062   1.218   3.686   0.549  0.1537 -0.3739 -0.0179
  268TMC3    O2 4063   1.211   3.642   0.063 -0.3187 -0.0940  0.0551
  269MPD2     C 4064   1.004   2.191  15.421 -0.3617  0.4246 -0.2059
  269MPD2    C1 4065   0.892   2.229  15.490  0.4173  0.1030  0.0533
  269MPD2    C2 4066   0.855   2.362  15.480  0.1805 -0.0600 -0.1312
  269MPD2    C3 4067   0.925   2.453  15.402 -0.0426 -0.2248  1.0751
  269MPD2    C4 4068   1.039   2.410  15.337  0.5279  0.0375 -0.1924
  269MPD2    C5 4069   1.081   2.279  15.344 -0.3308  0.2273 -0.4001
  269MPD2     H 4070   0.776   2.403  15.542 -0.7225 -1.0159 -0.6591
  269MPD2    H1 4071   1.091   2.475  15.267  3.3607 -0.9725  0.9773
  269MPD2    H2 4072   1.035   2.087  15.417  0.9145  0.8234 -0.7068
  269MPD2    H3 4073   1.162   2.252  15.276 -0.5154  0.2997 -0.6505
  269MPD2     N 4074   0.901   2.591  15.412 -0.5348  0.1347  0.0839
  269MPD2    H5 4075   0.832   2.622  15.481 -1.0408  0.0358 -0.3754
  269MPD2    N1 4076   0.828   2.133  15.570  0.1434 -0.3765 -0.1113
  269MPD2    H7 4077   0.875   2.043  15.574  0.9426  0.0753  0.5717
  270TMC3    C1 4078   0.678   2.026  15.716 -0.2795  0.7957 -0.2641
  270TMC3    C2 4079   0.545   2.005  15.707  0.0025  0.2894  0.4580
  270TMC3    C3 4080   0.499   1.884  15.738  0.4922  0.6460 -0.2545
  270TMC3    C4 4081   0.769   1.930  15.752 -0.3944  0.1591 -0.3807
  270TMC3    C5 4082   0.719   1.808  15.778  0.4482 -0.1863 -0.0201
  270TMC3    C6 4083   0.585   1.780  15.774  0.1979 -0.8887  0.2740
  270TMC3     C 4084   0.728   2.151  15.655 -0.3898 -0.6129 -0.3155
  270TMC3     O 4085   0.660   2.252  15.668 -0.1956  0.1343  0.0239
  270TMC3     H 4086   0.480   2.084  15.669 -1.9028 -0.7867  1.4940
  270TMC3    H1 4087   0.874   1.948  15.770 -1.1163  1.6961  2.1884
  270TMC3    H2 4088   0.551   1.678  15.784  3.2899 -2.0368 -0.7712
  270TMC3    C7 4089   0.813   1.701  15.803 -0.7469 -0.6864  0.0423
  270TMC3    C8 4090   0.400   1.839  15.652 -0.1673  0.2032 -0.3652
  270TMC3    O1 4091   0.917   1.719  15.744 -0.2248  0.7736 -0.5154
  270TMC3    O2 4092   0.309   1.917  15.628  0.1102  0.0166 -0.2431
  271MPD2     C 4093   0.239   1.947  13.977  0.4477  0.1929 -0.6515
  271MPD2    C1 4094   0.131   1.890  14.044 -0.3054 -0.6647  0.9391
  271MPD2    C2 4095   0.008   1.957  14.045 -0.2669  0.3143  0.2546
  271MPD2    C3 4096   4.714   2.075  13.972  0.7132 -0.0897  0.5513
  271MPD2    C4 4097   0.106   2.134  13.912 -0.7073  0.4876  0.1391
  271MPD2    C5 4098   0.227   2.069  13.912 -0.0563  0.3986  0.4500
  271MPD2     H 4099   4.650   1.915  14.105  0.1206  1.3746  1.5147
  271MPD2    H1 4100   0.111   2.230  13.862  2.3815  2.2778  3.8668
  271MPD2    H2 4101   0.341   1.909  13.981  0.6811  0.7040 -1.6450
  271MPD2    H3 4102   0.320   2.107  13.873 -0.4979  0.9281 -0.0813
  271MPD2     N 4103   4.597   2.141  13.955 -0.3177  0.1502  0.3978
  271MPD2    H5 4104   4.593   2.230  13.905 -2.2206 -0.5257 -0.6675
  271MPD2    N1 4105   0.137   1.781  14.136 -0.4594  0.6266  0.0732
  271MPD2    H7 4106   0.061   1.762  14.199  0.4900  4.0678  2.2310
  272TMC3    C1 4107   0.234   1.606  14.257 -0.5677 -0.5095 -0.6289
  272TMC3    C2 4108   0.325   1.503  14.244 -0.0605 -0.1060  0.4068
  272TMC3    C3 4109   0.394   1.465  14.350  0.4343  0.5800  0.6742
  272TMC3    C4 4110   0.214   1.663  14.378  0.4551  0.1241 -0.2024
  272TMC3    C5 4111   0.283   1.624  14.485 -0.4422  0.6254 -0.2516
  272TMC3    C6 4112   0.375   1.516  14.473  0.5305  0.2693  0.1139
  272TMC3     C 4113   0.245   1.696  14.151 -0.1765  0.5625  0.3935
  272TMC3     O 4114   0.325   1.673  14.061  0.0362  0.7159 -0.0504
  272TMC3     H 4115   0.343   1.459  14.147 -2.6618  1.6689 -0.8849
  272TMC3    H1 4116   0.141   1.743  14.385  0.3146  0.1359 -1.7705
  272TMC3    H2 4117   0.431   1.496  14.563  2.6930  1.5885 -0.9509
  272TMC3    C7 4118   0.303   1.715  14.600  0.4406 -1.0252 -0.3766
  272TMC3    C8 4119   0.508   1.368  14.322 -0.0780  0.5266 -0.4582
  272TMC3    O1 4120   0.407   1.700  14.668 -0.0525 -0.3937 -0.3687
  272TMC3    O2 4121   0.524   1.334  14.210  0.3493 -0.1555  0.2206
  273MPD2     C 4122   1.565   3.693  12.103  0.0324 -0.5235  0.2647
  273MPD2    C1 4123   1.650   3.800  12.086 -0.5423  0.7215 -0.6141
  273MPD2    C2 4124   1.627   3.886  11.981  0.3131  0.1419  0.4320
  273MPD2    C3 4125   1.522   3.864  11.898 -0.6284 -0.0703  0.2725
  273MPD2    C4 4126   1.430   3.762  11.922  0.4001 -0.3654  0.3077
  273MPD2    C5 4127   1.456   3.671  12.026 -0.1839 -0.4748  0.0735
  273MPD2     H 4128   1.691   3.973  11.967  0.9890 -0.5169 -0.5452
  273MPD2    H1 4129   1.336   3.758  11.869  1.1914 -1.6533 -1.0170
  273MPD2    H2 4130   1.576   3.622  12.185  0.9396 -0.9478 -0.2250
  273MPD2    H3 4131   1.389   3.590  12.052  0.7287 -1.8098 -1.7055
  273MPD2     N 4132   1.479   3.953  11.799 -0.3445 -0.2121  0.0094
  273MPD2    H5 4133   1.391   3.939  11.751  0.8628 -0.7108 -2.0831
  273MPD2    N1 4134   1.745   3.833  12.177  0.0196 -0.4622  0.0054
  273MPD2    H7 4135   1.722   3.785  12.263 -1.2059  1.1053  0.5442
  274TMC3    C1 4136   1.449   4.164  11.699  0.3597 -1.0022 -0.2179
  274TMC3    C2 4137   1.396   4.133  11.577  0.7161 -0.0278 -0.1892
  274TMC3    C3 4138   1.305   4.223  11.527 -0.0527  0.3692 -0.0210
  274TMC3    C4 4139   1.411   4.270  11.773 -0.3324  1.1080 -0.7493
  274TMC3    C5 4140   1.334   4.363  11.721  0.5424 -0.0044  0.2054
  274TMC3    C6 4141   1.282   4.344  11.595  0.1817  0.0524 -0.3474
  274TMC3     C 4142   1.538   4.071  11.771 -0.1363  0.1132  0.3942
  274TMC3     O 4143   1.656   4.106  11.793  0.3174  0.3052 -0.2525
  274TMC3     H 4144   1.414   4.037  11.530  0.2513  0.6426 -1.7437
  274TMC3    H1 4145   1.468   4.285  11.864  0.7289  1.1058 -1.4111
  274TMC3    H2 4146   1.200   4.409  11.568 -0.5101 -0.5327  0.3504
  274TMC3    C7 4147   1.285   4.476  11.800  0.1524 -0.0964  0.3987
  274TMC3    C8 4148   1.261   4.213  11.390 -0.4537  0.0289 -0.0842
  274TMC3    O1 4149   1.185   4.525  11.751 -0.1312 -0.1902 -0.7164
  274TMC3    O2 4150   1.214   4.111  11.345  0.4140  0.6162 -0.2066
  275MPD2     C 4151   2.004   2.325  14.407  0.2322 -0.0693 -0.3597
  275MPD2    C1 4152   1.935   2.303  14.523  0.2895 -0.1444  0.1201
  275MPD2    C2 4153   1.800   2.259  14.513 -0.3750  0.1159 -0.0117
  275MPD2    C3 4154   1.753   2.218  14.389 -0.0779 -0.6512 -0.0375
  275MPD2    C4 4155   1.833   2.217  14.280 -0.1987  0.0347 -0.4596
  275MPD2    C5 4156   1.959   2.273  14.288 -0.3869 -0.4390 -0.9467
  275MPD2     H 4157   1.740   2.239  14.601 -1.3139  0.6238 -0.5315
  275MPD2    H1 4158   1.794   2.175  14.187 -2.2052  1.4987 -0.3065
  275MPD2    H2 4159   2.100   2.375  14.403 -0.1163  0.5179 -1.2813
  275MPD2    H3 4160   2.021   2.293  14.201  2.6489 -0.9330  1.1099
  275MPD2     N 4161   1.624   2.186  14.356 -0.2894 -0.0547  0.8840
  275MPD2    H5 4162   1.618   2.147  14.263 -1.0029 -1.7143  1.6359
  275MPD2    N1 4163   1.970   2.352  14.651  0.0611  0.4923  0.0943
  275MPD2    H7 4164   1.924   2.313  14.732  0.1857  1.0806  0.4506
  276TMC3    C1 4165   2.090   2.467  14.817 -0.3705  0.4460 -0.2086
  276TMC3    C2 4166   2.089   2.354  14.894  0.6669 -0.0267 -0.5764
  276TMC3    C3 4167   2.119   2.367  15.027 -0.1181 -0.0138 -0.0400
  276TMC3    C4 4168   2.122   2.592  14.865 -0.1772 -0.3820 -0.0586
  276TMC3    C5 4169   2.159   2.599  15.000  0.0223 -0.1830 -0.3284
  276TMC3    C6 4170   2.149   2.488  15.082 -0.7648 -0.1188 -0.0265
  276TMC3     C 4171   2.061   2.457  14.670  0.0594 -0.6063 -0.2927
  276TMC3     O 4172   2.108   2.534  14.587 -0.1665 -0.4139 -0.2323
  276TMC3     H 4173   2.081   2.257  14.848  2.8474 -0.0834 -0.8536
  276TMC3    H1 4174   2.108   2.681  14.805  2.1386  0.4872  0.6696
  276TMC3    H2 4175   2.165   2.500  15.189  0.2170  0.8099 -0.2748
  276TMC3    C7 4176   2.224   2.717  15.048  0.2381 -0.3444 -0.5279
  276TMC3    C8 4177   2.126   2.250  15.109  0.0420 -0.1581  0.2560
  276TMC3    O1 4178   2.229   2.731  15.172 -0.0254 -0.3543 -0.3183
  276TMC3    O2 4179   2.222   2.228  15.186 -0.2008  0.3642  0.2069
  277MPD2     C 4180   3.153   1.547  13.054  0.2808 -0.7638 -0.1035
  277MPD2    C1 4181   3.141   1.605  13.176  0.3113 -0.2165  0.5834
  277MPD2    C2 4182   3.090   1.523  13.275 -0.3199 -0.0453 -0.3661
  277MPD2    C3 4183   3.033   1.398  13.249 -0.0569 -0.1694  0.2773
  277MPD2    C4 4184   3.056   1.342  13.122 -0.3065 -0.0312 -0.3923
  277MPD2    C5 4185   3.119   1.417  13.027 -0.3060  0.0207 -0.2026
  277MPD2     H 4186   3.078   1.558  13.377  0.0656 -2.1238  0.4023
  277MPD2    H1 4187   3.011   1.247  13.096  1.2976 -1.1219  0.8327
  277MPD2    H2 4188   3.204   1.592  12.969  1.2088 -3.9562 -1.2549
  277MPD2    H3 4189   3.110   1.391  12.922 -2.6520 -2.1021  0.5110
  277MPD2     N 4190   2.968   1.334  13.356 -0.0454  0.2373 -0.5027
  277MPD2    H5 4191   2.960   1.399  13.434 -3.2771  1.7239 -2.0480
  277MPD2    N1 4192   3.199   1.731  13.203 -0.3429  0.8435 -0.0467
  277MPD2    H7 4193   3.237   1.781  13.123 -0.4706  0.8396 -0.1097
  278TMC3    C1 4194   2.833   1.191  13.482 -0.4652 -0.0734 -0.3863
  278TMC3    C2 4195   2.767   1.070  13.492 -0.2156 -0.2783  0.3691
  278TMC3    C3 4196   2.683   1.052  13.601 -0.2328  0.3561 -0.2127
  278TMC3    C4 4197   2.834   1.281  13.586  0.9286  0.0417 -0.1289
  278TMC3    C5 4198   2.768   1.253  13.701 -0.1942 -0.5909 -0.3410
  278TMC3    C6 4199   2.686   1.142  13.708 -0.4859  0.2421  0.6507
  278TMC3     C 4200   2.907   1.210  13.353 -0.4095 -0.1283  0.2010
  278TMC3     O 4201   2.881   1.137  13.259 -0.2467 -0.3864 -0.6916
  278TMC3     H 4202   2.768   1.001  13.409  1.0985  1.4271 -1.0291
  278TMC3    H1 4203   2.893   1.372  13.587  2.2785 -0.8282 -0.9132
  278TMC3    H2 4204   2.610   1.131  13.785  0.2870  0.7308  1.4950
  278TMC3    C7 4205   2.758   1.355  13.801 -0.3329  0.2713 -0.4976
  278TMC3    C8 4206   2.638   0.921  13.627 -0.4603 -0.3436  0.0262
  278TMC3    O1 4207   2.863   1.401  13.840 -0.1452  0.5449 -0.3136
  278TMC3    O2 4208   2.653   0.881  13.745  0.4296 -0.6157  0.0100
  279MPD2     C 4209   2.757   2.425  17.574  0.8608  0.4706  0.2444
  279MPD2    C1 4210   2.728   2.302  17.529 -0.2503 -0.9675 -0.3205
  279MPD2    C2 4211   2.816   2.234  17.448 -0.2563 -0.1191 -0.4821
  279MPD2    C3 4212   2.932   2.298  17.409  0.6224  0.1199  0.3356
  279MPD2    C4 4213   2.966   2.412  17.479 -0.0410  0.1938 -1.4227
  279MPD2    C5 4214   2.880   2.475  17.554  0.1199 -0.2255  0.8458
  279MPD2     H 4215   2.772   2.155  17.387 -0.6826 -1.8456  2.0619
  279MPD2    H1 4216   3.056   2.466  17.450  0.0230  1.1516  0.5765
  279MPD2    H2 4217   2.692   2.486  17.635  1.0315  1.6353 -0.7490
  279MPD2    H3 4218   2.904   2.575  17.590  0.5968  0.3619 -1.1418
  279MPD2     N 4219   3.007   2.250  17.301 -0.0043  0.7391  0.0361
  279MPD2    H5 4220   3.086   2.310  17.276  0.2463  0.0217 -0.8995
  279MPD2    N1 4221   2.592   2.252  17.556  0.4689 -0.3201 -0.3272
  279MPD2    H7 4222   2.530   2.318  17.602  0.6525  0.4107 -1.1315
  280TMC3    C1 4223   2.403   2.115  17.556  0.1243  0.3158  0.0312
  280TMC3    C2 4224   2.361   1.991  17.569  0.8235 -0.1006 -0.9391
  280TMC3    C3 4225   2.225   1.972  17.578  0.7344 -0.1672  0.3997
  280TMC3    C4 4226   2.322   2.219  17.570 -0.0504  0.6214 -0.2486
  280TMC3    C5 4227   2.183   2.198  17.568  0.3387  0.0292  0.0506
  280TMC3    C6 4228   2.129   2.072  17.578 -0.2093 -0.1908  0.3024
  280TMC3     C 4229   2.542   2.129  17.531 -0.1327  0.0302 -0.3900
  280TMC3     O 4230   2.596   2.025  17.496 -0.1711  0.0922 -0.2149
  280TMC3     H 4231   2.431   1.908  17.565  2.9515  1.6599  0.1914
  280TMC3    H1 4232   2.362   2.320  17.559 -0.1513  0.7328  0.4089
  280TMC3    H2 4233   2.022   2.053  17.583 -0.5291  1.2091 -1.2288
  280TMC3    C7 4234   2.103   2.306  17.524 -0.4174  0.0720 -0.2716
  280TMC3    C8 4235   2.189   1.829  17.596  0.1429  0.2838  0.5092
  280TMC3    O1 4236   2.166   2.409  17.509  0.3802 -0.3140 -0.7321
  280TMC3    O2 4237   2.277   1.749  17.622 -0.3993 -0.0497  0.0177
  281TMC3    C1 4238   1.648   2.160  13.168 -0.2868 -0.2002 -0.6023
  281TMC3    C2 4239   1.682   2.235  13.066  0.2989 -0.2604 -0.9213
  281TMC3    C3 4240   1.708   2.168  12.949 -0.4170 -0.1241 -0.5090
  281TMC3    C4 4241   1.661   2.024  13.178 -0.0405  0.3334 -0.0426
  281TMC3    C5 4242   1.687   1.955  13.061 -0.9560 -0.0878  0.0773
  281TMC3    C6 4243   1.725   2.029  12.947  0.4154  0.1489  0.2883
  281TMC3     C 4244   1.595   2.227  13.288 -0.5526  0.1652  0.2002
  281TMC3     O 4245   1.643   2.181  13.390  0.2219  0.7413 -0.3117
  281TMC3     H 4246   1.691   2.342  13.080 -2.3002 -0.2355  0.5723
  281TMC3    H1 4247   1.643   1.971  13.271 -0.9792  1.0772  0.2028
  281TMC3    H2 4248   1.755   1.976  12.858 -0.9381  2.5690 -1.6095
  281TMC3    C7 4249   1.692   1.814  13.046  0.2427  0.5798 -0.3879
  281TMC3    C8 4250   1.758   2.234  12.836  0.1105  0.7016  0.5247
  281TMC3    O1 4251   1.743   1.763  12.947 -0.3256 -0.1212 -0.5820
  281TMC3    O2 4252   1.851   2.177  12.788  0.0506 -0.5774  0.1895
  282MPD2     C 4253   3.488   3.358  15.063 -0.2060 -0.0483 -0.7028
  282MPD2    C1 4254   3.352   3.382  15.071  0.1352  0.1259 -0.4198
  282MPD2    C2 4255   3.279   3.369  14.953  0.2354  0.6889  0.4094
  282MPD2    C3 4256   3.341   3.350  14.828 -1.0131  0.1624  0.1309
  282MPD2    C4 4257   3.478   3.333  14.819 -0.1058 -0.7724  0.1177
  282MPD2    C5 4258   3.548   3.333  14.941 -0.2654  0.0959  0.1522
  282MPD2     H 4259   3.173   3.389  14.956 -0.0076 -0.8069  1.8766
  282MPD2    H1 4260   3.528   3.336  14.723 -0.7595  0.8530 -0.1585
  282MPD2    H2 4261   3.552   3.356  15.151  0.1233  0.9536 -0.9186
  282MPD2    H3 4262   3.655   3.316  14.944 -0.2647 -0.3643 -2.7561
  282MPD2     N 4263   3.251   3.352  14.725 -0.6434  0.1771  0.4439
  282MPD2    H5 4264   3.157   3.387  14.741 -0.8186  0.7289 -1.7773
  282MPD2    N1 4265   3.289   3.416  15.189  0.4893 -0.3566  0.4285
  282MPD2    H7 4266   3.188   3.421  15.191  0.3993 -2.0632  0.3233
  283TMC3    C1 4267   3.256   3.474  15.422  0.0866 -0.4935  0.5150
  283TMC3    C2 4268   3.298   3.568  15.510 -0.1585  0.3345 -0.0687
  283TMC3    C3 4269   3.247   3.578  15.633 -0.8074  0.3030  0.3647
  283TMC3    C4 4270   3.151   3.387  15.453 -0.2997  0.1309  0.1651
  283TMC3    C5 4271   3.104   3.392  15.584  0.3133  0.0078  1.0160
  283TMC3    C6 4272   3.146   3.492  15.671  0.3746  0.4841 -0.3342
  283TMC3     C 4273   3.352   3.443  15.309  0.4116 -0.5182  0.0181
  283TMC3     O 4274   3.469   3.465  15.335 -0.2927  0.3457 -0.6988
  283TMC3     H 4275   3.390   3.620  15.487  0.3780 -0.9481 -0.7998
  283TMC3    H1 4276   3.114   3.321  15.375  0.2694 -1.9440  1.6570
  283TMC3    H2 4277   3.105   3.508  15.770  0.4159  1.3047 -0.4515
  283TMC3    C7 4278   2.974   3.348  15.621  0.6243  0.3471 -0.3167
  283TMC3    C8 4279   3.240   3.706  15.699 -0.0821  0.1965  0.0676
  283TMC3    O1 4280   2.914   3.417  15.706 -0.0566 -1.1228 -0.0586
  283TMC3    O2 4281   3.268   3.707  15.816  0.4473 -0.4458  0.2535
  284MPD2     C 4282   1.941   2.489  11.901  0.3293 -0.1026  0.4127
  284MPD2    C1 4283   1.829   2.549  11.850  0.1031 -0.3573 -0.4873
  284MPD2    C2 4284   1.709   2.539  11.919  0.0580 -0.2807 -0.4772
  284MPD2    C3 4285   1.694   2.471  12.034  0.3101  0.4994 -0.5355
  284MPD2    C4 4286   1.804   2.407  12.084  0.3093  0.2274 -0.0950
  284MPD2    C5 4287   1.924   2.422  12.021  0.0056 -0.1721  0.2250
  284MPD2     H 4288   1.630   2.595  11.870 -1.5677  0.2222  2.7600
  284MPD2    H1 4289   1.801   2.336  12.167 -0.3839 -1.7576 -1.8142
  284MPD2    H2 4290   2.042   2.494  11.861  1.1210  0.1440  2.4319
  284MPD2    H3 4291   2.011   2.373  12.063 -1.0209 -2.1741 -0.0119
  284MPD2     N 4292   1.561   2.456  12.090  0.1759 -0.6614  0.8011
  284MPD2    H5 4293   1.543   2.381  12.156  2.0011 -0.7789  1.1634
  284MPD2    N1 4294   1.825   2.598  11.721  0.0449  0.5546  0.0970
  284MPD2    H7 4295   1.735   2.618  11.680 -0.2002 -2.1695 -0.7041
  285TMC3    C1 4296   1.910   2.678  11.519 -0.2515 -0.0077 -0.0656
  285TMC3    C2 4297   1.949   2.609  11.404 -0.9037 -0.4762 -0.3862
  285TMC3    C3 4298   1.894   2.659  11.286 -0.7140 -0.0862  0.2014
  285TMC3    C4 4299   1.826   2.784  11.518 -0.0102 -0.3461  0.1128
  285TMC3    C5 4300   1.770   2.818  11.401  0.3976 -0.2545  0.1902
  285TMC3    C6 4301   1.804   2.761  11.284  0.2316 -0.4013  0.5862
  285TMC3     C 4302   1.927   2.595  11.634 -0.0815 -0.2477  0.2904
  285TMC3     O 4303   2.034   2.540  11.645  0.2102  0.3716  0.3476
  285TMC3     H 4304   1.998   2.514  11.421  1.1861  0.8250  0.8381
  285TMC3    H1 4305   1.799   2.837  11.609  1.9081 -0.3183  0.6796
  285TMC3    H2 4306   1.774   2.805  11.190 -0.4498 -3.7483 -0.7548
  285TMC3    C7 4307   1.727   2.957  11.402 -0.1456 -0.7318 -0.8451
  285TMC3    C8 4308   1.901   2.571  11.173 -0.5950  0.5430  1.1352
  285TMC3    O1 4309   1.734   3.032  11.499  0.3319 -0.3016 -0.4332
  285TMC3    O2 4310   1.816   2.571  11.088  0.3396  0.1300 -0.3000
  286MPD2     C 4311   1.422   2.396   1.574 -0.1038 -0.0093 -0.8207
  286MPD2    C1 4312   1.417   2.359   1.443 -0.1643  0.4530  0.4080
  286MPD2    C2 4313   1.495   2.261   1.389 -0.4021  1.4040 -0.6475
  286MPD2    C3 4314   1.576   2.189   1.472 -0.3418 -0.1430  0.5768
  286MPD2    C4 4315   1.590   2.232   1.604 -0.3048 -0.2919 -0.4576
  286MPD2    C5 4316   1.509   2.328   1.656 -0.0181 -0.0446  0.4785
  286MPD2     H 4317   1.480   2.241   1.284  1.2811 -1.8668 -0.2679
  286MPD2    H1 4318   1.653   2.179   1.675 -0.9413 -1.0662 -0.4712
  286MPD2    H2 4319   1.362   2.471   1.625 -1.7434 -1.5086 -0.5489
  286MPD2    H3 4320   1.536   2.362   1.755 -1.0075  0.0317  0.7251
  286MPD2     N 4321   1.672   2.093   1.431  0.0866  0.5737 -0.1863
  286MPD2    H5 4322   1.739   2.066   1.502  1.3424  0.0382 -1.5894
  286MPD2    N1 4323   1.337   2.437   1.352 -0.3675  0.3795 -0.4940
  286MPD2    H7 4324   1.335   2.412   1.254  1.3815  1.2765 -0.7580
  287TMC3    C1 4325   1.749   1.911   1.306  0.4742 -0.3991 -0.0195
  287TMC3    C2 4326   1.728   1.833   1.197 -0.7057 -0.5943 -0.4895
  287TMC3    C3 4327   1.824   1.730   1.173 -0.0630  0.2367  0.1434
  287TMC3    C4 4328   1.865   1.905   1.383 -0.3399  0.2837 -0.3964
  287TMC3    C5 4329   1.958   1.809   1.347 -0.1598  0.1671  0.0462
  287TMC3    C6 4330   1.939   1.725   1.244  0.0011 -0.3337 -0.4386
  287TMC3     C 4331   1.668   2.028   1.315 -0.0288 -0.5965 -0.0703
  287TMC3     O 4332   1.608   2.053   1.207  0.8702 -0.3160  0.3657
  287TMC3     H 4333   1.635   1.831   1.142 -0.8211 -0.2862 -0.3024
  287TMC3    H1 4334   1.887   1.980   1.458 -3.2854 -0.0151  0.7742
  287TMC3    H2 4335   2.010   1.654   1.205  1.9293  2.0894 -1.3134
  287TMC3    C7 4336   2.087   1.823   1.420 -0.0619  0.3137  0.5312
  287TMC3    C8 4337   1.809   1.642   1.048 -0.1505  0.0303  0.2564
  287TMC3    O1 4338   2.107   1.926   1.484  0.6850 -0.3582 -0.1712
  287TMC3    O2 4339   1.910   1.577   1.008  0.1632  0.1313  0.3951
  288TMC3    C1 4340   2.976   1.000  14.717  0.5659 -0.2456  0.7917
  288TMC3    C2 4341   2.897   0.932  14.815  0.1013  0.1418  0.1946
  288TMC3    C3 4342   2.892   0.982  14.945 -0.0911 -0.5118 -0.0586
  288TMC3    C4 4343   3.052   1.112  14.745  0.4287  0.8793  0.0546
  288TMC3    C5 4344   3.032   1.160  14.877  0.5304 -0.3154 -0.0979
  288TMC3    C6 4345   2.970   1.088  14.973 -0.4713  0.3681  0.1886
  288TMC3     C 4346   2.943   0.969  14.580 -0.1482 -0.5644  0.0425
  288TMC3     O 4347   2.910   0.856  14.550 -0.2285  0.5513  0.7910
  288TMC3     H 4348   2.847   0.842  14.780  1.0397 -0.4429  0.3415
  288TMC3    H1 4349   3.120   1.159  14.675 -1.9622  1.9517 -1.5307
  288TMC3    H2 4350   2.974   1.127  15.074 -0.2014 -0.9555  0.6874
  288TMC3    C7 4351   3.112   1.274  14.923 -0.1776  0.9023  0.2464
  288TMC3    C8 4352   2.821   0.909  15.052 -0.3387  0.1481 -0.0973
  288TMC3    O1 4353   3.132   1.290  15.043  0.4184 -0.4323 -0.0299
  288TMC3    O2 4354   2.874   0.903  15.161  0.0264 -0.1260  0.9736
  289MPD2     C 4355   3.422   0.369  14.443 -0.0434  0.3572  0.9405
  289MPD2    C1 4356   3.384   0.496  14.380  0.0671 -0.4342 -0.5923
  289MPD2    C2 4357   3.246   0.506  14.341 -0.3197  0.4085 -0.3668
  289MPD2    C3 4358   3.154   0.413  14.381 -0.0197  0.2260  0.4426
  289MPD2    C4 4359   3.187   0.301  14.454 -0.7279  0.3956  0.3114
  289MPD2    C5 4360   3.323   0.272  14.477 -0.3754  0.6764 -0.0933
  289MPD2     H 4361   3.212   0.595  14.291 -1.3599  0.5635  0.6165
  289MPD2    H1 4362   3.109   0.230  14.481 -2.0615  1.7392 -0.0557
  289MPD2    H2 4363   3.524   0.351  14.473  0.1353 -2.0457 -1.0926
  289MPD2    H3 4364   3.358   0.188  14.536  0.4888 -0.1252 -1.7433
  289MPD2     N 4365   3.012   0.436  14.361 -0.3813  0.0261 -0.1250
  289MPD2    H5 4366   2.953   0.381  14.421  1.7973 -0.6258  1.4178
  289MPD2    N1 4367   3.487   0.584  14.357 -0.4813 -0.7216  0.1465
  289MPD2    H7 4368   3.582   0.554  14.374 -0.0874 -0.0248 -0.8531
  290TMC3    C1 4369   2.806   0.556  14.347 -0.1432 -0.3255 -0.2517
  290TMC3    C2 4370   2.748   0.684  14.336  0.5627 -0.3783 -0.3629
  290TMC3    C3 4371   2.613   0.690  14.329  0.6279  0.2573 -0.3885
  290TMC3    C4 4372   2.729   0.440  14.333 -0.0390  0.3332  0.0008
  290TMC3    C5 4373   2.600   0.456  14.307  0.2542 -0.3126 -1.1784
  290TMC3    C6 4374   2.543   0.585  14.311  0.0157  0.8494  0.5813
  290TMC3     C 4375   2.954   0.550  14.312 -0.6938  0.8310  0.5147
  290TMC3     O 4376   2.997   0.634  14.231  0.8278 -0.4759 -0.1410
  290TMC3     H 4377   2.823   0.759  14.309 -0.3262  1.2117  1.5762
  290TMC3    H1 4378   2.780   0.345  14.322 -1.4161 -0.4739  0.5658
  290TMC3    H2 4379   2.435   0.592  14.306 -0.0321  1.3886  2.4838
  290TMC3    C7 4380   2.516   0.349  14.254  0.0296  0.4315  0.5497
  290TMC3    C8 4381   2.539   0.818  14.318 -0.3521  0.0889  0.5462
  290TMC3    O1 4382   2.423   0.383  14.186 -0.9168 -0.3007 -0.1440
  290TMC3    O2 4383   2.422   0.821  14.287  0.1007  0.3437  0.0532
  291MPD2     C 4384   1.666   4.518  17.499  0.3603  0.5395  0.1250
  291MPD2    C1 4385   1.714   4.395  17.523  0.2456 -0.3076  0.2364
  291MPD2    C2 4386   1.847   4.360  17.519  0.3699  0.5396  0.2696
  291MPD2    C3 4387   1.934   4.460  17.481 -0.3790 -0.1403 -0.4932
  291MPD2    C4 4388   1.887   4.580  17.450 -0.7728  0.8900 -0.0721
  291MPD2    C5 4389   1.754   4.618  17.466 -0.0741 -0.7437 -0.3021
  291MPD2     H 4390   1.873   4.266  17.566 -1.2742  0.3802  0.8683
  291MPD2    H1 4391   1.959   4.660  17.436 -1.1416  1.1378 -0.5168
  291MPD2    H2 4392   1.559   4.536  17.487 -0.0700 -1.5620  0.8162
  291MPD2    H3 4393   1.727   4.716  17.428  0.6643 -1.4832 -2.6935
  291MPD2     N 4394   2.074   4.441  17.469  0.5087 -0.0860 -0.4888
  291MPD2    H5 4395   2.123   4.516  17.422 -0.5204  0.6007 -0.4671
  291MPD2    N1 4396   1.625   4.289  17.552  0.2657  0.6655 -0.0099
  291MPD2    H7 4397   1.666   4.197  17.561  2.0539  1.6405  1.8207
  292TMC3    C1 4398   1.429   4.167  17.634  0.8966 -0.3008  0.0194
  292TMC3    C2 4399   1.394   4.164   0.077  0.2558 -0.4013  0.1056
  292TMC3    C3 4400   1.381   4.042   0.134  0.1203  0.0347  0.2452
  292TMC3    C4 4401   1.458   4.055  17.564 -0.0500 -0.6589 -0.7737
  292TMC3    C5 4402   1.428   3.937  17.627 -0.1187 -0.8490 -0.3826
  292TMC3    C6 4403   1.386   3.929   0.067  0.0583  0.3575  0.2010
  292TMC3     C 4404   1.492   4.301  17.599  0.2993  0.6041  0.6315
  292TMC3     O 4405   1.445   4.401  17.650  0.3839 -0.2609  0.0340
  292TMC3     H 4406   1.375   4.253   0.135  2.0148 -0.2389  0.4049
  292TMC3    H1 4407   1.479   4.060  17.458  0.9228 -1.8791 -0.6451
  292TMC3    H2 4408   1.380   3.834   0.119  2.5641 -1.0821 -2.1227
  292TMC3    C7 4409   1.488   3.820  17.567  1.0163 -0.6681  0.0295
  292TMC3    C8 4410   1.401   4.031   0.281  0.9836 -0.1475 -0.4680
  292TMC3    O1 4411   1.571   3.843  17.483 -0.3411 -0.3698 -0.3649
  292TMC3    O2 4412   1.379   3.920   0.332  0.0987 -0.2225 -0.1654
  293MPD2     C 4413   4.508   1.540  12.488  0.1762 -0.1217 -0.3383
  293MPD2    C1 4414   4.414   1.521  12.589 -0.1282  0.4278 -0.3842
  293MPD2    C2 4415   4.441   1.554  12.721 -0.2027 -0.6415  0.2741
  293MPD2    C3 4416   4.561   1.627  12.749  1.0737  0.3949 -0.4014
  293MPD2    C4 4417   4.633   1.664  12.639  0.2892  0.4784 -0.1537
  293MPD2    C5 4418   4.612   1.621  12.512 -0.7624  1.1413  0.8831
  293MPD2     H 4419   4.366   1.535  12.796 -0.1118 -1.5431  0.1368
  293MPD2    H1 4420   4.718   1.732  12.649  0.6461 -0.1679  1.2757
  293MPD2    H2 4421   4.489   1.492  12.393  1.2894  1.7959 -1.5354
  293MPD2    H3 4422   4.685   1.630  12.433 -3.9202 -2.4175 -2.4114
  293MPD2     N 4423   4.593   1.673  12.879 -0.2769 -0.7807 -0.2439
  293MPD2    H5 4424   4.534   1.640  12.954 -1.0801  1.6590  0.1853
  293MPD2    N1 4425   4.292   1.461  12.536  0.3609 -0.5287 -0.1895
  293MPD2    H7 4426   4.273   1.438  12.439  0.1249  0.1986 -0.3193
  294TMC3    C1 4427   4.070   1.389  12.537  0.2110 -0.5032 -0.5552
  294TMC3    C2 4428   3.959   1.349  12.609  0.0518 -0.0782  0.6657
  294TMC3    C3 4429   3.842   1.333  12.543 -0.3027  0.1754 -0.7971
  294TMC3    C4 4430   4.065   1.407  12.397  0.1131  0.4235 -0.9202
  294TMC3    C5 4431   3.940   1.392  12.342  0.1372 -0.8792 -0.5032
  294TMC3    C6 4432   3.828   1.355  12.411  0.7115  0.1550  0.2591
  294TMC3     C 4433   4.185   1.422  12.621  0.6352 -0.0138 -0.3261
  294TMC3     O 4434   4.173   1.417  12.745 -0.0466 -0.3794 -0.3527
  294TMC3     H 4435   3.968   1.319  12.713 -0.3853  0.2555  0.7988
  294TMC3    H1 4436   4.156   1.424  12.340 -0.5091  0.9080 -1.7571
  294TMC3    H2 4437   3.727   1.351  12.371  0.6609 -0.9960  0.5222
  294TMC3    C7 4438   3.926   1.317  12.221 -0.2667 -0.1044 -0.3548
  294TMC3    C8 4439   3.775   1.221  12.598  1.0007  0.1483  0.6084
  294TMC3    O1 4440   3.836   1.235  12.214  0.2699 -0.0009  0.1961
  294TMC3    O2 4441   3.785   1.183  12.713  0.0707 -0.4430 -0.9767
  295MPD2     C 4442   3.626   1.225  17.563 -0.1290 -0.7483 -0.0391
  295MPD2    C1 4443   3.717   1.310  17.625  0.0133  0.4022  0.1482
  295MPD2    C2 4444   3.683   1.369   0.054  0.2054  0.1339  0.1292
  295MPD2    C3 4445   3.565   1.329   0.120  0.4121  0.3197  0.3475
  295MPD2    C4 4446   3.477   1.246   0.051  0.0277 -0.4864 -0.2142
  295MPD2    C5 4447   3.505   1.208  17.615 -0.5246  0.2405  0.7419
  295MPD2     H 4448   3.758   1.430   0.103 -0.0751  1.4738 -1.1330
  295MPD2    H1 4449   3.377   1.222   0.085  0.1998 -0.3942  0.3587
  295MPD2    H2 4450   3.645   1.182  17.465  0.1049 -1.3511  0.2695
  295MPD2    H3 4451   3.427   1.158  17.559 -0.9379 -0.9426  2.3569
  295MPD2     N 4452   3.542   1.351   0.258 -0.4981 -0.1446 -0.3146
  295MPD2    H5 4453   3.465   1.294   0.291 -0.5025  0.1591  0.1994
  295MPD2    N1 4454   3.847   1.344  17.579 -0.0420  0.8113  0.0160
  295MPD2    H7 4455   3.897   1.394  17.652 -1.5536  1.6437  0.4894
  296TMC3    C1 4456   3.553   1.457   0.468 -0.1989 -0.1595 -0.3177
  296TMC3    C2 4457   3.599   1.564   0.547  0.0773 -0.6186 -0.5335
  296TMC3    C3 4458   3.622   1.555   0.681  0.2008  0.6336  0.2240
  296TMC3    C4 4459   3.516   1.346   0.532  0.2249  0.6211 -0.1864
  296TMC3    C5 4460   3.542   1.339   0.665 -0.4460 -0.1043 -0.0382
  296TMC3    C6 4461   3.601   1.432   0.740  0.0191 -0.4807  0.4888
  296TMC3     C 4462   3.603   1.450   0.332  0.0019 -0.6478 -0.0329
  296TMC3     O 4463   3.686   1.536   0.295  0.1731 -0.5910 -0.2026
  296TMC3     H 4464   3.626   1.652   0.490 -1.3693  0.2433  0.1261
  296TMC3    H1 4465   3.468   1.265   0.478  3.0129 -2.1624  1.5263
  296TMC3    H2 4466   3.596   1.430   0.848  3.0342 -0.7816  0.6206
  296TMC3    C7 4467   3.485   1.226   0.723  0.4782 -0.1077 -0.1169
  296TMC3    C8 4468   3.681   1.667   0.749  0.7471  0.8590 -0.1074
  296TMC3    O1 4469   3.383   1.194   0.668 -0.8548 -0.5215  0.2055
  296TMC3    O2 4470   3.659   1.778   0.699  0.3396  0.5925 -0.5615
  297MPD2     C 4471   2.249   2.410  15.867 -0.9545 -0.4323 -1.1328
  297MPD2    C1 4472   2.187   2.452  15.976  0.6432 -0.6314 -0.7439
  297MPD2    C2 4473   2.253   2.539  16.057 -0.1346  0.2215 -0.3040
  297MPD2    C3 4474   2.389   2.571  16.032  0.6458  0.2005  0.1015
  297MPD2    C4 4475   2.453   2.519  15.919  0.7734  0.2585 -0.3913
  297MPD2    C5 4476   2.384   2.438  15.834 -0.5416 -0.3490  0.5000
  297MPD2     H 4477   2.210   2.570  16.151  0.6990 -1.5043  0.6385
  297MPD2    H1 4478   2.560   2.528  15.906  0.8262  0.2367  0.0304
  297MPD2    H2 4479   2.193   2.348  15.797 -2.5236  0.4761 -0.6542
  297MPD2    H3 4480   2.428   2.394  15.745 -2.1191 -1.1663  0.1215
  297MPD2     N 4481   2.454   2.639  16.136  0.7845  0.6588 -0.0715
  297MPD2    H5 4482   2.408   2.664  16.223 -1.6582  0.2153 -1.2404
  297MPD2    N1 4483   2.054   2.406  15.994  0.0561 -0.0398 -0.2845
  297MPD2    H7 4484   2.028   2.334  15.927 -0.5299 -0.0535 -0.0416
  298TMC3    C1 4485   1.858   2.352  16.105 -0.7290  0.3417 -0.8483
  298TMC3    C2 4486   1.871   2.248  16.015  0.3292  0.1609 -0.6349
  298TMC3    C3 4487   1.755   2.192  15.968 -0.7141 -0.4860 -0.4045
  298TMC3    C4 4488   1.737   2.410  16.134 -0.0201 -0.1258  0.0659
  298TMC3    C5 4489   1.627   2.360  16.069 -0.0840 -0.3818 -0.1846
  298TMC3    C6 4490   1.634   2.251  15.987 -0.1707  0.2344  0.3369
  298TMC3     C 4491   1.964   2.451  16.089  0.0991  0.2240 -0.0709
  298TMC3     O 4492   1.966   2.546  16.171 -0.1532  0.2836 -0.0736
  298TMC3     H 4493   1.962   2.192  16.001  1.9642  2.7454 -0.4029
  298TMC3    H1 4494   1.733   2.484  16.213 -1.3934  2.2506 -2.2459
  298TMC3    H2 4495   1.550   2.206  15.936 -1.5536  1.3229  1.6350
  298TMC3    C7 4496   1.505   2.401  16.133 -0.6243 -0.1071 -0.0059
  298TMC3    C8 4497   1.771   2.104  15.857  0.5403 -0.2408  0.2759
  298TMC3    O1 4498   1.519   2.419  16.254  0.2011 -0.7956 -0.5129
  298TMC3    O2 4499   1.883   2.106  15.801 -0.2129  0.1903  0.4904
  299MPD2     C 4500   2.754   1.609  10.705  0.0768 -0.0611 -0.0958
  299MPD2    C1 4501   2.812   1.663  10.592 -0.5015 -0.2815  0.5012
  299MPD2    C2 4502   2.748   1.647  10.469 -0.1956 -0.9300  0.3360
  299MPD2    C3 4503   2.626   1.577  10.471  0.8352  1.0546  0.2819
  299MPD2    C4 4504   2.567   1.535  10.585  0.3641 -0.3623 -0.0248
  299MPD2    C5 4505   2.635   1.539  10.701  0.1784  0.7429 -0.7530
  299MPD2     H 4506   2.785   1.678  10.372  1.2221  1.3208  1.5787
  299MPD2    H1 4507   2.466   1.499  10.600  0.2927  0.0820  0.5845
  299MPD2    H2 4508   2.804   1.616  10.801  1.2963 -0.2720 -0.7195
  299MPD2    H3 4509   2.587   1.505  10.792  2.4518 -0.1961  0.0884
  299MPD2     N 4510   2.559   1.531  10.355 -0.1410 -0.8131 -0.2095
  299MPD2    H5 4511   2.492   1.457  10.373 -2.2298  0.9113 -0.9755
  299MPD2    N1 4512   2.932   1.739  10.613 -0.5141  0.1070 -0.3677
  299MPD2    H7 4513   2.969   1.721  10.706 -1.4380 -1.0137 -0.2182
  300TMC3    C1 4514   2.526   1.487  10.111 -0.1218 -0.7643 -0.0971
  300TMC3    C2 4515   2.553   1.538   9.992  0.1057 -0.1620  0.0345
  300TMC3    C3 4516   2.456   1.530   9.898 -0.3900 -0.0142 -0.6257
  300TMC3    C4 4517   2.398   1.440  10.147 -0.2780 -0.6427  0.1915
  300TMC3    C5 4518   2.297   1.442  10.058 -0.0007 -0.3441  0.6055
  300TMC3    C6 4519   2.332   1.479   9.928 -0.7885  0.6478  1.1034
  300TMC3     C 4520   2.594   1.557  10.227 -0.2110  0.0054 -0.3120
  300TMC3     O 4521   2.683   1.632  10.190  0.4042 -0.2653 -0.4814
  300TMC3     H 4522   2.650   1.581   9.968  0.0153  0.0541  0.0565
  300TMC3    H1 4523   2.390   1.391  10.244  1.5049  0.6245  0.9855
  300TMC3    H2 4524   2.255   1.470   9.852 -1.0045  0.9650  1.2856
  300TMC3    C7 4525   2.155   1.437  10.093  0.0118 -0.7408  0.1392
  300TMC3    C8 4526   2.470   1.623   9.783 -0.0997  0.5675  0.9465
  300TMC3    O1 4527   2.089   1.382  10.009 -0.0147 -0.5388  0.0362
  300TMC3    O2 4528   2.587   1.639   9.755 -0.6728 -0.3701  0.2777
  301MPD2     C 4529   0.935   3.785   0.915 -0.6433  0.0959  0.4248
  301MPD2    C1 4530   0.816   3.768   0.842 -0.4585  0.3567  0.3307
  301MPD2    C2 4531   0.764   3.646   0.822 -0.2087 -0.6921 -0.2050
  301MPD2    C3 4532   0.818   3.531   0.886 -0.0109  0.4866 -0.2340
  301MPD2    C4 4533   0.942   3.545   0.949 -0.4187  0.2463 -0.5057
  301MPD2    C5 4534   0.996   3.674   0.960  0.0534  0.0630 -0.9030
  301MPD2     H 4535   0.682   3.635   0.753 -0.6449  0.7275  0.0992
  301MPD2    H1 4536   1.001   3.462   0.988 -0.3091  0.5127 -0.1043
  301MPD2    H2 4537   0.990   3.877   0.931 -1.0136  0.2127  1.0379
  301MPD2    H3 4538   1.091   3.692   1.009  1.2076 -1.9135 -2.3931
  301MPD2     N 4539   0.760   3.403   0.885 -0.1275  0.4671 -0.1938
  301MPD2    H5 4540   0.821   3.325   0.909 -0.5094  0.1764 -0.1685
  301MPD2    N1 4541   0.738   3.881   0.803  0.6298 -0.5369  0.1406
  301MPD2    H7 4542   0.661   3.848   0.746  0.5480 -2.8988  1.5823
  302TMC3    C1 4543   0.595   3.244   0.856 -0.1064 -0.1170 -0.2331
  302TMC3    C2 4544   0.685   3.147   0.832  0.3920  0.3495 -0.5715
  302TMC3    C3 4545   0.640   3.021   0.845  0.3194  0.1655 -0.5725
  302TMC3    C4 4546   0.468   3.224   0.899 -0.0699  0.3465  0.8316
  302TMC3    C5 4547   0.432   3.093   0.903 -0.0553 -0.6202 -0.1992
  302TMC3    C6 4548   0.513   2.984   0.882 -0.3808 -0.6351  0.0368
  302TMC3     C 4549   0.630   3.379   0.853  0.6493 -0.2364 -0.5742
  302TMC3     O 4550   0.541   3.451   0.810 -0.0141  0.0758  0.2320
  302TMC3     H 4551   0.789   3.170   0.817  0.4808  0.7486  0.6667
  302TMC3    H1 4552   0.405   3.304   0.936 -1.0806  0.2946 -0.7692
  302TMC3    H2 4553   0.481   2.882   0.899 -1.7616 -0.1159  0.5590
  302TMC3    C7 4554   0.291   3.065   0.927  0.3447 -0.1575  0.0886
  302TMC3    C8 4555   0.744   2.918   0.841  0.0413  0.8047  0.4512
  302TMC3    O1 4556   0.267   2.961   0.990  0.5170  0.2509  0.0727
  302TMC3    O2 4557   0.841   2.947   0.772 -0.3349  0.2664  0.0602
  303MPD2     C 4558   0.067   1.535  10.375  0.6955  0.5979  0.4383
  303MPD2    C1 4559   4.680   1.450  10.401  0.6205 -0.8418 -0.5809
  303MPD2    C2 4560   4.593   1.418  10.305 -0.1319  1.2858 -0.0739
  303MPD2    C3 4561   4.614   1.470  10.179 -0.1684  0.1262  0.2917
  303MPD2    C4 4562   0.002   1.548  10.157  0.7266  0.9853 -0.2614
  303MPD2    C5 4563   0.089   1.584  10.254 -0.7497  0.3041 -0.4145
  303MPD2     H 4564   4.521   1.341  10.330 -2.4590  3.5609  0.2062
  303MPD2    H1 4565   0.021   1.598  10.063  0.2511  2.5191  0.4517
  303MPD2    H2 4566   0.132   1.579  10.449  0.3558  1.8899 -0.0418
  303MPD2    H3 4567   0.181   1.637  10.233 -0.6324  1.0930  2.0724
  303MPD2     N 4568   4.526   1.435  10.072 -0.3143 -0.1053 -0.5400
  303MPD2    H5 4569   4.549   1.458   9.976  1.8558  0.7324  0.1797
  303MPD2    N1 4570   4.678   1.389  10.530 -0.6036 -0.4081 -0.1661
  303MPD2    H7 4571   0.037   1.408  10.587 -1.0510 -0.6726  0.5639
  304TMC3    C1 4572   4.644   1.237  10.702 -0.2236 -0.1907 -0.5248
  304TMC3    C2 4573   4.587   1.257  10.826  0.6022  0.2995  0.5077
  304TMC3    C3 4574   4.587   1.146  10.902  0.0862 -0.0792 -0.0174
  304TMC3    C4 4575   4.694   1.110  10.655 -0.0026 -0.0076 -0.0507
  304TMC3    C5 4576   4.698   1.004  10.735 -0.2697 -0.1791  0.0019
  304TMC3    C6 4577   4.643   1.025  10.852  0.5934 -0.5459 -0.0943
  304TMC3     C 4578   4.583   1.313  10.592  0.0252  1.1176  0.1441
  304TMC3     O 4579   4.469   1.284  10.559 -0.0047  0.6032  0.9075
  304TMC3     H 4580   4.530   1.342  10.859  0.8370  0.2908  0.9274
  304TMC3    H1 4581   4.714   1.104  10.548 -0.4880  1.1315 -0.2068
  304TMC3    H2 4582   4.676   0.948  10.922 -0.5364 -1.2694 -0.3701
  304TMC3    C7 4583   4.646   0.884  10.677 -0.3392 -0.4039 -0.1512
  304TMC3    C8 4584   4.463   1.123  10.974  0.1268  0.1956  0.1556
  304TMC3    O1 4585   4.564   0.822  10.747 -0.0428  0.2149  0.1740
  304TMC3    O2 4586   4.405   1.226  11.011 -0.5500  0.2498 -0.1040
  305MPD2     C 4587   2.896   3.418  13.722  0.0834 -0.0787 -0.0378
  305MPD2    C1 4588   3.019   3.373  13.763  0.3738  0.0064  0.4716
  305MPD2    C2 4589   3.079   3.277  13.692  0.2333 -0.4492 -0.4053
  305MPD2    C3 4590   3.010   3.209  13.589 -0.6230  0.5040  0.2274
  305MPD2    C4 4591   2.885   3.257  13.555  0.5273  0.2886 -0.2711
  305MPD2    C5 4592   2.826   3.358  13.626  0.1064  0.0124 -0.0013
  305MPD2     H 4593   3.178   3.237  13.709 -1.3997 -3.1061  2.6839
  305MPD2    H1 4594   2.825   3.217  13.473  1.1903 -0.6124 -0.3139
  305MPD2    H2 4595   2.835   3.491  13.772 -1.2556 -0.6358 -0.8704
  305MPD2    H3 4596   2.723   3.386  13.609  0.6515  0.6875 -2.2606
  305MPD2     N 4597   3.067   3.103  13.525 -0.3195 -0.1804 -0.0808
  305MPD2    H5 4598   3.163   3.084  13.551 -1.2128 -2.6907  1.3240
  305MPD2    N1 4599   3.074   3.432  13.876  0.1132  0.0873 -0.0429
  305MPD2    H7 4600   3.021   3.506  13.920 -0.1567 -0.1207 -0.0217
  306TMC3    C1 4601   3.212   3.483  14.057 -0.7470 -0.0448  0.0287
  306TMC3    C2 4602   3.335   3.471  14.114  0.3268  0.5824 -0.7442
  306TMC3    C3 4603   3.374   3.554  14.214 -0.3847  0.4222 -0.2363
  306TMC3    C4 4604   3.127   3.583  14.099 -0.0641 -0.4700  0.5981
  306TMC3    C5 4605   3.173   3.681  14.184 -0.0382 -0.1436 -0.9026
  306TMC3    C6 4606   3.293   3.660  14.247 -0.3160  0.8455  0.5277
  306TMC3     C 4607   3.189   3.398  13.944 -0.7874  0.2532  0.3727
  306TMC3     O 4608   3.271   3.309  13.927  0.1874  0.4336  0.2085
  306TMC3     H 4609   3.399   3.388  14.087  0.7567  1.0119 -1.0462
  306TMC3    H1 4610   3.030   3.588  14.052 -0.7832 -2.9897  1.8007
  306TMC3    H2 4611   3.356   3.736  14.291  0.7487  0.2396  0.0649
  306TMC3    C7 4612   3.066   3.746  14.258  0.3086 -0.5370  0.3388
  306TMC3    C8 4613   3.506   3.531  14.271  0.2573 -0.9494  0.1020
  306TMC3    O1 4614   2.950   3.725  14.219  0.1463  0.4307  0.1982
  306TMC3    O2 4615   3.600   3.490  14.204  0.7531 -0.4465 -0.4004
  307MPD2     C 4616   0.315   1.512   1.120  0.6901  0.5516 -1.1571
  307MPD2    C1 4617   0.296   1.647   1.082 -0.3598 -0.6721 -0.8350
  307MPD2    C2 4618   0.167   1.693   1.059  0.2349  0.5142 -0.0090
  307MPD2    C3 4619   0.062   1.609   1.071 -0.3170  0.0355 -0.2154
  307MPD2    C4 4620   0.082   1.483   1.123 -0.3127 -0.0416 -0.0741
  307MPD2    C5 4621   0.209   1.433   1.149  0.1814 -0.3518  0.1236
  307MPD2     H 4622   0.165   1.791   1.013  0.2774  1.2089  1.4766
  307MPD2    H1 4623   4.720   1.420   1.147 -0.5272 -0.3335 -1.5680
  307MPD2    H2 4624   0.412   1.465   1.135 -0.7175 -2.3678 -1.2826
  307MPD2    H3 4625   0.241   1.336   1.184 -0.3155 -0.5461  0.0394
  307MPD2     N 4626   4.657   1.665   1.042 -0.1973 -0.1714 -0.0828
  307MPD2    H5 4627   4.662   1.763   1.018 -1.1214 -0.5707 -1.8754
  307MPD2    N1 4628   0.398   1.734   1.058 -0.1834  0.4382  0.1985
  307MPD2    H7 4629   0.372   1.819   1.009 -3.3117 -0.9705 -0.5237
  308TMC3    C1 4630   4.208   1.709   0.910  0.0105 -0.7495 -0.3321
  308TMC3    C2 4631   4.211   1.838   0.945 -0.1336 -0.0516 -0.0651
  308TMC3    C3 4632   4.328   1.891   0.997 -0.7993  0.0861 -0.0755
  308TMC3    C4 4633   4.315   1.629   0.934  0.0960  0.4506  0.1523
  308TMC3    C5 4634   4.430   1.690   0.985 -0.2814 -0.4139  0.3490
  308TMC3    C6 4635   4.436   1.821   1.020  0.2997 -0.3966 -0.4216
  308TMC3     C 4636   4.139   1.667   0.789  0.0388 -0.0635  0.2066
  308TMC3     O 4637   4.139   1.548   0.760 -0.0829  0.1705  0.9898
  308TMC3     H 4638   4.128   1.905   0.928 -0.2700 -0.3966 -0.7725
  308TMC3    H1 4639   4.319   1.521   0.928  2.6745  0.5506  0.1122
  308TMC3    H2 4640   4.526   1.864   1.063  1.3759 -0.9105 -2.1157
  308TMC3    C7 4641   4.539   1.598   1.028 -0.8172 -0.3792 -0.0879
  308TMC3    C8 4642   4.310   2.022   1.061  0.3050  0.0741 -0.7351
  308TMC3    O1 4643   4.524   1.477   1.025 -0.2068 -0.4831 -0.6968
  308TMC3    O2 4644   4.196   2.044   1.100  0.3080  0.0110  0.1805
  309MPD2     C 4645   0.135   2.347  17.026  0.1098  0.3290  0.1029
  309MPD2    C1 4646   0.110   2.387  16.901  0.1042  0.6081  1.1009
  309MPD2    C2 4647   4.704   2.441  16.882 -0.5682  0.1888  0.2391
  309MPD2    C3 4648   4.614   2.470  16.978 -0.6988 -0.5604  0.0184
  309MPD2    C4 4649   4.651   2.440  17.108  0.2731 -0.6324  0.6869
  309MPD2    C5 4650   0.049   2.376  17.130 -0.0530 -0.2969  0.5236
  309MPD2     H 4651   4.676   2.460  16.779  0.9027  1.7852  0.1339
  309MPD2    H1 4652   4.605   2.477  17.199  0.3688  1.7398 -0.2250
  309MPD2    H2 4653   0.233   2.309  17.055 -1.0160 -1.1927  1.9607
  309MPD2    H3 4654   0.079   2.355  17.232  1.7377 -0.4032 -0.0343
  309MPD2     N 4655   4.491   2.543  16.944  0.3266  0.3314 -0.4273
  309MPD2    H5 4656   4.476   2.569  16.847 -1.1840 -1.0212 -0.5649
  309MPD2    N1 4657   0.201   2.384  16.794 -0.2436 -0.3040  0.1334
  309MPD2    H7 4658   0.179   2.447  16.716  1.3450  1.2681  0.9589
  310TMC3    C1 4659   0.408   2.337  16.686 -0.2553  0.0699 -0.0097
  310TMC3    C2 4660   0.370   2.410  16.577  0.2016 -0.4380 -0.2074
  310TMC3    C3 4661   0.456   2.412  16.469 -0.1204  0.1123 -0.0726
  310TMC3    C4 4662   0.528   2.287  16.696 -0.0623 -0.0899  0.0759
  310TMC3    C5 4663   0.614   2.297  16.596  0.4724 -0.5446 -0.1495
  310TMC3    C6 4664   0.577   2.348  16.475  0.4011 -0.0383 -0.6181
  310TMC3     C 4665   0.322   2.317  16.797  0.2109  0.1168 -0.3610
  310TMC3     O 4666   0.341   2.223  16.874 -0.3044 -0.3095 -0.4090
  310TMC3     H 4667   0.274   2.458  16.564  0.2857 -0.3714 -0.5850
  310TMC3    H1 4668   0.575   2.232  16.777 -0.5853 -0.5289  0.0785
  310TMC3    H2 4669   0.650   2.340  16.395 -1.6392  1.3163 -2.6134
  310TMC3    C7 4670   0.749   2.245  16.602  0.3470 -0.3091 -0.1020
  310TMC3    C8 4671   0.427   2.505  16.360  0.0699  0.0778 -0.1143
  310TMC3    O1 4672   0.801   2.211  16.496 -0.4549 -0.5217 -0.1331
  310TMC3    O2 4673   0.315   2.548  16.350 -0.2642  0.4302  0.0926
  311MPD2     C 4674   2.186   2.617  12.921  0.7124 -0.1212  0.1575
  311MPD2    C1 4675   2.146   2.747  12.928 -0.5823  0.0368 -0.5884
  311MPD2    C2 4676   2.024   2.778  12.988  0.1027  0.1753  0.2727
  311MPD2    C3 4677   1.948   2.683  13.057 -0.2046  0.1852 -0.3903
  311MPD2    C4 4678   1.994   2.546  13.044 -0.3159 -0.0863 -0.5762
  311MPD2    C5 4679   2.114   2.516  12.984 -0.8546  0.5028 -0.1592
  311MPD2     H 4680   1.990   2.881  12.993  0.0217  0.3161 -3.1991
  311MPD2    H1 4681   1.941   2.456  13.073 -0.7801  1.3059  2.9274
  311MPD2    H2 4682   2.268   2.578  12.862 -1.3909 -2.3356 -1.2507
  311MPD2    H3 4683   2.140   2.411  12.973 -1.3017  0.7603 -3.6817
  311MPD2     N 4684   1.827   2.727  13.114  0.0466  0.5970 -0.1082
  311MPD2    H5 4685   1.801   2.821  13.088 -0.7489  0.6195  0.7900
  311MPD2    N1 4686   2.223   2.844  12.855  0.4781  0.2738  0.4004
  311MPD2    H7 4687   2.191   2.940  12.854  1.8717  0.7382  0.2703
  312TMC3    C1 4688   1.640   2.724  13.257  0.2313 -0.0406  0.6878
  312TMC3    C2 4689   1.588   2.820  13.175  0.8132  0.2586 -0.1524
  312TMC3    C3 4690   1.489   2.900  13.229 -0.8603 -0.1464 -0.5917
  312TMC3    C4 4691   1.619   2.711  13.394 -0.3532 -0.3132 -0.4377
  312TMC3    C5 4692   1.540   2.812  13.446 -0.3496  0.3548  0.0255
  312TMC3    C6 4693   1.460   2.891  13.364  0.0401 -0.5926  0.9265
  312TMC3     C 4694   1.743   2.650  13.194 -0.8217  0.7024 -0.7724
  312TMC3     O 4695   1.756   2.533  13.223 -1.2485 -0.3976 -0.6597
  312TMC3     H 4696   1.609   2.815  13.069 -1.8661  0.9311 -0.7213
  312TMC3    H1 4697   1.676   2.638  13.450  1.4941  1.5059  0.0642
  312TMC3    H2 4698   1.389   2.961  13.407  0.9098  0.1221  1.2178
  312TMC3    C7 4699   1.523   2.836  13.591 -0.5180  0.8174  1.0429
  312TMC3    C8 4700   1.387   2.955  13.140  0.9562 -0.0080 -0.8440
  312TMC3    O1 4701   1.423   2.898  13.625 -0.6644 -0.2385  0.1057
  312TMC3    O2 4702   1.370   2.901  13.035 -0.4319 -0.9044  0.1360
  313MPD2     C 4703   2.635   2.170  10.068  0.3091  0.2071 -0.2094
  313MPD2    C1 4704   2.504   2.195  10.059 -0.1947 -0.1431  0.9923
  313MPD2    C2 4705   2.437   2.176   9.943  0.1220 -0.9507 -0.0312
  313MPD2    C3 4706   2.504   2.122   9.836 -0.3916 -0.7568 -0.0797
  313MPD2    C4 4707   2.634   2.084   9.843  0.5517  0.2891  0.2275
  313MPD2    C5 4708   2.701   2.112   9.961  1.5499 -0.3076 -1.0259
  313MPD2     H 4709   2.333   2.206   9.936 -0.2502 -1.3166  3.6196
  313MPD2    H1 4710   2.689   2.063   9.753  0.5555 -0.4403  0.3989
  313MPD2    H2 4711   2.677   2.185  10.168 -1.0944  0.7021  0.2974
  313MPD2    H3 4712   2.805   2.086   9.973  1.1359 -2.2919 -1.7146
  313MPD2     N 4713   2.434   2.133   9.712 -0.7504  0.8167  0.5562
  313MPD2    H5 4714   2.341   2.176   9.714 -0.8214  0.7004 -0.4685
  313MPD2    N1 4715   2.425   2.244  10.169  0.0035  0.2765 -0.6261
  313MPD2    H7 4716   2.325   2.246  10.156  0.0521 -1.2374 -1.3089
  314TMC3    C1 4717   2.362   2.308  10.386  0.3062 -0.3629 -0.0077
  314TMC3    C2 4718   2.387   2.411  10.468 -0.2977  0.3680 -0.2059
  314TMC3    C3 4719   2.271   2.456  10.519  0.2862 -0.2744 -1.0753
  314TMC3    C4 4720   2.237   2.255  10.354 -0.2666  0.2734 -0.2136
  314TMC3    C5 4721   2.131   2.315  10.406  0.1758  0.2635 -0.8192
  314TMC3    C6 4722   2.142   2.423  10.487 -0.5086 -0.1368 -0.7619
  314TMC3     C 4723   2.474   2.276  10.295  0.8556 -0.2198  0.8856
  314TMC3     O 4724   2.586   2.296  10.336 -0.1825 -0.4345  0.5353
  314TMC3     H 4725   2.484   2.458  10.483 -0.7497  0.3275  2.8553
  314TMC3    H1 4726   2.217   2.170  10.289 -1.8457  2.5004 -2.6607
  314TMC3    H2 4727   2.049   2.462  10.527  1.1969  2.0076  1.1085
  314TMC3    C7 4728   2.007   2.283  10.339  0.5291 -0.3573  0.0694
  314TMC3    C8 4729   2.275   2.557  10.614 -0.9717  0.3276  0.5679
  314TMC3    O1 4730   2.000   2.192  10.266 -0.0311  0.2521  0.3555
  314TMC3    O2 4731   2.179   2.636  10.612 -0.4528  0.4374 -0.3639
  315MPD2     C 4732   1.133   2.212   0.462 -0.2423  0.4995  0.5676
  315MPD2    C1 4733   1.211   2.156   0.366  0.3119  0.0671 -0.5604
  315MPD2    C2 4734   1.229   2.219   0.245  0.2017  0.4842  0.3723
  315MPD2    C3 4735   1.167   2.343   0.217  0.3058  0.0267  0.3975
  315MPD2    C4 4736   1.081   2.395   0.319 -0.2705  0.2697 -0.6883
  315MPD2    C5 4737   1.073   2.333   0.440  0.4467  0.2778  0.1490
  315MPD2     H 4738   1.298   2.187   0.169 -1.0471 -0.0436 -0.5480
  315MPD2    H1 4739   1.024   2.487   0.318  2.4561  1.9270 -1.3772
  315MPD2    H2 4740   1.126   2.163   0.558 -0.1391  1.7870  1.2273
  315MPD2    H3 4741   1.001   2.366   0.514  0.6924 -5.2988  2.8627
  315MPD2     N 4742   1.188   2.399   0.097  0.4748  0.7594 -0.3217
  315MPD2    H5 4743   1.240   2.345   0.029 -0.2806 -4.1181  2.9960
  315MPD2    N1 4744   1.295   2.042   0.381 -0.3871 -0.1756  0.0570
  315MPD2    H7 4745   1.352   2.022   0.299 -1.1672 -1.5300 -0.1477
  316TMC3    C1 4746   1.148   2.521  17.594  0.2201 -0.2923 -0.3291
  316TMC3    C2 4747   1.274   2.496  17.548  0.6871  0.3250  0.1774
  316TMC3    C3 4748   1.294   2.524  17.410 -0.3100 -0.4286 -0.3610
  316TMC3    C4 4749   1.053   2.601  17.529  0.2622  0.3773 -0.4883
  316TMC3    C5 4750   1.081   2.632  17.396  0.8378  0.2789 -0.6838
  316TMC3    C6 4751   1.199   2.587  17.336  0.0470  0.1734  0.2846
  316TMC3     C 4752   1.132   2.514   0.049 -0.2340  0.0023  0.3637
  316TMC3     O 4753   1.082   2.605   0.105  0.5414 -0.3186  0.5830
  316TMC3     H 4754   1.350   2.468  17.621  2.2535  0.6344 -1.3318
  316TMC3    H1 4755   0.966   2.647  17.576  0.1424 -0.3977  0.0408
  316TMC3    H2 4756   1.222   2.628  17.238 -0.8836 -3.0460 -1.2909
  316TMC3    C7 4757   1.037   2.764  17.357 -0.0804 -0.0181  0.2243
  316TMC3    C8 4758   1.429   2.528  17.360  0.4800 -0.5491 -0.3505
  316TMC3    O1 4759   0.984   2.825  17.448  0.2477 -0.0391 -0.6544
  316TMC3    O2 4760   1.443   2.587  17.256  0.0271 -0.3471  0.2843
  317MPD2     C 4761   2.301   0.415  12.818 -0.0695  0.0430 -0.0065
  317MPD2    C1 4762   2.328   0.283  12.841 -0.4566 -0.1227 -0.0000
  317MPD2    C2 4763   2.433   0.248  12.923 -1.0353 -0.2868 -0.5852
  317MPD2    C3 4764   2.509   0.337  12.987  0.4729  0.6109 -0.2900
  317MPD2    C4 4765   2.484   0.471  12.966  0.7816 -0.2269  0.2018
  317MPD2    C5 4766   2.378   0.500  12.889  0.0142  0.6970  0.2168
  317MPD2     H 4767   2.442   0.145  12.957  0.3802 -0.3810 -1.2433
  317MPD2    H1 4768   2.539   0.545  13.024 -2.0359  1.3731  0.8090
  317MPD2    H2 4769   2.240   0.455  12.738 -0.9305  1.1128  1.1769
  317MPD2    H3 4770   2.351   0.604  12.874 -0.9976  0.6587  1.7820
  317MPD2     N 4771   2.605   0.287  13.077 -0.1522  0.0599 -0.2817
  317MPD2    H5 4772   2.620   0.187  13.076  3.6929  0.6377  1.2436
  317MPD2    N1 4773   2.250   0.183  12.781  0.5835 -0.2905 -0.0366
  317MPD2    H7 4774   2.281   0.086  12.792  0.2455 -0.3843  0.0919
  318TMC3    C1 4775   2.807   0.289  13.214  1.0712 -0.5636  0.1409
  318TMC3    C2 4776   2.772   0.168  13.273  0.5792  0.8155  0.0659
  318TMC3    C3 4777   2.867   0.091  13.342 -0.1507  0.3903  0.2808
  318TMC3    C4 4778   2.937   0.340  13.228  0.0356  0.2579  0.0692
  318TMC3    C5 4779   3.025   0.265  13.304 -0.3751 -0.6181 -0.1633
  318TMC3    C6 4780   2.996   0.136  13.352 -0.2571 -0.0610  0.5375
  318TMC3     C 4781   2.703   0.362  13.141 -0.3678  0.0971 -0.3580
  318TMC3     O 4782   2.732   0.481  13.129  0.3317 -0.6041  0.6904
  318TMC3     H 4783   2.666   0.143  13.275  0.1958  2.4029 -0.6996
  318TMC3    H1 4784   2.970   0.435  13.187 -0.8702 -0.1672 -1.5957
  318TMC3    H2 4785   3.068   0.084  13.415 -0.7288  0.8214  1.8273
  318TMC3    C7 4786   3.148   0.326  13.339 -0.0674  0.0392 -0.4890
  318TMC3    C8 4787   2.826   4.683  13.403  0.4900 -0.2993  0.4722
  318TMC3    O1 4788   3.141   0.444  13.334 -0.8777 -0.1668 -0.7293
  318TMC3    O2 4789   2.892   4.640  13.499 -0.0970 -0.7544  0.8964
  319MPD2     C 4790   0.357   1.524  15.870  0.2952 -0.6324  0.4412
  319MPD2    C1 4791   0.283   1.614  15.942  0.0938 -0.3280 -0.3242
  319MPD2    C2 4792   0.155   1.639  15.906 -0.2552  0.8771 -0.0956
  319MPD2    C3 4793   0.108   1.600  15.776 -0.6248 -0.3818 -0.1749
  319MPD2    C4 4794   0.180   1.509  15.699 -0.1273 -0.5628 -0.1620
  319MPD2    C5 4795   0.304   1.468  15.749 -0.3505  0.0688  0.0957
  319MPD2     H 4796   0.096   1.708  15.964  1.6087  3.2154 -0.9828
  319MPD2    H1 4797   0.150   1.461  15.606 -1.4027  1.6443 -0.8995
  319MPD2    H2 4798   0.453   1.482  15.898  0.7156  0.0500  0.0233
  319MPD2    H3 4799   0.363   1.396  15.693  0.2204  0.5950  0.0199
  319MPD2     N 4800   4.700   1.629  15.736  0.7698  0.2605  0.0766
  319MPD2    H5 4801   4.666   1.564  15.665 -0.6577  0.9247  0.1486
  319MPD2    N1 4802   0.328   1.678  16.063  0.1861 -1.0490  0.2404
  319MPD2    H7 4803   0.270   1.750  16.104  1.6047  0.8806 -1.1657
  320TMC3    C1 4804   4.475   1.706  15.792  0.1837 -0.2170  0.7470
  320TMC3    C2 4805   4.393   1.812  15.830 -0.1015  0.0185 -0.5932
  320TMC3    C3 4806   4.261   1.785  15.849 -0.5085 -0.3903 -0.1487
  320TMC3    C4 4807   4.440   1.576  15.763  0.1036  0.2108  0.1675
  320TMC3    C5 4808   4.305   1.560  15.768  0.2729  0.6627 -0.4471
  320TMC3    C6 4809   4.213   1.664  15.812  0.0890 -1.2458 -0.1949
  320TMC3     C 4810   4.620   1.733  15.791  0.1245  0.6761  0.2938
  320TMC3     O 4811   4.659   1.826  15.861 -0.2020  0.3140 -0.1828
  320TMC3     H 4812   4.440   1.909  15.836 -1.1035  0.4606  0.1001
  320TMC3    H1 4813   4.506   1.495  15.736  0.0151  1.8034 -4.8024
  320TMC3    H2 4814   4.110   1.632  15.822  1.0230 -3.5380  2.0182
  320TMC3    C7 4815   4.257   1.436  15.716  0.3639  0.4360  0.1119
  320TMC3    C8 4816   4.176   1.897  15.867  0.2405 -0.0799 -0.3743
  320TMC3    O1 4817   4.340   1.367  15.657 -0.1639 -0.2186 -0.3918
  320TMC3    O2 4818   4.216   2.000  15.825 -0.5651  0.0921  1.3143
  321TMC3    C1 4819   0.455   1.746  16.229  0.4040 -0.2318  0.6845
  321TMC3    C2 4820   0.336   1.819  16.261 -0.2113  0.4717  0.7035
  321TMC3    C3 4821   0.362   1.944  16.328 -0.5667 -0.5587 -0.1731
  321TMC3    C4 4822   0.578   1.767  16.282  0.4410  0.3585 -0.1226
  321TMC3    C5 4823   0.596   1.889  16.347  0.3673 -0.0422  0.1397
  321TMC3    C6 4824   0.490   1.979  16.352 -0.6691 -0.9091  0.4281
  321TMC3     C 4825   0.455   1.665  16.113  0.5858  0.2351 -0.3589
  321TMC3     O 4826   0.554   1.615  16.060 -0.7142  0.0727 -0.1179
  321TMC3     H 4827   0.237   1.777  16.271 -0.5585  1.7251  2.6420
  321TMC3    H1 4828   0.665   1.707  16.258  0.3711  0.7083 -1.2791
  321TMC3    H2 4829   0.505   2.081  16.384  1.1949 -1.3454  0.9657
  321TMC3    C7 4830   0.674   1.892  16.471 -0.0009  0.0660 -0.5577
  321TMC3    C8 4831   0.275   1.984  16.438  1.0369 -0.8783 -0.2707
  321TMC3    O1 4832   0.772   1.818  16.475  0.1527 -0.1810 -0.2132
  321TMC3    O2 4833   0.335   2.032  16.530  0.3818  0.4639 -0.5976
  322MPD2     C 4834   2.995   2.825  14.018  0.1126  0.6711  0.0430
  322MPD2    C1 4835   3.127   2.834  13.980  0.1723 -0.3495 -0.1967
  322MPD2    C2 4836   3.198   2.718  13.953 -0.1567 -0.1184  0.5770
  322MPD2    C3 4837   3.132   2.599  13.944  1.0601  0.2060 -0.5629
  322MPD2    C4 4838   2.996   2.601  13.953 -0.2425  0.7377 -0.3535
  322MPD2    C5 4839   2.926   2.709  13.998 -0.9712  0.4967  0.4035
  322MPD2     H 4840   3.301   2.715  13.919  0.1450 -1.4441  1.6040
  322MPD2    H1 4841   2.936   2.515  13.925 -1.1168  2.1057 -2.6551
  322MPD2    H2 4842   2.945   2.917  14.047  1.6843  0.9048  2.0367
  322MPD2    H3 4843   2.820   2.705  14.017 -1.6305  0.2006 -3.4695
  322MPD2     N 4844   3.196   2.473  13.926  0.6815  0.2385  0.5475
  322MPD2    H5 4845   3.297   2.478  13.933  0.8422 -1.3416 -0.6367
  322MPD2    N1 4846   3.194   2.957  13.992 -0.3565  0.4043  0.3480
  322MPD2    H7 4847   3.150   3.030  14.048  1.5153  0.4246  1.7869
  323TMC3    C1 4848   3.407   3.048  14.038 -0.3215 -0.2319  0.8676
  323TMC3    C2 4849   3.517   3.117  13.993 -0.0047 -0.5452 -0.8071
  323TMC3    C3 4850   3.601   3.170  14.086 -0.1680  0.4836 -0.1801
  323TMC3    C4 4851   3.375   3.040  14.172  0.0810 -0.1140  0.1681
  323TMC3    C5 4852   3.465   3.099  14.261  0.1329  0.6231 -0.7285
  323TMC3    C6 4853   3.582   3.154  14.217 -0.4801 -0.4076 -0.3942
  323TMC3     C 4854   3.321   2.979  13.943 -0.1722 -0.4898 -0.9726
  323TMC3     O 4855   3.372   2.931  13.846  0.3797 -0.2446  0.6346
  323TMC3     H 4856   3.537   3.127  13.887  0.5028 -0.0724 -0.6658
  323TMC3    H1 4857   3.287   2.985  14.202 -2.0607  1.7087 -2.8317
  323TMC3    H2 4858   3.643   3.213  14.284  0.3286 -1.1789 -0.4570
  323TMC3    C7 4859   3.484   3.007  14.376  0.2068 -0.0333 -0.2865
  323TMC3    C8 4860   3.725   3.225  14.050  0.0204  1.0803 -0.4186
  323TMC3    O1 4861   3.436   2.896  14.380  0.0155  0.1263  0.1585
  323TMC3    O2 4862   3.820   3.198  14.122  0.2038 -0.0650  0.3759
  324MPD2     C 4863   4.225   3.780  14.433 -0.1112 -0.4279  0.3206
  324MPD2    C1 4864   4.216   3.917  14.426  0.5367  0.1390 -1.1956
  324MPD2    C2 4865   4.108   3.977  14.369 -0.0134  0.7391  0.0886
  324MPD2    C3 4866   4.003   3.903  14.322  1.0901 -0.1390 -0.5578
  324MPD2    C4 4867   4.013   3.764  14.325  1.0330  0.0802  0.3252
  324MPD2    C5 4868   4.123   3.705  14.386 -0.1143 -0.5724 -0.2513
  324MPD2     H 4869   4.128   4.081  14.345  0.0108  0.5942 -0.5051
  324MPD2    H1 4870   3.940   3.697  14.281  1.1437  0.8119 -0.9709
  324MPD2    H2 4871   4.311   3.721  14.463 -0.5150  0.0858  2.4418
  324MPD2    H3 4872   4.134   3.597  14.386 -0.4588 -0.6087 -0.5243
  324MPD2     N 4873   3.885   3.951  14.262  0.4701 -0.1270 -0.0704
  324MPD2    H5 4874   3.818   3.876  14.241 -1.9417  1.3495  2.3054
  324MPD2    N1 4875   4.331   3.994  14.467  0.5441  0.6466 -0.4207
  324MPD2    H7 4876   4.329   4.096  14.461 -0.1623  0.7364  1.4830
  325TMC3    C1 4877   3.705   4.118  14.207 -0.2123  0.1065  0.7038
  325TMC3    C2 4878   3.629   4.024  14.145  0.1750  0.2638 -0.5713
  325TMC3    C3 4879   3.507   4.068  14.100 -0.0821 -0.3601  0.3424
  325TMC3    C4 4880   3.664   4.245  14.217  0.2776  0.0493 -0.0029
  325TMC3    C5 4881   3.541   4.285  14.178 -0.0923  0.4143  0.4577
  325TMC3    C6 4882   3.459   4.197  14.116 -0.0037 -0.7985  0.1437
  325TMC3     C 4883   3.848   4.087  14.248  1.1211 -0.4122 -0.3591
  325TMC3     O 4884   3.931   4.176  14.254 -0.4537  0.7267  0.2604
  325TMC3     H 4885   3.648   3.918  14.147  1.2034  0.4677  1.1456
  325TMC3    H1 4886   3.739   4.316  14.249 -0.0663 -0.0379  0.9871
  325TMC3    H2 4887   3.360   4.223  14.079 -1.0385 -0.2770  3.3001
  325TMC3    C7 4888   3.502   4.423  14.177  0.2408 -0.0707 -0.1436
  325TMC3    C8 4889   3.421   3.963  14.040  0.0653  0.4831  0.0035
  325TMC3    O1 4890   3.405   4.451  14.104 -0.8160 -0.0791  0.6178
  325TMC3    O2 4891   3.473   3.861  13.997 -0.2527 -0.4451 -0.0853
  326MPD2     C 4892   0.999   4.576  11.371  0.2852 -1.5221  0.5445
  326MPD2    C1 4893   0.996   4.580  11.233 -0.2893 -0.3239 -0.2394
  326MPD2    C2 4894   1.092   4.649  11.163 -0.7364  0.0685  0.3086
  326MPD2    C3 4895   1.185   4.720  11.235  0.5657  0.0501  0.5205
  326MPD2    C4 4896   1.195   4.706  11.377 -0.3199 -0.2545  0.0076
  326MPD2    C5 4897   1.098   4.637  11.444 -0.2647  0.5897 -0.0345
  326MPD2     H 4898   1.080   4.653  11.055 -0.9403 -1.8995  0.2671
  326MPD2    H1 4899   1.273   0.034  11.434  0.4524 -1.6955  0.2121
  326MPD2    H2 4900   0.911   4.542  11.426  0.8995  1.3798  3.3622
  326MPD2    H3 4901   1.098   4.634  11.552  0.9085  1.7464 -0.0044
  326MPD2     N 4902   1.281   0.072  11.166  0.0988 -0.0072 -0.0382
  326MPD2    H5 4903   1.346   0.122  11.224  0.1499  0.6581 -0.6688
  326MPD2    N1 4904   0.896   4.517  11.158  0.0191 -0.9967  0.0983
  326MPD2    H7 4905   0.913   4.505  11.059 -0.7523 -0.4966 -0.1001
  327TMC3    C1 4906   0.701   4.463  11.070 -0.0761 -0.5988  0.1816
  327TMC3    C2 4907   0.641   4.568  11.007 -0.0689 -0.2222 -0.7124
  327TMC3    C3 4908   0.676   4.592  10.874 -0.1900  0.6423 -0.0220
  327TMC3    C4 4909   0.790   4.382  11.011  0.0047 -0.7012 -0.7134
  327TMC3    C5 4910   0.828   4.411  10.882 -0.2950 -0.4533  0.6317
  327TMC3    C6 4911   0.773   4.517  10.814 -0.6009  0.5913 -0.1490
  327TMC3     C 4912   0.763   4.506  11.194 -0.5657  0.1187 -0.2356
  327TMC3     O 4913   0.703   4.569  11.283 -0.2094  0.4122 -0.2862
  327TMC3     H 4914   0.601   4.641  11.077 -1.1428  0.4988 -2.0705
  327TMC3    H1 4915   0.830   4.299  11.068 -0.5116 -0.1017  0.5174
  327TMC3    H2 4916   0.798   4.532  10.710  1.1129 -1.4094 -0.0077
  327TMC3    C7 4917   0.963   4.376  10.833  0.2648 -0.5544 -0.4365
  327TMC3    C8 4918   0.672   0.005  10.830  0.0989 -0.1122  0.9490
  327TMC3    O1 4919   1.002   4.450  10.742 -0.6954  0.0489 -0.1143
  327TMC3    O2 4920   0.758   0.030  10.750  0.5150 -0.0646 -0.0797
  328MPD2     C 4921   3.719   4.403  17.452  0.2480  0.3118  0.0231
  328MPD2    C1 4922   3.612   4.378  17.376 -0.2764  0.3338 -0.4535
  328MPD2    C2 4923   3.537   4.485  17.337 -0.6585 -0.1897 -0.1751
  328MPD2    C3 4924   3.575   4.613  17.373  0.1090  0.1320  0.2896
  328MPD2    C4 4925   3.679   4.635  17.459  0.1719  0.3672 -0.9878
  328MPD2    C5 4926   3.755   4.530  17.491  0.3151 -0.1802  0.3473
  328MPD2     H 4927   3.440   4.465  17.292 -0.0414 -0.9980 -1.1312
  328MPD2    H1 4928   3.701   0.001  17.518  1.8135 -0.2367 -0.7086
  328MPD2    H2 4929   3.778   4.321  17.490 -1.6666 -0.4978  1.2158
  328MPD2    H3 4930   3.837   4.538  17.561  0.2692 -1.1829  0.5246
  328MPD2     N 4931   3.504   0.006  17.322 -0.0982  0.2407 -0.3583
  328MPD2    H5 4932   3.529   0.095  17.362 -0.3730 -0.1088  0.5746
  328MPD2    N1 4933   3.576   4.243  17.343 -0.2893  0.0472  0.1274
  328MPD2    H7 4934   3.630   4.177  17.398 -1.9749  0.4676  2.2651
  329TMC3    C1 4935   3.461   4.048  17.279 -0.4914 -0.4160 -0.1986
  329TMC3    C2 4936   3.335   3.992  17.281 -0.3988 -0.2057  0.3323
  329TMC3    C3 4937   3.326   3.859  17.282  0.5097  0.0713  0.8221
  329TMC3    C4 4938   3.575   3.971  17.300 -0.3190 -0.1624 -0.0435
  329TMC3    C5 4939   3.562   3.836  17.301 -0.7026  0.2356  0.7710
  329TMC3    C6 4940   3.439   3.777  17.283  0.9257  0.4489 -0.2553
  329TMC3     C 4941   3.474   4.191  17.262 -0.2628  0.5950 -0.4092
  329TMC3     O 4942   3.402   4.247  17.179 -0.2164 -0.1768  0.8354
  329TMC3     H 4943   3.251   4.061  17.280 -0.9966 -0.9105  1.7850
  329TMC3    H1 4944   3.669   4.024  17.299 -0.3549 -0.1126 -0.9307
  329TMC3    H2 4945   3.424   3.671  17.301 -0.6119  0.7630  0.3034
  329TMC3    C7 4946   3.678   3.775  17.248 -0.8039 -0.0466 -0.1836
  329TMC3    C8 4947   3.198   3.798  17.317  0.0248  0.0961  0.5426
  329TMC3    O1 4948   3.781   3.839  17.239  0.1035 -0.2056  0.0363
  329TMC3    O2 4949   3.204   3.677  17.341 -0.0747  0.1198  0.0056
  330TMC3    C1 4950   1.217   4.709   9.433  0.4081  0.5891 -0.4866
  330TMC3    C2 4951   1.280   4.635   9.338  0.6518  0.0235  0.8402
  330TMC3    C3 4952   1.376   4.545   9.368 -0.3371  0.0038 -1.0298
  330TMC3    C4 4953   1.254   4.702   9.566  0.5399 -0.4512  0.0363
  330TMC3    C5 4954   1.358   4.619   9.600  0.3723  0.2423  0.3950
  330TMC3    C6 4955   1.420   4.539   9.501 -0.2459  0.3122  0.2571
  330TMC3     C 4956   1.081   0.033   9.396 -0.0523  0.0840  0.5759
  330TMC3     O 4957   1.056   0.042   9.278  0.1598  0.2913 -0.2705
  330TMC3     H 4958   1.238   4.621   9.240  3.0798 -1.5340  0.0082
  330TMC3    H1 4959   1.211   0.041   9.644  0.2349 -0.1641 -0.3549
  330TMC3    H2 4960   1.509   4.481   9.523 -0.0531  0.7673  0.6667
  330TMC3    C7 4961   1.433   4.655   9.722 -0.0978  0.1281 -0.3473
  330TMC3    C8 4962   1.375   4.425   9.289 -0.4968  0.1260 -0.5105
  330TMC3    O1 4963   1.408   0.041   9.772  0.2823 -0.0803  0.2801
  330TMC3    O2 4964   1.379   4.432   9.167 -0.1768 -0.1402 -0.2731
  331MPD2     C 4965   3.838   3.347  12.693 -0.1563 -0.3603 -0.6893
  331MPD2    C1 4966   3.969   3.386  12.656 -0.8657 -0.1014 -0.0459
  331MPD2    C2 4967   4.052   3.283  12.604  0.9025  0.1872  0.8105
  331MPD2    C3 4968   4.012   3.157  12.594 -0.0409  0.4229 -0.1702
  331MPD2    C4 4969   3.882   3.122  12.626 -0.0624  0.4454 -0.0711
  331MPD2    C5 4970   3.794   3.224  12.665  0.7040  0.0025  0.0353
  331MPD2     H 4971   4.153   3.300  12.570 -0.4789  1.5865 -2.7207
  331MPD2    H1 4972   3.847   3.020  12.621  0.9022  0.2211 -2.0993
  331MPD2    H2 4973   3.771   3.414  12.745  0.0049 -1.0802  0.4432
  331MPD2    H3 4974   3.702   3.190  12.712  0.6224 -0.5417 -0.5120
  331MPD2     N 4975   4.102   3.065  12.537  0.2075  0.2215  0.0396
  331MPD2    H5 4976   4.189   3.107  12.507 -0.2089  0.4149 -0.9135
  331MPD2    N1 4977   4.012   3.521  12.672 -0.1913  0.6627 -0.1247
  331MPD2    H7 4978   3.932   3.583  12.671 -1.6756 -1.2808  0.4117
  332TMC3    C1 4979   4.216   2.876  12.497 -0.0789  0.2584  0.6370
  332TMC3    C2 4980   4.270   2.933  12.387  0.3949 -0.4378  0.7579
  332TMC3    C3 4981   4.397   2.890  12.352  0.8342 -0.5120 -0.6142
  332TMC3    C4 4982   4.282   2.795  12.580 -0.8483  0.0786  0.4009
  332TMC3    C5 4983   4.410   2.776  12.559 -0.3793  0.4148  0.8856
  332TMC3    C6 4984   4.472   2.822  12.444  0.3126  0.0496  0.0951
  332TMC3     C 4985   4.097   2.931  12.550 -0.0403  0.3478 -1.2520
  332TMC3     O 4986   4.028   2.860  12.622 -0.3596 -0.1038 -0.4173
  332TMC3     H 4987   4.204   2.988  12.320  1.1918 -2.2117 -1.5053
  332TMC3    H1 4988   4.245   2.771  12.678 -1.3024 -0.7860  0.0161
  332TMC3    H2 4989   4.578   2.810  12.426  0.5039  0.7489  0.7669
  332TMC3    C7 4990   4.490   2.751  12.680  0.4121  0.2182  0.1424
  332TMC3    C8 4991   4.476   2.957  12.251  0.9134  0.3625  0.4724
  332TMC3    O1 4992   4.433   2.706  12.778 -0.1255  0.3724 -0.0106
  332TMC3    O2 4993   4.598   2.938  12.260 -0.0170  0.1876  0.1714
  333MPD2     C 4994   0.010   2.958  11.490  0.4755  0.1453 -0.2315
  333MPD2    C1 4995   0.040   2.854  11.408  0.5517 -0.6223 -0.0070
  333MPD2    C2 4996   4.713   2.725  11.440  0.4592  0.1421  0.2957
  333MPD2    C3 4997   4.636   2.695  11.552 -0.0799 -0.6690 -0.0449
  333MPD2    C4 4998   4.615   2.800  11.641  0.3621  0.2692  0.3620
  333MPD2    C5 4999   4.668   2.928  11.611  0.8269 -0.0421  0.0502
  333MPD2     H 5000   0.002   2.644  11.368 -0.2434 -0.7509  1.1855
  333MPD2    H1 5001   4.552   2.790  11.728  1.2022  0.0811  0.9470
  333MPD2    H2 5002   0.067   3.050  11.480 -0.5045  0.7498 -0.2386
  333MPD2    H3 5003   4.651   3.010  11.679 -1.8312 -0.9356  0.4398
  333MPD2     N 5004   4.606   2.559  11.573  0.2971 -0.0001 -0.2349
  333MPD2    H5 5005   4.631   2.495  11.498 -2.6354 -1.0287 -0.3653
  333MPD2    N1 5006   0.104   2.894  11.282 -0.5045 -0.3537  0.2323
  333MPD2    H7 5007   0.119   2.991  11.258 -0.2591 -0.4192  0.1247
  334TMC3    C1 5008   0.227   2.871  11.082  0.2913 -0.6759  0.2196
  334TMC3    C2 5009   0.275   2.794  10.981 -0.0516  0.0482 -0.4296
  334TMC3    C3 5010   0.378   2.834  10.901 -0.3954 -0.1946  0.4819
  334TMC3    C4 5011   0.292   2.993  11.100  0.6059  0.3386  0.3448
  334TMC3    C5 5012   0.404   3.031  11.025  0.3540  0.2596  0.3679
  334TMC3    C6 5013   0.446   2.952  10.918 -0.6770  0.4222 -0.0377
  334TMC3     C 5014   0.154   2.811  11.186  0.4384 -0.2635  0.4531
  334TMC3     O 5015   0.140   2.688  11.177 -0.6009 -0.5909 -0.0070
  334TMC3     H 5016   0.232   2.696  10.966  1.6005 -0.8875  1.1234
  334TMC3    H1 5017   0.283   3.051  11.191  0.8224  2.4838 -1.0112
  334TMC3    H2 5018   0.526   2.998  10.861 -0.3230 -1.3328 -0.9348
  334TMC3    C7 5019   0.410   3.174  10.997  0.0301  0.5759  0.3892
  334TMC3    C8 5020   0.432   2.741  10.809 -0.0977 -0.0821  0.2425
  334TMC3    O1 5021   0.517   3.213  10.951 -0.6553  0.5261  0.3776
  334TMC3    O2 5022   0.386   2.627  10.802 -0.2484 -0.4107 -0.1474
  335TMC3    C1 5023   4.582   1.134  17.052 -0.3273  0.2533 -0.2558
  335TMC3    C2 5024   4.509   1.023  17.021 -0.4290 -0.1569 -0.6810
  335TMC3    C3 5025   4.563   0.899  17.040 -0.3380  0.4362  0.1402
  335TMC3    C4 5026   4.719   1.120  17.082  0.1422  0.7868 -0.9440
  335TMC3    C5 5027   0.046   1.001  17.107  0.1371  0.5671 -1.0471
  335TMC3    C6 5028   4.694   0.887  17.078 -0.0651  1.6889 -0.2311
  335TMC3     C 5029   4.511   1.263  17.075  0.3503 -0.1748  0.8154
  335TMC3     O 5030   4.572   1.359  17.112  0.0813 -0.2836  0.4761
  335TMC3     H 5031   4.412   1.021  16.973 -0.2610  0.2853 -1.0364
  335TMC3    H1 5032   0.050   1.215  17.078  0.1203  0.9939  3.0116
  335TMC3    H2 5033   0.010   0.785  17.079  1.1032  2.1275 -0.1134
  335TMC3    C7 5034   0.187   0.974  17.127  0.4002  0.4670  0.4674
  335TMC3    C8 5035   4.530   0.807  16.930 -0.3546 -0.0134 -0.3239
  335TMC3    O1 5036   0.229   0.859  17.129 -0.2665  0.2796  0.3403
  335TMC3    O2 5037   4.601   0.818  16.834  0.6637 -0.4034  0.1314
  336MPD2     C 5038   4.315   2.936  16.324  0.5703  0.4731 -0.1573
  336MPD2    C1 5039   4.280   2.889  16.196  0.0817  0.3722 -0.0857
  336MPD2    C2 5040   4.332   2.765  16.150  0.1043  0.0417  0.0519
  336MPD2    C3 5041   4.419   2.690  16.237 -0.3204  0.3632  0.1969
  336MPD2    C4 5042   4.452   2.744  16.357 -0.0565 -0.4921 -0.0500
  336MPD2    C5 5043   4.400   2.858  16.404 -0.7252  0.4756 -0.0668
  336MPD2     H 5044   4.292   2.723  16.059 -0.6267 -0.8474  0.7834
  336MPD2    H1 5045   4.519   2.696  16.428  0.0156  0.0149  0.2245
  336MPD2    H2 5046   4.267   3.023  16.368 -0.8774 -0.1759 -0.4604
  336MPD2    H3 5047   4.447   2.897  16.493  1.2615 -1.4506 -0.2498
  336MPD2     N 5048   4.471   2.560  16.201  0.4262  0.1991 -0.1195
  336MPD2    H5 5049   4.516   2.509  16.277  2.4062  0.4283 -1.1369
  336MPD2    N1 5050   4.180   2.966  16.119 -0.1716  0.2210  0.1496
  336MPD2    H7 5051   4.136   2.927  16.036 -1.0136  2.1698 -0.3315
  337TMC3    C1 5052   4.052   3.150  16.060 -0.2331  0.4253  0.3930
  337TMC3    C2 5053   3.940   3.078  16.027 -0.2504  0.4753 -0.3386
  337TMC3    C3 5054   3.846   3.145  15.953 -0.6491  0.1842 -1.0549
  337TMC3    C4 5055   4.077   3.270  16.014  0.1677  0.1932  0.2492
  337TMC3    C5 5056   3.973   3.341  15.953 -0.4695 -0.1354 -0.0646
  337TMC3    C6 5057   3.858   3.275  15.914 -0.5646  0.0739  0.2238
  337TMC3     C 5058   4.155   3.096  16.141  0.8640 -0.3602  0.2856
  337TMC3     O 5059   4.216   3.177  16.209 -0.3741 -0.0910 -0.6125
  337TMC3     H 5060   3.919   2.979  16.065  2.0982 -0.1353 -0.5992
  337TMC3    H1 5061   4.167   3.313  16.057 -0.6563  1.6884  0.4999
  337TMC3    H2 5062   3.774   3.330  15.871  0.1019 -0.7891 -2.1613
  337TMC3    C7 5063   3.961   3.484  15.995  0.0509  0.4305 -0.4401
  337TMC3    C8 5064   3.717   3.080  15.937 -0.3645 -0.6731  0.7623
  337TMC3    O1 5065   3.853   3.535  15.998  0.7242 -1.0763 -0.0008
  337TMC3    O2 5066   3.689   2.987  16.005 -0.6617  0.5263 -0.1562
  338MPD2     C 5067   4.194   2.437   0.673 -0.3431  0.1800  0.3484
  338MPD2    C1 5068   4.129   2.534   0.596 -0.1032 -0.3782  0.5387
  338MPD2    C2 5069   4.149   2.666   0.631 -0.0973  0.9426  0.3554
  338MPD2    C3 5070   4.233   2.703   0.729 -0.2519  0.3806  0.0226
  338MPD2    C4 5071   4.301   2.610   0.800  0.8261 -0.6585  0.4643
  338MPD2    C5 5072   4.291   2.474   0.767 -0.0256  0.4888  0.4075
  338MPD2     H 5073   4.091   2.744   0.582 -2.9144 -0.3196  1.6536
  338MPD2    H1 5074   4.371   2.637   0.878 -1.1852  2.7686  1.0440
  338MPD2    H2 5075   4.187   2.332   0.649  1.9456 -0.1129  0.9516
  338MPD2    H3 5076   4.347   2.406   0.831 -1.6861 -1.6428 -0.4271
  338MPD2     N 5077   4.241   2.842   0.758  0.0208  0.2120 -0.0133
  338MPD2    H5 5078   4.194   2.908   0.696 -0.1318 -0.7613 -0.9215
  338MPD2    N1 5079   4.037   2.501   0.489 -0.9269 -0.1749 -0.2363
  338MPD2    H7 5080   3.994   2.582   0.445  1.2909 -0.3283 -2.6855
  339TMC3    C1 5081   4.278   3.030   0.885  0.6597 -0.7145  0.3444
  339TMC3    C2 5082   4.196   3.093   0.970  0.1802 -0.4133 -0.9048
  339TMC3    C3 5083   4.146   3.211   0.933  0.0816 -0.8725 -0.4708
  339TMC3    C4 5084   4.322   3.084   0.769  0.2969 -0.7564  0.6542
  339TMC3    C5 5085   4.292   3.216   0.751  0.4908 -0.1404  0.4330
  339TMC3    C6 5086   4.196   3.277   0.829  0.0363  1.0057 -0.2815
  339TMC3     C 5087   4.273   2.884   0.879 -0.2304 -0.1364 -0.4048
  339TMC3     O 5088   4.290   2.826   0.984  0.5236  0.2154 -0.3493
  339TMC3     H 5089   4.152   3.035   1.050  1.9317  0.1846  0.5053
  339TMC3    H1 5090   4.382   3.030   0.696  0.0642 -0.3733  0.1790
  339TMC3    H2 5091   4.159   3.374   0.798 -0.8930 -0.3003 -3.2259
  339TMC3    C7 5092   4.307   3.264   0.615  0.0069  0.5276 -0.0911
  339TMC3    C8 5093   4.031   3.270   1.003  0.9814  0.5009 -0.0824
  339TMC3    O1 5094   4.214   3.314   0.556  0.1578  0.0791 -0.1984
  339TMC3    O2 5095   3.992   3.373   0.952  0.5577 -0.0568 -0.0050
  340MPD2     C 5096   3.743   0.181  10.305  0.4986  0.2902  0.1328
  340MPD2    C1 5097   3.781   0.058  10.264 -0.1400 -0.9562 -0.6283
  340MPD2    C2 5098   3.883   4.713  10.327  0.1500 -0.4473  0.2072
  340MPD2    C3 5099   3.944   0.046  10.440  0.3627  0.0998 -0.4391
  340MPD2    C4 5100   3.898   0.164  10.490  0.1743 -0.9193 -0.4720
  340MPD2    C5 5101   3.804   0.229  10.417 -0.3566  0.0335  0.5647
  340MPD2     H 5102   3.917   4.616  10.293  0.4336 -0.4428  0.4807
  340MPD2    H1 5103   3.938   0.214  10.578 -0.5565  0.2329 -0.7895
  340MPD2    H2 5104   3.668   0.249  10.267  0.2059  1.0863  2.1539
  340MPD2    H3 5105   3.772   0.329  10.444 -1.8309 -0.4543  0.5931
  340MPD2     N 5106   4.055   4.706  10.508 -0.4437 -0.3729  0.2174
  340MPD2    H5 5107   4.102   0.026  10.587  0.4010  2.1112 -1.6088
  340MPD2    N1 5108   3.729   0.007  10.140 -0.0558 -0.1604  0.2553
  340MPD2    H7 5109   3.676   0.078  10.090 -0.4322 -0.6553 -0.0509
  341TMC3    C1 5110   3.693   4.573   9.959  0.0162  0.2389 -0.4020
  341TMC3    C2 5111   3.692   4.443   9.931 -0.3993 -0.5446  0.3318
  341TMC3    C3 5112   3.752   4.395   9.818 -0.6603 -0.1598  0.2061
  341TMC3    C4 5113   3.753   4.656   9.866  0.7675 -0.0575 -0.7232
  341TMC3    C5 5114   3.800   4.603   9.750 -0.0770  0.6970 -0.3906
  341TMC3    C6 5115   3.806   4.474   9.717  0.4145  0.5231  0.2825
  341TMC3     C 5116   3.735   4.596  10.089 -1.0519 -0.6115 -0.7098
  341TMC3     O 5117   3.770   4.499  10.158  0.0038  0.6837  0.4519
  341TMC3     H 5118   3.668   4.366  10.003  0.6639  0.5388  1.8441
  341TMC3    H1 5119   3.779   0.032   9.903  0.1959 -0.9165  1.9696
  341TMC3    H2 5120   3.843   4.438   9.621 -0.1512 -0.2393  0.3520
  341TMC3    C7 5121   3.909   4.675   9.689 -0.1100 -0.1134  0.1241
  341TMC3    C8 5122   3.768   4.255   9.824 -0.5543  0.1232 -0.1115
  341TMC3    O1 5123   4.004   4.602   9.649  0.0457 -0.4389 -0.1168
  341TMC3    O2 5124   3.677   4.190   9.876  0.1148  0.1629 -0.2524
  342MPD2     C 5125   2.647   3.235  16.700 -0.2439 -0.2481 -0.2487
  342MPD2    C1 5126   2.587   3.139  16.774 -0.2018 -0.6497  0.0919
  342MPD2    C2 5127   2.478   3.166  16.860 -0.3212  0.5899 -0.3463
  342MPD2    C3 5128   2.450   3.298  16.883  0.6447 -1.0556  0.2008
  342MPD2    C4 5129   2.508   3.394  16.810  0.2968 -0.4263 -0.1146
  342MPD2    C5 5130   2.609   3.364  16.722  0.1927 -0.4019  0.3440
  342MPD2     H 5131   2.444   3.083  16.920  0.2127 -0.6480 -1.7520
  342MPD2    H1 5132   2.477   3.498  16.818  1.6085  0.0420 -0.9886
  342MPD2    H2 5133   2.725   3.209  16.629  0.4342  1.5822 -0.1720
  342MPD2    H3 5134   2.649   3.438  16.654  2.1564 -0.4246  1.4924
  342MPD2     N 5135   2.351   3.341  16.971 -0.5457 -0.2470 -0.3050
  342MPD2    H5 5136   2.344   3.442  16.979  1.9770  0.2337 -3.8913
  342MPD2    N1 5137   2.631   2.998  16.778 -0.5534  0.2103 -0.5287
  342MPD2    H7 5138   2.581   2.936  16.840 -3.4107  1.6978 -1.3538
  343TMC3    C1 5139   2.743   2.801  16.727  0.5575  0.6927  0.2993
  343TMC3    C2 5140   2.869   2.753  16.688 -0.1845  0.6581  0.5711
  343TMC3    C3 5141   2.891   2.619  16.703 -0.1793 -0.5408  0.5452
  343TMC3    C4 5142   2.642   2.719  16.764  0.9700  0.2525  0.1440
  343TMC3    C5 5143   2.678   2.592  16.785 -0.1834  0.5405 -0.2189
  343TMC3    C6 5144   2.800   2.535  16.757 -0.1432  0.6600 -0.7033
  343TMC3     C 5145   2.732   2.942  16.707  0.4094 -0.1192  0.4009
  343TMC3     O 5146   2.811   2.997  16.632  0.0106 -0.1590 -0.5862
  343TMC3     H 5147   2.944   2.826  16.660  0.5909 -0.4670 -0.2927
  343TMC3    H1 5148   2.551   2.771  16.791  1.1899  0.7791 -0.1232
  343TMC3    H2 5149   2.826   2.430  16.765 -1.1942  0.4007 -0.7418
  343TMC3    C7 5150   2.593   2.531  16.879  0.0110 -0.1269 -0.6197
  343TMC3    C8 5151   3.026   2.578  16.710  0.5840  0.2860  0.0729
  343TMC3    O1 5152   2.479   2.577  16.885  0.1985 -0.1764  0.0949
  343TMC3    O2 5153   3.049   2.459  16.703  0.0182 -0.3344 -0.2390
  344MPD2     C 5154   3.109   2.494  10.658  0.1481  0.1361  0.0565
  344MPD2    C1 5155   3.174   2.405  10.572 -0.3398  0.7091 -0.5201
  344MPD2    C2 5156   3.217   2.450  10.443  0.2934  0.3505 -0.3282
  344MPD2    C3 5157   3.211   2.586  10.415 -0.2048  0.2963 -0.5164
  344MPD2    C4 5158   3.155   2.673  10.505 -0.7304  0.1700  0.8099
  344MPD2    C5 5159   3.109   2.627  10.624  0.0868 -0.1328  0.2720
  344MPD2     H 5160   3.277   2.392  10.374 -0.3962  0.1627 -0.7767
  344MPD2    H1 5161   3.147   2.779  10.486  0.3418  0.2084  0.5941
  344MPD2    H2 5162   3.076   2.466  10.758 -0.5294 -1.8181 -0.7100
  344MPD2    H3 5163   3.066   2.698  10.694 -0.6252  0.2514 -0.5689
  344MPD2     N 5164   3.261   2.641  10.296 -0.2557 -0.4035 -0.2491
  344MPD2    H5 5165   3.243   2.737  10.271 -0.8669 -0.5603 -0.4033
  344MPD2    N1 5166   3.188   2.267  10.598  0.4574  0.6943 -0.5699
  344MPD2    H7 5167   3.228   2.222  10.516  0.3049 -0.9102  0.2348
  345TMC3    C1 5168   3.398   2.650  10.094 -0.6670  0.0753  0.0975
  345TMC3    C2 5169   3.532   2.654  10.067 -0.6758 -0.2916  0.3417
  345TMC3    C3 5170   3.569   2.751   9.983 -0.3880 -0.0027 -0.4967
  345TMC3    C4 5171   3.300   2.727  10.039  0.7220 -0.1420  0.1131
  345TMC3    C5 5172   3.348   2.828   9.954  0.8598 -0.1292 -0.4039
  345TMC3    C6 5173   3.486   2.842   9.927  0.6454 -0.1731 -0.0277
  345TMC3     C 5174   3.358   2.579  10.216  0.5095  0.6340 -0.4305
  345TMC3     O 5175   3.432   2.492  10.260 -0.1884 -0.1488  0.3182
  345TMC3     H 5176   3.609   2.598  10.119  0.4809 -0.3883 -1.4860
  345TMC3    H1 5177   3.196   2.708  10.063  0.9266 -2.3626 -0.7998
  345TMC3    H2 5178   3.514   2.920   9.857 -0.6750 -0.5613 -0.9967
  345TMC3    C7 5179   3.251   2.919   9.900 -0.2642  1.0490  0.3483
  345TMC3    C8 5180   3.688   2.832  10.035  0.3322  0.2934 -0.5041
  345TMC3    O1 5181   3.297   3.029   9.870  0.0443 -0.4453  0.6765
  345TMC3    O2 5182   3.700   2.835  10.153 -0.1888 -0.6637  0.2081
  346MPD2     C 5183   2.981   4.719  14.548  0.2607  0.5214 -0.6889
  346MPD2    C1 5184   3.062   4.655  14.452  0.3504  0.2270 -1.3188
  346MPD2    C2 5185   3.193   4.622  14.482 -0.0332  0.0294  0.3482
  346MPD2    C3 5186   3.241   4.646  14.609  0.8262  0.4624  0.3847
  346MPD2    C4 5187   3.167   4.711  14.709 -0.2965 -0.5676  0.3363
  346MPD2    C5 5188   3.034   0.018  14.676 -0.0072 -0.3993  0.2325
  346MPD2     H 5189   3.254   4.589  14.398  0.3507 -0.3302  0.7744
  346MPD2    H1 5190   3.207   0.010  14.807 -1.8360 -2.0204  1.2738
  346MPD2    H2 5191   2.882   0.029  14.518  0.7983  2.5287 -0.3186
  346MPD2    H3 5192   2.972   0.065  14.751  1.0848  1.0128  0.2343
  346MPD2     N 5193   3.379   4.623  14.628  0.1967  0.5241 -0.1499
  346MPD2    H5 5194   3.447   4.605  14.554 -0.8543 -0.1524 -0.9422
  346MPD2    N1 5195   3.017   4.642  14.319  0.2289 -0.0554 -0.5785
  346MPD2    H7 5196   3.081   4.595  14.256  0.1321 -0.0147 -0.7103
  347TMC3    C1 5197   3.569   4.641  14.752  0.3583  0.7072  0.1325
  347TMC3    C2 5198   3.623   0.008  14.661 -0.6982 -0.2793 -0.5639
  347TMC3    C3 5199   3.756   0.002  14.651  0.8399  0.1078 -0.4733
  347TMC3    C4 5200   3.635   4.566  14.832 -0.4629 -0.9258 -0.0473
  347TMC3    C5 5201   3.767   4.554  14.815  0.0104  0.4061 -0.9167
  347TMC3    C6 5202   3.831   4.639  14.734 -0.6918  0.4607  0.3250
  347TMC3     C 5203   3.432   4.617  14.751  0.5017 -0.6625 -1.1308
  347TMC3     O 5204   3.386   4.572  14.854 -0.8159  0.3225  0.1502
  347TMC3     H 5205   3.562   0.073  14.599 -0.7406 -0.5409 -0.7975
  347TMC3    H1 5206   3.583   4.505  14.905  2.3463 -0.5074  2.3169
  347TMC3    H2 5207   3.936   4.619  14.714 -1.1304 -0.5795 -0.9481
  347TMC3    C7 5208   3.840   4.495  14.930  0.4221 -0.7897  0.0864
  347TMC3    C8 5209   3.832   0.103  14.577  0.2231 -0.4720 -0.0969
  347TMC3    O1 5210   3.787   4.394  14.967 -0.2395 -0.0676  0.0722
  347TMC3    O2 5211   3.934   0.142  14.632  0.3632  0.1066 -0.1148
  348MPD2     C 5212   1.670   3.179  12.100  0.3683  0.0201 -0.6768
  348MPD2    C1 5213   1.772   3.251  12.044  0.3372 -0.6475 -0.6612
  348MPD2    C2 5214   1.767   3.319  11.921  0.0991 -0.1625 -0.5643
  348MPD2    C3 5215   1.647   3.317  11.856  0.7735  0.5904  0.1085
  348MPD2    C4 5216   1.540   3.232  11.903 -0.5259 -0.8201 -1.2261
  348MPD2    C5 5217   1.561   3.161  12.022  0.2858  0.1626  0.3586
  348MPD2     H 5218   1.852   3.371  11.879 -0.5573  2.6182  1.5499
  348MPD2    H1 5219   1.439   3.239  11.865 -0.8459  0.6877 -0.0986
  348MPD2    H2 5220   1.671   3.127  12.195 -2.6264  1.7471  0.2794
  348MPD2    H3 5221   1.480   3.098  12.057  0.1726 -0.2062 -0.5569
  348MPD2     N 5222   1.629   3.400  11.748 -0.5102 -0.2506 -0.4331
  348MPD2    H5 5223   1.706   3.466  11.741 -1.4220  1.1414  2.4962
  348MPD2    N1 5224   1.904   3.248  12.111 -0.5424  0.3303 -0.1317
  348MPD2    H7 5225   1.982   3.282  12.056  0.3953  0.6768  1.4280
  349TMC3    C1 5226   2.078   3.207  12.250 -0.1560 -0.8917  0.0182
  349TMC3    C2 5227   2.150   3.106  12.303 -0.4465 -0.5422  0.3367
  349TMC3    C3 5228   2.288   3.115  12.290 -0.2131  1.3046  0.3162
  349TMC3    C4 5229   2.141   3.316  12.187 -0.0531  0.5407  0.8157
  349TMC3    C5 5230   2.279   3.317  12.176  0.3644 -0.0224  0.0153
  349TMC3    C6 5231   2.357   3.219  12.231  0.3294  0.4763 -0.3412
  349TMC3     C 5232   1.934   3.185  12.229 -0.2383  0.0072 -0.0082
  349TMC3     O 5233   1.870   3.108  12.295  0.0601 -0.0755 -1.1355
  349TMC3     H 5234   2.090   3.022  12.336 -1.0434  0.5262  1.9900
  349TMC3    H1 5235   2.094   3.409  12.161 -0.3605  0.1105 -0.1616
  349TMC3    H2 5236   2.465   3.227  12.224  0.2250  0.5216 -1.8903
  349TMC3    C7 5237   2.337   3.431  12.113 -0.3708  0.1897  0.3087
  349TMC3    C8 5238   2.364   2.997  12.318 -0.0703  1.2735 -0.4802
  349TMC3    O1 5239   2.440   3.480  12.158  0.2210 -0.3513  0.6709
  349TMC3    O2 5240   2.476   2.984  12.267 -0.4787 -0.3487  0.4513
  350MPD2     C 5241   1.602   2.430   9.389 -0.5000 -0.7230  0.6919
  350MPD2    C1 5242   1.597   2.294   9.403 -0.1841  0.4166 -0.5390
  350MPD2    C2 5243   1.720   2.225   9.415 -0.0772 -0.4578  0.8561
  350MPD2    C3 5244   1.842   2.291   9.409  1.4637 -0.0023 -0.3883
  350MPD2    C4 5245   1.843   2.430   9.397 -0.4450 -0.2385  0.3943
  350MPD2    C5 5246   1.724   2.501   9.396  0.7532  0.0990 -0.4181
  350MPD2     H 5247   1.706   2.117   9.423  0.5695 -0.4686  1.8179
  350MPD2    H1 5248   1.934   2.489   9.402 -0.0517 -0.7409 -0.8295
  350MPD2    H2 5249   1.509   2.486   9.389  1.0832  1.8665  0.5398
  350MPD2    H3 5250   1.728   2.610   9.398 -2.2710  0.1893  0.9992
  350MPD2     N 5251   1.957   2.214   9.406 -0.1011 -0.0911 -0.0113
  350MPD2    H5 5252   1.944   2.116   9.429  0.1803 -0.0821  0.1839
  350MPD2    N1 5253   1.475   2.220   9.394  0.6486 -0.0538  0.1544
  350MPD2    H7 5254   1.478   2.118   9.391  1.9595  0.0098 -0.6852
  351TMC3    C1 5255   1.258   2.153   9.434 -0.4499 -0.4919  0.1947
  351TMC3    C2 5256   1.314   2.043   9.496 -0.0723 -0.0844 -0.0710
  351TMC3    C3 5257   1.228   1.941   9.513  0.0809  0.3231 -0.5763
  351TMC3    C4 5258   1.124   2.173   9.408 -0.4821  0.0858  0.2940
  351TMC3    C5 5259   1.049   2.061   9.424  0.5483  0.8620 -0.3192
  351TMC3    C6 5260   1.103   1.944   9.468 -0.3758  0.5109  0.1218
  351TMC3     C 5261   1.348   2.265   9.402  0.0721  0.3080  0.0608
  351TMC3     O 5262   1.301   2.376   9.404 -0.3298  0.4815 -1.0724
  351TMC3     H 5263   1.410   2.048   9.546  0.5019  1.6047 -1.3585
  351TMC3    H1 5264   1.088   2.267   9.366  0.9483  0.1547 -0.8206
  351TMC3    H2 5265   1.048   1.852   9.455 -2.4620  2.0180 -1.8455
  351TMC3    C7 5266   0.911   2.049   9.368  0.1658 -0.6239 -0.7504
  351TMC3    C8 5267   1.295   1.818   9.557 -0.6066  0.0784  0.1649
  351TMC3    O1 5268   0.859   1.938   9.361 -0.6444  0.5710 -0.3751
  351TMC3    O2 5269   1.417   1.811   9.574 -0.1978 -0.9054 -0.1047
  352MPD2     C 5270   0.253   0.132   0.961  0.3362 -0.4126 -0.5116
  352MPD2    C1 5271   0.160   0.029   0.960  0.2286  0.6383 -0.0899
  352MPD2    C2 5272   0.195   4.610   0.940 -0.3931  0.0009  0.3633
  352MPD2    C3 5273   0.333   4.584   0.912 -0.5144 -0.1065  0.2367
  352MPD2    C4 5274   0.422   4.694   0.916  0.1619  0.3923  0.1723
  352MPD2    C5 5275   0.382   0.100   0.935 -0.1430 -0.1282  0.3176
  352MPD2     H 5276   0.124   4.529   0.954 -1.1760  0.6218  0.0055
  352MPD2    H1 5277   0.527   4.677   0.894  0.8743 -0.0699  3.8062
  352MPD2    H2 5278   0.232   0.237   0.979 -2.0504 -1.2687  1.6845
  352MPD2    H3 5279   0.451   0.184   0.937 -0.2029 -0.1205  2.2331
  352MPD2     N 5280   0.379   4.456   0.882 -0.2724  0.5349  0.1040
  352MPD2    H5 5281   0.305   4.389   0.867 -0.0555  0.1585  0.6969
  352MPD2    N1 5282   0.022   0.067   0.986 -0.2257 -0.3345 -0.2283
  352MPD2    H7 5283   0.008   0.166   1.004  2.0907  0.2781 -1.7012
  353TMC3    C1 5284   0.514   4.284   0.816  0.5869  0.0960  0.2212
  353TMC3    C2 5285   0.640   4.222   0.828  0.2600 -0.5448  0.2097
  353TMC3    C3 5286   0.656   4.100   0.773  0.2190  0.1670  0.0472
  353TMC3    C4 5287   0.411   4.238   0.739 -0.5220 -0.4371  0.3250
  353TMC3    C5 5288   0.434   4.114   0.688 -0.4213  0.3373 -0.1737
  353TMC3    C6 5289   0.553   4.041   0.711 -0.1215 -0.1801  0.3589
  353TMC3     C 5290   0.517   4.420   0.863  0.3516  0.2419  0.1552
  353TMC3     O 5291   0.604   4.469   0.936 -0.0911 -0.6029  0.0647
  353TMC3     H 5292   0.720   4.277   0.876  0.8489 -1.4140  0.2229
  353TMC3    H1 5293   0.311   4.279   0.726  1.0057  2.9386 -0.9803
  353TMC3    H2 5294   0.568   3.961   0.639  1.5116  2.0097 -1.7511
  353TMC3    C7 5295   0.322   4.041   0.630 -0.1701 -0.8579 -0.1489
  353TMC3    C8 5296   0.765   4.014   0.815  0.5181  0.2248  0.7364
  353TMC3    O1 5297   0.311   3.924   0.668 -0.2243  0.0239 -0.0845
  353TMC3    O2 5298   0.856   4.067   0.872  0.2445 -0.8187 -0.2167
  354TMC3    C1 5299   1.017   0.200  13.714  0.0327 -0.6069  0.3396
  354TMC3    C2 5300   1.091   0.316  13.734 -0.6040 -1.0434 -0.3583
  354TMC3    C3 5301   1.139   0.377  13.621  0.7580  0.4416 -0.0108
  354TMC3    C4 5302   1.001   0.140  13.595 -0.2127 -0.1904  0.2204
  354TMC3    C5 5303   1.073   0.196  13.492 -0.2636 -0.2613 -1.1479
  354TMC3    C6 5304   1.135   0.318  13.499 -0.6983 -0.1313 -0.2744
  354TMC3     C 5305   0.928   0.166  13.818  0.5909 -0.2985  0.4810
  354TMC3     O 5306   0.816   0.131  13.791 -0.1045  0.3828  0.3645
  354TMC3     H 5307   1.090   0.357  13.835  1.9704  4.3735 -2.5458
  354TMC3    H1 5308   0.958   0.040  13.594  0.4368 -0.4723  0.1248
  354TMC3    H2 5309   1.196   0.366  13.423 -2.2263  1.8728 -0.2187
  354TMC3    C7 5310   1.070   0.116  13.369 -0.5224 -0.8988  0.4376
  354TMC3    C8 5311   1.212   0.501  13.640 -0.1095  0.3254 -0.3456
  354TMC3    O1 5312   1.034   0.000  13.380 -0.0705  0.0577  0.1040
  354TMC3    O2 5313   1.252   0.509  13.753 -0.2325  0.2210 -0.2372
  355MPD2     C 5314   0.970   1.156  12.040 -0.4311 -0.8105  0.0884
  355MPD2    C1 5315   1.043   1.110  11.934 -0.2377  0.2095  0.0849
  355MPD2    C2 5316   1.179   1.124  11.937 -0.2304 -0.2557 -1.1186
  355MPD2    C3 5317   1.242   1.193  12.040 -0.2153 -0.4955 -0.4831
  355MPD2    C4 5318   1.164   1.232  12.142  0.3801 -0.3070  0.0256
  355MPD2    C5 5319   1.029   1.220  12.146 -0.5228  0.0630 -0.1466
  355MPD2     H 5320   1.226   1.072  11.854  1.0240 -4.7682  2.3893
  355MPD2    H1 5321   1.205   1.295  12.220 -1.2196 -0.9275  1.3784
  355MPD2    H2 5322   0.865   1.133  12.043 -0.4692 -0.7031 -0.5898
  355MPD2    H3 5323   0.965   1.275  12.214 -0.7473 -0.8400  0.3840
  355MPD2     N 5324   1.382   1.228  12.045  0.2503 -0.8819  0.2177
  355MPD2    H5 5325   1.416   1.282  12.124 -1.3080  0.7974 -0.2820
  355MPD2    N1 5326   0.966   1.048  11.825 -0.0278  0.0246 -0.2828
  355MPD2    H7 5327   0.873   1.020  11.856  0.0030  0.0311 -0.1852
  356TMC3    C1 5328   1.603   1.269  11.952  0.0288 -0.7078  0.8959
  356TMC3    C2 5329   1.681   1.280  11.841 -0.3394  0.6439 -0.5627
  356TMC3    C3 5330   1.795   1.347  11.851  0.1788 -0.6929 -0.3645
  356TMC3    C4 5331   1.654   1.301  12.080 -0.3765 -0.0385  1.1791
  356TMC3    C5 5332   1.782   1.354  12.084  0.2779 -0.9581 -0.4962
  356TMC3    C6 5333   1.857   1.381  11.971  0.2528 -0.5101 -0.3249
  356TMC3     C 5334   1.472   1.207  11.937 -0.1017  0.0968 -0.4754
  356TMC3     O 5335   1.447   1.161  11.828 -0.4918  0.0778 -0.4451
  356TMC3     H 5336   1.646   1.246  11.744  1.0572  0.0587 -0.8541
  356TMC3    H1 5337   1.594   1.280  12.167  0.1155 -0.6831  1.3623
  356TMC3    H2 5338   1.962   1.409  11.981  0.7843 -2.8131  0.4807
  356TMC3    C7 5339   1.835   1.365  12.215 -0.6437 -0.4322  0.6091
  356TMC3    C8 5340   1.876   1.353  11.727  0.3455 -0.0692 -0.0023
  356TMC3    O1 5341   1.774   1.307  12.301 -0.5301  0.5306 -0.4410
  356TMC3    O2 5342   1.849   1.267  11.642 -0.2545  0.6762  0.2986
  357MPD2     C 5343   1.720   1.741   1.615 -0.4653  0.5001 -0.5387
  357MPD2    C1 5344   1.785   1.631   1.575 -0.5175  0.8478 -0.0646
  357MPD2    C2 5345   1.900   1.595   1.643 -0.4159 -1.1741 -0.3878
  357MPD2    C3 5346   1.958   1.679   1.733  0.2281 -0.5315  0.7143
  357MPD2    C4 5347   1.902   1.796   1.763  0.4998  0.1954  0.0554
  357MPD2    C5 5348   1.779   1.825   1.709 -0.0879 -0.0628 -0.1923
  357MPD2     H 5349   1.947   1.498   1.631 -1.4273 -1.8766  1.4745
  357MPD2    H1 5350   1.953   1.871   1.822  0.1908 -0.8864  1.6872
  357MPD2    H2 5351   1.622   1.763   1.575 -0.9484  0.2407  0.4830
  357MPD2    H3 5352   1.726   1.916   1.734  2.0695  0.7933  1.2653
  357MPD2     N 5353   2.095   1.668   1.774 -0.0220 -0.0020  0.3803
  357MPD2    H5 5354   2.141   1.756   1.794 -1.6397  0.2725  2.9315
  357MPD2    N1 5355   1.721   1.547   1.478  0.1091  0.3076 -0.1451
  357MPD2    H7 5356   1.635   1.586   1.441  0.1106  0.3943 -0.0561
  358TMC3    C1 5357   1.720   1.368   1.305 -0.3745 -0.1144 -0.4192
  358TMC3    C2 5358   1.585   1.364   1.296  0.5312 -0.2436 -0.2866
  358TMC3    C3 5359   1.526   1.311   1.183  0.5686  0.6507 -0.1061
  358TMC3    C4 5360   1.803   1.307   1.215 -0.1225  0.1416  0.5786
  358TMC3    C5 5361   1.740   1.266   1.098  0.5051  0.1448  0.5793
  358TMC3    C6 5362   1.601   1.257   1.086 -0.6546  0.3594 -0.9406
  358TMC3     C 5363   1.781   1.437   1.424 -0.1673  0.2446  0.5734
  358TMC3     O 5364   1.890   1.388   1.447  0.0222  0.2864 -0.3266
  358TMC3     H 5365   1.525   1.398   1.379  1.5404  0.6652  0.0759
  358TMC3    H1 5366   1.910   1.316   1.227  0.0910  0.6400 -1.7824
  358TMC3    H2 5367   1.549   1.216   1.000 -1.0594 -1.6339  0.2469
  358TMC3    C7 5368   1.816   1.192   0.997 -0.0465  0.2531 -0.7104
  358TMC3    C8 5369   1.384   1.319   1.159 -0.1483 -0.1361  0.1958
  358TMC3    O1 5370   1.758   1.155   0.893  0.1554 -0.2581 -0.0330
  358TMC3    O2 5371   1.348   1.289   1.046  1.2036 -0.3253 -0.3605
  359MPD2     C 5372   1.265   4.059  12.025 -0.0999  0.5554 -0.0400
  359MPD2    C1 5373   1.315   4.147  12.121 -0.5829  0.4104  0.1099
  359MPD2    C2 5374   1.236   4.260  12.152  0.3056 -0.0531  0.2010
  359MPD2    C3 5375   1.120   4.286  12.092 -0.1737 -0.1099 -0.7679
  359MPD2    C4 5376   1.075   4.202  11.993  0.1908 -0.4666  0.1053
  359MPD2    C5 5377   1.152   4.090  11.960 -0.7192  0.2290  0.1175
  359MPD2     H 5378   1.275   4.331  12.223  1.0802 -3.4890  3.1959
  359MPD2    H1 5379   0.983   4.223  11.938  0.4586  0.9713  0.1956
  359MPD2    H2 5380   1.321   3.968  12.005 -2.2020 -0.3405 -1.6979
  359MPD2    H3 5381   1.122   4.024  11.879 -1.8785  2.6929 -1.4607
  359MPD2     N 5382   1.037   4.401  12.117  0.0185 -0.2128 -0.6078
  359MPD2    H5 5383   0.966   4.422  12.048 -0.5667 -4.3974 -1.3032
  359MPD2    N1 5384   1.439   4.122  12.188 -0.2840  0.2547  0.1849
  359MPD2    H7 5385   1.490   4.036  12.171  0.8853  1.0303 -0.2563
  360TMC3    C1 5386   1.630   4.187  12.318  0.3266  0.2011 -0.2248
  360TMC3    C2 5387   1.704   4.304  12.319 -0.6322  0.0898 -0.0823
  360TMC3    C3 5388   1.831   4.287  12.257 -0.2162 -0.2892  0.4304
  360TMC3    C4 5389   1.679   4.058  12.299  0.3889  0.5170  0.3657
  360TMC3    C5 5390   1.809   4.046  12.255 -0.2569 -0.5118  0.2519
  360TMC3    C6 5391   1.885   4.161  12.234  0.0480  0.0262  0.6181
  360TMC3     C 5392   1.491   4.216  12.280  0.7933 -0.1866 -0.2051
  360TMC3     O 5393   1.447   4.316  12.337 -0.4521 -0.2325  0.0513
  360TMC3     H 5394   1.655   4.401  12.318  0.8396  0.8334 -0.3818
  360TMC3    H1 5395   1.618   3.969  12.301 -0.5674  1.1587  0.1214
  360TMC3    H2 5396   1.982   4.150  12.187  0.0955 -0.2012  0.7725
  360TMC3    C7 5397   1.839   3.935  12.170 -0.0810 -0.2323 -0.6556
  360TMC3    C8 5398   1.879   4.405  12.179  0.2362  0.1402  0.4675
  360TMC3    O1 5399   1.916   3.960  12.077  0.5443 -0.2408  0.5362
  360TMC3    O2 5400   1.800   4.496  12.166 -0.3713  0.0809  0.1284
  361MPD2     C 5401   3.265   3.551  16.933 -0.4339 -0.2874  0.1045
  361MPD2    C1 5402   3.285   3.689  16.934 -0.0486 -0.0650  0.4396
  361MPD2    C2 5403   3.411   3.745  16.919 -0.1136  0.3385  0.8277
  361MPD2    C3 5404   3.518   3.660  16.916  0.2594 -0.7687  0.6375
  361MPD2    C4 5405   3.505   3.521  16.922 -0.2666 -0.9688  0.2388
  361MPD2    C5 5406   3.380   3.472  16.932 -0.0353  0.4484  0.1937
  361MPD2     H 5407   3.427   3.852  16.911  0.7430  0.1888  0.4461
  361MPD2    H1 5408   3.587   3.452  16.903  0.8147 -0.0020  1.3916
  361MPD2    H2 5409   3.168   3.504  16.930 -0.5776  0.2288 -2.6371
  361MPD2    H3 5410   3.368   3.364  16.927 -1.4816  0.6537 -0.7757
  361MPD2     N 5411   3.649   3.713  16.920 -0.1916 -0.7389  0.3921
  361MPD2    H5 5412   3.728   3.650  16.928  0.3281 -0.1320  0.1286
  361MPD2    N1 5413   3.175   3.790  16.929 -0.3603  0.7589 -0.5440
  361MPD2    H7 5414   3.212   3.884  16.920  0.3240  0.5964  0.5918
  362TMC3    C1 5415   2.970   3.885  16.941 -0.4045  0.4867 -0.2050
  362TMC3    C2 5416   2.864   3.915  17.029  0.7689  0.2169 -0.2259
  362TMC3    C3 5417   2.781   4.019  16.991  0.8325 -0.0986  0.2533
  362TMC3    C4 5418   2.993   3.952  16.825 -0.5518  0.0301 -0.0342
  362TMC3    C5 5419   2.903   4.050  16.789  0.2939  0.4051  0.0003
  362TMC3    C6 5420   2.795   4.085  16.875  0.5052 -0.6801  0.1901
  362TMC3     C 5421   3.046   3.769  16.969 -0.4840  0.0900  0.0061
  362TMC3     O 5422   3.004   3.679  17.034 -0.3802 -0.2915  0.1162
  362TMC3     H 5423   2.841   3.853  17.115 -0.1625 -0.9124 -1.2884
  362TMC3    H1 5424   3.072   3.922  16.756 -0.0688 -1.6579  1.2358
  362TMC3    H2 5425   2.711   4.143  16.838  1.4057  0.4088 -0.1278
  362TMC3    C7 5426   2.906   4.137  16.676  0.0125  0.0214  0.0511
  362TMC3    C8 5427   2.650   4.016  17.056  0.2493  0.1802 -0.6877
  362TMC3    O1 5428   2.842   4.240  16.688 -0.2374  0.5782 -0.0937
  362TMC3    O2 5429   2.615   3.913  17.112 -0.1978  0.5551  0.3355
  363TMC3    C1 5430   2.894   0.968  10.116  0.6638  0.0842 -0.2326
  363TMC3    C2 5431   2.805   0.895  10.187  0.1638  0.3861  0.1066
  363TMC3    C3 5432   2.682   0.882  10.126  0.3679  0.4618 -0.6212
  363TMC3    C4 5433   2.868   1.020   9.996  0.2382 -0.3317 -0.2310
  363TMC3    C5 5434   2.740   1.019   9.945  0.2255  0.0214 -0.4941
  363TMC3    C6 5435   2.643   0.950  10.014  0.5000  0.2951 -0.2549
  363TMC3     C 5436   3.033   0.968  10.161  0.4666  0.2464 -0.0085
  363TMC3     O 5437   3.056   0.892  10.258 -0.0596 -0.2269 -1.0091
  363TMC3     H 5438   2.823   0.836  10.276 -1.7255 -0.0539  0.1874
  363TMC3    H1 5439   2.941   1.079   9.942  1.2459 -1.1886  0.1886
  363TMC3    H2 5440   2.543   0.923   9.982 -0.0346 -0.2138  1.8408
  363TMC3    C7 5441   2.708   1.102   9.825  0.3201 -0.0797  0.4448
  363TMC3    C8 5442   2.588   0.793  10.184  0.2108  0.0397 -0.3408
  363TMC3    O1 5443   2.793   1.173   9.771  0.0801 -0.3555 -0.5274
  363TMC3    O2 5444   2.510   0.742  10.104  0.6202 -0.1045  0.3120
  364MPD2     C 5445   0.532   0.493  10.840 -0.5870 -0.2628  0.3688
  364MPD2    C1 5446   0.645   0.433  10.780 -0.2613  0.6711 -0.1495
  364MPD2    C2 5447   0.678   0.298  10.812 -0.4067  0.7328 -0.0033
  364MPD2    C3 5448   0.572   0.220  10.867 -0.8850 -0.2165 -0.4809
  364MPD2    C4 5449   0.471   0.294  10.927  1.0718 -0.2699 -0.1569
  364MPD2    C5 5450   0.447   0.424  10.920 -0.2696  0.5749  0.7478
  364MPD2     H 5451   0.766   0.239  10.786 -0.2884 -0.1025  2.3142
  364MPD2    H1 5452   0.384   0.246  10.971  0.2002  0.6730 -0.8527
  364MPD2    H2 5453   0.505   0.594  10.814 -0.8977 -0.5824 -0.5373
  364MPD2    H3 5454   0.358   0.472  10.959 -0.8173  0.1497  0.0035
  364MPD2     N 5455   0.580   0.080  10.887  0.5554 -0.2184  0.4547
  364MPD2    H5 5456   0.509   0.039  10.947  1.1237 -2.9636 -0.7443
  364MPD2    N1 5457   0.740   0.514  10.705  0.6831 -0.7914  0.6466
  364MPD2    H7 5458   0.710   0.609  10.686 -0.6416 -1.2436  0.4891
  365TMC3    C1 5459   0.943   0.575  10.583 -0.2318  0.0134 -0.8139
  365TMC3    C2 5460   1.014   0.543  10.466 -0.2117  0.0350  1.1136
  365TMC3    C3 5461   1.077   0.654  10.410 -0.3263 -0.1396  0.1145
  365TMC3    C4 5462   0.928   0.700  10.648 -0.0781  0.2546  0.0671
  365TMC3    C5 5463   0.983   0.797  10.573  0.1406 -0.7127  0.3477
  365TMC3    C6 5464   1.051   0.773  10.458  0.2390 -0.2585 -0.0409
  365TMC3     C 5465   0.859   0.471  10.638  0.3565 -0.2547  0.9573
  365TMC3     O 5466   0.906   0.359  10.617 -0.0998 -0.1999 -0.4799
  365TMC3     H 5467   1.026   0.442  10.430 -0.3346  0.4772 -0.1761
  365TMC3    H1 5468   0.879   0.715  10.744 -0.7657  1.8465 -0.5359
  365TMC3    H2 5469   1.097   0.864  10.421 -0.6107 -0.2157 -0.9819
  365TMC3    C7 5470   0.987   0.938  10.629 -0.3324 -0.1043 -0.2900
  365TMC3    C8 5471   1.163   0.644  10.293 -0.4194 -0.2345  0.9862
  365TMC3    O1 5472   1.009   1.035  10.554 -0.0858  0.0184  0.3162
  365TMC3    O2 5473   1.201   0.748  10.241 -0.6316 -0.5449 -0.3049
  366MPD2     C 5474   3.791   1.753  15.503  0.1912  0.3826 -0.0614
  366MPD2    C1 5475   3.899   1.838  15.483  0.5404  0.5219 -0.3409
  366MPD2    C2 5476   4.022   1.786  15.467 -0.6830  0.7992 -0.0156
  366MPD2    C3 5477   4.037   1.651  15.449  0.4361  0.2800  0.1473
  366MPD2    C4 5478   3.932   1.570  15.483 -0.4805  0.8551 -0.6643
  366MPD2    C5 5479   3.808   1.617  15.498 -0.2391  0.7233 -0.0866
  366MPD2     H 5480   4.108   1.852  15.455  0.2347 -0.4418 -0.2957
  366MPD2    H1 5481   3.943   1.464  15.504 -2.0946  0.6817 -0.6202
  366MPD2    H2 5482   3.698   1.796  15.537 -0.2948  1.1619 -2.3430
  366MPD2    H3 5483   3.728   1.550  15.526 -1.0584  2.1361  0.9861
  366MPD2     N 5484   4.165   1.601  15.425  0.1955  0.3614 -0.4132
  366MPD2    H5 5485   4.245   1.661  15.439  0.0336  0.4113  0.2805
  366MPD2    N1 5486   3.880   1.974  15.489 -0.5255  0.0102  0.6418
  366MPD2    H7 5487   3.962   2.033  15.498  1.3176 -2.3323 -0.6847
  367TMC3    C1 5488   3.791   2.187  15.438  0.5611 -0.5650 -0.4506
  367TMC3    C2 5489   3.837   2.264  15.542  0.7059 -0.0593  0.4550
  367TMC3    C3 5490   3.853   2.399  15.513 -0.2408  0.5073  0.5160
  367TMC3    C4 5491   3.732   2.237  15.328  0.6675  0.3422  0.6887
  367TMC3    C5 5492   3.743   2.373  15.310 -0.5320  0.2846  0.9381
  367TMC3    C6 5493   3.800   2.456  15.407 -0.7954 -0.1372  0.0312
  367TMC3     C 5494   3.765   2.040  15.455 -0.0990  0.8606 -0.1499
  367TMC3     O 5495   3.665   1.997  15.405  0.1734 -0.1298  0.0430
  367TMC3     H 5496   3.887   2.215  15.625 -2.8085 -2.4211  1.2077
  367TMC3    H1 5497   3.719   2.161  15.252  0.2268 -1.5315  2.6642
  367TMC3    H2 5498   3.821   2.561  15.391 -2.5693  0.2428  0.2405
  367TMC3    C7 5499   3.685   2.445  15.202  0.0707 -0.2458 -0.5995
  367TMC3    C8 5500   3.928   2.475  15.606 -0.2262 -0.4559  0.2030
  367TMC3    O1 5501   3.736   2.557  15.184  0.1917 -0.0950  0.1583
  367TMC3    O2 5502   4.004   2.421  15.688 -0.4973  0.2770 -0.0440
  368MPD2     C 5503   4.061   4.577  13.163 -0.0821 -0.0748 -0.1759
  368MPD2    C1 5504   4.047   4.614  13.030 -0.6721  0.2477  0.0797
  368MPD2    C2 5505   4.157   4.617  12.946 -0.5404 -0.4597  0.4907
  368MPD2    C3 5506   4.275   4.564  12.988 -0.2407  0.4199 -0.0447
  368MPD2    C4 5507   4.280   4.504  13.111 -0.0323  0.5608  0.7383
  368MPD2    C5 5508   4.179   4.525  13.205 -0.6593  0.3525 -0.5094
  368MPD2     H 5509   4.153   4.645  12.841  1.1786 -1.2601  0.2112
  368MPD2    H1 5510   4.378   4.472  13.143  0.3624  0.7309 -0.2923
  368MPD2    H2 5511   3.988   4.606  13.237  0.5452 -1.3397  0.9446
  368MPD2    H3 5512   4.195   4.506  13.311 -3.3804  0.6105 -0.0767
  368MPD2     N 5513   4.401   4.562  12.919  0.3061  0.0419 -0.0686
  368MPD2    H5 5514   4.474   4.507  12.964  0.4956 -0.0216 -0.4507
  368MPD2    N1 5515   3.916   4.665  12.998  0.5797  0.2292 -0.3917
  368MPD2    H7 5516   3.837   4.664  13.061  2.9382 -0.5984  2.5226
  369TMC3    C1 5517   3.743   4.716  12.845 -0.0188 -1.7609  0.1786
  369TMC3    C2 5518   3.721   0.034  12.716  0.0548  0.0836 -0.1235
  369TMC3    C3 5519   3.648   4.673  12.632  0.1477 -0.2007 -0.0106
  369TMC3    C4 5520   3.677   4.604  12.888 -0.2435  0.3485  0.5328
  369TMC3    C5 5521   3.610   4.520  12.802  0.1239 -0.9202  0.6949
  369TMC3    C6 5522   3.591   4.554  12.668 -0.5511  0.0308  0.2386
  369TMC3     C 5523   3.884   0.002  12.876  0.3765 -0.5155 -0.7231
  369TMC3     O 5524   3.955   0.026  12.781  0.3651 -0.0337  0.1631
  369TMC3     H 5525   3.770   0.120  12.671 -0.3014  0.3359 -0.0293
  369TMC3    H1 5526   3.694   4.563  12.987  0.1300  1.7764  1.0602
  369TMC3    H2 5527   3.559   4.477  12.599 -0.7188  0.9078 -0.6754
  369TMC3    C7 5528   3.562   4.392  12.850  0.4762 -0.4909  0.8999
  369TMC3    C8 5529   3.716   4.663  12.502  0.0082 -0.7052 -0.0487
  369TMC3    O1 5530   3.619   4.327  12.938 -0.8843 -0.0075 -0.3012
  369TMC3    O2 5531   3.655   4.656  12.394 -0.2437 -0.3318 -0.3021
  370TMC3    C1 5532   4.539   4.670  16.252  0.1201  0.0364 -0.2172
  370TMC3    C2 5533   4.462   4.623  16.359 -0.2767  0.2141  0.3591
  370TMC3    C3 5534   4.421   4.494  16.362 -0.1468  0.2344  0.4053
  370TMC3    C4 5535   4.567   4.586  16.144 -0.6069  0.4780 -0.0940
  370TMC3    C5 5536   4.505   4.461  16.142 -0.2127  0.0056  0.7786
  370TMC3    C6 5537   4.434   4.406  16.252 -0.2768 -0.0034 -0.2656
  370TMC3     C 5538   4.647   0.040  16.298 -0.0673 -0.1715  0.5681
  370TMC3     O 5539   4.684   0.026  16.413  0.0937 -0.4482 -0.2772
  370TMC3     H 5540   4.440   4.691  16.441  0.0484 -0.8362  1.3197
  370TMC3    H1 5541   4.614   4.625  16.054 -1.9171  1.6945 -0.2475
  370TMC3    H2 5542   4.419   4.299  16.254 -1.4844  0.1421 -1.9661
  370TMC3    C7 5543   4.560   4.370  16.048 -0.7748 -0.2419 -0.5734
  370TMC3    C8 5544   4.399   4.414  16.489 -0.3315 -0.2192 -1.0076
  370TMC3    O1 5545   4.673   4.398  16.009  0.5128 -0.5082  0.7928
  370TMC3    O2 5546   4.404   4.291  16.480 -0.4225 -0.0795  0.4373
  371TMC3    C1 5547   0.923   2.817  15.417 -0.0031 -0.5159  0.8837
  371TMC3    C2 5548   0.910   2.840  15.553 -0.4550 -0.0748 -0.3193
  371TMC3    C3 5549   0.883   2.963  15.599 -0.3046  0.4002 -0.3535
  371TMC3    C4 5550   0.933   2.926  15.334  0.3422 -0.6369  0.1020
  371TMC3    C5 5551   0.929   3.055  15.388  0.4034  0.2465 -0.0724
  371TMC3    C6 5552   0.892   3.074  15.516  0.7565  0.2790 -0.3522
  371TMC3     C 5553   0.963   2.692  15.350  1.1538 -0.2975 -0.0587
  371TMC3     O 5554   1.054   2.702  15.262  0.2609 -0.2232  0.1469
  371TMC3     H 5555   0.928   2.758  15.621  0.0631 -0.7676 -1.2823
  371TMC3    H1 5556   0.951   2.907  15.228  1.6752 -1.0286  0.3979
  371TMC3    H2 5557   0.870   3.174  15.553  1.0134  0.5922 -1.0364
  371TMC3    C7 5558   0.953   3.171  15.303  0.1454  0.0210 -0.3486
  371TMC3    C8 5559   0.827   2.971  15.733  0.5306 -0.5965  0.6250
  371TMC3    O1 5560   0.943   3.276  15.365 -0.8429 -0.3272  0.0679
  371TMC3    O2 5561   0.873   2.883  15.810 -0.2692  0.6041 -0.1077
  372MPD2     C 5562   0.764   4.022  13.139  0.2327 -0.3712 -0.0285
  372MPD2    C1 5563   0.821   3.950  13.244 -0.1761  0.2896 -0.3091
  372MPD2    C2 5564   0.738   3.889  13.336 -0.3020 -0.0448 -0.2590
  372MPD2    C3 5565   0.603   3.905  13.329  0.6970  0.2065 -0.4078
  372MPD2    C4 5566   0.549   3.982  13.234 -0.2337  0.4286  0.4858
  372MPD2    C5 5567   0.628   4.036  13.135 -0.2368 -0.8015  0.8073
  372MPD2     H 5568   0.785   3.838  13.419 -1.3198 -0.9323 -0.2250
  372MPD2    H1 5569   0.442   3.993  13.227 -0.1057  0.7315 -0.8210
  372MPD2    H2 5570   0.822   4.081  13.069 -0.1268  0.4429  0.3647
  372MPD2    H3 5571   0.579   4.094  13.056  0.2107 -2.3630 -0.6167
  372MPD2     N 5572   0.529   3.847  13.430  0.3714  0.2195 -0.3600
  372MPD2    H5 5573   0.570   3.814  13.516  2.0707  0.5921 -1.0275
  372MPD2    N1 5574   0.961   3.925  13.253  0.5743  0.5559  0.0185
  372MPD2    H7 5575   0.988   3.862  13.328 -0.5081 -1.8457 -1.6248
  373TMC3    C1 5576   0.355   3.717  13.514  0.1113  0.2638  0.7975
  373TMC3    C2 5577   0.294   3.759  13.626  0.4141  0.5533 -0.0484
  373TMC3    C3 5578   0.321   3.677  13.734  0.5268 -0.3502 -0.3278
  373TMC3    C4 5579   0.439   3.606  13.502  0.1693  0.0454 -0.8806
  373TMC3    C5 5580   0.456   3.527  13.614 -0.0014 -0.2705  0.3099
  373TMC3    C6 5581   0.402   3.565  13.733 -0.1889  0.4429 -0.2171
  373TMC3     C 5582   0.391   3.818  13.420 -0.7059  0.0328 -0.5338
  373TMC3     O 5583   0.314   3.848  13.335  0.4989 -0.2091  0.0157
  373TMC3     H 5584   0.217   3.836  13.629  0.1669  0.4969 -4.5548
  373TMC3    H1 5585   0.489   3.582  13.409  1.7694 -0.4630  0.1090
  373TMC3    H2 5586   0.421   3.500  13.818 -0.2523  0.5680 -0.1070
  373TMC3    C7 5587   0.541   3.414  13.594 -0.4001  0.0685  0.0098
  373TMC3    C8 5588   0.293   3.734  13.865 -0.0880  0.5089 -0.5677
  373TMC3    O1 5589   0.546   3.377  13.477 -0.1859 -0.3203  0.2381
  373TMC3    O2 5590   0.180   3.747  13.911 -0.0481 -0.1289  0.3056
  374TMC3    C1 5591   0.708   3.845   9.671 -0.8698 -0.5983 -0.2072
  374TMC3    C2 5592   0.826   3.897   9.712 -0.0944  0.3146  1.0287
  374TMC3    C3 5593   0.888   3.978   9.614  0.0336 -0.1267 -0.5389
  374TMC3    C4 5594   0.648   3.887   9.553 -0.4534 -0.0007  0.0625
  374TMC3    C5 5595   0.706   3.973   9.468 -0.8018 -0.4956  0.2756
  374TMC3    C6 5596   0.827   4.026   9.500  0.0774  0.5360  0.1170
  374TMC3     C 5597   0.614   3.786   9.765 -0.2123 -0.8309 -0.2040
  374TMC3     O 5598   0.493   3.786   9.742  0.1333 -0.2163  0.6575
  374TMC3     H 5599   0.885   3.858   9.794  0.2445 -2.9665 -0.7657
  374TMC3    H1 5600   0.564   3.827   9.520  0.3585 -1.1745  0.1280
  374TMC3    H2 5601   0.878   4.083   9.423 -0.8378  0.0829 -0.8291
  374TMC3    C7 5602   0.627   4.017   9.357  0.2467  0.4290  0.2216
  374TMC3    C8 5603   0.998   4.063   9.658  0.7944 -0.4788 -0.7008
  374TMC3    O1 5604   0.523   3.953   9.343  0.4117 -0.2339  0.6328
  374TMC3    O2 5605   1.033   4.152   9.586  0.3437  0.5657  0.5796
  375MPD2     C 5606   1.206   0.511  16.283 -1.2655  0.3711 -0.0269
  375MPD2    C1 5607   1.090   0.449  16.325 -0.9264 -0.3943  0.6246
  375MPD2    C2 5608   1.038   0.343  16.247 -0.3971  0.2005  0.0799
  375MPD2    C3 5609   1.097   0.293  16.138 -0.3060 -0.1627  0.6410
  375MPD2    C4 5610   1.219   0.341  16.105  0.1234 -0.3527 -0.2293
  375MPD2    C5 5611   1.273   0.453  16.178 -0.7698  0.3178 -0.2339
  375MPD2     H 5612   0.945   0.302  16.285 -0.5976  1.5191  1.0232
  375MPD2    H1 5613   1.283   0.303  16.026 -1.0105 -0.5979 -1.0215
  375MPD2    H2 5614   1.251   0.598  16.330  0.2896  0.9450 -2.5752
  375MPD2    H3 5615   1.378   0.474  16.156 -0.6534  0.6631  0.6759
  375MPD2     N 5616   1.061   0.175  16.072  0.5781 -0.5699 -0.4594
  375MPD2    H5 5617   1.131   0.143  16.006 -0.4077 -2.6673 -0.4870
  375MPD2    N1 5618   1.012   0.489  16.439 -0.0649  0.2054 -0.2400
  375MPD2    H7 5619   0.921   0.444  16.447  0.2420 -0.6067 -1.2823
  376TMC3    C1 5620   0.968   4.691  16.014  0.0051 -0.1838 -0.9784
  376TMC3    C2 5621   1.005   4.581  16.086  0.1327 -0.2168 -0.1019
  376TMC3    C3 5622   1.082   4.479  16.031 -0.5108  0.3106  0.3062
  376TMC3    C4 5623   1.015   4.711  15.888  0.0068  0.3837  0.1225
  376TMC3    C5 5624   1.089   4.611  15.828  0.3418 -0.2329  0.5046
  376TMC3    C6 5625   1.119   4.496  15.899  0.0620  0.2739 -0.2342
  376TMC3     C 5626   0.966   0.084  16.106 -0.4962 -0.0535 -0.1626
  376TMC3     O 5627   0.894   0.086  16.208 -0.5736 -0.3787  1.2858
  376TMC3     H 5628   0.986   4.578  16.193 -1.3175 -1.0978 -0.3820
  376TMC3    H1 5629   0.987   0.080  15.836  0.2717  0.4693  0.1336
  376TMC3    H2 5630   1.185   4.423  15.853  1.2974  1.2110  0.0415
  376TMC3    C7 5631   1.117   4.617  15.689 -0.1377 -0.5931 -0.4675
  376TMC3    C8 5632   1.200   4.438  16.110  0.1858 -0.3804 -0.0348
  376TMC3    O1 5633   1.072   4.712  15.628 -0.5811  0.3269  0.1267
  376TMC3    O2 5634   1.314   4.460  16.073  0.4594  0.0310  0.2626
  377MPD2     C 5635   3.449   4.379  12.320 -0.6180 -0.3860  0.0195
  377MPD2    C1 5636   3.536   4.295  12.392  0.6098 -0.9987 -0.3898
  377MPD2    C2 5637   3.486   4.190  12.458  0.0894 -0.0085 -0.1811
  377MPD2    C3 5638   3.345   4.172  12.464  0.2372  0.3244 -0.7213
  377MPD2    C4 5639   3.261   4.265  12.405 -0.4542 -0.1296  0.2619
  377MPD2    C5 5640   3.312   4.361  12.324  0.3503  0.5432  0.0445
  377MPD2     H 5641   3.553   4.123  12.510  1.5555  1.6531  0.0715
  377MPD2    H1 5642   3.154   4.249  12.409 -0.3552 -0.2451  2.3161
  377MPD2    H2 5643   3.476   4.467  12.263 -2.1978 -0.8114 -1.3711
  377MPD2    H3 5644   3.252   4.434  12.272 -0.1766  0.9002  1.1653
  377MPD2     N 5645   3.282   4.060  12.520  0.1941 -0.2410 -0.0739
  377MPD2    H5 5646   3.181   4.058  12.508 -0.0207  3.2929  1.1076
  377MPD2    N1 5647   3.672   4.325  12.389 -0.4449 -0.0886 -0.4075
  377MPD2    H7 5648   3.699   4.396  12.321  0.7483  0.5603  0.7352
  378TMC3    C1 5649   4.069   4.316  12.278  0.1195  0.6950 -0.7460
  378TMC3    C2 5650   3.938   4.297  12.313 -0.0083  0.2288  0.2149
  378TMC3    C3 5651   3.904   4.306  12.445  0.3765  0.4332 -0.5335
  378TMC3    C4 5652   4.161   4.343  12.372 -0.1312 -0.3033  0.1567
  378TMC3    C5 5653   4.126   4.347  12.501 -0.2613 -0.2945 -0.3819
  378TMC3    C6 5654   3.998   4.330  12.543  0.5921 -0.2307  0.3456
  378TMC3     C 5655   4.099   4.329  12.137  0.0346 -1.6002 -0.1222
  378TMC3     O 5656   3.995   4.349  12.072  0.7458 -0.8355 -0.2764
  378TMC3     H 5657   3.857   4.276  12.244  0.9155  1.5351 -1.2609
  378TMC3    H1 5658   4.262   4.346  12.334 -0.6475  0.6607 -1.1313
  378TMC3    H2 5659   3.970   4.343  12.647  2.3256  1.3021  0.6381
  378TMC3    C7 5660   4.218   4.291  12.601  0.1323 -0.4867 -0.9276
  378TMC3    C8 5661   3.767   4.281  12.479  0.3068  0.1174 -0.5299
  378TMC3    O1 5662   4.170   4.256  12.708 -0.5341  0.0562 -0.3459
  378TMC3    O2 5663   3.749   4.248  12.597 -0.0850  0.3058  0.5075
  379MPD2     C 5664   0.524   2.763  15.935 -0.5652  0.5239 -0.1773
  379MPD2    C1 5665   0.401   2.719  15.989  0.5438 -0.0249 -0.2430
  379MPD2    C2 5666   0.388   2.632  16.096 -0.5867  0.3063 -0.5741
  379MPD2    C3 5667   0.512   2.599  16.156  0.0279  0.4419 -0.3195
  379MPD2    C4 5668   0.629   2.626  16.090 -0.0495  0.4456  0.4708
  379MPD2    C5 5669   0.637   2.706  15.983 -0.4059  0.8123 -0.0389
  379MPD2     H 5670   0.291   2.598  16.130  1.3620 -3.2496  1.3697
  379MPD2    H1 5671   0.719   2.582  16.132  1.1233  0.9259 -1.5396
  379MPD2    H2 5672   0.531   2.825  15.846  1.9290 -1.3433 -1.2681
  379MPD2    H3 5673   0.734   2.728  15.939  0.1365  0.7118  1.0942
  379MPD2     N 5674   0.529   2.512  16.268 -0.2773  0.0601 -0.3543
  379MPD2    H5 5675   0.611   2.455  16.288  0.3494  1.7165  1.7253
  379MPD2    N1 5676   0.289   2.763  15.925 -0.5023 -0.0988 -0.0275
  379MPD2    H7 5677   0.303   2.813  15.837 -1.6070 -0.1831 -0.2485
  380TMC3    C1 5678   0.060   2.750  15.867 -0.5629  0.3791  0.6845
  380TMC3    C2 5679   0.085   2.649  15.778  0.2210  0.5498 -0.0559
  380TMC3    C3 5680   4.707   2.624  15.684 -0.0736  0.3017 -0.5368
  380TMC3    C4 5681   4.660   2.798  15.896  0.2419 -0.1702  0.1614
  380TMC3    C5 5682   4.558   2.768  15.801 -0.0473  0.2599  0.4727
  380TMC3    C6 5683   4.586   2.690  15.689  0.4028 -0.3293 -0.4033
  380TMC3     C 5684   0.159   2.758  15.975 -0.3810  0.2661 -0.6493
  380TMC3     O 5685   0.118   2.756  16.089  0.0021  0.1964  0.3435
  380TMC3     H 5686   0.183   2.606  15.761 -0.7175 -2.0747  1.2568
  380TMC3    H1 5687   4.643   2.865  15.980 -0.5816  0.5327 -0.5716
  380TMC3    H2 5688   4.514   2.668  15.611 -0.1279 -1.0066  0.2728
  380TMC3    C7 5689   4.426   2.837  15.809  0.3898 -0.2407  0.2069
  380TMC3    C8 5690   0.026   2.592  15.545 -0.1088 -0.4328 -0.0337
  380TMC3    O1 5691   4.421   2.948  15.858 -0.2669 -0.6185  0.2812
  380TMC3    O2 5692   0.006   2.669  15.455 -0.0788  0.1367 -0.2190
  381TMC3    C1 5693   4.446   3.665  16.405  0.4303 -1.1806 -0.0475
  381TMC3    C2 5694   4.551   3.756  16.387  0.5156  0.2171  0.1001
  381TMC3    C3 5695   4.529   3.886  16.436  0.4519  1.0219 -0.1352
  381TMC3    C4 5696   4.330   3.696  16.474  1.1642 -0.1378 -0.3382
  381TMC3    C5 5697   4.302   3.832  16.492 -0.0521  0.4454 -0.1083
  381TMC3    C6 5698   4.402   3.922  16.464  0.2386 -0.1690 -1.1261
  381TMC3     C 5699   4.458   3.539  16.334 -0.0871 -0.2686  0.6388
  381TMC3     O 5700   4.373   3.458  16.368  0.1240  0.1325  0.0081
  381TMC3     H 5701   4.652   3.731  16.355  1.3342  1.5540  1.6561
  381TMC3    H1 5702   4.252   3.621  16.478  0.2231  0.8561 -0.0416
  381TMC3    H2 5703   4.391   4.030  16.474 -3.2572 -0.4833 -1.5025
  381TMC3    C7 5704   4.170   3.874  16.541  0.0634  0.4895  0.0007
  381TMC3    C8 5705   4.637   3.979  16.405 -0.3929  0.2647 -0.9965
  381TMC3    O1 5706   4.090   3.785  16.566 -0.2125  0.1540  0.5650
  381TMC3    O2 5707   4.722   3.943  16.325 -0.1345  0.2107 -0.4937
  382MPD2     C 5708   2.670   1.179   0.123 -0.0679 -0.3901  0.0427
  382MPD2    C1 5709   2.751   1.242   0.028  0.1519 -0.5745 -0.2810
  382MPD2    C2 5710   2.825   1.169  17.632 -0.0282  0.0388  0.8431
  382MPD2    C3 5711   2.831   1.028  17.644 -0.6582 -0.5738  1.2854
  382MPD2    C4 5712   2.766   0.967   0.057 -0.4898 -0.7939 -0.3744
  382MPD2    C5 5713   2.691   1.043   0.144 -0.0546 -0.1323 -0.1143
  382MPD2     H 5714   2.877   1.228  17.557 -3.2126 -0.3421 -1.6492
  382MPD2    H1 5715   2.787   0.860   0.061  0.7730 -0.5254  0.1164
  382MPD2    H2 5716   2.616   1.235   0.200 -1.2215  1.2502 -1.9620
  382MPD2    H3 5717   2.635   0.996   0.225  0.9049  2.0293  1.8255
  382MPD2     N 5718   2.898   0.944  17.549  0.0788  0.1292 -0.7665
  382MPD2    H5 5719   2.901   0.844  17.564 -0.9157  0.5400  2.2009
  382MPD2    N1 5720   2.759   1.382   0.022  0.2852 -0.1241 -0.7905
  382MPD2    H7 5721   2.832   1.424  17.657  2.4436 -1.2945  1.1274
  383TMC3    C1 5722   2.965   0.848  17.348  0.1220  0.5890 -0.3026
  383TMC3    C2 5723   2.945   0.856  17.209  0.4905  0.7235 -0.1352
  383TMC3    C3 5724   2.955   0.746  17.128 -0.7948 -0.2418  0.0015
  383TMC3    C4 5725   3.005   0.731  17.411 -0.4884 -0.2642 -0.2966
  383TMC3    C5 5726   3.017   0.624  17.320 -0.6596  1.0013 -0.5017
  383TMC3    C6 5727   2.991   0.626  17.184 -0.0561 -0.4873  0.3745
  383TMC3     C 5728   2.950   0.972  17.427  0.2424  0.4098  0.4856
  383TMC3     O 5729   2.957   1.081  17.369 -0.1128  0.1399 -0.2030
  383TMC3     H 5730   2.916   0.952  17.169 -2.2600 -0.5145 -1.1029
  383TMC3    H1 5731   3.014   0.717  17.518 -0.0962  0.4383 -0.2393
  383TMC3    H2 5732   2.998   0.533  17.129  0.0270 -1.0068  1.2711
  383TMC3    C7 5733   3.063   0.492  17.370  0.1192  0.3454  0.3299
  383TMC3    C8 5734   2.932   0.761  16.983  0.2063 -0.3267 -0.9127
  383TMC3    O1 5735   3.117   0.415  17.289 -0.6515 -0.3671  0.0301
  383TMC3    O2 5736   2.857   0.850  16.948 -0.2571  0.1622 -0.3851
  384MPD2     C 5737   0.478   2.269  12.132 -0.0087 -0.8332 -0.1016
  384MPD2    C1 5738   0.564   2.282  12.239 -0.5801 -0.1384 -0.1521
  384MPD2    C2 5739   0.677   2.195  12.249 -0.0259 -0.3767 -0.3678
  384MPD2    C3 5740   0.701   2.104  12.145  0.6819 -0.2214  0.3053
  384MPD2    C4 5741   0.605   2.085  12.044  0.8036 -0.2484 -0.1538
  384MPD2    C5 5742   0.495   2.167  12.038 -1.1077 -0.5950 -0.6901
  384MPD2     H 5743   0.749   2.218  12.326 -0.9763  0.6118  0.2190
  384MPD2    H1 5744   0.606   2.000  11.976 -1.3313  0.7937 -1.5119
  384MPD2    H2 5745   0.386   2.326  12.128  0.1759 -0.5666 -0.5144
  384MPD2    H3 5746   0.435   2.160  11.948 -1.6060  0.3719 -0.4236
  384MPD2     N 5747   0.809   2.014  12.155 -0.3345  0.1051  1.0743
  384MPD2    H5 5748   0.803   1.922  12.113 -1.3243  0.1591  1.1088
  384MPD2    N1 5749   0.532   2.389  12.323  0.2475  0.3382  0.3448
  384MPD2    H7 5750   0.448   2.444  12.306  1.5998  2.1239 -0.5770
  385TMC3    C1 5751   0.965   1.921  12.306  0.0115  0.6837  0.0559
  385TMC3    C2 5752   0.922   1.795  12.270  0.1603 -0.1563 -0.4832
  385TMC3    C3 5753   0.901   1.706  12.368 -0.0441 -0.2726 -0.1964
  385TMC3    C4 5754   0.992   1.960  12.435 -0.0704  0.1242 -0.4122
  385TMC3    C5 5755   0.930   1.878  12.532  0.1384  0.2868 -0.5866
  385TMC3    C6 5756   0.895   1.749  12.495  0.3297  0.8336  0.6001
  385TMC3     C 5757   0.923   2.035  12.226 -0.8405  0.5430  0.0601
  385TMC3     O 5758   0.974   2.143  12.254 -0.2330  0.5617 -0.9240
  385TMC3     H 5759   0.906   1.760  12.168  0.9014  0.5356 -0.8333
  385TMC3    H1 5760   1.000   2.066  12.456  2.4087 -0.1692  0.1564
  385TMC3    H2 5761   0.852   1.690  12.576  0.0451 -0.6502 -0.6303
  385TMC3    C7 5762   0.859   1.949  12.639  0.0169 -0.4622 -0.4061
  385TMC3    C8 5763   0.826   1.581  12.340  0.8305 -0.0464 -0.0573
  385TMC3    O1 5764   0.900   2.059  12.673  0.0086  0.3251 -0.0225
  385TMC3    O2 5765   0.778   1.519  12.438  0.4538  0.4037  1.1202
  386TMC3    C1 5766   0.295   4.309  11.852  0.3625 -0.2498 -0.1067
  386TMC3    C2 5767   0.381   4.264  11.758 -0.1931 -0.1413  0.5478
  386TMC3    C3 5768   0.337   4.267  11.633  0.6059 -0.2009  0.3115
  386TMC3    C4 5769   0.171   4.367  11.819 -0.0600 -0.2252  0.1175
  386TMC3    C5 5770   0.134   4.371  11.688  0.2227  0.0298 -0.6901
  386TMC3    C6 5771   0.216   4.319  11.593  0.4901  0.6686 -0.1747
  386TMC3     C 5772   0.325   4.323  11.990  0.1399  0.2343  0.0627
  386TMC3     O 5773   0.228   4.334  12.064 -0.2607 -0.7419 -0.4861
  386TMC3     H 5774   0.470   4.210  11.787  1.2565  1.6568 -0.5069
  386TMC3    H1 5775   0.110   4.416  11.895  0.7672 -0.1678  0.7527
  386TMC3    H2 5776   0.189   4.334  11.489 -0.5875 -0.2610 -0.0312
  386TMC3    C7 5777   0.010   4.441  11.652 -0.5518  0.0085 -0.3198
  386TMC3    C8 5778   0.420   4.215  11.529 -0.2180  0.4791  1.1264
  386TMC3    O1 5779   4.680   4.510  11.742  0.0759  0.5291  0.0950
  386TMC3    O2 5780   0.366   4.170  11.433  0.2491  0.0368  0.0021
  387MPD2     C 5781   2.494   4.263   9.535 -0.6776  0.0509 -0.1166
  387MPD2    C1 5782   2.576   4.275   9.646 -0.4164 -0.0036 -0.1265
  387MPD2    C2 5783   2.669   4.176   9.657 -0.0210 -0.1686  0.2723
  387MPD2    C3 5784   2.673   4.072   9.565 -0.2514  1.0411 -0.0360
  387MPD2    C4 5785   2.592   4.065   9.454 -0.1227 -0.3744  0.4326
  387MPD2    C5 5786   2.501   4.156   9.447 -0.0655 -0.5156  0.0942
  387MPD2     H 5787   2.731   4.180   9.745  2.1575 -1.4368 -1.2127
  387MPD2    H1 5788   2.606   3.982   9.387  2.0660 -0.6698  1.2427
  387MPD2    H2 5789   2.413   4.331   9.514 -0.7668  0.1098  0.4341
  387MPD2    H3 5790   2.440   4.149   9.357  0.6546 -0.1631 -0.4281
  387MPD2     N 5791   2.767   3.976   9.587  0.2386 -0.3919  0.0774
  387MPD2    H5 5792   2.841   3.993   9.654 -0.3475  1.1394  0.3227
  387MPD2    N1 5793   2.571   4.372   9.741  0.0093  0.1501  0.1014
  387MPD2    H7 5794   2.634   4.373   9.820 -0.3327  0.4593  0.3679
  388TMC3    C1 5795   2.474   4.511   9.899  0.1778 -0.8476 -0.1087
  388TMC3    C2 5796   2.487   4.648   9.924  0.0655 -0.9667 -0.1895
  388TMC3    C3 5797   2.534   4.689  10.046  0.4050  0.0019 -0.6070
  388TMC3    C4 5798   2.490   4.419  10.003  0.1282  0.2801 -0.1321
  388TMC3    C5 5799   2.544   4.462  10.124  0.0092 -0.2269 -0.5444
  388TMC3    C6 5800   2.566   4.597  10.142 -0.3569  0.5583 -0.6807
  388TMC3     C 5801   2.475   4.469   9.760  0.0035 -0.2853 -0.5038
  388TMC3     O 5802   2.424   4.534   9.669 -0.1324  0.4619  0.4315
  388TMC3     H 5803   2.476   4.721   9.844  1.2950  1.0422  1.4518
  388TMC3    H1 5804   2.459   4.317   9.986  1.2717 -0.4510  2.2182
  388TMC3    H2 5805   2.622   4.629  10.229  0.1620 -0.8862 -0.4957
  388TMC3    C7 5806   2.627   4.364  10.186 -0.3640 -0.4506  0.2687
  388TMC3    C8 5807   2.583   0.101  10.047 -0.1643  0.3015  0.2303
  388TMC3    O1 5808   2.683   4.401  10.286 -0.0874 -0.1690 -0.1804
  388TMC3    O2 5809   2.610   0.154   9.941  0.3308 -0.3132  0.3092
  389MPD2     C 5810   2.592   2.214  11.042 -0.1825  0.2464  0.0191
  389MPD2    C1 5811   2.510   2.123  10.984 -0.1549  0.2293  0.1005
  389MPD2    C2 5812   2.397   2.083  11.050  0.3005  0.3058 -0.0700
  389MPD2    C3 5813   2.355   2.146  11.163 -0.7323 -0.3057 -1.0352
  389MPD2    C4 5814   2.440   2.238  11.225 -0.2953  0.1137 -0.5899
  389MPD2    C5 5815   2.556   2.272  11.161 -0.1799 -0.3191 -0.0902
  389MPD2     H 5816   2.334   2.003  11.013 -0.0103  0.5953 -0.1685
  389MPD2    H1 5817   2.420   2.287  11.320  0.4154 -1.3498  0.3141
  389MPD2    H2 5818   2.678   2.254  10.991  0.8511  0.2911  1.7705
  389MPD2    H3 5819   2.616   2.355  11.196  1.8671 -1.6558 -0.4611
  389MPD2     N 5820   2.251   2.100  11.247 -0.5872  0.3655 -0.1114
  389MPD2    H5 5821   2.224   2.157  11.326 -0.1314  1.3766 -0.6883
  389MPD2    N1 5822   2.549   2.074  10.855  0.2304  0.0842 -0.6886
  389MPD2    H7 5823   2.623   2.125  10.807  0.6002  0.5811  0.4135
  390TMC3    C1 5824   2.029   1.997  11.278 -1.2427 -0.4481 -0.2625
  390TMC3    C2 5825   1.961   1.879  11.276 -0.0442 -0.3594 -0.1092
  390TMC3    C3 5826   1.842   1.879  11.346 -0.0684  0.2586  0.0094
  390TMC3    C4 5827   1.974   2.118  11.333 -0.4765 -0.1866  0.2233
  390TMC3    C5 5828   1.857   2.105  11.405 -0.7370 -0.0561 -0.3052
  390TMC3    C6 5829   1.787   1.990  11.402 -0.2451  0.1448 -0.1464
  390TMC3     C 5830   2.160   2.000  11.204 -0.4678  0.2486 -0.1915
  390TMC3     O 5831   2.193   1.899  11.144  0.0273 -0.5635  0.1907
  390TMC3     H 5832   1.986   1.789  11.222 -0.4882 -0.7806  0.3833
  390TMC3    H1 5833   2.033   2.209  11.332  0.8240 -1.0790 -2.2146
  390TMC3    H2 5834   1.684   1.997  11.436  0.3516 -0.1031  1.7324
  390TMC3    C7 5835   1.786   2.229  11.423  0.4846  0.0412  0.1890
  390TMC3    C8 5836   1.788   1.751  11.398 -0.1901  0.0675  0.2183
  390TMC3    O1 5837   1.826   2.317  11.350  0.0338 -0.7447 -0.1965
  390TMC3    O2 5838   1.772   1.659  11.324 -0.1772  0.2396  0.2842
  391MPD2     C 5839   1.160   3.390  11.045  0.0085 -0.2557  0.1861
  391MPD2    C1 5840   1.259   3.484  11.078 -0.0943  0.1590  0.4401
  391MPD2    C2 5841   1.297   3.567  10.975  0.4125 -0.3153 -0.2136
  391MPD2    C3 5842   1.251   3.545  10.853  0.3320 -0.4688  1.0371
  391MPD2    C4 5843   1.162   3.443  10.822  0.0629  0.5000  0.2308
  391MPD2    C5 5844   1.113   3.368  10.920  0.4531  0.2211 -0.0926
  391MPD2     H 5845   1.362   3.653  10.984 -0.1751  0.1613 -0.5900
  391MPD2    H1 5846   1.136   3.418  10.720  0.2343 -2.0869  0.8278
  391MPD2    H2 5847   1.127   3.321  11.121 -1.4341  0.5914  0.3170
  391MPD2    H3 5848   1.035   3.295  10.903  0.2904  0.7749 -1.7393
  391MPD2     N 5849   1.300   3.640  10.758  0.0841  0.3757  0.2380
  391MPD2    H5 5850   1.365   3.711  10.790 -0.3728  0.5782  0.7150
  391MPD2    N1 5851   1.306   3.490  11.212 -0.5411 -0.4642 -0.0468
  391MPD2    H7 5852   1.258   3.439  11.286  1.3726 -2.8248 -0.4297
  392TMC3    C1 5853   1.323   3.750  10.547 -0.0953  0.5386 -0.2583
  392TMC3    C2 5854   1.269   3.780  10.428  0.1026  0.4007  0.3097
  392TMC3    C3 5855   1.329   3.888  10.364  0.4185 -0.4679  0.0525
  392TMC3    C4 5856   1.431   3.814  10.603 -0.9669 -0.0318  0.1865
  392TMC3    C5 5857   1.489   3.915  10.530 -0.0433 -0.5812  0.3210
  392TMC3    C6 5858   1.430   3.963  10.412 -0.4509 -0.6624  0.5158
  392TMC3     C 5859   1.258   3.648  10.625 -0.4585  0.0394  0.1088
  392TMC3     O 5860   1.145   3.618  10.591  0.0967 -0.2347  0.5234
  392TMC3     H 5861   1.203   3.714  10.373  4.6528 -0.9391 -3.4881
  392TMC3    H1 5862   1.482   3.783  10.694 -1.4828 -0.3881  0.3566
  392TMC3    H2 5863   1.452   4.061  10.372 -1.3437 -0.9653 -0.7384
  392TMC3    C7 5864   1.606   3.980  10.596 -0.6591  0.3160 -0.1946
  392TMC3    C8 5865   1.269   3.915  10.232  0.4271 -0.1419  0.0938
  392TMC3    O1 5866   1.604   3.972  10.718  0.5319  0.3082  0.1886
  392TMC3    O2 5867   1.159   3.873  10.216 -0.1598 -0.1704 -0.1604
  393TMC3    C1 5868   1.396   1.804   9.913  0.3634 -0.6693  0.0602
  393TMC3    C2 5869   1.312   1.742  10.006  0.4592 -0.5696 -0.0404
  393TMC3    C3 5870   1.352   1.618  10.056 -0.1828  0.4655 -0.1401
  393TMC3    C4 5871   1.517   1.755   9.880  0.5068 -0.6577 -0.5143
  393TMC3    C5 5872   1.551   1.635   9.925 -0.1377 -0.5608 -0.5952
  393TMC3    C6 5873   1.474   1.566  10.017  0.7536 -0.3500  0.0110
  393TMC3     C 5874   1.362   1.944   9.888  0.1489 -0.0453 -0.7388
  393TMC3     O 5875   1.246   1.983   9.913 -0.0312  0.3991  0.7043
  393TMC3     H 5876   1.215   1.785  10.030  1.2935  0.2091  1.9726
  393TMC3    H1 5877   1.571   1.790   9.793  1.8344 -2.5093 -0.4334
  393TMC3    H2 5878   1.498   1.464  10.044  0.0468 -0.3950  0.4523
  393TMC3    C7 5879   1.677   1.568   9.881  0.3233  0.9143 -0.4793
  393TMC3    C8 5880   1.331   1.605  10.201 -0.0952  0.3904 -1.3890
  393TMC3    O1 5881   1.679   1.449   9.914  0.0379  0.9385  0.6861
  393TMC3    O2 5882   1.299   1.707  10.257  0.0646  0.2100  0.2708
  394TMC3    C1 5883   2.558   1.960  10.663 -0.2932 -0.2420  0.1167
  394TMC3    C2 5884   2.477   1.904  10.563  0.8215 -0.2679 -0.9830
  394TMC3    C3 5885   2.528   1.910  10.434  0.3809  0.3137  0.0008
  394TMC3    C4 5886   2.678   2.014  10.631 -0.3425  0.2797 -0.4365
  394TMC3    C5 5887   2.719   2.021  10.501 -0.1527  0.4631  0.2797
  394TMC3    C6 5888   2.644   1.973  10.402  0.0519 -0.0754 -0.1279
  394TMC3     C 5889   2.495   1.969  10.792  0.2283 -0.1021  0.6033
  394TMC3     O 5890   2.401   1.901  10.821  0.0359 -0.8266 -0.1471
  394TMC3     H 5891   2.385   1.852  10.587 -0.9007  1.7606 -3.3158
  394TMC3    H1 5892   2.751   2.061  10.696 -0.5354  0.3932 -0.2979
  394TMC3    H2 5893   2.662   1.992  10.297  0.3124 -0.6171 -0.1837
  394TMC3    C7 5894   2.802   2.137  10.464 -0.2358 -0.1112  0.2506
  394TMC3    C8 5895   2.422   1.925  10.337  0.2946 -0.9900  0.3090
  394TMC3    O1 5896   2.799   2.236  10.536  0.4728  0.7520  0.0263
  394TMC3    O2 5897   2.312   1.950  10.387  0.5608 -0.3185  0.2830
  395TMC3    C1 5898   1.575   4.296  14.191 -0.1318 -0.1227  0.5480
  395TMC3    C2 5899   1.447   4.320  14.232  0.1632 -0.2800  0.4926
  395TMC3    C3 5900   1.425   4.429  14.318 -0.3146  0.0520 -0.7885
  395TMC3    C4 5901   1.684   4.363  14.240  0.0109  0.1805 -0.0941
  395TMC3    C5 5902   1.661   4.479  14.297 -0.3309  0.0677  0.6256
  395TMC3    C6 5903   1.534   4.508  14.351 -0.0192 -0.7704 -0.6487
  395TMC3     C 5904   1.590   4.156  14.183 -0.5814 -0.4834  0.2128
  395TMC3     O 5905   1.503   4.102  14.246 -0.2210 -0.5772 -0.1064
  395TMC3     H 5906   1.357   4.263  14.209 -0.4030  1.2665 -1.1542
  395TMC3    H1 5907   1.786   4.337  14.214 -0.1983  0.0942 -0.8483
  395TMC3    H2 5908   1.534   4.595  14.416  1.1918  2.2157 -4.6537
  395TMC3    C7 5909   1.768   4.538  14.372  0.8983 -0.1023  0.0947
  395TMC3    C8 5910   1.357   4.395  14.438  0.7003  0.4262  0.4404
  395TMC3    O1 5911   1.746   4.556  14.492  0.2691 -0.0344  0.3472
  395TMC3    O2 5912   1.289   4.477  14.494  0.2861 -0.0566  0.3080
  396MPD2     C 5913   1.762   1.722  17.224 -0.2158 -0.4217  0.7949
  396MPD2    C1 5914   1.897   1.702  17.198 -0.4340 -0.3516  0.3259
  396MPD2    C2 5915   1.959   1.777  17.087 -0.4162 -0.7718  0.1822
  396MPD2    C3 5916   1.889   1.858  16.999  0.0613 -0.1627  0.0682
  396MPD2    C4 5917   1.758   1.871  17.031 -0.3605  0.1072 -0.1190
  396MPD2    C5 5918   1.693   1.802  17.135 -0.1361  0.2965 -0.5780
  396MPD2     H 5919   2.065   1.755  17.072  0.0818  1.2100  0.8083
  396MPD2    H1 5920   1.700   1.938  16.968 -2.0191 -1.7970 -0.5993
  396MPD2    H2 5921   1.701   1.679  17.302 -1.8459 -1.3974 -0.9888
  396MPD2    H3 5922   1.590   1.829  17.151 -0.1742  1.3902 -2.7632
  396MPD2     N 5923   1.945   1.925  16.891 -0.4334  0.2298  0.0702
  396MPD2    H5 5924   1.887   1.968  16.819 -0.5647  0.3071  0.2235
  396MPD2    N1 5925   1.962   1.608  17.281 -0.1076 -0.6355 -0.2382
  396MPD2    H7 5926   1.901   1.533  17.310 -1.3753 -0.3210 -2.1080
  397TMC3    C1 5927   2.158   1.487  17.335 -0.6506  0.0809 -0.3473
  397TMC3    C2 5928   2.282   1.466  17.270  0.2300 -0.0338 -0.2969
  397TMC3    C3 5929   2.310   1.340  17.216 -0.4402 -0.5983 -0.3349
  397TMC3    C4 5930   2.071   1.381  17.352  0.4543 -0.4950  0.2894
  397TMC3    C5 5931   2.115   1.258  17.318 -0.3584  0.7217 -0.1216
  397TMC3    C6 5932   2.224   1.237  17.233  0.5598 -0.6672  0.5223
  397TMC3     C 5933   2.095   1.613  17.300  0.5424  0.3846 -0.1103
  397TMC3     O 5934   2.166   1.713  17.281  0.1965  0.0403  0.8562
  397TMC3     H 5935   2.343   1.551  17.241  0.2188 -0.1040 -0.5215
  397TMC3    H1 5936   1.981   1.385  17.411  0.2109 -1.0397 -0.0419
  397TMC3    H2 5937   2.258   1.142  17.194  0.0390 -0.7137  0.1782
  397TMC3    C7 5938   2.038   1.139  17.349 -0.5676 -0.1762  0.1404
  397TMC3    C8 5939   2.403   1.331  17.102 -0.9678 -0.0014  0.2456
  397TMC3    O1 5940   2.040   1.049  17.266 -0.8220  0.4838 -0.2160
  397TMC3    O2 5941   2.385   1.239  17.022 -0.0967 -0.7181  0.3231
  398MPD2     C 5942   4.299   2.641   0.280 -0.2500  0.3022  0.3863
  398MPD2    C1 5943   4.359   2.529   0.340  0.7404 -0.3716  0.2818
  398MPD2    C2 5944   4.432   2.554   0.453 -0.5099  0.1948  0.5802
  398MPD2    C3 5945   4.485   2.681   0.478 -0.1412  0.5397 -0.2472
  398MPD2    C4 5946   4.426   2.790   0.412 -0.1364  0.1790  0.2027
  398MPD2    C5 5947   4.345   2.768   0.304  0.0457 -0.4334  0.5618
  398MPD2     H 5948   4.471   2.467   0.504 -1.1744 -0.6307 -0.3166
  398MPD2    H1 5949   4.442   2.897   0.419  0.3067  0.1545 -0.3552
  398MPD2    H2 5950   4.221   2.628   0.205  0.9226 -0.4988 -0.6914
  398MPD2    H3 5951   4.291   2.854   0.267  2.1777  1.2688  1.3957
  398MPD2     N 5952   4.568   2.701   0.589 -0.2315 -0.1779 -0.1608
  398MPD2    H5 5953   4.586   2.622   0.651 -1.1670 -0.1148  0.1824
  398MPD2    N1 5954   4.344   2.401   0.294  0.5545 -0.3885  0.2647
  398MPD2    H7 5955   4.401   2.322   0.324  1.5572  0.4957  0.6876
  399TMC3    C1 5956   4.248   2.217   0.201 -0.4097 -0.2907  0.3281
  399TMC3    C2 5957   4.268   2.155   0.327  0.5471 -0.9356  0.6294
  399TMC3    C3 5958   4.244   2.023   0.323  0.8291 -0.2877  0.7951
  399TMC3    C4 5959   4.208   2.145   0.090  0.4669  0.2694  0.0144
  399TMC3    C5 5960   4.186   2.012   0.093  0.1569 -0.7257 -0.2151
  399TMC3    C6 5961   4.206   1.947   0.216  0.3862  0.0073  0.2551
  399TMC3     C 5962   4.272   2.361   0.186  0.3709 -0.3776  0.3109
  399TMC3     O 5963   4.209   2.422   0.099  0.7719  0.0601 -0.1260
  399TMC3     H 5964   4.259   2.211   0.419 -2.0116  0.2298 -0.3416
  399TMC3    H1 5965   4.203   2.196  17.685 -0.5940 -1.0737 -0.6615
  399TMC3    H2 5966   4.178   1.842   0.219 -1.2709  0.4713  0.9902
  399TMC3    C7 5967   4.106   1.938  17.687  0.1069  0.1957  0.1468
  399TMC3    C8 5968   4.311   1.960   0.429  0.2484 -0.5485 -0.1428
  399TMC3    O1 5969   4.048   1.842   0.044 -0.3195  0.3868 -0.1363
  399TMC3    O2 5970   4.361   2.034   0.511 -0.0975 -0.4746  0.9853
  400TMC3    C1 5971   3.351   0.141  17.199  0.1862  0.0927 -0.9709
  400TMC3    C2 5972   3.290   0.161  17.079 -0.7142 -0.8698 -0.2050
  400TMC3    C3 5973   3.296   0.285  17.012 -0.1320 -0.4545  0.3770
  400TMC3    C4 5974   3.414   0.245  17.266  0.0771 -0.7768  0.2682
  400TMC3    C5 5975   3.414   0.365  17.197 -0.4004  0.2269  0.3490
  400TMC3    C6 5976   3.369   0.386  17.070 -0.2959  0.2009  0.1261
  400TMC3     C 5977   3.396   0.006  17.237 -0.1062 -0.1444 -0.3468
  400TMC3     O 5978   3.351   4.644  17.162  0.4387 -0.0301 -0.0948
  400TMC3     H 5979   3.225   0.088  17.032 -1.8349  0.0792 -0.1401
  400TMC3    H1 5980   3.438   0.239  17.372  0.6504 -2.2398  0.0587
  400TMC3    H2 5981   3.392   0.473  17.011 -0.5673  0.9897  1.1961
  400TMC3    C7 5982   3.458   0.480  17.274  0.3568 -0.6052 -0.2315
  400TMC3    C8 5983   3.175   0.335  16.946  0.2832 -0.1504  0.2780
  400TMC3    O1 5984   3.537   0.463  17.366  0.5101  0.4035  0.0113
  400TMC3    O2 5985   3.167   0.455  16.954  0.5518 -0.1756 -0.0763
  401MPD2     C 5986   2.047   0.012   1.217  0.5613  0.3654  0.0793
  401MPD2    C1 5987   2.101   4.666   1.117  0.3040 -0.4758 -0.5690
  401MPD2    C2 5988   2.188   4.568   1.154 -1.0232  0.9707  0.0611
  401MPD2    C3 5989   2.236   4.548   1.284 -0.5314 -0.4920 -0.6724
  401MPD2    C4 5990   2.188   4.627   1.388  1.2503  0.5501 -0.4105
  401MPD2    C5 5991   2.093   4.718   1.351 -0.1663  0.0775 -0.5089
  401MPD2     H 5992   2.225   4.499   1.079 -2.0586  0.6187 -0.1336
  401MPD2    H1 5993   2.210   4.614   1.493  1.7731 -0.6839 -0.6622
  401MPD2    H2 5994   1.974   0.091   1.204 -1.9854 -2.1366 -0.6964
  401MPD2    H3 5995   2.050   0.058   1.429 -0.0913 -0.6189  0.0995
  401MPD2     N 5996   2.341   4.457   1.305 -0.3332 -0.5068 -0.2633
  401MPD2    H5 5997   2.368   4.407   1.222  2.7173 -1.9696  1.6312
  401MPD2    N1 5998   2.061   4.666   0.981  0.1205  0.0716 -0.1438
  401MPD2    H7 5999   2.116   4.613   0.913 -1.6113 -1.1394 -0.6035
  402TMC3    C1 6000   2.475   4.309   1.407 -0.1315 -0.0151 -0.1174
  402TMC3    C2 6001   2.436   4.194   1.462  0.3795 -0.4933 -1.0259
  402TMC3    C3 6002   2.517   4.083   1.443  0.7450 -0.0521  0.5011
  402TMC3    C4 6003   2.588   4.321   1.327  0.4016  0.4032 -0.0836
  402TMC3    C5 6004   2.669   4.209   1.319  0.5858 -0.3257  0.0249
  402TMC3    C6 6005   2.636   4.090   1.373 -0.3793  0.2636 -0.7942
  402TMC3     C 6006   2.387   4.416   1.426  0.8341  0.2611 -0.2692
  402TMC3     O 6007   2.338   4.425   1.539  0.1094  0.3456 -0.6201
  402TMC3     H 6008   2.339   4.193   1.510  0.1129  1.4260 -1.5118
  402TMC3    H1 6009   2.620   4.424   1.319  1.5839 -0.0400 -1.0354
  402TMC3    H2 6010   2.700   4.003   1.364  3.0388  2.5855  0.8608
  402TMC3    C7 6011   2.804   4.231   1.284 -0.6760  0.8526 -0.9369
  402TMC3    C8 6012   2.465   3.950   1.475  0.3441 -0.4192  0.3923
  402TMC3    O1 6013   2.894   4.169   1.337 -0.6100 -1.3227 -0.5045
  402TMC3    O2 6014   2.547   3.863   1.482  0.5129 -0.0997 -0.2676
  403MPD2     C 6015   0.216   2.186  13.578  0.7905  0.1477  0.0292
  403MPD2    C1 6016   0.272   2.116  13.465  0.6926 -0.7892  0.2911
  403MPD2    C2 6017   0.411   2.115  13.445  0.2972 -0.0787 -0.2459
  403MPD2    C3 6018   0.492   2.202  13.526 -0.1201  0.4117 -0.0105
  403MPD2    C4 6019   0.437   2.285  13.616 -0.0821 -0.5314  0.6578
  403MPD2    C5 6020   0.303   2.276  13.643 -0.3057  0.2559 -0.2676
  403MPD2     H 6021   0.461   2.061  13.366 -3.6615 -0.8823 -2.2124
  403MPD2    H1 6022   0.505   2.340  13.680 -0.5354 -0.4629  1.0749
  403MPD2    H2 6023   0.109   2.187  13.598  1.0988  3.0585  1.5168
  403MPD2    H3 6024   0.249   2.334  13.717 -0.1917 -0.3431  0.2730
  403MPD2     N 6025   0.630   2.191  13.511 -0.2997  0.4810 -0.4511
  403MPD2    H5 6026   0.653   2.120  13.442  0.8294  0.8134 -0.4309
  403MPD2    N1 6027   0.184   2.023  13.400  0.0877 -0.3661 -0.2019
  403MPD2    H7 6028   0.096   1.994  13.442  0.0999  1.9004  1.3512
  404TMC3    C1 6029   0.108   1.878  13.227  0.4272  0.3201  0.1887
  404TMC3    C2 6030   0.043   1.812  13.329  0.3604 -0.8235 -0.6027
  404TMC3    C3 6031   4.669   1.721  13.281  0.1305 -0.0110 -0.7460
  404TMC3    C4 6032   0.089   1.862  13.090  0.0793 -0.3730 -0.3426
  404TMC3    C5 6033   4.709   1.782  13.057  0.1720  0.6520  0.1345
  404TMC3    C6 6034   4.633   1.711  13.148 -0.6835 -0.1360 -0.1647
  404TMC3     C 6035   0.215   1.967  13.275  0.4712 -0.1364 -0.3951
  404TMC3     O 6036   0.299   2.003  13.193 -0.1232 -0.6768  0.1536
  404TMC3     H 6037   0.071   1.814  13.434 -0.7292 -2.4105 -0.2793
  404TMC3    H1 6038   0.162   1.905  13.023  1.4633 -0.1184  1.3164
  404TMC3    H2 6039   4.562   1.635  13.118 -2.7165  1.2433  1.1331
  404TMC3    C7 6040   4.703   1.749  12.918 -0.7061 -0.4115 -0.7847
  404TMC3    C8 6041   4.613   1.628  13.374  0.0771 -0.2421 -0.7592
  404TMC3    O1 6042   0.075   1.778  12.845 -0.4031 -0.5510  0.1777
  404TMC3    O2 6043   4.565   1.531  13.316 -0.0009  0.4070  0.1177
  405MPD2     C 6044   0.760   2.807  14.918  0.3815 -0.2582  0.3269
  405MPD2    C1 6045   0.671   2.755  14.829  0.5705  0.4763 -0.3850
  405MPD2    C2 6046   0.619   2.833  14.726 -0.2605 -0.0760  0.0061
  405MPD2    C3 6047   0.657   2.966  14.719  0.0348  0.0340  0.5362
  405MPD2    C4 6048   0.753   3.022  14.800  0.3391  0.5047 -1.4486
  405MPD2    C5 6049   0.802   2.937  14.901 -0.3778 -0.5171 -0.2111
  405MPD2     H 6050   0.547   2.796  14.654  1.6460 -1.0455 -1.3953
  405MPD2    H1 6051   0.780   3.126  14.793 -0.7015  0.9051  0.4228
  405MPD2    H2 6052   0.804   2.749  14.998 -0.9250 -0.6170  0.7831
  405MPD2    H3 6053   0.880   2.967  14.971 -0.7626  1.8572 -0.7935
  405MPD2     N 6054   0.597   3.041  14.617  0.5968  0.0503  0.0264
  405MPD2    H5 6055   0.544   2.990  14.546 -1.0583  1.6086  0.1504
  405MPD2    N1 6056   0.616   2.633  14.871 -0.4320 -0.2260  0.6460
  405MPD2    H7 6057   0.667   2.583  14.943  1.4284  0.7521  0.0149
  406TMC3    C1 6058   0.405   3.379  14.379 -0.5652  0.4401 -0.1946
  406TMC3    C2 6059   0.359   3.281  14.294 -0.5414 -0.1302 -0.9437
  406TMC3    C3 6060   0.410   3.154  14.307 -0.0114  0.4097  0.1478
  406TMC3    C4 6061   0.499   3.342  14.467 -0.7078  0.1426  0.1655
  406TMC3    C5 6062   0.546   3.215  14.477 -1.1885  0.1017 -0.2389
  406TMC3    C6 6063   0.501   3.119  14.395  0.9066 -0.2583 -0.2592
  406TMC3     C 6064   0.313   3.475  14.434 -0.1299  0.9583  0.1730
  406TMC3     O 6065   0.352   3.536  14.533  1.0145 -0.3076  0.2005
  406TMC3     H 6066   0.294   3.304  14.210 -1.1469 -0.5654 -0.5918
  406TMC3    H1 6067   0.535   3.416  14.537  0.9790 -0.6495  0.1538
  406TMC3    H2 6068   0.552   3.024  14.390  0.5273 -0.4093 -1.3787
  406TMC3    C7 6069   0.599   3.178  14.602 -0.7440  0.7032 -0.1691
  406TMC3    C8 6070   0.302   3.057  14.280 -0.3119  0.1428  0.1391
  406TMC3    O1 6071   0.596   3.255  14.693 -0.6462  0.2135  0.1643
  406TMC3    O2 6072   0.188   3.103  14.269 -0.5169 -0.1650 -0.1951
  407MPD2     C 6073   2.182   3.797   9.445  0.5413  0.1218  0.0352
  407MPD2    C1 6074   2.316   3.795   9.473  0.0565  0.2036 -0.3957
  407MPD2    C2 6075   2.367   3.803   9.600  0.2090  0.2067 -0.3304
  407MPD2    C3 6076   2.282   3.819   9.709 -0.1794 -0.3842  0.1700
  407MPD2    C4 6077   2.148   3.830   9.683  0.2551 -0.3957  0.3248
  407MPD2    C5 6078   2.099   3.826   9.552 -0.1156  0.2393 -0.4831
  407MPD2     H 6079   2.472   3.784   9.611 -0.1872 -0.7623  1.5856
  407MPD2    H1 6080   2.068   3.839   9.756 -1.1789 -0.5447 -1.2204
  407MPD2    H2 6081   2.135   3.791   9.347 -0.1595 -0.9091  0.4427
  407MPD2    H3 6082   1.992   3.834   9.533 -0.3396  1.0138  1.0960
  407MPD2     N 6083   2.314   3.822   9.843  0.3483  0.2227  0.4508
  407MPD2    H5 6084   2.239   3.828   9.912 -0.5545  1.8426 -0.6631
  407MPD2    N1 6085   2.406   3.770   9.375 -0.2063  0.1576 -0.1361
  407MPD2    H7 6086   2.505   3.774   9.397 -0.2938  0.0467  0.2698
  408TMC3    C1 6087   2.504   3.734   9.162 -0.4811 -0.2891  0.6900
  408TMC3    C2 6088   2.582   3.640   9.215 -0.5802 -0.7233  0.1789
  408TMC3    C3 6089   2.712   3.659   9.188 -0.4255  0.3094  0.6807
  408TMC3    C4 6090   2.547   3.837   9.083  0.0429  0.2463 -0.3560
  408TMC3    C5 6091   2.679   3.855   9.060 -0.7518  0.9660 -1.2331
  408TMC3    C6 6092   2.763   3.763   9.116 -0.4443 -0.3474 -0.0053
  408TMC3     C 6093   2.381   3.760   9.240  0.0102 -0.6809 -0.1083
  408TMC3     O 6094   2.282   3.775   9.176  0.5839  0.3593 -0.2386
  408TMC3     H 6095   2.542   3.549   9.257  1.2054 -1.4538  0.3089
  408TMC3    H1 6096   2.478   3.921   9.076 -0.9093 -0.5061 -0.0073
  408TMC3    H2 6097   2.870   3.766   9.103 -0.5619  1.4178 -0.4643
  408TMC3    C7 6098   2.728   3.984   9.059 -0.5167 -0.0124  0.6160
  408TMC3    C8 6099   2.798   3.553   9.244  0.8319  0.1357 -0.0412
  408TMC3    O1 6100   2.821   3.986   9.139 -0.0268 -0.0744  0.2326
  408TMC3    O2 6101   2.744   3.445   9.265  0.0755  0.9173  0.0274
  409MPD2     C 6102   2.141   0.210  16.300 -0.4045 -0.7008  0.2088
  409MPD2    C1 6103   2.137   0.290  16.410  0.4166 -0.2370  0.4066
  409MPD2    C2 6104   2.151   0.427  16.400 -0.0866  0.7328  0.0018
  409MPD2    C3 6105   2.175   0.492  16.276 -0.1796  0.3691 -0.2604
  409MPD2    C4 6106   2.168   0.414  16.162 -0.1081 -0.7112 -0.1141
  409MPD2    C5 6107   2.152   0.274  16.176 -0.2981  0.0063 -0.6896
  409MPD2     H 6108   2.162   0.481  16.493 -2.6575  2.1450 -0.5005
  409MPD2    H1 6109   2.189   0.456  16.064  0.4640 -1.7035 -0.4120
  409MPD2    H2 6110   2.139   0.102  16.301  0.9884 -0.7333 -0.2389
  409MPD2    H3 6111   2.164   0.204  16.094  3.4318  0.6401 -0.7257
  409MPD2     N 6112   2.223   0.623  16.260 -0.7531  0.2703  0.1200
  409MPD2    H5 6113   2.268   0.647  16.173 -0.9328  0.9506  0.2166
  409MPD2    N1 6114   2.140   0.236  16.543 -0.2652  0.4427 -1.0266
  409MPD2    H7 6115   2.162   0.305  16.615 -0.7883  0.1810 -0.6190
  410TMC3    C1 6116   2.345   0.798  16.336 -0.5769 -0.9238 -0.0948
  410TMC3    C2 6117   2.443   0.781  16.431  0.4442 -0.4873 -0.0497
  410TMC3    C3 6118   2.575   0.796  16.395 -1.1978 -0.4242 -0.0261
  410TMC3    C4 6119   2.377   0.824  16.202 -0.2876  0.1253  0.7977
  410TMC3    C5 6120   2.514   0.827  16.172  0.0566  0.1082  0.2221
  410TMC3    C6 6121   2.615   0.825  16.264  0.3223 -0.2494  0.2918
  410TMC3     C 6122   2.243   0.709  16.367  0.2522  0.1977 -0.0200
  410TMC3     O 6123   2.200   0.695  16.481  0.0801 -0.0348 -0.2218
  410TMC3     H 6124   2.412   0.763  16.533  0.9387  1.2155  0.4081
  410TMC3    H1 6125   2.302   0.847  16.127  0.9456 -3.3150 -1.4562
  410TMC3    H2 6126   2.720   0.832  16.240  0.2001  0.5139 -0.0209
  410TMC3    C7 6127   2.540   0.848  16.030  0.6500  0.2050  0.4451
  410TMC3    C8 6128   2.676   0.789  16.500 -0.4277  0.9989  0.1431
  410TMC3    O1 6129   2.467   0.814  15.943  0.4932  0.0763 -0.4673
  410TMC3    O2 6130   2.641   0.831  16.609  0.3609  0.1133  0.1488
  411MPD2     C 6131   2.585   0.679  14.673  0.0363 -0.2157 -0.3191
  411MPD2    C1 6132   2.451   0.723  14.661  0.4888  0.1277 -0.4390
  411MPD2    C2 6133   2.346   0.636  14.634 -0.2887 -0.4592  0.3888
  411MPD2    C3 6134   2.377   0.502  14.607 -0.6789 -0.6390  0.2272
  411MPD2    C4 6135   2.512   0.465  14.610 -0.7525  0.0059 -0.3013
  411MPD2    C5 6136   2.605   0.549  14.663  0.2714 -0.0718 -0.6996
  411MPD2     H 6137   2.249   0.684  14.626  0.4978  0.8354 -1.3658
  411MPD2    H1 6138   2.544   0.362  14.607  0.1536  0.3058 -1.0390
  411MPD2    H2 6139   2.668   0.744  14.698 -0.3928 -1.4604  4.4215
  411MPD2    H3 6140   2.703   0.512  14.691 -0.0494  0.8088  1.5596
  411MPD2     N 6141   2.273   0.417  14.565  0.0758 -0.5405  0.4043
  411MPD2    H5 6142   2.293   0.325  14.526  1.2485  0.1136 -0.5557
  411MPD2    N1 6143   2.410   0.852  14.693 -0.5158 -1.0085  0.7768
  411MPD2    H7 6144   2.309   0.856  14.687 -0.5162 -1.4331  0.5163
  412TMC3    C1 6145   2.070   0.351  14.484  0.5218 -0.4155  0.2611
  412TMC3    C2 6146   1.954   0.297  14.527  0.9285 -0.5378 -0.1393
  412TMC3    C3 6147   1.894   0.217  14.433 -0.0990  0.0046  0.0005
  412TMC3    C4 6148   2.136   0.316  14.365 -0.1561 -0.0722  0.5816
  412TMC3    C5 6149   2.064   0.244  14.275  0.3722  0.4215  0.1502
  412TMC3    C6 6150   1.942   0.190  14.312  0.7720  0.7725 -0.3772
  412TMC3     C 6151   2.137   0.437  14.576  0.1126  0.4094  0.5043
  412TMC3     O 6152   2.075   0.528  14.621 -0.4641  0.2366  0.2819
  412TMC3     H 6153   1.909   0.344  14.614 -1.2315  2.4923 -2.8855
  412TMC3    H1 6154   2.220   0.372  14.325  0.7448  1.8110  5.1610
  412TMC3    H2 6155   1.901   0.118  14.243  0.4472  1.3721 -0.8125
  412TMC3    C7 6156   2.043   0.290  14.139 -0.9134 -0.6646 -0.2403
  412TMC3    C8 6157   1.754   0.237  14.438  0.4284 -0.1236  0.6220
  412TMC3    O1 6158   1.934   0.268  14.093  0.3809  0.0895  0.2414
  412TMC3    O2 6159   1.697   0.242  14.547 -0.1091  0.9846 -0.2721
  413MPD2     C 6160   4.036   4.028  15.273  0.3960 -1.1877  1.2335
  413MPD2    C1 6161   3.987   3.961  15.164 -1.0452  0.0647 -0.2982
  413MPD2    C2 6162   4.037   3.841  15.121  0.5148  0.1362 -0.3417
  413MPD2    C3 6163   4.141   3.788  15.194 -0.1764  0.8720  0.1137
  413MPD2    C4 6164   4.206   3.864  15.298 -0.3432  0.0769  0.2142
  413MPD2    C5 6165   4.144   3.982  15.333  0.1799 -0.0546  0.0618
  413MPD2     H 6166   3.998   3.786  15.036  0.4976  2.0572 -1.5816
  413MPD2    H1 6167   4.294   3.820  15.343  1.0076  1.4012 -1.1449
  413MPD2    H2 6168   4.006   4.129  15.298  0.1310 -0.9905  0.1347
  413MPD2    H3 6169   4.178   4.041  15.417  1.3066  0.5993 -0.8540
  413MPD2     N 6170   4.175   3.658  15.158  0.7331  0.2076 -0.1835
  413MPD2    H5 6171   4.124   3.625  15.077  0.1359  1.0838 -0.1693
  413MPD2    N1 6172   3.875   4.021  15.100 -0.2534  0.3343 -0.5039
  413MPD2    H7 6173   3.841   4.107  15.143  1.2848  0.7362 -0.0917
  414TMC3    C1 6174   4.300   3.455  15.195 -0.4068  0.8125  0.3654
  414TMC3    C2 6175   4.389   3.390  15.274  0.6655  0.0154  0.1313
  414TMC3    C3 6176   4.445   3.268  15.220 -0.3005 -0.5632 -0.5030
  414TMC3    C4 6177   4.278   3.413  15.067 -0.0132 -0.1148  0.0194
  414TMC3    C5 6178   4.338   3.302  15.016 -0.2162  0.9970  0.8649
  414TMC3    C6 6179   4.415   3.213  15.094  0.5329 -0.0400 -0.1182
  414TMC3     C 6180   4.257   3.588  15.245  0.1210  0.5040 -0.2895
  414TMC3     O 6181   4.271   3.602  15.363  0.0290 -0.6008 -0.4328
  414TMC3     H 6182   4.396   3.412  15.381  0.6603 -0.5984  0.2552
  414TMC3    H1 6183   4.229   3.483  15.000 -0.2920  0.3174  0.6735
  414TMC3    H2 6184   4.476   3.135  15.050  1.5347  0.4273  0.4306
  414TMC3    C7 6185   4.405   3.323  14.892  0.0703 -0.8334  0.7770
  414TMC3    C8 6186   4.581   3.232  15.254  0.0649 -0.0058 -0.4945
  414TMC3    O1 6187   4.445   3.437  14.876  0.2792 -0.7943  0.3251
  414TMC3    O2 6188   4.637   3.134  15.202  0.4323 -0.0445 -0.3792
  415TMC3    C1 6189   4.355   1.330   9.956  0.1356  0.5301  0.4634
  415TMC3    C2 6190   4.383   1.400   9.839 -0.1818 -0.2780 -0.2823
  415TMC3    C3 6191   4.322   1.363   9.725  0.7855  0.3390 -0.4225
  415TMC3    C4 6192   4.267   1.228   9.959 -0.1354  0.1775  0.2125
  415TMC3    C5 6193   4.201   1.195   9.839  0.4882 -0.1898  0.7082
  415TMC3    C6 6194   4.225   1.266   9.725  0.4833 -0.4049 -0.2121
  415TMC3     C 6195   4.413   1.359  10.087  0.1739  0.2608  0.3158
  415TMC3     O 6196   4.333   1.340  10.178 -0.3939  0.3724  0.3162
  415TMC3     H 6197   4.426   1.499   9.843 -1.1876  0.1497 -0.1549
  415TMC3    H1 6198   4.235   1.190  10.055  2.1746 -0.8309  0.5878
  415TMC3    H2 6199   4.176   1.246   9.630  2.1517  0.9609 -1.3733
  415TMC3    C7 6200   4.083   1.120   9.847  0.0257  0.0523 -0.3896
  415TMC3    C8 6201   4.334   1.444   9.609 -0.0540  0.6034 -0.2811
  415TMC3    O1 6202   4.011   1.140   9.751  0.1756 -0.1126  0.7360
  415TMC3    O2 6203   4.239   1.449   9.532 -0.7832  0.1600 -0.0326
  416MPD2     C 6204   1.279   0.077  12.204  0.1032 -0.1160 -0.8317
  416MPD2    C1 6205   1.201   0.077  12.097 -0.6766 -0.0187  0.5890
  416MPD2    C2 6206   1.235   4.707  11.997 -0.2070  0.1590 -0.1505
  416MPD2    C3 6207   1.332   4.611  12.010  0.0026  0.0186  0.3318
  416MPD2    C4 6208   1.417   4.624  12.118  0.0409 -0.5627  0.6081
  416MPD2    C5 6209   1.383   4.716  12.210  0.1588  0.0549  0.7632
  416MPD2     H 6210   1.179   4.715  11.905 -1.6550  2.7027  0.9744
  416MPD2    H1 6211   1.500   4.556  12.138  1.5531  1.0336 -0.2040
  416MPD2    H2 6212   1.272   0.159  12.276 -0.0998  0.2979 -1.3230
  416MPD2    H3 6213   1.441   0.006  12.301 -0.9747  0.3410  1.4528
  416MPD2     N 6214   1.361   4.513  11.909  0.2983 -0.0078 -0.4839
  416MPD2    H5 6215   1.448   4.461  11.922 -0.4574 -1.2433 -0.3136
  416MPD2    N1 6216   1.108   0.183  12.087  0.1138 -0.5901 -0.3698
  416MPD2    H7 6217   1.106   0.241  12.170 -0.6955 -1.5547  0.2747
  417TMC3    C1 6218   0.970   0.341  11.986  0.4058 -0.0081 -0.2694
  417TMC3    C2 6219   0.959   0.404  12.105 -0.6070 -0.4597  0.2061
  417TMC3    C3 6220   0.957   0.541  12.095  0.1889  0.1293 -0.2869
  417TMC3    C4 6221   0.982   0.403  11.865 -0.1786 -0.1685 -0.3117
  417TMC3    C5 6222   0.972   0.537  11.857 -0.4753 -0.0881  0.3230
  417TMC3    C6 6223   0.971   0.609  11.976  0.7261  0.1862 -0.4830
  417TMC3     C 6224   1.039   0.217  11.972 -0.1491  0.0258  0.1744
  417TMC3     O 6225   1.031   0.159  11.862  0.1998 -0.1661 -0.2203
  417TMC3     H 6226   0.948   0.354  12.201 -0.1728  0.2167  0.6076
  417TMC3    H1 6227   0.986   0.352  11.769  0.7315 -4.2489  1.9181
  417TMC3    H2 6228   0.979   0.716  11.988  0.5206  0.2991 -1.3125
  417TMC3    C7 6229   0.996   0.600  11.725  0.1180 -0.6447  0.7302
  417TMC3    C8 6230   0.944   0.618  12.216  0.4610  0.2943 -0.4900
  417TMC3    O1 6231   1.097   0.673  11.726 -0.5078 -0.5196  0.0752
  417TMC3    O2 6232   1.011   0.721  12.222 -0.2115 -0.0010  0.1208
  418TMC3    C1 6233   0.220   2.720   0.773  0.3421 -0.0009 -0.7670
  418TMC3    C2 6234   0.130   2.799   0.701  0.4461 -0.1014  0.9219
  418TMC3    C3 6235   4.718   2.805   0.730 -0.1964  0.2090 -0.2888
  418TMC3    C4 6236   0.176   2.657   0.882  0.3481 -0.4476 -0.7822
  418TMC3    C5 6237   0.039   2.656   0.897 -0.1611 -0.2159 -0.1052
  418TMC3    C6 6238   4.667   2.726   0.826 -0.1077 -0.5662 -1.1193
  418TMC3     C 6239   0.335   2.696   0.707 -0.2407 -0.1228 -0.5226
  418TMC3     O 6240   0.384   2.781   0.632  0.1636 -0.7842 -0.0054
  418TMC3     H 6241   0.157   2.858   0.614  0.2728 -2.9585 -1.0812
  418TMC3    H1 6242   0.231   2.594   0.951 -0.2217 -0.5651 -0.4256
  418TMC3    H2 6243   4.566   2.735   0.864  0.0227  1.8003 -1.3775
  418TMC3    C7 6244   4.718   2.533   0.951  0.3263  0.4210  0.2493
  418TMC3    C8 6245   4.633   2.817   0.619 -0.3144  0.5041  0.1921
  418TMC3    O1 6246   0.060   2.430   0.931 -0.1109  0.2788  0.5283
  418TMC3    O2 6247   4.631   2.926   0.567  0.3095 -0.3253  0.0876
  419MPD2     C 6248   3.808   0.290  12.253 -0.0991  0.1548  0.1271
  419MPD2    C1 6249   3.676   0.329  12.266  0.6243 -0.3386 -0.1286
  419MPD2    C2 6250   3.624   0.356  12.387  0.1702 -0.6441  0.0558
  419MPD2    C3 6251   3.708   0.356  12.500  0.2818 -0.3281  0.3620
  419MPD2    C4 6252   3.839   0.315  12.486 -0.1103 -0.1649  0.6676
  419MPD2    C5 6253   3.891   0.275  12.363  0.1012 -0.6042 -0.4559
  419MPD2     H 6254   3.522   0.389  12.403  0.8145  1.1709  0.3681
  419MPD2    H1 6255   3.901   0.311  12.575  0.7674 -1.0865  0.0213
  419MPD2    H2 6256   3.852   0.265  12.157  0.2266  1.2692 -0.0119
  419MPD2    H3 6257   3.992   0.238  12.363  1.0577  1.9717 -2.3521
  419MPD2     N 6258   3.644   0.399  12.615  0.0555  0.2763  0.3282
  419MPD2    H5 6259   3.547   0.428  12.613  0.3716  1.1954 -1.2667
  419MPD2    N1 6260   3.592   0.362  12.149  0.7142 -0.6697  0.2393
  419MPD2    H7 6261   3.492   0.374  12.162  0.7143 -0.6264  0.1989
  420TMC3    C1 6262   3.619   0.445  12.843  0.5571 -0.4268  0.1548
  420TMC3    C2 6263   3.503   0.376  12.854 -0.4160  0.5203 -0.2559
  420TMC3    C3 6264   3.452   0.367  12.980  0.4550 -0.3630 -0.3529
  420TMC3    C4 6265   3.683   0.491  12.952  0.0869 -0.5577 -0.6692
  420TMC3    C5 6266   3.627   0.479  13.077 -0.1516  0.1235  0.3415
  420TMC3    C6 6267   3.510   0.410  13.096 -0.3912  0.1963  0.0773
  420TMC3     C 6268   3.708   0.417  12.734 -0.0880 -0.4534 -0.4759
  420TMC3     O 6269   3.826   0.412  12.757  0.3188  0.3493  0.0764
  420TMC3     H 6270   3.445   0.324  12.778 -0.9150 -1.3370  1.4113
  420TMC3    H1 6271   3.779   0.537  12.935 -0.2787  0.3792 -0.1982
  420TMC3    H2 6272   3.456   0.395  13.188 -0.3051  1.5879  0.3515
  420TMC3    C7 6273   3.605   0.602  13.146  0.5583  0.0187  0.3189
  420TMC3    C8 6274   3.324   0.295  12.995 -0.4871  0.4596 -0.2991
  420TMC3    O1 6275   3.503   0.623  13.214 -0.6420  0.6309 -0.0534
  420TMC3    O2 6276   3.325   0.197  13.065 -1.1030 -0.2423 -0.1181
  421TMC3    C1 6277   0.868   2.225  13.537 -0.5005  0.2721 -0.4924
  421TMC3    C2 6278   0.962   2.322  13.576 -0.4218 -0.5197  0.5217
  421TMC3    C3 6279   1.078   2.284  13.641 -0.1563  0.2945  0.9717
  421TMC3    C4 6280   0.888   2.094  13.571  0.1352  0.3508 -0.3481
  421TMC3    C5 6281   1.004   2.059  13.628  0.2833  0.5253 -0.2077
  421TMC3    C6 6282   1.097   2.151  13.661  0.1300 -0.4845 -0.1565
  421TMC3     C 6283   0.730   2.274  13.562  0.1312  0.3744  0.0046
  421TMC3     O 6284   0.721   2.380  13.619 -0.6613  0.1413  0.4092
  421TMC3     H 6285   0.948   2.427  13.555  1.4112 -0.5916 -1.0504
  421TMC3    H1 6286   0.807   2.022  13.572 -0.7565  1.3593 -1.8051
  421TMC3    H2 6287   1.175   2.119  13.729 -0.7596  2.8668  2.4518
  421TMC3    C7 6288   0.997   1.951  13.722  0.6922 -0.3130  0.4148
  421TMC3    C8 6289   1.122   2.372  13.744  0.7303  0.4950 -0.6338
  421TMC3    O1 6290   1.054   1.968  13.828  0.2300  0.4917  0.4585
  421TMC3    O2 6291   1.050   2.470  13.762 -0.2003  0.1499 -0.0652
  422TMC3    C1 6292   2.595   3.004  12.630 -0.1637 -1.1123 -0.4515
  422TMC3    C2 6293   2.547   3.129  12.620  0.8256 -0.4872 -0.0248
  422TMC3    C3 6294   2.423   3.151  12.667 -0.3404  0.0532 -0.1711
  422TMC3    C4 6295   2.537   2.899  12.695  0.0760 -0.1062 -0.3936
  422TMC3    C5 6296   2.410   2.926  12.730 -0.4267  0.1179 -0.4704
  422TMC3    C6 6297   2.347   3.050  12.727 -0.6692  0.7385  0.2546
  422TMC3     C 6298   2.704   2.969  12.543  0.2962  0.3917  0.5806
  422TMC3     O 6299   2.727   3.052  12.449  0.0912 -0.1784  0.5992
  422TMC3     H 6300   2.595   3.202  12.557  1.1692 -0.4380  0.2950
  422TMC3    H1 6301   2.593   2.809  12.716 -0.7755 -0.5788 -0.1710
  422TMC3    H2 6302   2.259   3.072  12.786  0.4484  1.5571  1.6139
  422TMC3    C7 6303   2.348   2.820  12.811 -0.0891 -0.3407 -0.6351
  422TMC3    C8 6304   2.374   3.289  12.665 -0.0190  0.0907 -0.3741
  422TMC3    O1 6305   2.414   2.722  12.824  0.2036 -0.0415 -0.3481
  422TMC3    O2 6306   2.454   3.380  12.651  0.0448 -0.1465 -0.3842
  423MPD2     C 6307   4.340   0.482   0.595 -0.0896  0.0650 -0.4934
  423MPD2    C1 6308   4.355   0.346   0.612  0.2856  0.2527  1.0340
  423MPD2    C2 6309   4.334   0.264   0.503  0.2232  0.2119 -0.3110
  423MPD2    C3 6310   4.320   0.308   0.377 -0.9632 -0.5285 -0.1820
  423MPD2    C4 6311   4.307   0.443   0.361  0.5362 -0.1900  0.2809
  423MPD2    C5 6312   4.314   0.527   0.464  0.3199 -0.4953 -0.0918
  423MPD2     H 6313   4.359   0.159   0.514 -3.7852 -0.7975 -0.7247
  423MPD2    H1 6314   4.286   0.492   0.266  0.3547 -0.5056  0.1561
  423MPD2    H2 6315   4.337   0.557   0.674 -1.1188  0.0169 -0.4873
  423MPD2    H3 6316   4.308   0.633   0.440  0.8183 -0.0472  1.6988
  423MPD2     N 6317   4.311   0.234   0.261  0.0716  0.4056  0.2354
  423MPD2    H5 6318   4.303   0.291   0.177  3.1153  1.0800  0.4051
  423MPD2    N1 6319   4.385   0.290   0.743 -0.4255  0.1851 -0.7946
  423MPD2    H7 6320   4.386   0.189   0.756 -1.9388  0.3220  0.4192
  424TMC3    C1 6321   4.397   0.268   0.965 -0.6800 -0.0120  0.7500
  424TMC3    C2 6322   4.515   0.198   0.961 -0.7768 -0.2731 -0.9373
  424TMC3    C3 6323   4.521   0.068   1.009  0.1644  0.0017 -0.2464
  424TMC3    C4 6324   4.287   0.207   1.014 -0.5162  0.4301 -1.0433
  424TMC3    C5 6325   4.296   0.070   1.046 -0.1901  0.2629  0.5229
  424TMC3    C6 6326   4.407   0.000   1.038 -0.8953 -0.1755  0.2943
  424TMC3     C 6327   4.377   0.361   0.858  0.3336  0.1588 -0.7597
  424TMC3     O 6328   4.382   0.480   0.889  0.1055  0.2568  0.1925
  424TMC3     H 6329   4.599   0.239   0.907  0.6939  0.5814  1.9972
  424TMC3    H1 6330   4.187   0.244   0.997 -1.1855  0.4644  2.7907
  424TMC3    H2 6331   4.403   4.616   1.055 -1.0531 -0.4758 -1.6397
  424TMC3    C7 6332   4.173   4.718   1.068  0.0145 -0.6245  0.6761
  424TMC3    C8 6333   4.636   4.700   0.998  0.1528 -0.6119  0.3703
  424TMC3    O1 6334   4.167   4.602   1.041 -0.1756  0.1466  0.0708
  424TMC3    O2 6335   4.632   4.577   1.012 -0.3498 -0.1235  0.4215
  425MPD2     C 6336   2.781   3.514  17.683 -0.6754 -0.5063  0.0893
  425MPD2    C1 6337   2.779   3.409  17.601 -0.7065 -0.7297  0.3846
  425MPD2    C2 6338   2.664   3.383  17.526 -0.1036 -0.1535  0.0651
  425MPD2    C3 6339   2.544   3.451  17.546 -0.1469  0.2639  0.1292
  425MPD2    C4 6340   2.548   3.556  17.633 -0.2910 -0.5934 -0.2729
  425MPD2    C5 6341   2.668   3.587   0.005  0.4350  0.4143  0.9250
  425MPD2     H 6342   2.671   3.298  17.460  1.4755 -0.2663  0.3721
  425MPD2    H1 6343   2.466   3.623  17.654  0.6477  0.1981  0.8955
  425MPD2    H2 6344   2.869   3.548   0.045  0.0574 -0.6081 -1.0640
  425MPD2    H3 6345   2.669   3.669   0.075 -2.1900 -0.4596  1.9946
  425MPD2     N 6346   2.432   3.420  17.467 -0.6407  1.0451 -0.3524
  425MPD2    H5 6347   2.447   3.352  17.394 -1.9806  0.5514 -0.1635
  425MPD2    N1 6348   2.907   3.350  17.588  0.0279 -0.3501 -0.6387
  425MPD2    H7 6349   2.983   3.397  17.636  0.4819  0.6316 -2.3313
  426TMC3    C1 6350   3.068   3.235  17.468 -0.7361 -0.1026  0.1211
  426TMC3    C2 6351   3.098   3.142  17.370 -0.6206 -0.2229 -0.3762
  426TMC3    C3 6352   3.234   3.120  17.339  0.2680  0.8946 -0.3027
  426TMC3    C4 6353   3.167   3.291  17.539 -0.1965 -0.1817 -0.3711
  426TMC3    C5 6354   3.301   3.270  17.502 -0.5628  0.6869 -0.0269
  426TMC3    C6 6355   3.336   3.185  17.403 -0.4694 -0.0208  0.1680
  426TMC3     C 6356   2.935   3.250  17.504  0.4481 -0.3356 -0.0460
  426TMC3     O 6357   2.855   3.187  17.438 -0.7079  0.0580 -0.6928
  426TMC3     H 6358   3.024   3.079  17.324 -2.2299  0.3371  1.4359
  426TMC3    H1 6359   3.151   3.366  17.616 -2.5591 -1.2105  0.1434
  426TMC3    H2 6360   3.433   3.173  17.358 -0.4504  1.6998 -0.2179
  426TMC3    C7 6361   3.409   3.351  17.548  0.4152  0.8382 -0.1544
  426TMC3    C8 6362   3.267   3.101  17.200  0.0943  0.4408 -0.8208
  426TMC3    O1 6363   3.517   3.330  17.497  0.0816 -0.4278 -0.0938
  426TMC3    O2 6364   3.371   3.044  17.175 -0.4094 -0.0299 -0.6447
  427MPD2     C 6365   1.171   0.304  14.622 -0.6655 -0.1606  0.0891
  427MPD2    C1 6366   1.269   0.350  14.709  0.3801 -0.4271  0.3208
  427MPD2    C2 6367   1.250   0.477  14.771  0.9246 -0.4657  0.1476
  427MPD2    C3 6368   1.131   0.544  14.747  0.5780 -1.3068  0.7881
  427MPD2    C4 6369   1.031   0.490  14.664 -0.4389  0.0436 -0.2310
  427MPD2    C5 6370   1.054   0.371  14.603 -0.6773 -0.2832 -0.3488
  427MPD2     H 6371   1.339   0.515  14.820  1.3105  0.2703 -1.1151
  427MPD2    H1 6372   0.938   0.544  14.648 -1.0895 -0.6633  1.1649
  427MPD2    H2 6373   1.180   0.214  14.562 -1.1349 -1.1878  1.5417
  427MPD2    H3 6374   0.978   0.332  14.536  0.9238  1.0754 -2.9482
  427MPD2     N 6375   1.105   0.666  14.808 -0.4657  0.5377 -0.3555
  427MPD2    H5 6376   1.021   0.711  14.774 -0.4574  0.9761  0.2024
  427MPD2    N1 6377   1.388   0.277  14.730  0.0897  0.1247 -0.3772
  427MPD2    H7 6378   1.452   0.321  14.796 -0.5807 -1.5763  1.4108
  428TMC3    C1 6379   1.509   0.077  14.775  0.3475 -0.0052 -0.2757
  428TMC3    C2 6380   1.533   4.666  14.747 -0.1383 -0.6512 -0.0903
  428TMC3    C3 6381   1.649   4.604  14.798  0.7243  0.2166 -0.0351
  428TMC3    C4 6382   1.607   0.150  14.829 -0.3822 -0.3400 -0.2417
  428TMC3    C5 6383   1.729   0.090  14.844  0.2297  0.5668 -0.5166
  428TMC3    C6 6384   1.754   4.680  14.839  0.6118 -0.1623 -0.0255
  428TMC3     C 6385   1.401   0.138  14.708 -0.2426 -0.1276 -0.5707
  428TMC3     O 6386   1.324   0.064  14.656 -1.1920 -0.3084  0.0574
  428TMC3     H 6387   1.457   4.603  14.702 -1.7006  0.3071  1.2149
  428TMC3    H1 6388   1.601   0.257  14.844  3.9181 -0.0327 -0.8203
  428TMC3    H2 6389   1.846   4.633  14.874  0.6997  1.6360  2.0926
  428TMC3    C7 6390   1.840   0.173  14.867 -0.4987  0.4994  0.0396
  428TMC3    C8 6391   1.651   4.461  14.820 -0.6400  0.3117 -0.0301
  428TMC3    O1 6392   1.944   0.146  14.804 -0.5246 -0.0371 -0.0939
  428TMC3    O2 6393   1.750   4.398  14.783  0.0578 -0.5048 -0.4202
  429MPD2     C 6394   2.501   1.356  17.477  0.6959  0.1752  0.1816
  429MPD2    C1 6395   2.541   1.234  17.432  0.0566 -0.4633  0.7958
  429MPD2    C2 6396   2.653   1.214  17.358 -0.0577  0.3874  0.1967
  429MPD2    C3 6397   2.727   1.329  17.321 -0.3266  0.4184 -0.4641
  429MPD2    C4 6398   2.695   1.451  17.376  0.1476 -0.4154  0.0374
  429MPD2    C5 6399   2.589   1.461  17.457 -0.2350 -0.2217 -0.7564
  429MPD2     H 6400   2.678   1.113  17.326  0.1575 -0.0870  1.8523
  429MPD2    H1 6401   2.757   1.539  17.365  1.5350 -1.2546  1.1474
  429MPD2    H2 6402   2.417   1.369  17.544  0.9312  1.4838  0.2268
  429MPD2    H3 6403   2.564   1.559  17.494 -0.2093  0.5509 -2.7787
  429MPD2     N 6404   2.832   1.315  17.229  0.4296 -0.0104  0.1804
  429MPD2    H5 6405   2.850   1.226  17.183  0.5858  0.4825 -0.7151
  429MPD2    N1 6406   2.472   1.118  17.457  0.2723 -0.7233  0.4760
  429MPD2    H7 6407   2.509   1.030  17.422  0.5625  0.1408 -1.3652
  430TMC3    C1 6408   3.011   1.351  17.086 -0.4985  0.4463 -0.2811
  430TMC3    C2 6409   3.009   1.411  16.964 -0.2603 -0.5629 -0.1809
  430TMC3    C3 6410   3.064   1.339  16.863  0.2258  0.8608 -0.2614
  430TMC3    C4 6411   3.067   1.224  17.112 -0.0793  0.4156  0.2048
  430TMC3    C5 6412   3.133   1.165  17.008  0.7442 -0.1754 -0.0451
  430TMC3    C6 6413   3.112   1.213  16.881 -0.0868  0.9755 -0.5219
  430TMC3     C 6414   2.918   1.410  17.180 -0.9247  0.0551  0.6552
  430TMC3     O 6415   2.922   1.527  17.193 -1.3488  0.3468 -0.4138
  430TMC3     H 6416   2.965   1.509  16.950 -1.3734 -1.1189 -0.5961
  430TMC3    H1 6417   3.064   1.190  17.215 -0.0265 -1.5875 -0.4574
  430TMC3    H2 6418   3.133   1.158  16.790 -0.1422  1.5357 -0.8763
  430TMC3    C7 6419   3.198   1.041  17.046 -0.4055  0.2285 -0.2919
  430TMC3    C8 6420   3.063   1.393  16.729  0.5535  0.0390 -0.3572
  430TMC3    O1 6421   3.219   0.953  16.964  0.3514 -0.1735  0.3122
  430TMC3    O2 6422   3.030   1.326  16.639  0.3170  0.2175  0.2095
  431MPD2     C 6423   3.647   0.953  12.621  0.2831  0.2638 -0.2826
  431MPD2    C1 6424   3.674   1.015  12.498  0.1174  0.0492  0.3524
  431MPD2    C2 6425   3.642   0.954  12.380 -0.5148 -0.0087 -0.2940
  431MPD2    C3 6426   3.609   0.818  12.379 -0.4784  0.4698  0.1103
  431MPD2    C4 6427   3.595   0.755  12.500 -0.0349  0.0323  0.8186
  431MPD2    C5 6428   3.620   0.822  12.618  0.1975  0.6228 -0.0277
  431MPD2     H 6429   3.656   1.011  12.288 -1.4108  0.0490 -0.3966
  431MPD2    H1 6430   3.576   0.648  12.508  0.2177 -0.1434 -0.8243
  431MPD2    H2 6431   3.659   0.992  12.721 -2.8550  0.8046 -0.1230
  431MPD2    H3 6432   3.621   0.768  12.712 -0.7906  1.0196  0.2091
  431MPD2     N 6433   3.583   0.744  12.259  0.4728  0.4418 -0.2285
  431MPD2    H5 6434   3.578   0.643  12.263  1.1865  0.4556  1.1791
  431MPD2    N1 6435   3.724   1.147  12.494  0.0735  0.0180 -0.4650
  431MPD2    H7 6436   3.718   1.191  12.402 -2.1810 -0.4290 -0.5207
  432TMC3    C1 6437   3.586   0.709  12.025  0.1611  0.2438 -0.0312
  432TMC3    C2 6438   3.663   0.755  11.917  0.5463 -0.0959  0.0568
  432TMC3    C3 6439   3.689   0.659  11.821  0.2286  0.5285  0.0806
  432TMC3    C4 6440   3.551   0.573  12.040  0.3382 -0.4528 -0.5157
  432TMC3    C5 6441   3.587   0.485  11.948 -0.7434 -0.0030  0.1730
  432TMC3    C6 6442   3.651   0.529  11.837  0.5992  0.5910  0.0035
  432TMC3     C 6443   3.562   0.800  12.132  0.2283  0.0885  0.7583
  432TMC3     O 6444   3.558   0.918  12.105  0.3378 -0.1351 -0.5769
  432TMC3     H 6445   3.693   0.859  11.913  2.0993 -0.6424 -2.3187
  432TMC3    H1 6446   3.482   0.554  12.121  0.1356  0.4032 -0.4862
  432TMC3    H2 6447   3.686   0.453  11.768  0.0204  0.0701  0.2816
  432TMC3    C7 6448   3.631   0.360  12.013 -0.0416  0.1581 -0.3343
  432TMC3    C8 6449   3.807   0.680  11.735 -0.7201  0.7781 -0.8616
  432TMC3    O1 6450   3.733   0.323  11.963  0.0971 -0.3944 -0.1840
  432TMC3    O2 6451   3.818   0.627  11.625 -0.3755 -0.4687 -0.5982
  433MPD2     C 6452   2.233   3.996  10.867 -0.0599  0.1841 -0.6187
  433MPD2    C1 6453   2.312   3.899  10.937 -0.2072  0.1154 -0.3002
  433MPD2    C2 6454   2.370   3.951  11.056  0.6156 -0.0317  0.4607
  433MPD2    C3 6455   2.331   4.070  11.115 -0.6331 -0.5918  0.2886
  433MPD2    C4 6456   2.260   4.156  11.040 -1.3760 -0.1172  0.3280
  433MPD2    C5 6457   2.218   4.120  10.915 -0.2282 -0.2975  0.3525
  433MPD2     H 6458   2.417   3.881  11.124 -0.1454 -0.1777  0.8360
  433MPD2    H1 6459   2.230   4.258  11.064 -0.8697  0.0881  0.0946
  433MPD2    H2 6460   2.171   3.969  10.782 -1.5788  1.1724  0.1602
  433MPD2    H3 6461   2.155   4.194  10.868  0.1619 -1.7546 -2.4304
  433MPD2     N 6462   2.391   4.100  11.235 -0.2984  0.1974 -0.1259
  433MPD2    H5 6463   2.436   4.022  11.282  1.0627  0.8614 -0.3019
  433MPD2    N1 6464   2.322   3.770  10.883  0.2399  0.0141 -0.9867
  433MPD2    H7 6465   2.277   3.755  10.793 -0.5915  0.2462 -0.6083
  434TMC3    C1 6466   2.400   3.553  10.869  0.4231  0.3555 -0.0333
  434TMC3    C2 6467   2.449   3.441  10.931  0.4920 -0.1510  0.8655
  434TMC3    C3 6468   2.541   3.358  10.871 -0.0355  0.8944  0.2082
  434TMC3    C4 6469   2.443   3.582  10.737  0.1477 -0.4651  0.0727
  434TMC3    C5 6470   2.514   3.482  10.675 -0.3376  0.5137  0.0345
  434TMC3    C6 6471   2.569   3.376  10.739 -0.6577  0.4681  0.1945
  434TMC3     C 6472   2.374   3.661  10.955  0.2675 -0.2082  0.1271
  434TMC3     O 6473   2.410   3.656  11.071  0.2968  0.2745 -0.6562
  434TMC3     H 6474   2.428   3.419  11.035 -0.2629  0.4217  0.8312
  434TMC3    H1 6475   2.392   3.656  10.676  0.9087  2.6819  3.1966
  434TMC3    H2 6476   2.638   3.304  10.696 -2.1038 -0.6149 -0.3286
  434TMC3    C7 6477   2.488   3.468  10.524 -0.0614 -0.5780 -0.4057
  434TMC3    C8 6478   2.647   3.322  10.961 -0.1160 -0.4021 -0.7530
  434TMC3    O1 6479   2.452   3.566  10.461  0.5065 -0.0294 -0.3181
  434TMC3    O2 6480   2.614   3.309  11.080  0.1064 -0.3685 -0.2871
  435MPD2     C 6481   4.307   4.336  15.605 -0.3421 -0.7211 -0.4876
  435MPD2    C1 6482   4.342   4.410  15.716  0.1117 -0.2292  0.8090
  435MPD2    C2 6483   4.476   4.440  15.734  0.0485 -0.3875  0.3577
  435MPD2    C3 6484   4.574   4.374  15.666 -0.3264  0.3373  1.4501
  435MPD2    C4 6485   4.533   4.286  15.567  0.0249  0.1302  0.0800
  435MPD2    C5 6486   4.399   4.268  15.537 -0.9669  0.6096 -0.4129
  435MPD2     H 6487   4.499   4.497  15.824  0.4564 -0.0765  0.0556
  435MPD2    H1 6488   4.603   4.220  15.517 -0.7158 -0.3282 -0.3487
  435MPD2    H2 6489   4.202   4.331  15.577 -0.5795 -1.0948  0.4643
  435MPD2    H3 6490   4.386   4.196  15.456 -1.1648  0.5183 -0.3015
  435MPD2     N 6491   4.702   4.382  15.719 -0.5383  0.4465 -0.1483
  435MPD2    H5 6492   4.709   4.435  15.805 -2.1094  0.9215 -0.3216
  435MPD2    N1 6493   4.246   4.483  15.800 -0.0804  0.8573  0.1917
  435MPD2    H7 6494   4.283   4.542  15.874 -0.9798  1.1475  0.4059
  436TMC3    C1 6495   4.054   4.692  16.082 -0.3005  1.0472  0.1312
  436TMC3    C2 6496   4.113   4.632  15.979 -0.2021  0.6105  0.5232
  436TMC3    C3 6497   4.038   4.547  15.902  0.3178  0.1336  0.1817
  436TMC3    C4 6498   3.927   4.663  16.113  0.8458  0.3150 -0.0889
  436TMC3    C5 6499   3.854   4.581  16.036  0.1145 -0.4384  0.1481
  436TMC3    C6 6500   3.908   4.523  15.925  0.4145 -0.0630  0.4251
  436TMC3     C 6501   4.126   0.072  16.163  0.1272  0.7796 -0.1125
  436TMC3     O 6502   4.248   0.071  16.144 -0.1301  0.0453 -0.0290
  436TMC3     H 6503   4.216   4.658  15.958 -0.2978  0.3259 -0.2946
  436TMC3    H1 6504   3.891   4.674  16.215  0.2445 -2.2431 -0.0206
  436TMC3    H2 6505   3.859   4.445  15.868 -1.8746  2.0355 -0.4924
  436TMC3    C7 6506   3.737   4.512  16.087  0.1127 -0.0731  0.4090
  436TMC3    C8 6507   4.109   4.472  15.798 -0.0006  0.0244 -0.1238
  436TMC3    O1 6508   3.711   4.404  16.031  0.2179  0.7285 -0.1271
  436TMC3    O2 6509   4.048   4.390  15.735  0.4316 -0.8176 -0.1150
  437TMC3    C1 6510   3.409   1.402  12.634  0.1144  0.5607  0.4181
  437TMC3    C2 6511   3.280   1.420  12.595 -0.8761 -0.3776 -0.2399
  437TMC3    C3 6512   3.248   1.491  12.483  0.7674 -0.2634 -0.2376
  437TMC3    C4 6513   3.507   1.480  12.578  0.0860  0.1759  0.4107
  437TMC3    C5 6514   3.468   1.570  12.479  0.3582  0.6722 -0.6503
  437TMC3    C6 6515   3.336   1.569  12.420  0.2396 -0.0169 -0.2098
  437TMC3     C 6516   3.441   1.334  12.759  0.3126 -0.5534 -0.3745
  437TMC3     O 6517   3.537   1.369  12.819  0.1330  0.2580  0.1186
  437TMC3     H 6518   3.198   1.369  12.645 -0.5548  0.2885  0.9661
  437TMC3    H1 6519   3.610   1.467  12.609 -0.2140  1.8372  2.1380
  437TMC3    H2 6520   3.324   1.623  12.327  1.5145 -1.2449 -1.0789
  437TMC3    C7 6521   3.577   1.644  12.403 -0.0675  0.6340 -0.2889
  437TMC3    C8 6522   3.111   1.466  12.421  0.1493 -0.3067 -0.6073
  437TMC3    O1 6523   3.562   1.663  12.284  0.2529  0.3512  0.1204
  437TMC3    O2 6524   3.045   1.374  12.467  0.4002  0.4820  0.1019
  438MPD2     C 6525   0.731   2.713  16.447 -0.3166  0.2072 -0.3056
  438MPD2    C1 6526   0.805   2.653  16.548 -0.3977 -0.5423  0.4356
  438MPD2    C2 6527   0.776   2.688  16.683 -0.1917  0.1667  0.4780
  438MPD2    C3 6528   0.680   2.781  16.713 -0.0595  0.4881  0.4764
  438MPD2    C4 6529   0.598   2.827  16.610 -0.0190 -0.3484 -0.6393
  438MPD2    C5 6530   0.628   2.796  16.479 -0.1784  1.2563  0.8254
  438MPD2     H 6531   0.850   2.644  16.749 -0.5687 -0.1348  0.7031
  438MPD2    H1 6532   0.528   2.908  16.624  0.9321  0.6208 -1.4451
  438MPD2    H2 6533   0.764   2.710  16.344  0.1422  0.8242 -0.1777
  438MPD2    H3 6534   0.578   2.837  16.392  0.0399  3.1946  1.6241
  438MPD2     N 6535   0.674   2.835  16.845  0.5493  0.8480 -0.3777
  438MPD2    H5 6536   0.607   2.909  16.862  0.2022 -0.2020  2.9483
  438MPD2    N1 6537   0.911   2.569  16.533  0.3543 -0.2276 -0.2592
  438MPD2    H7 6538   0.971   2.557  16.614  2.6827 -0.9956 -2.0912
  439TMC3    C1 6539   1.062   2.428  16.428  0.5246  0.2909 -0.1097
  439TMC3    C2 6540   1.083   2.312  16.354  0.6472 -0.3435 -0.2705
  439TMC3    C3 6541   1.200   2.243  16.358 -0.8124 -0.3270 -0.6283
  439TMC3    C4 6542   1.157   2.469  16.522 -0.7179 -0.0363  0.6395
  439TMC3    C5 6543   1.268   2.387  16.530  0.1599  0.8127  0.0739
  439TMC3    C6 6544   1.300   2.284  16.446  0.5627  0.1714  0.1285
  439TMC3     C 6545   0.937   2.496  16.417  0.5396  0.1412 -0.0277
  439TMC3     O 6546   0.861   2.480  16.325  0.3817 -0.0186  0.2232
  439TMC3     H 6547   1.003   2.285  16.286  2.1150  0.0248 -2.1176
  439TMC3    H1 6548   1.153   2.553  16.591 -0.8560  1.1308 -0.7926
  439TMC3    H2 6549   1.383   2.218  16.469 -0.1153  0.1813  2.5842
  439TMC3    C7 6550   1.376   2.433  16.620 -0.7214  0.3009 -0.7973
  439TMC3    C8 6551   1.218   2.117  16.294  0.2021  0.1158 -0.6181
  439TMC3    O1 6552   1.357   2.460  16.739  0.2406  0.4569 -0.0410
  439TMC3    O2 6553   1.334   2.087  16.295  0.5542 -0.4205  0.0472
  440MPD2     C 6554   4.560   2.771  14.891 -0.0840  0.0988  0.3163
  440MPD2    C1 6555   4.593   2.876  14.977 -0.3251 -0.6568 -0.3734
  440MPD2    C2 6556   4.717   2.931  14.963  0.6156 -0.2466 -0.2810
  440MPD2    C3 6557   0.084   2.879  14.866 -0.3050 -0.0652  0.0538
  440MPD2    C4 6558   0.048   2.788  14.775 -0.7949 -0.0181  0.2919
  440MPD2    C5 6559   4.640   2.733  14.789  0.2504  0.3298  0.0994
  440MPD2     H 6560   0.036   2.994  15.041 -2.9458 -0.1246  1.5242
  440MPD2    H1 6561   0.117   2.743  14.705 -1.4246 -1.7413  0.7480
  440MPD2    H2 6562   4.465   2.718  14.892 -1.2825  2.2417  0.5545
  440MPD2    H3 6563   4.607   2.649  14.729  0.4058  0.4887 -0.2061
  440MPD2     N 6564   0.219   2.926  14.860  0.2047 -0.4685 -0.6654
  440MPD2    H5 6565   0.272   2.863  14.801 -0.6859 -0.5684 -1.3648
  440MPD2    N1 6566   4.531   2.901  15.103 -0.2515  1.0875  0.1214
  440MPD2    H7 6567   4.580   2.967  15.163 -0.6919 -0.4784  2.1943
  441TMC3    C1 6568   0.412   3.009  14.959 -0.4173  0.6990  0.0615
  441TMC3    C2 6569   0.472   3.126  14.996 -0.0547 -0.4618  0.1312
  441TMC3    C3 6570   0.549   3.124  15.106  0.2191  0.2114  0.2455
  441TMC3    C4 6571   0.440   2.891  15.025  0.7682  0.4049  0.4990
  441TMC3    C5 6572   0.541   2.894  15.112  0.0331 -0.0041  0.7391
  441TMC3    C6 6573   0.604   3.009  15.151  0.3279  0.0949  0.5998
  441TMC3     C 6574   0.273   3.031  14.928  0.5925 -0.0955 -0.1054
  441TMC3     O 6575   0.223   3.122  14.993 -0.5847  0.1938 -0.0699
  441TMC3     H 6576   0.426   3.215  14.954  0.0556 -0.2965  0.3612
  441TMC3    H1 6577   0.398   2.799  14.988  1.1912  0.4573 -0.1096
  441TMC3    H2 6578   0.665   3.011  15.240  2.3685 -2.0734 -0.7612
  441TMC3    C7 6579   0.544   2.795  15.214 -0.6703  0.1166 -0.0044
  441TMC3    C8 6580   0.498   3.207  15.214 -0.3811 -0.1363  0.1601
  441TMC3    O1 6581   0.651   2.788  15.272 -0.0120  0.2004  0.6353
  441TMC3    O2 6582   0.576   3.226  15.305  0.2569 -0.1157  0.0509
  442MPD2     C 6583   2.650   3.583  16.342  0.0845  0.4510  0.1386
  442MPD2    C1 6584   2.551   3.507  16.401 -0.4030  0.1468 -0.3403
  442MPD2    C2 6585   2.555   3.373  16.390 -0.8737  0.4184 -0.2103
  442MPD2    C3 6586   2.661   3.309  16.330 -0.1803  0.0898  0.0984
  442MPD2    C4 6587   2.761   3.390  16.266 -0.5438 -0.2324  0.1845
  442MPD2    C5 6588   2.756   3.525  16.278  0.0065  0.7370  0.7479
  442MPD2     H 6589   2.480   3.308  16.432 -1.0191 -0.1197 -1.2783
  442MPD2    H1 6590   2.852   3.345  16.227 -1.7699 -2.1350 -0.5060
  442MPD2    H2 6591   2.667   3.689  16.355 -0.8797  0.9228 -2.4731
  442MPD2    H3 6592   2.842   3.581  16.244  1.4706 -2.1497 -0.2945
  442MPD2     N 6593   2.671   3.169  16.314  0.1067  0.0481 -0.1869
  442MPD2    H5 6594   2.751   3.143  16.257 -0.5356  0.1779 -1.1600
  442MPD2    N1 6595   2.435   3.570  16.462  0.2149  0.1579  0.0609
  442MPD2    H7 6596   2.362   3.509  16.498  1.8446 -0.6595  1.9529
  443TMC3    C1 6597   2.291   3.748  16.541  0.2372  0.1404  0.1817
  443TMC3    C2 6598   2.216   3.841  16.480 -0.3569 -0.1012  0.2425
  443TMC3    C3 6599   2.081   3.848  16.499  0.4190 -0.1797  0.1502
  443TMC3    C4 6600   2.225   3.666  16.632 -0.2852  0.3552  0.2124
  443TMC3    C5 6601   2.092   3.684  16.653 -0.1518  0.1880 -0.0083
  443TMC3    C6 6602   2.015   3.778  16.593  1.3729  0.0439  0.4421
  443TMC3     C 6603   2.417   3.706  16.484 -0.1235  0.1899  0.5365
  443TMC3     O 6604   2.480   3.797  16.432 -0.2117  0.2669 -0.0040
  443TMC3     H 6605   2.257   3.909  16.407 -2.2110  1.1708  0.3824
  443TMC3    H1 6606   2.283   3.599  16.695  1.0445  0.5759 -0.7818
  443TMC3    H2 6607   1.910   3.795  16.617  1.4501 -0.7399  1.3718
  443TMC3    C7 6608   2.052   3.623  16.775  0.1186 -0.1120  0.8779
  443TMC3    C8 6609   1.989   3.937  16.422 -0.6941  0.7260  0.1810
  443TMC3    O1 6610   2.101   3.513  16.804 -0.3796 -0.4595 -0.0563
  443TMC3    O2 6611   1.893   3.977  16.485 -0.6407 -0.3766  0.0135
  444MPD2     C 6612   3.308   2.748  16.879 -0.2187 -0.7073 -0.3583
  444MPD2    C1 6613   3.243   2.647  16.812  0.3270  0.0790  0.6718
  444MPD2    C2 6614   3.310   2.533  16.784 -0.0455 -0.2254  0.0047
  444MPD2    C3 6615   3.448   2.523  16.799 -0.0241  0.1287 -0.0455
  444MPD2    C4 6616   3.512   2.630  16.866  0.6329 -0.8466  1.0881
  444MPD2    C5 6617   3.442   2.736  16.917  0.3858 -0.4347  0.3170
  444MPD2     H 6618   3.261   2.446  16.743 -0.1607  0.3809 -1.1460
  444MPD2    H1 6619   3.620   2.624  16.881  0.3877 -3.6810  1.7584
  444MPD2    H2 6620   3.261   2.843  16.903 -1.4609 -1.5603  0.5549
  444MPD2    H3 6621   3.491   2.823  16.957  0.4279  0.0684 -0.8479
  444MPD2     N 6622   3.510   2.408  16.736  0.8237 -0.3422  0.1513
  444MPD2    H5 6623   3.454   2.352  16.673 -0.8400  0.3361  1.0376
  444MPD2    N1 6624   3.108   2.675  16.776  0.5072 -0.2150  0.4344
  444MPD2    H7 6625   3.063   2.758  16.812 -1.6578 -0.6995 -1.1370
  445TMC3    C1 6626   3.659   2.242  16.670 -0.7413  0.2141 -0.6644
  445TMC3    C2 6627   3.545   2.169  16.631 -0.0487 -0.7833  0.3137
  445TMC3    C3 6628   3.566   2.066  16.540 -0.5437 -0.1159 -0.0417
  445TMC3    C4 6629   3.784   2.214  16.623 -0.2379 -0.7239  0.3261
  445TMC3    C5 6630   3.797   2.100  16.542 -0.2861  0.0260 -0.7427
  445TMC3    C6 6631   3.685   2.033  16.489  0.5772  0.1456 -0.5782
  445TMC3     C 6632   3.634   2.355  16.761  0.5086  0.8009 -0.1843
  445TMC3     O 6633   3.730   2.394  16.827  0.1786  0.6994  0.1767
  445TMC3     H 6634   3.454   2.184  16.687  0.1740 -2.0283  1.0124
  445TMC3    H1 6635   3.873   2.261  16.664  0.6791 -3.0954  1.0591
  445TMC3    H2 6636   3.690   1.940  16.434 -0.1530 -0.0049 -0.3940
  445TMC3    C7 6637   3.930   2.072  16.497 -0.7503  0.3278  0.0304
  445TMC3    C8 6638   3.478   1.952  16.554  0.1171 -0.1369 -0.3489
  445TMC3    O1 6639   4.015   2.162  16.502  0.4570 -0.5640 -0.2681
  445TMC3    O2 6640   3.413   1.930  16.657  0.4726  0.7289 -0.2189
  446MPD2     C 6641   2.308   3.282  11.517  0.5843  0.2275 -0.2582
  446MPD2    C1 6642   2.276   3.325  11.388  0.2742 -0.5713 -0.2551
  446MPD2    C2 6643   2.358   3.426  11.338 -0.1935  0.5647 -0.7570
  446MPD2    C3 6644   2.475   3.461  11.408 -0.4225  0.8394 -0.3453
  446MPD2    C4 6645   2.495   3.419  11.540 -0.1948  0.4142  0.4083
  446MPD2    C5 6646   2.410   3.327  11.595  0.7660  0.3090 -0.5653
  446MPD2     H 6647   2.328   3.479  11.248 -1.7749 -0.9682 -1.1282
  446MPD2    H1 6648   2.583   3.442  11.599  0.5618 -1.6648  0.1085
  446MPD2    H2 6649   2.241   3.208  11.559  0.7029  1.2589  1.7244
  446MPD2    H3 6650   2.402   3.308  11.702  0.3700 -0.4415 -0.7301
  446MPD2     N 6651   2.568   3.545  11.336  0.0931 -0.5813 -0.0278
  446MPD2    H5 6652   2.546   3.586  11.246 -0.4431  2.5956  1.5802
  446MPD2    N1 6653   2.159   3.277  11.316  0.5545  0.3098 -0.0348
  446MPD2    H7 6654   2.119   3.315  11.231  0.7005 -0.0067 -0.2428
  447TMC3    C1 6655   2.778   3.644  11.281 -0.2490  0.4374  0.4683
  447TMC3    C2 6656   2.747   3.642  11.143  0.0276 -0.2099  0.2628
  447TMC3    C3 6657   2.854   3.672  11.069 -0.6015 -0.4691 -0.6408
  447TMC3    C4 6658   2.901   3.685  11.334 -0.2504  0.2467 -0.0773
  447TMC3    C5 6659   3.006   3.692  11.247 -0.2748  0.0190  0.6733
  447TMC3    C6 6660   2.983   3.688  11.116  0.2090  0.0935 -0.7709
  447TMC3     C 6661   2.699   3.565  11.378  0.2404  0.6245 -0.0786
  447TMC3     O 6662   2.758   3.517  11.475 -0.5220 -0.0965 -0.6936
  447TMC3     H 6663   2.652   3.612  11.102 -0.7282 -1.4791  2.9738
  447TMC3    H1 6664   2.905   3.680  11.442  0.9868  0.0824 -0.1401
  447TMC3    H2 6665   3.070   3.698  11.053 -0.6846  0.0714 -2.0117
  447TMC3    C7 6666   3.137   3.716  11.302  1.2686 -0.0932 -0.2826
  447TMC3    C8 6667   2.831   3.699  10.926  0.5216 -0.1061  0.6960
  447TMC3    O1 6668   3.233   3.731  11.227 -0.1676  0.1198 -0.0962
  447TMC3    O2 6669   2.721   3.735  10.897 -0.5488  0.2495 -0.2284
  448TMC3    C1 6670   0.836   3.973  16.826 -0.6676 -0.6351 -1.1048
  448TMC3    C2 6671   0.767   3.915  16.725  0.1435 -0.5458 -0.4522
  448TMC3    C3 6672   0.684   3.809  16.765  0.1792  0.1656 -0.1461
  448TMC3    C4 6673   0.834   3.928  16.956 -0.1937  0.1991 -0.0224
  448TMC3    C5 6674   0.753   3.826  16.997 -0.3680 -0.1494  0.2180
  448TMC3    C6 6675   0.668   3.763  16.901  0.5508  0.3828  0.7127
  448TMC3     C 6676   0.888   4.105  16.801 -0.1145 -0.4457 -0.0057
  448TMC3     O 6677   0.852   4.161  16.696 -0.0169  0.3574  0.2667
  448TMC3     H 6678   0.767   3.961  16.627 -1.3264  0.4228  0.0057
  448TMC3    H1 6679   0.919   3.954  17.018  1.0249  0.8081 -1.9381
  448TMC3    H2 6680   0.611   3.674  16.923  1.9410 -0.2558  1.6799
  448TMC3    C7 6681   0.808   3.735  17.100  0.3326  0.0481 -0.2685
  448TMC3    C8 6682   0.670   3.704  16.673  0.5253  0.6246 -0.1057
  448TMC3    O1 6683   0.787   3.614  17.081 -0.3313  0.5645  0.7473
  448TMC3    O2 6684   0.673   3.589  16.719 -0.4389  0.7944  0.5672
  449MPD2     C 6685   2.122   2.568  13.900 -0.1829  0.2263  0.0291
  449MPD2    C1 6686   2.127   2.547  13.759 -0.1599  0.3590 -0.1472
  449MPD2    C2 6687   2.048   2.440  13.712 -0.2406 -0.4030  0.1545
  449MPD2    C3 6688   1.971   2.363  13.792  0.5138 -0.8279 -0.4235
  449MPD2    C4 6689   1.952   2.396  13.926 -0.5589  0.6115  0.2558
  449MPD2    C5 6690   2.033   2.494  13.979 -0.4494  0.3434  0.0591
  449MPD2     H 6691   2.068   2.422  13.607  1.5538 -1.5333  0.6862
  449MPD2    H1 6692   1.895   2.336  13.995  0.3568  0.4439  0.8597
  449MPD2    H2 6693   2.180   2.649  13.944 -1.4576  1.4413 -0.5193
  449MPD2    H3 6694   2.016   2.510  14.085 -3.4822 -1.6185 -0.1145
  449MPD2     N 6695   1.910   2.243  13.741 -0.1646 -1.0288 -0.2039
  449MPD2    H5 6696   1.924   2.222  13.642  1.2035  1.2618 -0.5104
  449MPD2    N1 6697   2.213   2.607  13.671  0.9072 -0.0097 -0.7607
  449MPD2    H7 6698   2.213   2.573  13.575  0.6227 -0.6824 -0.5192
  450TMC3    C1 6699   2.391   2.712  13.584  0.1081  0.8765 -0.4131
  450TMC3    C2 6700   2.521   2.682  13.605  0.2594  0.0447  0.3440
  450TMC3    C3 6701   2.583   2.605  13.515  0.0743  0.0071  0.0353
  450TMC3    C4 6702   2.323   2.671  13.476  0.3341  0.0862 -0.1967
  450TMC3    C5 6703   2.389   2.580  13.399  0.0142 -0.4117 -0.0797
  450TMC3    C6 6704   2.517   2.540  13.418 -0.2519  0.7802 -0.1447
  450TMC3     C 6705   2.309   2.694  13.701  0.1255  0.1962  0.3637
  450TMC3     O 6706   2.351   2.715  13.815  0.3959 -0.3418  0.7063
  450TMC3     H 6707   2.568   2.705  13.700  0.0119  1.2397  0.1713
  450TMC3    H1 6708   2.227   2.708  13.442  0.7957  2.2223  0.8652
  450TMC3    H2 6709   2.566   2.469  13.352 -0.6652  0.8146 -0.4884
  450TMC3    C7 6710   2.290   2.482  13.357 -0.0051 -0.1745 -0.8246
  450TMC3    C8 6711   2.721   2.557  13.532  0.1262  0.3504 -0.1052
  450TMC3    O1 6712   2.194   2.482  13.429  0.4628 -0.1055 -0.4810
  450TMC3    O2 6713   2.736   2.439  13.501  0.0162  0.2433 -0.0034
  451MPD2     C 6714   3.750   2.311   0.791  0.3703 -0.4438  0.5385
  451MPD2    C1 6715   3.627   2.315   0.853 -0.1975 -0.2735 -0.3529
  451MPD2    C2 6716   3.529   2.216   0.834  0.2794 -0.9863 -0.0166
  451MPD2    C3 6717   3.561   2.104   0.754 -0.2674  0.1549  0.3367
  451MPD2    C4 6718   3.687   2.106   0.692 -0.2892 -0.2415 -0.1537
  451MPD2    C5 6719   3.781   2.202   0.711  0.2626  0.1205  0.5553
  451MPD2     H 6720   3.435   2.217   0.887  1.1964  1.2011  1.5629
  451MPD2    H1 6721   3.720   2.024   0.628  1.9227  1.6859 -1.4872
  451MPD2    H2 6722   3.824   2.387   0.811  0.8519 -0.5895 -0.6735
  451MPD2    H3 6723   3.874   2.186   0.657 -1.6821  0.5444 -2.9559
  451MPD2     N 6724   3.481   1.991   0.741  0.3554 -0.6410 -0.2311
  451MPD2    H5 6725   3.520   1.922   0.678  0.8291 -0.1950 -0.4270
  451MPD2    N1 6726   3.608   2.425   0.932  0.6269 -0.1537 -0.9621
  451MPD2    H7 6727   3.684   2.492   0.932  0.1737  0.3600 -0.0473
  452TMC3    C1 6728   3.336   1.820   0.790  0.6196  0.5005  0.5162
  452TMC3    C2 6729   3.345   1.733   0.901  0.1238 -0.2856 -0.5497
  452TMC3    C3 6730   3.311   1.599   0.875 -0.2892 -0.0597 -0.3237
  452TMC3    C4 6731   3.323   1.775   0.665 -0.4148  0.4165 -0.2223
  452TMC3    C5 6732   3.290   1.644   0.643 -0.4605  0.2733  0.7570
  452TMC3    C6 6733   3.285   1.553   0.744 -0.1454 -0.1566  0.1454
  452TMC3     C 6734   3.384   1.949   0.828  0.6051 -0.6145  1.0496
  452TMC3     O 6735   3.359   2.001   0.935  0.1126  0.2737 -0.2850
  452TMC3     H 6736   3.342   1.772   1.002 -0.1010 -1.0303 -0.2640
  452TMC3    H1 6737   3.318   1.853   0.590  0.4319  1.0171  0.3355
  452TMC3    H2 6738   3.260   1.448   0.731  0.0928 -0.2307  0.2853
  452TMC3    C7 6739   3.261   1.607   0.505  0.0967 -0.1352  1.3573
  452TMC3    C8 6740   3.316   1.508   0.992  1.1323 -0.8510 -0.5035
  452TMC3    O1 6741   3.310   1.681   0.420  0.5827 -0.5152  0.5030
  452TMC3    O2 6742   3.406   1.542   1.069  0.1540 -0.4178 -0.3453
  453TMC3    C1 6743   0.152   2.878  11.997  0.5538 -0.4289 -0.8319
  453TMC3    C2 6744   0.081   2.782  12.051 -0.3887  0.2912  0.4694
  453TMC3    C3 6745   0.055   2.665  11.984 -0.0903 -0.2489 -0.4664
  453TMC3    C4 6746   0.210   2.853  11.873 -0.4279  0.1273  0.2915
  453TMC3    C5 6747   0.184   2.732  11.808 -0.1345  0.2582 -0.2810
  453TMC3    C6 6748   0.104   2.633  11.861 -1.4479 -0.4589  0.0651
  453TMC3     C 6749   0.218   2.972  12.088 -0.3318 -0.0023  0.5367
  453TMC3     O 6750   0.322   3.012  12.039 -0.0232 -0.4641 -0.1832
  453TMC3     H 6751   0.034   2.793  12.148  1.1368  2.5661  0.9448
  453TMC3    H1 6752   0.260   2.938  11.828  2.0793 -0.2395  2.3775
  453TMC3    H2 6753   0.089   2.542  11.805 -0.3793  0.4890 -1.7699
  453TMC3    C7 6754   0.250   2.699  11.683 -0.3780  0.2967  0.2027
  453TMC3    C8 6755   4.708   2.557  12.054 -0.2593  0.4684 -0.2946
  453TMC3    O1 6756   0.220   2.596  11.620 -0.0483  0.5701 -0.3923
  453TMC3    O2 6757   4.621   2.594  12.129  0.1867 -0.5126  0.4807
  454MPD2     C 6758   4.134   2.564  16.371  1.2721 -0.1381  0.1025
  454MPD2    C1 6759   4.053   2.672  16.361  0.0994 -0.1969 -0.2755
  454MPD2    C2 6760   4.011   2.734  16.483 -0.4182 -0.0444  0.7448
  454MPD2    C3 6761   4.046   2.678  16.603  0.2921 -0.3768  0.7002
  454MPD2    C4 6762   4.124   2.565  16.607  0.7049 -0.1143 -0.2263
  454MPD2    C5 6763   4.171   2.511  16.487  0.0770 -0.6036 -0.2861
  454MPD2     H 6764   3.969   2.834  16.474 -2.2936 -0.8380  0.7178
  454MPD2    H1 6765   4.152   2.522  16.703 -0.2965  2.1547  1.0711
  454MPD2    H2 6766   4.176   2.517  16.283  0.0199 -1.4800  0.2294
  454MPD2    H3 6767   4.241   2.428  16.488 -0.2896 -0.9012  1.3400
  454MPD2     N 6768   3.998   2.730  16.725 -0.1521  0.3999 -0.1450
  454MPD2    H5 6769   4.051   2.699  16.806  0.0079  2.2955  0.4701
  454MPD2    N1 6770   3.982   2.715  16.242  0.3148 -0.3909 -0.2735
  454MPD2    H7 6771   3.923   2.797  16.250 -0.7949 -0.9464 -2.5122
  455TMC3    C1 6772   3.795   2.848  16.660  0.5561 -0.5797  0.2848
  455TMC3    C2 6773   3.719   2.955  16.686 -0.3360  0.4654 -0.0116
  455TMC3    C3 6774   3.582   2.959  16.648  0.2709 -0.9414 -0.2313
  455TMC3    C4 6775   3.741   2.734  16.596  0.6932 -0.2836  0.4882
  455TMC3    C5 6776   3.610   2.747  16.556 -0.4503 -0.9050  0.9120
  455TMC3    C6 6777   3.525   2.854  16.585  0.2694  0.5481 -0.2199
  455TMC3     C 6778   3.905   2.836  16.755 -0.4837  0.0726  0.0991
  455TMC3     O 6779   3.915   2.913  16.844  0.1320  0.4289 -0.1019
  455TMC3     H 6780   3.767   3.036  16.740 -1.9239  0.3329  1.6013
  455TMC3    H1 6781   3.796   2.641  16.597  2.5027  0.7790  0.4433
  455TMC3    H2 6782   3.424   2.848  16.548  0.8006 -1.4504 -1.3317
  455TMC3    C7 6783   3.561   2.643  16.472 -0.1147  0.1362 -0.5423
  455TMC3    C8 6784   3.499   3.058  16.715  0.1241 -0.0635 -0.2064
  455TMC3    O1 6785   3.440   2.627  16.459  0.0432 -0.4207  0.5302
  455TMC3    O2 6786   3.550   3.104  16.814 -0.1330 -0.6016 -0.9402
  456MPD2     C 6787   1.170   2.429  15.982 -0.1319 -0.1387 -0.2764
  456MPD2    C1 6788   1.268   2.451  16.078  0.3723 -0.5523 -0.1261
  456MPD2    C2 6789   1.249   2.556  16.175  0.8704 -0.0796  0.1340
  456MPD2    C3 6790   1.130   2.634  16.175  0.7680 -0.5546  0.8990
  456MPD2    C4 6791   1.034   2.598  16.079 -0.1764  0.2074  0.5880
  456MPD2    C5 6792   1.054   2.500  15.986  0.0557  0.5110 -0.2063
  456MPD2     H 6793   1.328   2.585  16.244  2.6903 -1.3645 -1.4230
  456MPD2    H1 6794   0.939   2.651  16.084 -0.7296 -0.6924 -0.2716
  456MPD2    H2 6795   1.182   2.355  15.904  1.1775  1.2449 -1.3701
  456MPD2    H3 6796   0.969   2.476  15.922 -1.5915 -0.7170  2.4437
  456MPD2     N 6797   1.117   2.747  16.264 -0.1330  0.3288 -0.6917
  456MPD2    H5 6798   1.187   2.762  16.336 -1.5338 -1.6176  1.0576
  456MPD2    N1 6799   1.394   2.394  16.052  0.3614  0.4303  0.5217
  456MPD2    H7 6800   1.402   2.353  15.959  0.5554  0.8033  0.3741
  457TMC3    C1 6801   1.000   2.930  16.361  0.1690 -0.5620 -0.0229
  457TMC3    C2 6802   0.917   3.042  16.343  0.2579  1.2147 -0.1922
  457TMC3    C3 6803   0.866   3.097  16.458  0.0738 -0.0607 -0.0757
  457TMC3    C4 6804   1.045   2.890  16.494  0.4383 -0.0779 -1.2502
  457TMC3    C5 6805   0.987   2.952  16.602 -0.3925 -0.0158  0.3848
  457TMC3    C6 6806   0.899   3.061  16.583  0.4816  0.4622 -0.6790
  457TMC3     C 6807   1.014   2.842  16.252  0.4117 -0.2319 -0.2307
  457TMC3     O 6808   0.962   2.877  16.148  0.8037  0.6466 -0.2276
  457TMC3     H 6809   0.888   3.084  16.248 -1.9301 -2.0546 -0.9939
  457TMC3    H1 6810   1.109   2.805  16.509  0.1893 -0.0712 -0.1266
  457TMC3    H2 6811   0.845   3.094  16.671  0.1110 -2.1245  0.0629
  457TMC3    C7 6812   1.031   2.920  16.736  0.2364  0.4860  0.8413
  457TMC3    C8 6813   0.788   3.218  16.460 -0.4596 -0.6078 -0.2765
  457TMC3    O1 6814   1.091   2.815  16.755 -0.3988  0.2190 -0.0033
  457TMC3    O2 6815   0.714   3.229  16.558  0.4314 -0.0517  0.5779
  458MPD2     C 6816   4.076   1.783  12.342 -0.1761 -0.2139 -0.1087
  458MPD2    C1 6817   4.039   1.795  12.473 -0.0434  0.1540  0.1101
  458MPD2    C2 6818   3.905   1.768  12.513 -0.2458 -0.0474 -0.4510
  458MPD2    C3 6819   3.815   1.713  12.426  0.2224 -0.0751 -0.2742
  458MPD2    C4 6820   3.852   1.701  12.289 -0.3144  0.0096 -0.1563
  458MPD2    C5 6821   3.984   1.736  12.255 -0.3223  0.1628 -0.4381
  458MPD2     H 6822   3.879   1.775  12.618  4.3885 -0.7706  0.7464
  458MPD2    H1 6823   3.780   1.677  12.212  0.0828  0.9610 -0.8221
  458MPD2    H2 6824   4.178   1.804  12.314 -0.2830  0.9127  0.3629
  458MPD2    H3 6825   4.005   1.720  12.149  1.7019 -0.9484  0.1357
  458MPD2     N 6826   3.685   1.678  12.478 -0.1068  0.5824 -0.0491
  458MPD2    H5 6827   3.672   1.680  12.578  0.4777  0.8104  0.0208
  458MPD2    N1 6828   4.139   1.815  12.569 -0.4652  0.0405 -0.4098
  458MPD2    H7 6829   4.232   1.813  12.528 -1.0252 -0.6216 -1.6680
  459TMC3    C1 6830   4.245   1.876  12.766 -0.0922  0.1529  0.1021
  459TMC3    C2 6831   4.327   1.973  12.713 -0.2540 -0.0775 -0.0436
  459TMC3    C3 6832   4.406   2.043  12.797 -0.3569  0.2137 -0.2540
  459TMC3    C4 6833   4.246   1.863  12.901 -0.3316 -0.0460  0.3471
  459TMC3    C5 6834   4.343   1.927  12.981  0.1329  0.6176 -0.4983
  459TMC3    C6 6835   4.420   2.027  12.929 -0.6632 -0.2275 -0.0524
  459TMC3     C 6836   4.123   1.836  12.701  0.1923 -0.0938 -0.9312
  459TMC3     O 6837   4.028   1.807  12.775 -0.4691  0.5701 -0.5808
  459TMC3     H 6838   4.321   1.994  12.607  1.6653  1.7321  0.2149
  459TMC3    H1 6839   4.173   1.797  12.947  0.9474 -0.1916  2.1423
  459TMC3    H2 6840   4.501   2.065  12.989 -2.2545 -0.2223  2.1009
  459TMC3    C7 6841   4.345   1.891  13.125  0.1263  0.1797 -0.3427
  459TMC3    C8 6842   4.511   2.113  12.727  0.0718 -0.3536  0.3860
  459TMC3    O1 6843   4.282   1.786  13.153 -0.0240 -0.3621  0.8507
  459TMC3    O2 6844   4.632   2.103  12.760 -0.1373 -0.5958 -0.1882
  460MPD2     C 6845   3.057   3.626  10.649  0.4579  0.4671  1.0698
  460MPD2    C1 6846   2.937   3.664  10.704  0.2127  0.3922  0.4695
  460MPD2    C2 6847   2.820   3.670  10.627 -0.0660  0.1163 -0.6799
  460MPD2    C3 6848   2.827   3.661  10.488  0.5276  0.9646  0.4333
  460MPD2    C4 6849   2.945   3.613  10.439  0.2380  0.0157 -0.2952
  460MPD2    C5 6850   3.060   3.591  10.515  0.8481 -0.4587 -0.4059
  460MPD2     H 6851   2.726   3.689  10.678  0.1910 -1.0473  0.2165
  460MPD2    H1 6852   2.954   3.601  10.331 -0.1341  0.0035 -0.3268
  460MPD2    H2 6853   3.141   3.613  10.717 -0.1804 -0.8982  1.6154
  460MPD2    H3 6854   3.152   3.561  10.467  1.0393  0.5354 -0.6752
  460MPD2     N 6855   2.716   3.694  10.412 -0.3663 -0.3057  0.1695
  460MPD2    H5 6856   2.635   3.728  10.464 -0.2049  0.1020  0.1504
  460MPD2    N1 6857   2.942   3.677  10.848 -0.1421  0.1874 -0.3872
  460MPD2    H7 6858   3.023   3.646  10.900 -1.5511  1.1692  2.3730
  461TMC3    C1 6859   2.604   3.763  10.220 -0.6213 -0.2768 -0.4703
  461TMC3    C2 6860   2.545   3.724  10.101  0.2001 -0.4461  0.3749
  461TMC3    C3 6861   2.448   3.802  10.041 -0.7490 -0.1108 -0.1692
  461TMC3    C4 6862   2.569   3.877  10.281  0.0964 -0.3914  0.4049
  461TMC3    C5 6863   2.481   3.963  10.213  1.0845 -0.0951 -0.0302
  461TMC3    C6 6864   2.414   3.913  10.104 -0.2836 -0.2766  0.0286
  461TMC3     C 6865   2.699   3.674  10.275  0.3827  0.0716 -0.4011
  461TMC3     O 6866   2.764   3.608  10.200 -0.3361 -0.2914  0.4327
  461TMC3     H 6867   2.586   3.640  10.047  2.4636 -0.5096  2.1815
  461TMC3    H1 6868   2.617   3.905  10.374  0.1879  1.0697 -0.0771
  461TMC3    H2 6869   2.344   3.975  10.049  1.1986  1.4825  0.1375
  461TMC3    C7 6870   2.410   4.073  10.276 -0.7140  1.1504  0.6211
  461TMC3    C8 6871   2.441   3.801   9.894 -0.3124 -0.2342  0.2534
  461TMC3    O1 6872   2.349   4.146  10.199 -0.5952  1.0677 -0.1321
  461TMC3    O2 6873   2.548   3.804   9.834  0.3685 -0.5017 -0.3619
  462TMC3    C1 6874   2.475   4.402  17.352  0.2169 -0.7113 -0.1497
  462TMC3    C2 6875   2.549   4.288  17.383 -0.0401 -0.5664 -0.1604
  462TMC3    C3 6876   2.475   4.195  17.458 -0.4662  0.2903  0.1338
  462TMC3    C4 6877   2.340   4.427  17.392  0.4715  0.5913  0.4810
  462TMC3    C5 6878   2.280   4.325  17.468  0.0790  0.1507 -0.5251
  462TMC3    C6 6879   2.348   4.214  17.509  0.0803 -0.4391 -0.8896
  462TMC3     C 6880   2.531   4.492  17.261  0.2981  0.6803  0.1633
  462TMC3     O 6881   2.636   4.458  17.203 -0.2096  0.7697 -0.2579
  462TMC3     H 6882   2.647   4.281  17.335 -0.7171  0.1123 -1.6464
  462TMC3    H1 6883   2.275   4.495  17.340  0.1016  1.4258  2.0295
  462TMC3    H2 6884   2.301   4.123  17.545 -1.6481  0.6895 -0.2862
  462TMC3    C7 6885   2.142   4.331  17.512  0.4527 -0.2637 -0.2273
  462TMC3    C8 6886   2.524   4.053  17.459 -0.5528 -0.6775  0.6753
  462TMC3    O1 6887   2.092   4.241  17.578  0.0685 -0.0996 -0.2906
  462TMC3    O2 6888   2.453   3.968  17.500  0.1024 -0.4760  0.4210
  463MPD2     C 6889   4.017   0.165   1.946  0.0191  0.0901 -0.5366
  463MPD2    C1 6890   3.958   0.115   1.832 -0.3056  1.0199  0.9203
  463MPD2    C2 6891   3.927   0.194   1.728  0.2407 -0.5037 -0.2950
  463MPD2    C3 6892   3.951   0.334   1.732 -0.3644 -0.2298  1.1131
  463MPD2    C4 6893   4.005   0.385   1.841  0.3287 -0.8293  0.2760
  463MPD2    C5 6894   4.038   0.304   1.943  0.2912 -0.3820 -0.1719
  463MPD2     H 6895   3.882   0.142   1.645 -3.3255 -0.8799  1.8692
  463MPD2    H1 6896   4.015   0.492   1.859  2.8182 -1.0494  0.1748
  463MPD2    H2 6897   4.055   0.114   2.033 -1.4931  0.8116  0.5563
  463MPD2    H3 6898   4.086   0.348   2.029  2.8432 -0.3371 -1.6032
  463MPD2     N 6899   3.941   0.422   1.624  0.2299 -0.1877  0.0377
  463MPD2    H5 6900   3.988   0.512   1.631 -0.8019  0.3841 -0.4470
  463MPD2    N1 6901   3.905   4.709   1.822  0.0093 -0.1570 -0.1956
  463MPD2    H7 6902   3.882   4.680   1.727  0.6047  0.3374 -0.4948
  464TMC3    C1 6903   3.816   4.503   1.868  0.1613 -0.1960 -0.0547
  464TMC3    C2 6904   3.735   4.529   1.755  0.0556 -0.5228  0.3667
  464TMC3    C3 6905   3.683   4.417   1.695  0.9814  0.2942  0.0150
  464TMC3    C4 6906   3.839   4.379   1.915  0.1895 -0.5820 -0.4488
  464TMC3    C5 6907   3.778   4.274   1.859  0.0125 -0.0583  0.7081
  464TMC3    C6 6908   3.698   4.292   1.745  0.0105 -0.0297 -0.4258
  464TMC3     C 6909   3.895   4.612   1.922 -0.1242  0.3008  0.6465
  464TMC3     O 6910   3.935   4.621   2.038 -0.2826 -0.5224 -0.1022
  464TMC3     H 6911   3.699   4.627   1.724 -1.7831 -1.2955  0.0359
  464TMC3    H1 6912   3.902   4.366   2.002  2.6860  1.0901 -1.9970
  464TMC3    H2 6913   3.660   4.217   1.677 -4.3466  1.6182  0.1701
  464TMC3    C7 6914   3.771   4.148   1.937 -0.0781 -0.0466 -0.2439
  464TMC3    C8 6915   3.587   4.436   1.592  0.3001  0.3611 -0.2076
  464TMC3    O1 6916   3.828   4.152   2.048  0.0857  0.6917 -0.6127
  464TMC3    O2 6917   3.617   4.535   1.527 -0.4942  0.1168 -0.2595
  465MPD2     C 6918   0.595   2.305  17.159 -0.0442  0.1959 -0.1311
  465MPD2    C1 6919   0.509   2.369  17.248 -0.2252 -0.1926 -0.2727
  465MPD2    C2 6920   0.428   2.471  17.202  0.7864  0.1307 -0.1177
  465MPD2    C3 6921   0.445   2.514  17.069  0.3332 -0.0890  0.1495
  465MPD2    C4 6922   0.547   2.465  16.986 -0.8520 -0.1505 -0.6708
  465MPD2    C5 6923   0.614   2.360  17.036  0.2363 -0.2776  0.8748
  465MPD2     H 6924   0.348   2.510  17.263  0.9199 -0.5087  0.4627
  465MPD2    H1 6925   0.563   2.510  16.888 -0.7160  0.6752 -0.2650
  465MPD2    H2 6926   0.644   2.214  17.191 -0.0630 -0.0049 -0.6648
  465MPD2    H3 6927   0.680   2.308  16.968  0.3867  3.1743 -1.5848
  465MPD2     N 6928   0.353   2.619  17.035  0.6387  0.3067  0.5947
  465MPD2    H5 6929   0.292   2.650  17.110 -2.3475 -0.8023 -1.4098
  465MPD2    N1 6930   0.477   2.311  17.373  0.2166  0.0904 -0.1618
  465MPD2    H7 6931   0.393   2.349  17.416  0.0961  0.7641 -0.9965
  466TMC3    C1 6932   0.007   2.831  16.963  0.4937  0.6965 -0.3692
  466TMC3    C2 6933   0.000   2.897  16.843  0.3242 -0.6638 -0.2711
  466TMC3    C3 6934   0.103   2.900  16.756  0.3862 -0.2173  0.0361
  466TMC3    C4 6935   0.128   2.772  17.000  0.5890 -0.3590 -0.2298
  466TMC3    C5 6936   0.237   2.785  16.915 -0.2265  0.2664 -0.6345
  466TMC3    C6 6937   0.226   2.850  16.798  0.2410  0.6501  0.2856
  466TMC3     C 6938   4.647   2.877  17.065  0.1996 -0.1748  0.8333
  466TMC3     O 6939   4.618   2.810  17.161 -0.9824  0.6688 -0.4750
  466TMC3     H 6940   4.626   2.928  16.805  0.3909 -0.5257 -0.3265
  466TMC3    H1 6941   0.122   2.728  17.099 -3.5086  0.3265 -0.1711
  466TMC3    H2 6942   0.309   2.854  16.727  1.1138 -3.6046  1.0752
  466TMC3    C7 6943   0.337   2.678  16.911 -0.2380  0.1641 -0.4991
  466TMC3    C8 6944   0.097   2.999  16.655 -0.6680 -0.3195  0.3619
  466TMC3    O1 6945   0.399   2.661  16.810  0.3468  0.4957 -0.3901
  466TMC3    O2 6946   0.142   2.978  16.544 -0.2600 -0.3303 -0.1535
  467TMC3    C1 6947   1.213   1.260  13.717 -0.3208 -0.0670  0.0654
  467TMC3    C2 6948   1.255   1.331  13.608  0.0577 -0.2446 -0.0147
  467TMC3    C3 6949   1.196   1.299  13.491 -0.4668 -0.5930  0.5472
  467TMC3    C4 6950   1.107   1.182  13.716 -0.0893  0.5609  0.6379
  467TMC3    C5 6951   1.041   1.162  13.598 -0.1579 -0.1928  0.7386
  467TMC3    C6 6952   1.087   1.214  13.482  0.2909  0.3316 -0.2379
  467TMC3     C 6953   1.302   1.263  13.825 -0.5064 -0.1820 -0.5906
  467TMC3     O 6954   1.408   1.314  13.799  0.6559  0.1998  0.5160
  467TMC3     H 6955   1.344   1.393  13.604 -1.0520  1.2182 -2.1156
  467TMC3    H1 6956   1.070   1.129  13.803 -0.3680 -0.9120 -0.3880
  467TMC3    H2 6957   1.044   1.202  13.384 -0.2911  3.5621 -0.3713
  467TMC3    C7 6958   0.900   1.125  13.596 -0.5980  0.3907  0.0337
  467TMC3    C8 6959   1.264   1.321  13.366 -0.7526  0.1028  0.4968
  467TMC3    O1 6960   0.865   1.081  13.488  0.4607  0.2872  0.1100
  467TMC3    O2 6961   1.271   1.220  13.300 -0.5372  0.0431 -0.5326
  468MPD2     C 6962   0.201   3.616  10.881  0.6033 -0.0995 -0.1266
  468MPD2    C1 6963   0.334   3.582  10.894  0.2386 -0.3806 -0.2500
  468MPD2    C2 6964   0.362   3.465  10.954 -0.0490  0.3253 -0.2690
  468MPD2    C3 6965   0.262   3.368  10.974 -0.4440  0.0723 -0.4337
  468MPD2    C4 6966   0.131   3.403  10.969  0.1688  0.4832  0.4723
  468MPD2    C5 6967   0.103   3.530  10.922 -0.1415 -0.1544  0.0301
  468MPD2     H 6968   0.464   3.434  10.967 -0.6751 -1.1429  1.1507
  468MPD2    H1 6969   0.045   3.349  11.005  2.3717 -0.6776  3.9368
  468MPD2    H2 6970   0.178   3.717  10.848  0.5275  0.2564  1.0100
  468MPD2    H3 6971   0.001   3.565  10.930  0.4754  1.4050  0.9775
  468MPD2     N 6972   0.287   3.235  11.013  0.0142 -0.3081  0.5628
  468MPD2    H5 6973   0.208   3.174  11.031  0.4413 -1.4197 -1.2482
  468MPD2    N1 6974   0.441   3.666  10.851 -0.7217 -1.1355  0.0650
  468MPD2    H7 6975   0.533   3.629  10.875  0.1080  1.4125  0.7966
  469TMC3    C1 6976   0.553   3.871  10.790 -0.4290  0.0469  0.8425
  469TMC3    C2 6977   0.616   3.886  10.906  0.3527  0.0134 -0.1469
  469TMC3    C3 6978   0.711   3.989  10.911  0.0058  0.3890 -0.4659
  469TMC3    C4 6979   0.567   3.958  10.683  0.6516 -0.1610 -1.0013
  469TMC3    C5 6980   0.674   4.044  10.682  0.8965 -0.7694  0.1389
  469TMC3    C6 6981   0.745   4.056  10.797  0.9341 -0.2005  0.5529
  469TMC3     C 6982   0.425   3.790  10.791 -0.9048  1.0386  0.5154
  469TMC3     O 6983   0.325   3.843  10.743 -0.5476 -0.4241 -0.6503
  469TMC3     H 6984   0.574   3.831  10.990  1.5358  2.2006  1.8746
  469TMC3    H1 6985   0.512   3.934  10.593  0.4851  0.2163 -1.0003
  469TMC3    H2 6986   0.817   4.136  10.809  1.2149 -0.2204 -1.0448
  469TMC3    C7 6987   0.653   4.155  10.597  0.0821  0.7420 -0.6253
  469TMC3    C8 6988   0.787   4.031  11.031  0.5218 -0.2756  0.0355
  469TMC3    O1 6989   0.536   4.186  10.570 -0.4073 -0.2866 -0.9305
  469TMC3    O2 6990   0.894   4.089  11.019  0.4041  0.4307  0.2390
  470TMC3    C1 6991   2.885   1.084   1.336 -0.8039  0.3220  0.7060
  470TMC3    C2 6992   2.881   1.216   1.300 -0.1396  0.0046  0.2257
  470TMC3    C3 6993   2.948   1.313   1.376  0.1417  0.3386  0.2126
  470TMC3    C4 6994   2.964   1.046   1.444 -0.8555 -0.1193 -0.1462
  470TMC3    C5 6995   3.025   1.143   1.522  0.2798  0.0627  0.5228
  470TMC3    C6 6996   3.012   1.280   1.494 -0.2647 -0.3641 -0.2155
  470TMC3     C 6997   2.837   0.981   1.244 -1.0045  0.5668  0.2337
  470TMC3     O 6998   2.872   0.865   1.265  0.0956  0.2672 -0.0095
  470TMC3     H 6999   2.822   1.246   1.214  2.4314 -0.1738 -1.5836
  470TMC3    H1 7000   2.978   0.939   1.455  0.1981  0.0946  0.5388
  470TMC3    H2 7001   3.067   1.349   1.557 -3.0338  1.6567 -0.0253
  470TMC3    C7 7002   3.095   1.107   1.645  0.7891 -0.7833 -0.1372
  470TMC3    C8 7003   2.935   1.451   1.331  0.0375  0.4218  0.2794
  470TMC3    O1 7004   3.083   1.188   1.738  0.3828  0.1192 -0.2363
  470TMC3    O2 7005   2.828   1.471   1.275 -0.1472  1.0853  0.7628
  471MPD2     C 7006   3.104   1.795  16.399  0.0675 -0.4637 -0.2025
  471MPD2    C1 7007   3.082   1.659  16.373  0.6246  0.0910 -0.8216
  471MPD2    C2 7008   3.050   1.578  16.478 -0.7932  0.7159 -0.4471
  471MPD2    C3 7009   3.069   1.620  16.611  0.2811  0.6487  0.5783
  471MPD2    C4 7010   3.075   1.755  16.631  0.0272  0.4670 -0.0136
  471MPD2    C5 7011   3.114   1.840  16.526  0.1269 -0.0333  0.4514
  471MPD2     H 7012   3.034   1.476  16.445 -0.5207 -0.0766  1.9109
  471MPD2    H1 7013   3.089   1.801  16.728 -0.8624  0.7740 -0.0232
  471MPD2    H2 7014   3.136   1.865  16.323  1.1737  1.4892  2.0791
  471MPD2    H3 7015   3.152   1.939  16.547 -0.7680  0.4611 -0.3095
  471MPD2     N 7016   3.080   1.528  16.727 -0.6240 -0.2559  0.0853
  471MPD2    H5 7017   3.111   1.572  16.813  1.3213 -1.3402 -0.0656
  471MPD2    N1 7018   3.068   1.604  16.242  0.5623 -0.6316 -0.2113
  471MPD2    H7 7019   3.029   1.510  16.244  0.2960 -0.5104  0.1841
  472TMC3    C1 7020   3.081   1.608  16.002  0.1566 -0.3304 -0.5240
  472TMC3    C2 7021   3.032   1.676  15.895  0.2117  0.1973 -0.2466
  472TMC3    C3 7022   3.024   1.619  15.769 -0.1209 -0.7228  0.2201
  472TMC3    C4 7023   3.104   1.473  15.991 -0.0984  0.0476  0.1117
  472TMC3    C5 7024   3.081   1.412  15.870 -0.4131 -0.1877  0.4963
  472TMC3    C6 7025   3.048   1.484  15.753  0.1220  0.4776 -0.0542
  472TMC3     C 7026   3.087   1.682  16.124  0.0972 -1.2001 -0.1442
  472TMC3     O 7027   3.087   1.801  16.113  0.2733  0.7312 -0.8688
  472TMC3     H 7028   2.989   1.775  15.907 -0.0020  0.2043 -1.0674
  472TMC3    H1 7029   3.133   1.418  16.080 -0.9398 -0.6094 -0.0295
  472TMC3    H2 7030   3.046   1.424  15.663  2.3335  0.0654  0.1693
  472TMC3    C7 7031   3.017   1.280  15.877  0.4198  0.0496 -0.5662
  472TMC3    C8 7032   2.889   1.648  15.706  0.7606  0.5384 -0.4903
  472TMC3    O1 7033   3.042   1.214  15.977  0.1407  0.1531  0.3996
  472TMC3    O2 7034   2.874   1.632  15.582  0.2100  0.2960 -0.0920
  473MPD2     C 7035   2.613   3.439  13.926  1.0210  0.2801 -0.2152
  473MPD2    C1 7036   2.547   3.550  13.882 -0.1465  0.2121 -0.1877
  473MPD2    C2 7037   2.561   3.671  13.946 -0.6627  0.4383  0.3796
  473MPD2    C3 7038   2.653   3.682  14.047  0.0549 -0.3217  0.0657
  473MPD2    C4 7039   2.712   3.570  14.091 -0.6916  0.2380  0.1180
  473MPD2    C5 7040   2.698   3.453  14.031 -0.3270  0.5465  0.4086
  473MPD2     H 7041   2.508   3.756  13.907 -1.4365  0.1364  0.7745
  473MPD2    H1 7042   2.774   3.577  14.180 -0.3962  0.7192 -0.1280
  473MPD2    H2 7043   2.603   3.336  13.893  1.3780  0.2046 -0.0911
  473MPD2    H3 7044   2.757   3.368  14.062 -1.1332 -0.6691 -1.3771
  473MPD2     N 7045   2.691   3.798  14.117 -0.0663 -0.0334  0.0965
  473MPD2    H5 7046   2.770   3.790  14.181 -0.0132 -2.0042 -0.2175
  473MPD2    N1 7047   2.483   3.547  13.753  0.4233  0.5486 -0.7792
  473MPD2    H7 7048   2.450   3.638  13.722  0.2746  1.8627  3.2210
  474TMC3    C1 7049   2.671   4.014  14.200 -0.4421  0.1678  0.2325
  474TMC3    C2 7050   2.583   4.121  14.193 -0.3689 -0.1790 -0.6728
  474TMC3    C3 7051   2.623   4.245  14.226  0.0592  0.3476 -0.0606
  474TMC3    C4 7052   2.807   4.034  14.217  0.3400 -0.1630  0.3863
  474TMC3    C5 7053   2.853   4.162  14.233 -0.6092 -0.3852 -0.3754
  474TMC3    C6 7054   2.762   4.266  14.245 -0.0842  0.5328 -0.3983
  474TMC3     C 7055   2.623   3.912  14.110  0.6772 -0.1991 -0.1469
  474TMC3     O 7056   2.519   3.928  14.049 -0.2803 -0.0050  0.3373
  474TMC3     H 7057   2.477   4.102  14.180 -0.0187 -4.0227  2.3344
  474TMC3    H1 7058   2.888   3.963  14.229 -0.0004 -0.2993  1.8689
  474TMC3    H2 7059   2.789   4.368  14.269 -3.5708  1.6941 -1.4453
  474TMC3    C7 7060   2.980   4.188  14.285  0.1032  0.5177  0.0001
  474TMC3    C8 7061   2.548   4.354  14.168  0.5114 -0.7438  0.2539
  474TMC3    O1 7062   3.068   4.198  14.199 -1.1932 -0.1442  0.1899
  474TMC3    O2 7063   2.483   4.337  14.070 -0.5161 -0.1266  0.4276
  475MPD2     C 7064   2.085   1.495   9.586 -0.8105 -0.0667  0.2343
  475MPD2    C1 7065   2.058   1.630   9.578 -0.0263  0.1708 -0.0695
  475MPD2    C2 7066   1.953   1.680   9.662 -0.8584  0.8230 -0.3035
  475MPD2    C3 7067   1.876   1.598   9.740 -0.1652  0.2416 -0.1598
  475MPD2    C4 7068   1.928   1.468   9.756  0.4077  0.1746  0.6295
  475MPD2    C5 7069   2.031   1.415   9.684  0.3511 -0.4000  0.1393
  475MPD2     H 7070   1.920   1.782   9.646 -1.2583  0.7153 -0.1597
  475MPD2    H1 7071   1.894   1.401   9.834 -1.1979  1.4595  1.0377
  475MPD2    H2 7072   2.168   1.442   9.542 -0.9879  0.7152 -1.0470
  475MPD2    H3 7073   2.073   1.318   9.705 -3.2885 -2.0427 -0.2957
  475MPD2     N 7074   1.756   1.645   9.801 -0.0600 -0.5941 -0.0565
  475MPD2    H5 7075   1.737   1.745   9.797 -2.4330 -0.9504  1.9491
  475MPD2    N1 7076   2.136   1.722   9.496  0.2616  0.1297  0.4500
  475MPD2    H7 7077   2.219   1.686   9.450  1.1040  1.1979  1.1362
  476TMC3    C1 7078   2.209   1.923   9.393 -0.1621 -0.0806 -0.6435
  476TMC3    C2 7079   2.151   2.033   9.342 -1.0280 -0.0858 -0.4660
  476TMC3    C3 7080   2.189   2.160   9.384  0.6334 -0.0493  0.5880
  476TMC3    C4 7081   2.322   1.930   9.467 -0.0511  0.0994 -0.4721
  476TMC3    C5 7082   2.349   2.054   9.515 -0.4762  0.6526 -0.1080
  476TMC3    C6 7083   2.286   2.171   9.483 -0.3072 -0.1003  0.6044
  476TMC3     C 7084   2.114   1.857   9.482  0.1222  0.9071 -0.6927
  476TMC3     O 7085   2.024   1.922   9.534 -0.1883  0.6607 -0.5055
  476TMC3     H 7086   2.055   2.015   9.295 -1.9126  0.2666  1.2027
  476TMC3    H1 7087   2.385   1.850   9.503  0.6858  0.6063 -0.6343
  476TMC3    H2 7088   2.303   2.260   9.542 -1.1067 -0.1893  0.9660
  476TMC3    C7 7089   2.462   2.058   9.607  0.3087  0.0325  0.3009
  476TMC3    C8 7090   2.085   2.262   9.402  0.0344  0.0920  0.6404
  476TMC3    O1 7091   2.550   1.980   9.586 -0.0409 -0.1289  0.4076
  476TMC3    O2 7092   2.127   2.372   9.430 -0.2122  0.2094 -0.1404
  477MPD2     C 7093   3.664   3.214  11.787  0.3216  0.2199 -0.7005
  477MPD2    C1 7094   3.553   3.138  11.823 -0.2680 -0.4362  0.7568
  477MPD2    C2 7095   3.559   3.039  11.918  0.2803  0.0245  0.3907
  477MPD2    C3 7096   3.673   3.036  12.001  0.2769 -0.2661  0.2988
  477MPD2    C4 7097   3.779   3.121  11.974 -0.2700 -0.4961  0.1859
  477MPD2    C5 7098   3.776   3.206  11.863  0.0804 -0.2519 -0.0770
  477MPD2     H 7099   3.482   2.963  11.919 -0.6401  0.9645  0.3402
  477MPD2    H1 7100   3.868   3.124  12.035 -0.5793 -1.7376  0.7002
  477MPD2    H2 7101   3.665   3.296  11.716  1.4411  0.6411 -0.1961
  477MPD2    H3 7102   3.852   3.283  11.858  0.1954 -0.5299 -2.3817
  477MPD2     N 7103   3.674   2.942  12.107 -0.0343  0.2584 -0.0930
  477MPD2    H5 7104   3.586   2.894  12.125  2.0505 -2.1797  3.4760
  477MPD2    N1 7105   3.434   3.166  11.746 -0.3676  0.2050 -0.0371
  477MPD2    H7 7106   3.442   3.219  11.659 -0.0177 -0.4473 -0.4050
  478TMC3    C1 7107   3.201   3.165  11.693  0.3768  0.5524  0.4182
  478TMC3    C2 7108   3.090   3.227  11.750 -0.1318  0.5998  0.4744
  478TMC3    C3 7109   3.013   3.316  11.683 -0.2449  0.3575  0.4413
  478TMC3    C4 7110   3.231   3.197  11.564 -0.0371  0.0878 -0.1249
  478TMC3    C5 7111   3.149   3.281  11.498  0.4891  0.1125 -0.0918
  478TMC3    C6 7112   3.039   3.341  11.554  0.1117 -0.3999  0.3037
  478TMC3     C 7113   3.310   3.130  11.788  0.5775 -0.1844 -0.2125
  478TMC3     O 7114   3.279   3.107  11.907 -0.2006  0.3303  0.1722
  478TMC3     H 7115   3.070   3.203  11.854 -2.1789  1.0453  0.1817
  478TMC3    H1 7116   3.304   3.141  11.508 -2.1027 -2.3067 -0.4085
  478TMC3    H2 7117   2.980   3.419  11.506  0.3566 -0.2543  0.2348
  478TMC3    C7 7118   3.180   3.305  11.359  0.1149  0.2993 -0.3534
  478TMC3    C8 7119   2.993   3.430  11.766  0.0389  0.1905 -0.2664
  478TMC3    O1 7120   3.295   3.307  11.317  0.4387 -0.3704  0.3898
  478TMC3    O2 7121   3.075   3.436  11.856 -0.2965 -0.0324  0.0758
  479MPD2     C 7122   2.025   0.382  14.945  0.2857  0.0309 -0.1565
  479MPD2    C1 7123   1.910   0.360  15.016 -1.1465 -0.6233  0.0932
  479MPD2    C2 7124   1.891   0.423  15.138  0.1178 -0.1806 -0.4869
  479MPD2    C3 7125   1.980   0.517  15.191 -0.3275  0.3641  0.2291
  479MPD2    C4 7126   2.087   0.540  15.114  0.1394 -0.3330 -0.1436
  479MPD2    C5 7127   2.110   0.478  14.993  0.3619  0.4762 -0.0842
  479MPD2     H 7128   1.808   0.402  15.204 -0.4330  0.8877 -0.8446
  479MPD2    H1 7129   2.164   0.609  15.148  0.1486 -0.9450  1.0677
  479MPD2    H2 7130   2.050   0.334  14.851 -3.2965 -1.4426 -0.3560
  479MPD2    H3 7131   2.195   0.502  14.930  0.5221  1.9924  0.7225
  479MPD2     N 7132   1.968   0.584  15.320 -0.5073 -0.7213  0.3643
  479MPD2    H5 7133   2.045   0.646  15.342  0.1160 -1.3364 -0.0655
  479MPD2    N1 7134   1.817   0.268  14.964 -0.0061 -0.0737  0.2580
  479MPD2    H7 7135   1.722   0.278  14.999  0.0388 -0.1083  0.3894
  480TMC3    C1 7136   1.878   0.686  15.762 -0.8472  0.7267 -0.0451
  480TMC3    C2 7137   1.932   0.810  15.755  0.5425 -0.2395 -0.8578
  480TMC3    C3 7138   1.983   0.846  15.631 -0.1595  0.5203  0.6967
  480TMC3    C4 7139   1.851   0.610  15.647  0.1718 -0.6820  0.3892
  480TMC3    C5 7140   1.884   0.662  15.525  0.1349  0.3923 -0.2721
  480TMC3    C6 7141   1.961   0.777  15.514  0.7698  0.1410 -0.6475
  480TMC3     C 7142   1.870   0.618  15.891  0.1953 -0.1068  0.4381
  480TMC3     O 7143   1.868   0.497  15.873 -0.1688  0.1556 -0.4485
  480TMC3     H 7144   1.967   0.864  15.843 -1.4439  0.3811 -0.4645
  480TMC3    H1 7145   1.818   0.507  15.653 -0.4557 -0.4658  0.6548
  480TMC3    H2 7146   2.016   0.792  15.422 -0.3372  0.4373 -1.2629
  480TMC3    C7 7147   1.874   0.564  15.417 -0.1769  0.3029  0.2531
  480TMC3    C8 7148   2.093   0.943  15.638 -1.1451 -0.3689  0.0318
  480TMC3    O1 7149   1.803   0.462  15.433 -0.0431  0.2733 -0.1051
  480TMC3    O2 7150   2.138   0.982  15.746 -0.2214  0.2914 -0.2521
  481MPD2     C 7151   3.978   0.785  14.086  0.3475  0.4009 -0.1892
  481MPD2    C1 7152   3.883   0.691  14.102 -0.2363 -0.8199 -0.3864
  481MPD2    C2 7153   3.875   0.625  14.224  0.1091  0.1461  0.1990
  481MPD2    C3 7154   3.978   0.633  14.317 -0.1313 -0.8659 -0.0593
  481MPD2    C4 7155   4.074   0.727  14.296  0.8885 -0.0946 -0.4662
  481MPD2    C5 7156   4.061   0.810  14.189 -0.1283  0.0626  0.0903
  481MPD2     H 7157   3.792   0.557  14.245  0.4056 -1.4430 -3.6157
  481MPD2    H1 7158   4.155   0.738  14.367  1.0432 -1.6395 -0.4150
  481MPD2    H2 7159   3.984   0.850  14.000  1.2086  0.6725  0.0782
  481MPD2    H3 7160   4.133   0.890  14.171 -0.7332  0.5106 -0.3517
  481MPD2     N 7161   3.975   0.569  14.442 -0.1639  0.5841  0.2544
  481MPD2    H5 7162   4.061   0.587  14.492  0.2226  0.5949 -0.4023
  481MPD2    N1 7163   3.777   0.688  14.008  0.0440  0.2092  0.5324
  481MPD2    H7 7164   3.769   0.762  13.939  0.3303  0.0192  0.2967
  482TMC3    C1 7165   3.562   0.647  13.928  0.7151  0.1495 -0.0912
  482TMC3    C2 7166   3.437   0.605  13.970  0.4593 -0.6217 -0.8187
  482TMC3    C3 7167   3.333   0.653  13.895  0.2292  0.3820  0.6956
  482TMC3    C4 7168   3.584   0.734  13.819  0.2669 -0.1362 -0.6895
  482TMC3    C5 7169   3.470   0.775  13.755 -0.9676  0.5296  0.2765
  482TMC3    C6 7170   3.347   0.732  13.785  0.1123 -0.2292  0.1184
  482TMC3     C 7171   3.680   0.596  13.993 -0.0298  0.1600  0.0167
  482TMC3     O 7172   3.664   0.491  14.055 -0.4928 -0.2280  0.5025
  482TMC3     H 7173   3.421   0.547  14.060 -0.8893  0.6819 -0.2205
  482TMC3    H1 7174   3.685   0.738  13.780  0.2240 -2.0518 -0.9891
  482TMC3    H2 7175   3.265   0.765  13.724 -0.1195 -1.9719 -0.5278
  482TMC3    C7 7176   3.491   0.822  13.620  0.1367 -0.3402  0.2842
  482TMC3    C8 7177   3.209   0.573  13.896  0.9605 -0.1833  0.4164
  482TMC3    O1 7178   3.405   0.788  13.534 -0.1577  0.0057 -0.2649
  482TMC3    O2 7179   3.208   0.483  13.980  0.7575  0.4351 -0.4625
  483TMC3    C1 7180   1.947   0.009   0.781  0.5523  0.9943  0.3673
  483TMC3    C2 7181   1.856   4.635   0.741  0.2377 -0.7138 -0.8349
  483TMC3    C3 7182   1.806   4.638   0.618 -0.6849 -0.4244  0.0242
  483TMC3    C4 7183   1.979   0.113   0.695 -0.4169 -0.0095  0.4069
  483TMC3    C5 7184   1.929   0.114   0.567  0.3424 -1.2392 -0.4510
  483TMC3    C6 7185   1.841   0.016   0.529 -0.0198  0.3889 -0.0918
  483TMC3     C 7186   1.975   0.035   0.920  0.1311  0.9841  0.3944
  483TMC3     O 7187   1.914   0.131   0.965  0.2496 -0.0280 -0.6605
  483TMC3     H 7188   1.823   4.562   0.814  2.7154  0.1167  1.1378
  483TMC3    H1 7189   2.069   0.169   0.717  0.7051 -2.2505  1.4983
  483TMC3    H2 7190   1.818   0.005   0.424 -1.4085 -0.3112  0.2786
  483TMC3    C7 7191   1.979   0.217   0.474 -1.0764 -0.8094 -0.2819
  483TMC3    C8 7192   1.721   4.534   0.573 -0.2339  0.7317  0.3612
  483TMC3    O1 7193   1.955   0.187   0.356 -0.0973 -0.1046  0.4217
  483TMC3    O2 7194   1.677   4.543   0.460  0.1394 -0.4069 -0.0283
  484MPD2     C 7195   4.441   2.388  12.485 -0.6204 -0.0480  0.2469
  484MPD2    C1 7196   4.516   2.310  12.568 -0.1301  0.3197  0.3120
  484MPD2    C2 7197   4.639   2.350  12.595 -0.4857 -0.3297  0.9910
  484MPD2    C3 7198   4.701   2.459  12.536 -0.1312 -0.0902  0.3375
  484MPD2    C4 7199   4.625   2.531  12.450  0.3000 -0.0450  0.0606
  484MPD2    C5 7200   4.498   2.491  12.415 -0.9333 -0.2759  0.1812
  484MPD2     H 7201   4.703   2.290  12.660 -1.1125 -0.3644  1.5806
  484MPD2    H1 7202   4.665   2.612  12.389 -0.1319  1.4956  1.8218
  484MPD2    H2 7203   4.335   2.380  12.460 -1.1246 -2.3819  3.1694
  484MPD2    H3 7204   4.438   2.524  12.330  0.0717 -1.8944 -1.1673
  484MPD2     N 7205   0.117   2.495  12.556  0.0088  0.7155 -0.1775
  484MPD2    H5 7206   0.159   2.565  12.497  0.4920  0.1803 -0.4641
  484MPD2    N1 7207   4.454   2.200  12.630 -0.2020  0.2987 -0.0492
  484MPD2    H7 7208   4.354   2.195  12.614 -0.1241  1.3002 -0.7773
  485TMC3    C1 7209   0.336   2.481  12.646 -0.0420 -0.0864  0.1120
  485TMC3    C2 7210   0.405   2.482  12.771 -0.1349  0.5687  0.3433
  485TMC3    C3 7211   0.540   2.488  12.765 -0.7762  0.1400  0.3970
  485TMC3    C4 7212   0.400   2.492  12.531  0.1913 -0.6671 -0.1536
  485TMC3    C5 7213   0.534   2.510  12.528 -0.4301 -0.5527  0.6133
  485TMC3    C6 7214   0.601   2.511  12.645  0.4777 -0.3090 -0.3879
  485TMC3     C 7215   0.198   2.448  12.658 -0.2288  0.1417  0.3596
  485TMC3     O 7216   0.169   2.384  12.760  0.0586  0.1565 -0.0422
  485TMC3     H 7217   0.353   2.478  12.866  1.8492  0.9295  1.4491
  485TMC3    H1 7218   0.337   2.515  12.446 -0.9511 -0.7006  0.6808
  485TMC3    H2 7219   0.708   2.529  12.644  0.2820  0.9127  0.2865
  485TMC3    C7 7220   0.610   2.428  12.427 -0.2763 -0.0667 -0.0608
  485TMC3    C8 7221   0.598   2.368  12.831 -0.3959  0.4762 -0.2511
  485TMC3    O1 7222   0.727   2.398  12.457  0.6085  0.3505  0.2747
  485TMC3    O2 7223   0.721   2.362  12.831 -0.0851 -0.5637 -0.1368
  486MPD2     C 7224   1.594   0.816  12.871 -0.1457 -0.9129  0.5103
  486MPD2    C1 7225   1.503   0.834  12.769 -0.1230  0.3834 -0.2948
  486MPD2    C2 7226   1.474   0.960  12.716  0.1160 -0.2160  0.2464
  486MPD2    C3 7227   1.541   1.067  12.781 -0.0812 -0.7591 -0.4059
  486MPD2    C4 7228   1.623   1.047  12.880  0.0727 -0.2290 -0.3718
  486MPD2    C5 7229   1.636   0.925  12.941  0.4233  0.5253 -0.4259
  486MPD2     H 7230   1.401   0.971  12.636  2.2768 -1.6425 -1.9190
  486MPD2    H1 7231   1.678   1.129  12.925  1.3473 -0.5541 -1.3366
  486MPD2    H2 7232   1.623   0.719  12.909 -1.2199 -1.9768 -1.4054
  486MPD2    H3 7233   1.715   0.920  13.014 -1.4755 -0.0707  1.6058
  486MPD2     N 7234   1.513   1.199  12.733 -0.6781 -0.0450  0.2662
  486MPD2    H5 7235   1.441   1.216  12.664  1.3339 -0.0497 -1.8618
  486MPD2    N1 7236   1.453   0.709  12.726 -0.2026 -0.5089 -0.6256
  486MPD2    H7 7237   1.497   0.624  12.758  2.2796  0.2936 -1.8926
  487TMC3    C1 7238   1.358   0.555  12.588 -0.2336  0.0484  0.3238
  487TMC3    C2 7239   1.229   0.499  12.576  0.5039 -0.0981  0.6533
  487TMC3    C3 7240   1.214   0.369  12.613 -0.3855 -0.0090  0.1888
  487TMC3    C4 7241   1.469   0.489  12.634  0.2368  0.0246 -0.1148
  487TMC3    C5 7242   1.449   0.362  12.661  0.2493 -0.4107 -0.4604
  487TMC3    C6 7243   1.328   0.296  12.638  0.4387  0.2907 -0.8134
  487TMC3     C 7244   1.368   0.692  12.625  0.5109 -1.2515  0.7853
  487TMC3     O 7245   1.289   0.767  12.573  0.0723 -0.1651 -0.2470
  487TMC3     H 7246   1.136   0.551  12.554 -0.2849 -1.1816  1.4665
  487TMC3    H1 7247   1.569   0.530  12.622  0.0295 -0.1974 -2.5179
  487TMC3    H2 7248   1.315   0.197  12.679 -1.3710  0.9315  0.1766
  487TMC3    C7 7249   1.514   0.338  12.790  0.2915 -0.4784  0.6088
  487TMC3    C8 7250   1.094   0.309  12.664  0.4699  0.3780 -0.4138
  487TMC3    O1 7251   1.553   0.442  12.848  0.3262 -0.4270 -0.1425
  487TMC3    O2 7252   1.021   0.234  12.598  0.4943  0.0603  0.2570
  488MPD2     C 7253   2.061   2.818  16.375 -0.2261  0.2183  0.3527
  488MPD2    C1 7254   2.067   2.947  16.421  0.0810 -0.0480  0.0380
  488MPD2    C2 7255   1.995   2.990  16.527 -0.4450  0.6530  0.7449
  488MPD2    C3 7256   1.925   2.892  16.597 -1.0918  0.3433 -0.0579
  488MPD2    C4 7257   1.919   2.754  16.553 -1.2469  0.0733 -0.7527
  488MPD2    C5 7258   1.988   2.725  16.444 -0.4062 -0.2656  0.1398
  488MPD2     H 7259   1.977   3.091  16.560 -0.3032  0.9890 -0.2004
  488MPD2    H1 7260   1.881   2.668  16.608 -0.4486 -0.3113 -0.7965
  488MPD2    H2 7261   2.103   2.781  16.282 -1.3311  0.5473 -0.2803
  488MPD2    H3 7262   1.981   2.625  16.403  2.5936 -0.5590  0.3234
  488MPD2     N 7263   1.853   2.928  16.711  0.1859  0.0670 -0.0680
  488MPD2    H5 7264   1.848   3.026  16.740  1.2353 -0.3732  1.6213
  488MPD2    N1 7265   2.133   3.048  16.342  0.1236  0.1254  0.1570
  488MPD2    H7 7266   2.125   3.144  16.377  0.2872  0.3228 -0.3540
  489TMC3    C1 7267   1.715   2.923  16.898 -0.5486  1.0283 -0.2189
  489TMC3    C2 7268   1.687   3.061  16.875 -0.3698 -0.6288  0.7726
  489TMC3    C3 7269   1.656   3.140  16.978  0.2590 -0.1274 -0.0502
  489TMC3    C4 7270   1.722   2.870  17.024  0.6651  0.3938  0.4002
  489TMC3    C5 7271   1.690   2.959  17.121 -0.4256  0.0341  0.2813
  489TMC3    C6 7272   1.669   3.096  17.105  0.4608  0.6340  0.2511
  489TMC3     C 7273   1.780   2.847  16.794 -0.0006  0.0921  0.2175
  489TMC3     O 7274   1.779   2.725  16.803 -0.1675  0.1483 -0.0526
  489TMC3     H 7275   1.666   3.097  16.775  1.5959  0.3658  0.7126
  489TMC3    H1 7276   1.760   2.771  17.047  0.0806  0.0962  0.0839
  489TMC3    H2 7277   1.660   3.166  17.187 -1.2356 -1.0404  1.4949
  489TMC3    C7 7278   1.681   2.907  17.256  1.1997 -0.4696 -0.0747
  489TMC3    C8 7279   1.720   3.269  16.952  0.0954  0.6495 -0.1187
  489TMC3    O1 7280   1.775   2.834  17.302 -0.0135 -0.1706 -0.6825
  489TMC3    O2 7281   1.789   3.272  16.852 -0.4187 -0.1195 -0.1618
  490MPD2     C 7282   3.611   2.166  17.151  0.3142  0.8866  0.5308
  490MPD2    C1 7283   3.543   2.281  17.147 -0.3309 -0.6898 -0.2143
  490MPD2    C2 7284   3.592   2.393  17.223 -0.3563  0.2984 -0.3983
  490MPD2    C3 7285   3.702   2.384  17.307 -0.7275 -0.0702 -0.3219
  490MPD2    C4 7286   3.761   2.260  17.317 -0.5703  0.0952 -0.1296
  490MPD2    C5 7287   3.715   2.152  17.241 -0.3052 -0.6121 -0.1004
  490MPD2     H 7288   3.532   2.483  17.223  1.3008  1.3967 -1.5897
  490MPD2    H1 7289   3.824   2.238  17.403 -1.2424 -0.1852  0.2899
  490MPD2    H2 7290   3.580   2.074  17.102  1.2156  0.9615 -0.1872
  490MPD2    H3 7291   3.760   2.056  17.264 -1.8900 -1.7067 -1.5696
  490MPD2     N 7292   3.736   2.488  17.397 -0.1954  0.2007  0.4649
  490MPD2    H5 7293   3.803   2.464  17.470  0.7304 -0.8871 -0.7456
  490MPD2    N1 7294   3.423   2.292  17.074 -0.2761  0.1294 -0.5031
  490MPD2    H7 7295   3.367   2.373  17.096  2.3494  1.1817  2.1980
  491TMC3    C1 7296   3.226   2.205  16.988 -0.9094  0.5966 -0.0898
  491TMC3    C2 7297   3.179   2.164  17.106  0.3907  0.1826 -0.3910
  491TMC3    C3 7298   3.063   2.105  17.118 -0.3992  0.7191 -0.7547
  491TMC3    C4 7299   3.165   2.168  16.869  0.7103  0.2807 -0.6715
  491TMC3    C5 7300   3.047   2.099  16.889  0.0047 -0.6815 -0.2205
  491TMC3    C6 7301   2.994   2.067  17.010 -0.0132 -0.1748 -0.2837
  491TMC3     C 7302   3.371   2.195  16.987 -0.1346 -0.3378  0.1208
  491TMC3     O 7303   3.431   2.107  16.924 -0.7518  0.0349  0.0583
  491TMC3     H 7304   3.244   2.178  17.192 -0.0610 -0.9241  0.1288
  491TMC3    H1 7305   3.202   2.203  16.773 -2.1493 -0.6867 -2.1230
  491TMC3    H2 7306   2.892   2.038  17.031 -0.2578  0.6201 -0.3699
  491TMC3    C7 7307   2.961   2.075  16.768 -0.7107  0.7614 -0.5726
  491TMC3    C8 7308   2.976   2.138  17.231  0.0666 -0.2753 -0.3927
  491TMC3    O1 7309   2.876   1.987  16.788 -0.6640 -0.1239  0.2982
  491TMC3    O2 7310   2.889   2.053  17.247 -0.0473  0.0004 -0.6476
  492MPD2     C 7311   3.267   1.841  11.266  0.4302  0.1448  0.2621
  492MPD2    C1 7312   3.175   1.805  11.162  0.2925 -0.2924  0.4237
  492MPD2    C2 7313   3.056   1.747  11.193 -0.9308 -0.0792 -0.1517
  492MPD2    C3 7314   3.029   1.703  11.329  0.2245  0.3994  0.3690
  492MPD2    C4 7315   3.123   1.729  11.425  0.7780 -0.2551  0.4963
  492MPD2    C5 7316   3.235   1.797  11.390 -0.9672 -0.1288  0.0559
  492MPD2     H 7317   2.980   1.733  11.117  1.0254  0.9811 -2.2894
  492MPD2    H1 7318   3.099   1.709  11.528  1.0751 -1.0107  0.4213
  492MPD2    H2 7319   3.364   1.884  11.246  0.9585 -1.0777  0.2497
  492MPD2    H3 7320   3.301   1.820  11.473  0.0757  1.7566 -1.3041
  492MPD2     N 7321   2.909   1.641  11.370 -0.5831  0.5345 -0.3621
  492MPD2    H5 7322   2.884   1.641  11.468  1.4357  0.6958  0.1571
  492MPD2    N1 7323   3.209   1.843  11.031 -0.1555  0.2705 -0.7968
  492MPD2    H7 7324   3.300   1.885  11.019  0.2793  0.7509  4.0537
  493TMC3    C1 7325   3.213   1.860  10.811  0.5286  0.8051  0.2107
  493TMC3    C2 7326   3.226   1.993  10.808 -0.1639 -0.4316 -0.2133
  493TMC3    C3 7327   3.200   2.061  10.686  0.3280 -0.0165  0.0285
  493TMC3    C4 7328   3.170   1.792  10.697 -0.5267 -0.3976 -0.1353
  493TMC3    C5 7329   3.132   1.858  10.586 -0.4722 -0.0132  0.1704
  493TMC3    C6 7330   3.143   1.994  10.577  0.0141  0.0200  0.3888
  493TMC3     C 7331   3.154   1.792  10.922  0.2725 -0.4536 -0.3831
  493TMC3     O 7332   3.067   1.708  10.908 -0.5711 -0.4841 -1.0658
  493TMC3     H 7333   3.259   2.052  10.893 -0.0837  2.2939 -2.1078
  493TMC3    H1 7334   3.172   1.684  10.706  0.3620 -0.4741 -1.2596
  493TMC3    H2 7335   3.093   2.047  10.496 -1.6988 -0.5017  1.0984
  493TMC3    C7 7336   3.010   1.811  10.520  0.0777 -0.3574 -0.5100
  493TMC3    C8 7337   3.152   2.198  10.709 -0.3550  0.4590 -0.4662
  493TMC3    O1 7338   2.992   1.846  10.403 -0.0187  0.2193 -0.1909
  493TMC3    O2 7339   3.113   2.236  10.820 -0.3794 -0.0665  0.5673
  494TMC3    C1 7340   3.764   4.673   0.487 -0.0336 -0.0193 -0.3962
  494TMC3    C2 7341   3.815   4.550   0.521 -0.2382 -0.1886 -0.3405
  494TMC3    C3 7342   3.880   4.481   0.426 -0.5799  0.7449 -0.6546
  494TMC3    C4 7343   3.787   0.010   0.364  0.0459  0.0828  0.1318
  494TMC3    C5 7344   3.839   4.650   0.268 -0.3375  0.2995  0.6739
  494TMC3    C6 7345   3.883   4.527   0.297  0.3570  0.3924  0.1822
  494TMC3     C 7346   3.692   0.029   0.589 -0.3534  0.6104 -0.0928
  494TMC3     O 7347   3.641   4.691   0.682  0.2673 -0.2069  0.1305
  494TMC3     H 7348   3.799   4.508   0.619 -1.2830  1.5901  0.2507
  494TMC3    H1 7349   3.756   0.112   0.344  1.0628  0.1707 -0.9813
  494TMC3    H2 7350   3.918   4.463   0.216  1.0805 -0.6620  1.3313
  494TMC3    C7 7351   3.871   4.706   0.141 -0.2648  0.3268 -0.5202
  494TMC3    C8 7352   3.906   4.343   0.455  0.0210  0.1127 -0.4812
  494TMC3    O1 7353   3.902   4.624   0.057 -0.3785  0.2257  0.4477
  494TMC3    O2 7354   4.009   4.304   0.410  0.3428 -0.0414  0.4134
  495TMC3    C1 7355   2.423   1.071  14.761 -0.0094  0.7756  0.4738
  495TMC3    C2 7356   2.329   1.092  14.666 -1.2907  0.0679 -0.5645
  495TMC3    C3 7357   2.221   1.162  14.706 -0.4880  0.5653  0.3042
  495TMC3    C4 7358   2.417   1.113  14.893 -0.0333 -0.1640  0.2556
  495TMC3    C5 7359   2.309   1.193  14.923  0.2695 -0.4823 -0.0378
  495TMC3    C6 7360   2.206   1.194  14.832  0.6294 -0.0867  0.3061
  495TMC3     C 7361   2.493   0.953  14.737  0.5396  0.5051 -0.1498
  495TMC3     O 7362   2.608   0.943  14.779  0.1495 -0.2244 -0.6541
  495TMC3     H 7363   2.354   1.060  14.565  2.9201  2.7251 -0.3719
  495TMC3    H1 7364   2.499   1.080  14.956  0.6760  1.3102  0.0940
  495TMC3    H2 7365   2.110   1.241  14.851 -0.4004 -2.3080  0.6457
  495TMC3    C7 7366   2.259   1.189  15.062  0.4629 -0.7157  0.5846
  495TMC3    C8 7367   2.101   1.156  14.627  0.2052 -0.2289 -0.2866
  495TMC3    O1 7368   2.144   1.186  15.075 -0.0817  0.2545  0.6695
  495TMC3    O2 7369   1.990   1.160  14.678 -0.1622 -0.6083  0.2824
  496MPD2     C 7370   4.395   1.005  15.189 -0.2856  0.0186  0.1949
  496MPD2    C1 7371   4.424   0.895  15.265  0.5544 -1.1608  0.0754
  496MPD2    C2 7372   4.416   0.907  15.403 -0.0369  0.3862 -0.7378
  496MPD2    C3 7373   4.393   1.032  15.461 -0.2312 -0.5530  0.2708
  496MPD2    C4 7374   4.360   1.136  15.381  0.1894 -0.9019 -0.3835
  496MPD2    C5 7375   4.358   1.124  15.246 -0.7183  0.2311 -0.0305
  496MPD2     H 7376   4.430   0.823  15.470  1.0694  0.6999 -0.5833
  496MPD2    H1 7377   4.327   1.234  15.413  2.2671 -1.0081  2.1054
  496MPD2    H2 7378   4.393   0.999  15.081  1.1731 -0.3593  0.1871
  496MPD2    H3 7379   4.336   1.208  15.181  0.2256 -0.6366 -1.4791
  496MPD2     N 7380   4.412   1.048  15.604 -0.8046  0.6224 -0.3206
  496MPD2    H5 7381   4.404   1.138  15.649  3.0102 -1.1284  3.8294
  496MPD2    N1 7382   4.460   0.775  15.200 -0.4606 -0.4218 -0.3937
  496MPD2    H7 7383   4.461   0.769  15.099 -2.2781 -1.3241 -0.3560
  497TMC3    C1 7384   4.514   1.000  15.812  0.0458  0.2341 -0.6179
  497TMC3    C2 7385   4.581   0.903  15.886 -0.1571  0.3264 -0.1510
  497TMC3    C3 7386   4.658   0.945  15.993  0.9847  0.0894  0.3446
  497TMC3    C4 7387   4.526   1.135  15.839  0.4898  0.9518 -0.4619
  497TMC3    C5 7388   4.604   1.168  15.947  0.0411 -0.4781 -0.0924
  497TMC3    C6 7389   4.667   1.077  16.026  0.1986 -0.0057 -0.1267
  497TMC3     C 7390   4.455   0.948  15.691 -0.1128  0.0899  0.0140
  497TMC3     O 7391   4.436   0.826  15.683 -0.0690 -0.4193  0.5413
  497TMC3     H 7392   4.573   0.801  15.850 -0.3240  1.1678 -2.5075
  497TMC3    H1 7393   4.471   1.214  15.790 -0.7442  1.2001  1.3323
  497TMC3    H2 7394   4.695   1.108  16.126 -1.9516  1.7257 -0.0375
  497TMC3    C7 7395   4.597   1.306  15.993 -0.0111 -0.0448 -0.3418
  497TMC3    C8 7396   0.024   0.852  16.054 -0.5179 -0.6262  0.9033
  497TMC3    O1 7397   4.493   1.362  15.976 -0.1552  0.0292  0.1189
  497TMC3    O2 7398   0.012   0.734  16.017 -0.0968 -0.2264  0.0014
  498MPD2     C 7399   4.579   1.800   9.342 -0.0901 -0.1016 -0.8149
  498MPD2    C1 7400   4.668   1.755   9.432 -0.6641  0.2484  0.2915
  498MPD2    C2 7401   4.623   1.655   9.519  0.3092 -0.0515  0.3154
  498MPD2    C3 7402   4.489   1.607   9.522 -0.1165  0.0114 -1.0765
  498MPD2    C4 7403   4.406   1.664   9.431  0.0768  0.2255 -0.8045
  498MPD2    C5 7404   4.451   1.753   9.337  0.1970 -0.3433 -0.1457
  498MPD2     H 7405   4.703   1.620   9.583 -0.0763 -1.1750  0.1938
  498MPD2    H1 7406   4.304   1.632   9.414  0.1735 -0.3217 -0.3487
  498MPD2    H2 7407   4.609   1.881   9.276 -0.7778  1.5580  0.8849
  498MPD2    H3 7408   4.389   1.784   9.253 -0.5992 -0.7293  0.3121
  498MPD2     N 7409   4.456   1.507   9.604 -0.0193 -0.6188  0.1406
  498MPD2    H5 7410   4.528   1.481   9.671  1.9175 -1.7066 -2.4065
  498MPD2    N1 7411   0.082   1.791   9.445  0.6821  0.0023  0.3400
  498MPD2    H7 7412   0.147   1.742   9.506  0.3901 -0.2664  0.4413
  499TMC3    C1 7413   0.271   1.924   9.418  0.0673  0.2923  0.0255
  499TMC3    C2 7414   0.357   1.812   9.427 -0.9143 -0.2528  0.1575
  499TMC3    C3 7415   0.485   1.828   9.480 -0.4149  0.3418 -0.0675
  499TMC3    C4 7416   0.309   2.047   9.447 -0.0938 -0.0162  0.5637
  499TMC3    C5 7417   0.440   2.057   9.487 -0.0835 -0.1383  0.2934
  499TMC3    C6 7418   0.532   1.950   9.510 -0.1613  0.0465  0.3098
  499TMC3     C 7419   0.133   1.907   9.385  0.1458 -0.1108 -0.9083
  499TMC3     O 7420   0.078   2.000   9.323 -0.1891  0.2138 -0.0788
  499TMC3     H 7421   0.311   1.719   9.398  1.6897 -0.7765 -2.3453
  499TMC3    H1 7422   0.247   2.136   9.451  0.9572  0.6217  2.4264
  499TMC3    H2 7423   0.633   1.976   9.540 -0.7568  2.3101  0.3142
  499TMC3    C7 7424   0.485   2.194   9.516 -0.4252 -0.1278 -0.2913
  499TMC3    C8 7425   0.577   1.720   9.510 -0.0663  0.0106 -0.2308
  499TMC3    O1 7426   0.416   2.286   9.474  0.1260  0.5690 -0.2381
  499TMC3    O2 7427   0.682   1.746   9.568  0.1404 -0.1045  0.5745
  500MPD2     C 7428   2.058   3.317  10.612 -0.7656 -0.0984  0.3742
  500MPD2    C1 7429   2.052   3.188  10.560  0.0560  0.0705  0.1013
  500MPD2    C2 7430   1.955   3.151  10.475 -0.1095  0.5710 -0.2541
  500MPD2    C3 7431   1.855   3.243  10.440 -0.2568  0.3424 -0.3700
  500MPD2    C4 7432   1.874   3.373  10.473  0.6132 -0.5956 -0.3560
  500MPD2    C5 7433   1.968   3.404  10.571  0.1732  0.2796  0.2189
  500MPD2     H 7434   1.952   3.049  10.439 -0.3544  0.2375  0.7266
  500MPD2    H1 7435   1.801   3.445  10.439  0.4913 -0.0831  0.9865
  500MPD2    H2 7436   2.136   3.347  10.682 -0.9015 -1.4381  1.0997
  500MPD2    H3 7437   1.967   3.504  10.613  0.8646  0.3082  0.1725
  500MPD2     N 7438   1.749   3.202  10.356 -0.1306 -0.1917  0.0580
  500MPD2    H5 7439   1.679   3.272  10.338  0.0406  0.2434  1.0854
  500MPD2    N1 7440   2.141   3.083  10.599 -0.3316 -0.3703 -0.1864
  500MPD2    H7 7441   2.113   2.986  10.587 -2.2508  0.0751  0.8140
  501TMC3    C1 7442   2.345   2.980  10.636  0.1605  0.2455  0.2333
  501TMC3    C2 7443   2.346   2.921  10.510  0.1027 -0.0179  0.6410
  501TMC3    C3 7444   2.462   2.871  10.472 -0.2269 -0.1371 -0.2962
  501TMC3    C4 7445   2.451   2.977  10.722 -0.6158  0.0426 -0.2621
  501TMC3    C5 7446   2.565   2.930  10.674 -0.2585 -0.2662  0.6613
  501TMC3    C6 7447   2.577   2.870  10.548 -0.2145 -0.0576 -0.9362
  501TMC3     C 7448   2.269   3.097  10.644 -0.2119 -0.3231  0.6516
  501TMC3     O 7449   2.321   3.200  10.696  0.0821 -0.5912  0.4656
  501TMC3     H 7450   2.266   2.923  10.436 -0.2054 -2.8481  0.8943
  501TMC3    H1 7451   2.434   3.004  10.826 -0.2977  0.7606 -0.3989
  501TMC3    H2 7452   2.662   2.812  10.511 -0.1441  0.0950 -1.0142
  501TMC3    C7 7453   2.677   2.907  10.769 -0.3003  0.0461 -0.2405
  501TMC3    C8 7454   2.484   2.834  10.331 -0.2871 -0.3688  0.3296
  501TMC3    O1 7455   2.776   2.871  10.706  0.1102 -0.2315  0.4403
  501TMC3    O2 7456   2.533   2.726  10.306  0.0618 -0.7096 -0.2928
  502TMC3    C1 7457   1.613   1.441  14.870  0.4988 -0.5465  0.5302
  502TMC3    C2 7458   1.668   1.563  14.827 -0.3859  0.1245 -0.2382
  502TMC3    C3 7459   1.608   1.682  14.860  0.7008  0.0749  0.2331
  502TMC3    C4 7460   1.497   1.442  14.946  0.2942 -0.3415 -0.1481
  502TMC3    C5 7461   1.430   1.562  14.958 -0.1607 -0.5515 -0.2327
  502TMC3    C6 7462   1.485   1.684  14.922 -0.0127 -0.4292 -0.2740
  502TMC3     C 7463   1.717   1.393  14.954 -0.4855  0.9937 -0.0878
  502TMC3     O 7464   1.821   1.347  14.909 -0.0853 -0.1049  0.1128
  502TMC3     H 7465   1.773   1.562  14.800 -0.1866 -0.8635  0.5376
  502TMC3    H1 7466   1.444   1.348  14.955  0.9457 -0.9036 -2.0933
  502TMC3    H2 7467   1.442   1.779  14.952  0.6596  0.2845 -1.5178
  502TMC3    C7 7468   1.360   1.568  15.080  0.0481  0.2328  0.8928
  502TMC3    C8 7469   1.701   1.794  14.887 -0.0127  0.0781  0.1930
  502TMC3    O1 7470   1.400   1.495  15.168 -0.2221  0.0578 -0.0099
  502TMC3    O2 7471   1.667   1.909  14.874 -0.3315 -0.6072 -0.5365
  503MPD2     C 7472   4.323   3.486  16.725 -0.8095  0.2147 -0.1324
  503MPD2    C1 7473   4.211   3.462  16.795  0.7476  0.5527 -0.1054
  503MPD2    C2 7474   4.181   3.333  16.822  0.5466 -0.2701 -0.0336
  503MPD2    C3 7475   4.250   3.226  16.768  0.1091  0.1940 -0.1453
  503MPD2    C4 7476   4.351   3.250  16.673 -0.2297 -0.0887 -0.1318
  503MPD2    C5 7477   4.386   3.382  16.657 -0.5943  0.0414 -0.2075
  503MPD2     H 7478   4.097   3.314  16.888  0.4068 -0.9737 -0.4113
  503MPD2    H1 7479   4.418   3.173  16.636  1.5640  0.6914  1.4797
  503MPD2    H2 7480   4.359   3.587  16.704  0.2132 -0.0280  0.4267
  503MPD2    H3 7481   4.474   3.399  16.597  0.0328 -2.5409 -0.0217
  503MPD2     N 7482   4.238   3.097  16.826 -0.1955 -0.3831  0.5862
  503MPD2    H5 7483   4.169   3.074  16.898  0.0332 -1.5678  0.4170
  503MPD2    N1 7484   4.124   3.567  16.844 -0.8800 -0.0175  0.5911
  503MPD2    H7 7485   4.041   3.538  16.895  1.1423 -0.4542  3.6577
  504TMC3    C1 7486   4.276   2.882  16.903 -0.8392  0.3423  0.2565
  504TMC3    C2 7487   4.173   2.916  16.990 -0.2435 -0.2175  0.1605
  504TMC3    C3 7488   4.140   2.826  17.080  0.3488 -0.0587 -0.2149
  504TMC3    C4 7489   4.353   2.769  16.914  0.1445  0.2333 -0.7255
  504TMC3    C5 7490   4.308   2.671  16.994  0.2198  0.2418 -0.1144
  504TMC3    C6 7491   4.209   2.705  17.084 -0.1808 -0.4741 -0.0876
  504TMC3     C 7492   4.312   2.984  16.803 -0.2422 -0.6555  0.8076
  504TMC3     O 7493   4.415   2.968  16.738  0.0830  0.7148  0.6360
  504TMC3     H 7494   4.114   3.007  16.989 -0.4675 -0.3532  0.8561
  504TMC3    H1 7495   4.445   2.765  16.858  0.6665  1.2939  0.0586
  504TMC3    H2 7496   4.188   2.627  17.156 -1.1230 -0.8879 -0.8096
  504TMC3    C7 7497   4.398   2.572  17.042  0.7920  0.6530  0.0089
  504TMC3    C8 7498   4.050   2.864  17.192  0.2707  0.1502  0.2186
  504TMC3    O1 7499   4.392   2.536  17.160 -0.2141  0.2317 -0.2246
  504TMC3    O2 7500   3.992   2.973  17.178 -0.4156 -0.7511 -0.2547
  505MPD2     C 7501   4.011   0.898  10.897  0.5865 -1.1957 -0.2242
  505MPD2    C1 7502   4.107   0.818  10.829  0.4601  0.7257 -0.3426
  505MPD2    C2 7503   4.238   0.851  10.853 -0.0236  0.1063 -0.3897
  505MPD2    C3 7504   4.274   0.970  10.922 -0.0290  0.1769  0.3619
  505MPD2    C4 7505   4.175   1.043  10.980  0.0252 -0.4014  0.2848
  505MPD2    C5 7506   4.044   1.006  10.981 -0.2236  0.1392  0.1339
  505MPD2     H 7507   4.316   0.800  10.798 -1.1049 -2.9358  0.9212
  505MPD2    H1 7508   4.191   1.142  11.021 -1.1456 -0.6097  1.2135
  505MPD2    H2 7509   3.907   0.871  10.881  0.4664 -0.4844 -0.6305
  505MPD2    H3 7510   3.972   1.071  11.028  0.5877 -0.2152  1.8343
  505MPD2     N 7511   4.413   1.004  10.929 -0.4012  0.7661  0.2078
  505MPD2    H5 7512   4.476   0.939  10.882 -0.4508 -1.1308  2.7542
  505MPD2    N1 7513   4.062   0.707  10.746  0.6300  0.1289  0.0410
  505MPD2    H7 7514   3.961   0.710  10.732  0.5902 -2.0795 -0.0826
  506TMC3    C1 7515   4.067   0.516  10.588 -0.2915  0.5589 -0.1673
  506TMC3    C2 7516   3.952   0.540  10.522 -0.6268 -0.7677  0.3138
  506TMC3    C3 7517   3.946   0.523  10.390  0.4634 -0.2766 -0.2718
  506TMC3    C4 7518   4.167   0.441  10.528 -0.0342 -0.3640  0.2578
  506TMC3    C5 7519   4.161   0.425  10.395 -0.1480 -0.1096 -0.4523
  506TMC3    C6 7520   4.053   0.462  10.328 -0.8819  0.0601  0.1159
  506TMC3     C 7521   4.130   0.613  10.676  0.8320 -0.1691 -0.5051
  506TMC3     O 7522   4.254   0.612  10.668  0.2411  0.6108  0.4017
  506TMC3     H 7523   3.880   0.603  10.572 -1.1179  0.3878 -1.8418
  506TMC3    H1 7524   4.251   0.406  10.587 -0.3694 -1.0577  0.3136
  506TMC3    H2 7525   4.057   0.447  10.220  2.3882 -0.2044  0.2687
  506TMC3    C7 7526   4.288   0.459  10.329  0.1040  0.0785  0.2430
  506TMC3    C8 7527   3.859   0.612  10.315 -0.1910  0.3380  0.1322
  506TMC3    O1 7528   4.288   0.471  10.208  1.0595  0.4744  0.5990
  506TMC3    O2 7529   3.738   0.597  10.317  0.0746  0.2787  0.1756
  507TMC3    C1 7530   0.218   2.402  14.825 -0.1093  0.3887  0.1984
  507TMC3    C2 7531   0.239   2.351  14.699 -0.2593 -0.9277  0.0463
  507TMC3    C3 7532   0.368   2.369  14.651  0.7063 -0.3105 -0.3166
  507TMC3    C4 7533   0.316   2.461  14.899  0.3552  0.1299 -0.2365
  507TMC3    C5 7534   0.440   2.466  14.856  0.3129  0.0562  0.4768
  507TMC3    C6 7535   0.471   2.418  14.730 -0.6345  0.1552 -0.2186
  507TMC3     C 7536   0.082   2.402  14.864  0.1386 -0.2677  0.5687
  507TMC3     O 7537   4.716   2.393  14.778 -0.8851 -0.1036 -0.0986
  507TMC3     H 7538   0.161   2.298  14.645 -0.6140 -1.0641  0.6863
  507TMC3    H1 7539   0.282   2.509  14.990  0.5254 -0.5436  0.1836
  507TMC3    H2 7540   0.574   2.432  14.698  0.0858 -1.5504  1.3187
  507TMC3    C7 7541   0.487   2.600  14.843  0.4758  0.2101 -0.3580
  507TMC3    C8 7542   0.355   2.450  14.537  0.1897 -0.2514 -0.1023
  507TMC3    O1 7543   0.407   2.663  14.777  0.3361 -0.6444 -0.3015
  507TMC3    O2 7544   0.462   2.486  14.493 -0.2383 -0.2804  0.2317
  508MPD2     C 7545   1.328   4.395  15.495 -0.7574  0.4257  0.0820
  508MPD2    C1 7546   1.229   4.487  15.512  0.0655 -0.3322  0.8837
  508MPD2    C2 7547   1.176   4.562  15.407  0.7343 -1.0729  0.3871
  508MPD2    C3 7548   1.242   4.543  15.281  0.5337 -0.2183  0.0528
  508MPD2    C4 7549   1.340   4.446  15.266  0.1914  0.0015  0.1058
  508MPD2    C5 7550   1.381   4.369  15.369 -0.7707  0.4877  0.2897
  508MPD2     H 7551   1.113   4.649  15.418  0.3989 -1.2925  0.1951
  508MPD2    H1 7552   1.402   4.440  15.177 -0.0525  0.1029 -0.0702
  508MPD2    H2 7553   1.373   4.339  15.576  1.3914 -0.7088 -1.8890
  508MPD2    H3 7554   1.470   4.308  15.358 -1.6829 -0.4985 -1.5611
  508MPD2     N 7555   1.216   4.633  15.179  0.2746 -0.0175  0.7846
  508MPD2    H5 7556   1.131   4.688  15.184 -0.1947 -0.6937  0.3102
  508MPD2    N1 7557   1.198   4.514  15.644  0.3352  1.2767 -0.1830
  508MPD2    H7 7558   1.242   4.458  15.717  2.5217 -0.9646 -3.2517
  509TMC3    C1 7559   1.130   0.256  15.034 -0.1440  0.4780 -0.2761
  509TMC3    C2 7560   1.230   0.343  15.058  0.2443 -0.2933 -0.2138
  509TMC3    C3 7561   1.355   0.289  15.080  0.8260  0.1336  0.4079
  509TMC3    C4 7562   1.156   0.124  15.029  0.1950 -0.0784  0.1118
  509TMC3    C5 7563   1.279   0.073  15.041 -0.7511 -0.0218  0.1964
  509TMC3    C6 7564   1.383   0.155  15.073 -0.3316 -0.6000  0.0673
  509TMC3     C 7565   0.989   0.303  15.032 -0.8546  0.4885  0.3613
  509TMC3     O 7566   0.901   0.241  14.971  0.5288 -0.3681  0.5433
  509TMC3     H 7567   1.216   0.451  15.057  0.3913 -0.2794 -0.7929
  509TMC3    H1 7568   1.067   0.067  15.004  1.4401 -1.8449 -0.3160
  509TMC3    H2 7569   1.487   0.130  15.085 -0.2948 -0.9310 -0.9253
  509TMC3    C7 7570   1.297   4.655  15.076  0.0475  0.4580  0.2391
  509TMC3    C8 7571   1.465   0.380  15.105 -0.2176  0.2892 -0.1979
  509TMC3    O1 7572   1.407   4.611  15.055  0.0774 -0.8746 -0.5050
  509TMC3    O2 7573   1.574   0.357  15.054  0.8121  0.1918 -0.7206
  510MPD2     C 7574   3.707   1.826  14.448  0.0697  0.3017  0.1042
  510MPD2    C1 7575   3.774   1.773  14.549  0.2029  0.2647 -0.1608
  510MPD2    C2 7576   3.913   1.769  14.552  0.6489 -0.0921 -0.3128
  510MPD2    C3 7577   3.992   1.815  14.448  0.4736 -0.1616 -0.6675
  510MPD2    C4 7578   3.918   1.876  14.349  0.0020  0.1592  0.0571
  510MPD2    C5 7579   3.782   1.884  14.355 -0.0181  0.7258  0.1292
  510MPD2     H 7580   3.960   1.719  14.637 -0.5639 -0.1788  0.3001
  510MPD2    H1 7581   3.969   1.932  14.272 -0.2765 -0.4434 -0.5630
  510MPD2    H2 7582   3.601   1.846  14.443  0.3467  1.3938 -1.4642
  510MPD2    H3 7583   3.753   1.950  14.274  1.8260  2.0458  0.5369
  510MPD2     N 7584   4.127   1.783  14.439  0.1143  0.2207  0.7910
  510MPD2    H5 7585   4.161   1.715  14.507  1.5731  0.6784  0.5148
  510MPD2    N1 7586   3.698   1.703  14.649 -0.2013 -0.3109 -0.2695
  510MPD2    H7 7587   3.610   1.661  14.620 -1.7001  0.7305  2.7937
  511TMC3    C1 7588   3.678   1.582  14.857  0.2378  0.4304  0.2822
  511TMC3    C2 7589   3.681   1.604  14.994 -0.9171 -0.3669  0.5214
  511TMC3    C3 7590   3.640   1.507  15.077 -0.1832 -0.5108 -0.2649
  511TMC3    C4 7591   3.639   1.466  14.794  0.3140  0.0611  0.3159
  511TMC3    C5 7592   3.593   1.369  14.880 -0.5302  0.4328  0.6205
  511TMC3    C6 7593   3.591   1.384  15.018  0.3545 -0.1707  0.9903
  511TMC3     C 7594   3.743   1.688  14.775  0.2438  0.1962 -0.1606
  511TMC3     O 7595   3.837   1.751  14.821 -0.5957 -0.1674 -0.5473
  511TMC3     H 7596   3.720   1.697  15.034 -0.0835 -0.2682 -0.5245
  511TMC3    H1 7597   3.639   1.452  14.687 -2.4235  1.2983  0.1624
  511TMC3    H2 7598   3.575   1.299  15.084 -3.3632 -1.0842 -1.0679
  511TMC3    C7 7599   3.552   1.244  14.808 -0.4747 -0.2234 -0.4517
  511TMC3    C8 7600   3.578   1.539  15.206 -0.7307  0.1649  0.3791
  511TMC3    O1 7601   3.589   1.231  14.692  0.6926 -0.6486  0.2426
  511TMC3    O2 7602   3.542   1.655  15.225 -0.2579 -0.3337  0.3367
  512TMC3    C1 7603   1.955   0.549  13.116 -0.5043 -0.1977 -0.5212
  512TMC3    C2 7604   2.074   0.545  13.179 -0.4562 -0.3959  0.0311
  512TMC3    C3 7605   2.151   0.429  13.175  0.5549 -0.1529  0.1363
  512TMC3    C4 7606   1.905   0.442  13.051 -0.2560  0.4840 -0.4574
  512TMC3    C5 7607   1.988   0.333  13.043 -0.0189 -0.6110  0.4046
  512TMC3    C6 7608   2.112   0.316  13.101 -0.4925  0.6175 -0.5920
  512TMC3     C 7609   1.860   0.656  13.134 -0.9577 -0.2869  0.3525
  512TMC3     O 7610   1.741   0.632  13.154 -0.1201  0.0148 -0.5530
  512TMC3     H 7611   2.099   0.628  13.243  0.4639 -0.4971 -0.2025
  512TMC3    H1 7612   1.803   0.438  13.015 -0.3235  1.1327 -0.3406
  512TMC3    H2 7613   2.179   0.230  13.108 -0.2470  1.0665  2.3991
  512TMC3    C7 7614   1.927   0.220  12.970  0.1064  0.0187 -0.1004
  512TMC3    C8 7615   2.260   0.416  13.264 -0.1298  0.5853 -1.1409
  512TMC3    O1 7616   1.851   0.251  12.883 -0.8133  0.0119 -0.4675
  512TMC3    O2 7617   2.298   0.303  13.292 -0.0070  0.0201 -0.9006
  513MPD2     C 7618   3.861   0.494  13.463 -0.0223 -0.0734 -0.2649
  513MPD2    C1 7619   3.951   0.520  13.357 -0.3942 -0.4859  0.3519
  513MPD2    C2 7620   4.033   0.634  13.372  0.7964  0.5703  0.1989
  513MPD2    C3 7621   4.035   0.707  13.485  0.0262 -0.3323 -0.8694
  513MPD2    C4 7622   3.954   0.668  13.588  0.5886  0.1660 -0.0912
  513MPD2    C5 7623   3.870   0.566  13.582 -0.1543  0.4351  0.6673
  513MPD2     H 7624   4.099   0.657  13.289  1.9988 -2.9250  0.1859
  513MPD2    H1 7625   3.962   0.719  13.683  0.4356  1.7484 -0.9287
  513MPD2    H2 7626   3.789   0.413  13.452 -1.1589  0.9610 -0.5562
  513MPD2    H3 7627   3.821   0.539  13.674 -0.2334 -0.2812  0.4131
  513MPD2     N 7628   4.117   0.825  13.493 -0.4203 -0.2927  0.5356
  513MPD2    H5 7629   4.177   0.843  13.412 -1.8945  2.3383  0.0428
  513MPD2    N1 7630   3.964   0.429  13.257  0.5401 -0.2600  0.1995
  513MPD2    H7 7631   3.907   0.346  13.272 -1.2368  0.7595 -0.8700
  514TMC3    C1 7632   4.080   0.320  13.083  0.1125  0.0866 -0.8655
  514TMC3    C2 7633   4.052   0.317  12.954  0.3859 -0.0456 -0.1761
  514TMC3    C3 7634   4.133   0.258  12.863 -0.2720  0.0594  0.3255
  514TMC3    C4 7635   4.195   0.267  13.137 -0.4209 -0.8075  0.3210
  514TMC3    C5 7636   4.290   0.220  13.048 -1.0154 -0.9449  0.8716
  514TMC3    C6 7637   4.252   0.201  12.915  0.0057  0.3839 -0.3298
  514TMC3     C 7638   4.043   0.441  13.149 -1.4569 -0.0232 -0.4039
  514TMC3     O 7639   4.103   0.539  13.108  0.1346  0.0722  0.3093
  514TMC3     H 7640   3.961   0.366  12.919  0.8735  1.1807  0.2755
  514TMC3    H1 7641   4.215   0.301  13.238 -0.6850  1.7622 -0.4874
  514TMC3    H2 7642   4.329   0.160  12.851  1.1320  0.2118  1.1506
  514TMC3    C7 7643   4.419   0.278  13.053  0.3924  0.4114 -0.9896
  514TMC3    C8 7644   4.175   0.338  12.745  0.1495  0.2774  0.0118
  514TMC3    O1 7645   4.520   0.215  13.033  0.1461  0.1888  0.2171
  514TMC3    O2 7646   4.293   0.352  12.731 -0.1728 -0.5611 -0.1359
  515MPD2     C 7647   2.566   2.754  15.197 -0.5379  0.2071  0.1522
  515MPD2    C1 7648   2.640   2.719  15.083 -0.4477  0.6083 -0.5534
  515MPD2    C2 7649   2.742   2.806  15.042  0.1528  0.1453 -0.3266
  515MPD2    C3 7650   2.781   2.909  15.124  0.1233  0.0706  0.3764
  515MPD2    C4 7651   2.710   2.943  15.239 -0.5157  0.1550  0.5637
  515MPD2    C5 7652   2.599   2.867  15.271 -0.2837  0.1225 -0.0100
  515MPD2     H 7653   2.788   2.790  14.945  2.0947 -1.9843  0.9299
  515MPD2    H1 7654   2.744   3.022  15.304  1.4171 -0.5423  0.4143
  515MPD2    H2 7655   2.480   2.696  15.227 -0.7894  0.9255  0.8165
  515MPD2    H3 7656   2.543   2.899  15.358 -2.0273  1.6343 -1.6701
  515MPD2     N 7657   2.895   2.985  15.105  0.6236  0.3640  1.0957
  515MPD2    H5 7658   2.904   3.070  15.161  0.4900  0.7784  0.4902
  515MPD2    N1 7659   2.607   2.601  15.010 -0.4512 -0.9401 -0.1284
  515MPD2    H7 7660   2.649   2.586  14.919  1.4882  3.7529  0.0240
  516TMC3    C1 7661   2.536   2.377  14.971  0.5237 -0.5632  0.1136
  516TMC3    C2 7662   2.481   2.380  14.845  0.1397  0.0215 -0.3808
  516TMC3    C3 7663   2.426   2.259  14.801 -0.3081  0.1007  0.5117
  516TMC3    C4 7664   2.545   2.262  15.045 -0.3882  0.6533 -0.1469
  516TMC3    C5 7665   2.494   2.149  15.003 -0.4923 -0.0154 -0.0189
  516TMC3    C6 7666   2.441   2.137  14.876  1.5020 -0.4916 -0.6789
  516TMC3     C 7667   2.524   2.497  15.052 -0.2210  0.4388 -0.1161
  516TMC3     O 7668   2.478   2.472  15.162 -0.6393  0.0081 -0.0691
  516TMC3     H 7669   2.497   2.467  14.781 -1.9640  0.3863 -0.4196
  516TMC3    H1 7670   2.584   2.267  15.146  0.4842  2.3769 -0.5666
  516TMC3    H2 7671   2.396   2.042  14.852  2.1138 -0.5923 -1.4414
  516TMC3    C7 7672   2.494   2.039  15.097  0.5165  0.5643  0.4715
  516TMC3    C8 7673   2.388   2.235  14.664 -0.2140 -0.3115 -0.3072
  516TMC3    O1 7674   2.525   2.063  15.212  0.1422 -0.1652 -0.2089
  516TMC3    O2 7675   2.349   2.124  14.634  0.4377 -0.0409 -0.7241
  517MPD2     C 7676   1.631   3.336  17.482 -0.8023 -0.6399  0.2713
  517MPD2    C1 7677   1.699   3.457  17.460 -0.0714 -0.4757  0.0346
  517MPD2    C2 7678   1.634   3.571  17.500 -0.6171  0.0768  0.0336
  517MPD2    C3 7679   1.511   3.573  17.559  0.1477 -0.4647  0.1622
  517MPD2    C4 7680   1.442   3.451  17.576 -0.4594  0.9077  0.1255
  517MPD2    C5 7681   1.501   3.336  17.529  0.0093  0.1809 -0.2901
  517MPD2     H 7682   1.697   3.659  17.485 -0.6342  0.1587  0.4414
  517MPD2    H1 7683   1.345   3.446  17.625 -0.2559  0.4353  0.4836
  517MPD2    H2 7684   1.669   3.238  17.457  0.1169 -0.1738 -0.1698
  517MPD2    H3 7685   1.448   3.242  17.541  0.3197  0.2039  1.2372
  517MPD2     N 7686   1.442   3.692  17.601 -0.5478  0.1744 -0.4123
  517MPD2    H5 7687   1.363   3.686  17.664 -1.5852 -0.8921 -1.8075
  517MPD2    N1 7688   1.820   3.463  17.395 -0.5754 -0.3330 -0.1517
  517MPD2    H7 7689   1.868   3.553  17.385 -1.8143  0.6598  3.1029
  518TMC3    C1 7690   2.020   3.394  17.285  0.5562  0.3550 -0.4391
  518TMC3    C2 7691   2.070   3.332  17.175 -0.0336  0.5857 -0.2742
  518TMC3    C3 7692   2.202   3.349  17.150 -0.3466  0.7277 -0.3508
  518TMC3    C4 7693   2.093   3.465  17.372  0.4909  0.5753 -0.0229
  518TMC3    C5 7694   2.228   3.472  17.348 -0.4854  0.1769  0.0408
  518TMC3    C6 7695   2.284   3.418  17.235 -0.1288  0.3402  1.0458
  518TMC3     C 7696   1.884   3.357  17.333 -0.3506  0.2484  0.0450
  518TMC3     O 7697   1.852   3.243  17.304  0.0270  0.2809  0.4238
  518TMC3     H 7698   2.011   3.272  17.107 -0.4301 -1.0614  1.5126
  518TMC3    H1 7699   2.055   3.509  17.464  1.3941 -0.4926  0.8713
  518TMC3    H2 7700   2.388   3.439  17.212  0.5686 -1.6193  2.3513
  518TMC3    C7 7701   2.319   3.498  17.466 -0.6825  0.2128  0.3544
  518TMC3    C8 7702   2.264   3.272  17.045  0.1914 -0.8061  0.9657
  518TMC3    O1 7703   2.279   3.574  17.552  0.5056 -0.2020 -0.1877
  518TMC3    O2 7704   2.223   3.157  17.034 -0.7277 -0.0562 -0.2629
  519MPD2     C 7705   4.400   2.979  14.071 -0.5287 -0.4290 -0.3648
  519MPD2    C1 7706   4.319   2.939  13.970 -0.5928 -0.0262 -0.7434
  519MPD2    C2 7707   4.339   2.809  13.923 -0.2019 -0.0880  0.2937
  519MPD2    C3 7708   4.437   2.729  13.974  0.4950 -0.2821 -0.0807
  519MPD2    C4 7709   4.518   2.771  14.074 -0.2867 -0.2868  0.4753
  519MPD2    C5 7710   4.499   2.898  14.120 -0.2173  0.0068 -0.0171
  519MPD2     H 7711   4.270   2.782  13.843  1.5495 -0.9758 -0.9046
  519MPD2    H1 7712   4.590   2.707  14.122  1.0120  1.0305  0.2925
  519MPD2    H2 7713   4.393   3.078  14.115 -0.9815 -0.8929  0.5931
  519MPD2    H3 7714   4.567   2.935  14.197  1.3797  2.0713 -2.4244
  519MPD2     N 7715   4.446   2.585  13.941  0.0932  0.1680 -0.5566
  519MPD2    H5 7716   4.519   2.539  13.994  0.7781  2.5472  0.5448
  519MPD2    N1 7717   4.212   3.026  13.935 -0.9547 -0.0824 -0.3972
  519MPD2    H7 7718   4.181   3.086  14.010 -1.5686  0.2653 -0.9310
  520TMC3    C1 7719   4.370   2.390  13.839  0.3104  0.8633  0.4187
  520TMC3    C2 7720   4.289   2.329  13.750 -0.1605  0.3799 -0.1119
  520TMC3    C3 7721   4.245   2.203  13.775  0.1033  0.0327  0.3901
  520TMC3    C4 7722   4.417   2.316  13.944  0.4749 -0.7660 -0.4259
  520TMC3    C5 7723   4.375   2.186  13.961  0.0906  0.4366  0.2193
  520TMC3    C6 7724   4.288   2.126  13.879  0.5812 -0.0769 -0.3386
  520TMC3     C 7725   4.371   2.529  13.834  0.2875  0.2744 -0.8152
  520TMC3     O 7726   4.291   2.586  13.758 -0.5201 -0.5827  0.4175
  520TMC3     H 7727   4.259   2.387  13.664  0.6558  0.2186 -0.5105
  520TMC3    H1 7728   4.486   2.354  14.020 -0.5747  0.1054  0.0918
  520TMC3    H2 7729   4.272   2.020  13.896 -1.3147  0.1705 -0.5794
  520TMC3    C7 7730   4.479   2.101  14.010 -0.3223  0.7965  0.3069
  520TMC3    C8 7731   4.142   2.162  13.676  0.2930  0.3052  0.8583
  520TMC3    O1 7732   4.457   2.024  14.104  0.1691  0.3337 -0.0979
  520TMC3    O2 7733   4.139   2.206  13.562  0.2268  0.0372  0.4739
  521MPD2     C 7734   0.475   1.212  17.066  0.7252 -0.0575 -0.0943
  521MPD2    C1 7735   0.403   1.090  17.064  1.1479  0.1267 -0.6090
  521MPD2    C2 7736   0.460   0.982  17.003  0.0657  0.1081  0.2536
  521MPD2    C3 7737   0.588   0.995  16.940  0.4309  0.0299  0.6387
  521MPD2    C4 7738   0.656   1.111  16.957  0.0449 -0.6595  0.7949
  521MPD2    C5 7739   0.606   1.218  17.030 -0.1561  0.1456 -0.5969
  521MPD2     H 7740   0.410   0.887  16.996 -1.3190  0.7637  1.2105
  521MPD2    H1 7741   0.757   1.128  16.924 -0.7032  1.2307 -0.5411
  521MPD2    H2 7742   0.435   1.298  17.118  1.8230 -2.0172  3.9953
  521MPD2    H3 7743   0.663   1.307  17.054 -1.8020  1.3918 -1.3195
  521MPD2     N 7744   0.644   0.878  16.874  0.4860 -0.5115 -0.0116
  521MPD2    H5 7745   0.581   0.802  16.852 -0.7831  0.0075  1.8780
  521MPD2    N1 7746   0.269   1.084  17.114 -0.5152 -0.1784  0.6029
  521MPD2    H7 7747   0.223   1.171  17.139  2.8024  0.9974  2.4610
  522TMC3    C1 7748   0.801   0.733  16.770 -0.4534 -0.0236  0.4054
  522TMC3    C2 7749   0.915   0.725  16.689  0.6944  0.0077 -0.0261
  522TMC3    C3 7750   0.947   0.603  16.634 -0.2496  0.0966 -0.2235
  522TMC3    C4 7751   0.713   0.630  16.781 -0.3574  0.7690  0.5822
  522TMC3    C5 7752   0.752   0.513  16.721  0.2120  0.4547 -0.4854
  522TMC3    C6 7753   0.868   0.491  16.650  0.4302 -0.5996  0.2871
  522TMC3     C 7754   0.770   0.870  16.823  0.5355 -0.3865  0.3809
  522TMC3     O 7755   0.856   0.955  16.831 -0.5422  0.1711  0.2667
  522TMC3     H 7756   0.981   0.809  16.670  1.4102 -0.9115 -1.5917
  522TMC3    H1 7757   0.625   0.640  16.843 -1.1649  0.9444 -0.5798
  522TMC3    H2 7758   0.885   0.394  16.606  0.8526 -0.3887 -0.0192
  522TMC3    C7 7759   0.652   0.408  16.723  0.7806  0.2308 -0.3340
  522TMC3    C8 7760   1.036   0.598  16.516  0.8811  0.6557  0.4808
  522TMC3    O1 7761   0.690   0.292  16.746 -0.2317 -0.0738 -0.2024
  522TMC3    O2 7762   1.116   0.689  16.504  0.7495 -0.4773 -0.1662
  523MPD2     C 7763   2.474   4.221  10.595 -0.1783 -0.3970  0.1016
  523MPD2    C1 7764   2.419   4.218  10.469  0.8273 -0.1520  0.1826
  523MPD2    C2 7765   2.346   4.324  10.425 -0.0983 -0.1578  0.7632
  523MPD2    C3 7766   2.318   4.428  10.514  0.2329  0.0580  0.0363
  523MPD2    C4 7767   2.365   4.434  10.642 -0.2648 -0.4456  0.0116
  523MPD2    C5 7768   2.438   4.326  10.681  0.7046 -0.5650 -0.2410
  523MPD2     H 7769   2.300   4.319  10.327  2.4826  2.0405 -0.5748
  523MPD2    H1 7770   2.336   4.508  10.715  0.3494  0.3603 -0.5475
  523MPD2    H2 7771   2.523   4.140  10.648 -1.3922 -1.9647 -1.1787
  523MPD2    H3 7772   2.462   4.309  10.785  0.2064 -2.8327 -0.4904
  523MPD2     N 7773   2.230   4.535  10.475 -0.6668 -0.4246 -0.4820
  523MPD2    H5 7774   2.209   4.603  10.548  2.6195  1.0318 -0.9314
  523MPD2    N1 7775   2.449   4.100  10.400  0.8747  0.0976 -1.0056
  523MPD2    H7 7776   2.497   4.032  10.459 -2.3865  0.0940  1.6314
  524TMC3    C1 7777   2.150   4.707  10.331  0.4599  0.0176  0.0693
  524TMC3    C2 7778   2.089   0.008  10.212 -0.0728 -0.2005  0.4020
  524TMC3    C3 7779   2.090   0.134  10.157 -0.2548  0.0319  0.3212
  524TMC3    C4 7780   2.172   0.088  10.414 -0.3151  0.4979 -0.0568
  524TMC3    C5 7781   2.160   0.214  10.370 -0.1942 -0.0966  0.0152
  524TMC3    C6 7782   2.129   0.241  10.235 -0.6132 -1.1862  0.8890
  524TMC3     C 7783   2.188   4.573  10.347  0.3194 -0.6677 -0.3455
  524TMC3     O 7784   2.185   4.503  10.248 -0.2786  0.1937  0.5238
  524TMC3     H 7785   2.072   4.652  10.139 -0.5861 -0.1454  0.4662
  524TMC3    H1 7786   2.211   0.076  10.514 -2.1486 -3.0947  0.2457
  524TMC3    H2 7787   2.118   0.346  10.210 -0.8102 -1.2696  0.6264
  524TMC3    C7 7788   2.210   0.316  10.455 -0.6616 -0.2357  0.2137
  524TMC3    C8 7789   2.103   0.149  10.013 -0.4964 -0.4135  0.1792
  524TMC3    O1 7790   2.190   0.304  10.572  0.8544 -0.4492 -0.6588
  524TMC3    O2 7791   2.076   0.049   9.951  0.0526  0.0715 -0.0725
  525MPD2     C 7792   0.765   1.619  14.385  0.3927 -0.4350  0.1758
  525MPD2    C1 7793   0.873   1.623  14.472  0.4172  0.0928  0.0941
  525MPD2    C2 7794   0.981   1.698  14.431 -0.3133  0.2284 -0.5097
  525MPD2    C3 7795   0.981   1.762  14.307 -0.2229  0.5572 -0.3301
  525MPD2    C4 7796   0.870   1.756  14.230 -0.2246 -0.0098 -0.3189
  525MPD2    C5 7797   0.763   1.689  14.268  0.2252  0.5787 -0.1722
  525MPD2     H 7798   1.064   1.706  14.500 -2.6903  0.2419  2.3077
  525MPD2    H1 7799   0.864   1.817  14.140 -3.0024  0.5277  0.2388
  525MPD2    H2 7800   0.682   1.557  14.418 -0.5171  1.2697  1.1287
  525MPD2    H3 7801   0.675   1.687  14.205 -0.1113  1.5402  0.2647
  525MPD2     N 7802   1.084   1.858  14.277  0.1119 -0.6305  0.1184
  525MPD2    H5 7803   1.050   1.924  14.208  1.1330 -0.1819  0.0492
  525MPD2    N1 7804   0.878   1.577  14.604  0.4448 -0.2047 -0.2200
  525MPD2    H7 7805   0.966   1.586  14.655  0.7810  1.5957 -1.1152
  526TMC3    C1 7806   0.800   1.484  14.805 -0.9083  0.9232 -0.0503
  526TMC3    C2 7807   0.728   1.528  14.905  0.4138 -0.8601 -0.0825
  526TMC3    C3 7808   0.758   1.504  15.037 -0.0536  0.7434 -0.4150
  526TMC3    C4 7809   0.920   1.417  14.819 -0.0943 -0.2681 -0.2048
  526TMC3    C5 7810   0.952   1.403  14.954  0.2026 -0.2854 -0.1091
  526TMC3    C6 7811   0.886   1.456  15.056 -0.0006 -0.4538  0.4309
  526TMC3     C 7812   0.772   1.523  14.669  0.3248  0.1776  0.3064
  526TMC3     O 7813   0.654   1.508  14.640 -0.3488 -0.4981  0.2210
  526TMC3     H 7814   0.636   1.576  14.873  0.8901  0.3739  0.4086
  526TMC3    H1 7815   0.973   1.375  14.735 -0.2144 -1.4936  0.3366
  526TMC3    H2 7816   0.927   1.467  15.156 -0.3385 -2.5525  0.8100
  526TMC3    C7 7817   1.084   1.346  14.987 -0.7368  1.3674 -0.0479
  526TMC3    C8 7818   0.661   1.523  15.142 -0.6657  0.6899 -0.2638
  526TMC3    O1 7819   1.101   1.345  15.106  0.0646  0.1801 -0.3765
  526TMC3    O2 7820   0.688   1.455  15.238 -0.4651 -0.0617  0.5614
  527MPD2     C 7821   3.674   4.680   1.179  0.3256 -0.2965 -0.2686
  527MPD2    C1 7822   3.721   0.066   1.244  0.3534 -0.2082 -0.0421
  527MPD2    C2 7823   3.857   0.097   1.221 -0.3328 -0.2633 -0.0229
  527MPD2    C3 7824   3.938   0.010   1.150  0.2677  0.0759 -0.4137
  527MPD2    C4 7825   3.891   4.612   1.102  0.0806 -0.1279  0.2206
  527MPD2    C5 7826   3.752   4.590   1.110  0.4554 -0.4764 -0.0379
  527MPD2     H 7827   3.898   0.185   1.269  0.4960 -1.2706  1.1379
  527MPD2    H1 7828   3.953   4.546   1.042  2.9365  0.7960  2.1155
  527MPD2    H2 7829   3.569   4.654   1.179  0.5565 -1.2257  1.0317
  527MPD2    H3 7830   3.702   4.506   1.064 -0.8312  1.1890 -1.6474
  527MPD2     N 7831   4.068   0.064   1.124  0.2516  0.5283 -0.0325
  527MPD2    H5 7832   4.083   0.159   1.157  1.4253  0.8410 -1.4938
  527MPD2    N1 7833   3.644   0.146   1.336 -0.1506 -0.3015  0.2542
  527MPD2    H7 7834   3.685   0.228   1.381  0.6710 -0.1488 -0.7914
  528TMC3    C1 7835   3.492   0.177   1.503  0.5092 -0.2124  0.4576
  528TMC3    C2 7836   3.534   0.304   1.530 -0.2479 -0.5288  0.0752
  528TMC3    C3 7837   3.534   0.336   1.661 -0.3915  0.4679  0.2625
  528TMC3    C4 7838   3.454   0.085   1.598  0.5143 -0.5420  0.5750
  528TMC3    C5 7839   3.465   0.123   1.732 -0.0350  0.1443  0.0793
  528TMC3    C6 7840   3.494   0.254   1.765  0.6221  0.2486 -0.5530
  528TMC3     C 7841   3.518   0.110   1.376  0.2151  0.8863 -0.3844
  528TMC3     O 7842   3.441   0.024   1.334  0.1637  0.2280 -0.0691
  528TMC3     H 7843   3.545   0.381   1.455  0.3426 -2.8879 -2.2265
  528TMC3    H1 7844   3.422   4.708   1.568  1.2916 -0.8296  0.6916
  528TMC3    H2 7845   3.482   0.287   1.868  0.1610  2.0672 -1.1822
  528TMC3    C7 7846   3.453   0.013   1.829  0.0461  0.5430  0.9139
  528TMC3    C8 7847   3.546   0.479   1.694  0.2361 -0.1022  0.5315
  528TMC3    O1 7848   3.386   4.640   1.789  0.1244 -0.2899  0.6082
  528TMC3    O2 7849   3.511   0.559   1.610  0.3492 -0.1279  0.1749
  529MPD2     C 7850   1.325   3.974   0.983  0.3562 -0.9752 -0.7529
  529MPD2    C1 7851   1.342   3.854   0.915 -0.8597  0.9798 -0.0222
  529MPD2    C2 7852   1.277   3.823   0.794  0.5509  0.1238  0.8997
  529MPD2    C3 7853   1.194   3.913   0.738 -0.0334 -1.0359  0.1777
  529MPD2    C4 7854   1.165   4.029   0.811  0.4753 -0.4717 -0.0598
  529MPD2    C5 7855   1.226   4.056   0.932 -0.7160  0.3380  0.5505
  529MPD2     H 7856   1.300   3.730   0.743  0.0193  0.8365 -0.6556
  529MPD2    H1 7857   1.094   4.102   0.774  0.9493  0.4173  0.7888
  529MPD2    H2 7858   1.371   4.004   1.077 -0.6093  0.9894 -0.9062
  529MPD2    H3 7859   1.195   4.148   0.981 -0.3602  0.8082 -0.1086
  529MPD2     N 7860   1.122   3.887   0.618  0.9174 -0.1241  0.0964
  529MPD2    H5 7861   1.058   3.957   0.582 -0.2850 -1.3895 -0.2630
  529MPD2    N1 7862   1.435   3.756   0.965  0.8592  0.0855 -0.1368
  529MPD2    H7 7863   1.436   3.667   0.915 -0.1833  1.2999 -2.3296
  530TMC3    C1 7864   1.613   3.661   1.076 -0.4094 -0.2924 -1.2002
  530TMC3    C2 7865   1.590   3.593   1.197  0.0306 -0.3222 -0.2544
  530TMC3    C3 7866   1.602   3.457   1.201 -0.1306 -1.0526  0.0518
  530TMC3    C4 7867   1.640   3.597   0.964  0.2352 -0.1832  0.4384
  530TMC3    C5 7868   1.656   3.459   0.964 -1.1173 -0.5324 -0.6252
  530TMC3    C6 7869   1.646   3.390   1.083  0.2543 -0.5574 -0.5654
  530TMC3     C 7870   1.517   3.777   1.070 -0.2598  0.2016 -0.0173
  530TMC3     O 7871   1.499   3.846   1.167 -0.2713  0.4280 -0.2430
  530TMC3     H 7872   1.565   3.649   1.286 -0.8797 -0.3051 -0.5209
  530TMC3    H1 7873   1.651   3.647   0.868 -0.3154  2.8804  1.9700
  530TMC3    H2 7874   1.634   3.282   1.083  2.6706 -0.8414  2.4332
  530TMC3    C7 7875   1.659   3.390   0.832  0.4788  1.1736  0.0387
  530TMC3    C8 7876   1.608   3.379   1.325  0.2900 -0.2988 -0.0642
  530TMC3    O1 7877   1.701   3.462   0.739 -0.3362  0.1333 -0.1560
  530TMC3    O2 7878   1.554   3.431   1.424 -0.4362  0.1037 -0.6712
  531MPD2     C 7879   4.671   0.719  13.131 -0.4992  0.4708  0.2656
  531MPD2    C1 7880   4.538   0.739  13.172 -0.0747  0.4364 -0.0455
  531MPD2    C2 7881   4.447   0.633  13.153  0.5144 -0.2361 -0.3053
  531MPD2    C3 7882   4.495   0.506  13.112 -0.0757  0.6075  0.0335
  531MPD2    C4 7883   4.620   0.498  13.060 -0.7747 -0.1532  0.8835
  531MPD2    C5 7884   4.708   0.600  13.071 -0.5896  0.3215 -0.6821
  531MPD2     H 7885   4.341   0.643  13.173  1.1585  1.2924  2.2816
  531MPD2    H1 7886   4.648   0.409  13.003 -1.2765  1.1378 -1.3921
  531MPD2    H2 7887   0.009   0.805  13.157  0.5401  0.3209 -1.6171
  531MPD2    H3 7888   0.085   0.585  13.032 -1.4115 -1.0397 -2.2360
  531MPD2     N 7889   4.402   0.407  13.096  0.1485 -0.5060  0.1837
  531MPD2    H5 7890   4.306   0.432  13.119  0.3656  1.7594 -1.4466
  531MPD2    N1 7891   4.513   0.853  13.243  0.4937 -0.5887 -0.0682
  531MPD2    H7 7892   4.594   0.912  13.260 -0.3908  0.8971 -1.0644
  532TMC3    C1 7893   4.391   0.996  13.383  0.2006  0.2593 -0.0243
  532TMC3    C2 7894   4.266   1.003  13.434 -0.1627  0.1623  0.3786
  532TMC3    C3 7895   4.243   0.995  13.569 -0.1751 -1.0479  0.2221
  532TMC3    C4 7896   4.503   0.990  13.466 -0.1598  0.8308 -0.2863
  532TMC3    C5 7897   4.469   0.993  13.599 -0.4602 -0.5879  0.2793
  532TMC3    C6 7898   4.347   0.995  13.655 -0.0638 -0.2940 -0.3734
  532TMC3     C 7899   4.389   0.897  13.275 -0.5851  0.1082 -0.7173
  532TMC3     O 7900   4.282   0.853  13.245  0.3462 -0.4500 -0.3133
  532TMC3     H 7901   4.183   1.009  13.365  0.7579 -0.3949 -0.7758
  532TMC3    H1 7902   4.607   0.978  13.438 -0.3083 -1.0019 -0.0184
  532TMC3    H2 7903   4.327   0.973  13.759  0.9707  0.7887  0.0564
  532TMC3    C7 7904   4.573   0.966  13.694 -0.4644 -0.4010  0.6979
  532TMC3    C8 7905   4.140   0.908  13.600  0.9568  0.6025 -0.0246
  532TMC3    O1 7906   4.567   1.027  13.801 -0.1901  0.1499  0.1375
  532TMC3    O2 7907   4.108   0.899  13.718 -0.2789  0.1149 -0.1497
  533TMC3    C1 7908   1.233   2.022  14.324 -0.2014 -0.0582 -0.4795
  533TMC3    C2 7909   1.362   2.052  14.353  0.4035 -0.5480 -0.2455
  533TMC3    C3 7910   1.379   2.189  14.397  0.0822 -0.6325 -0.0165
  533TMC3    C4 7911   1.129   2.108  14.362 -0.1901 -0.6750 -0.8050
  533TMC3    C5 7912   1.150   2.222  14.429 -0.9293  0.3151 -0.4559
  533TMC3    C6 7913   1.279   2.267  14.448 -0.0575 -0.2039 -0.1837
  533TMC3     C 7914   1.192   1.887  14.350  0.5879  0.1029  0.2913
  533TMC3     O 7915   1.253   1.823  14.432 -0.0461  0.3342  0.0463
  533TMC3     H 7916   1.447   1.990  14.329  1.0427  0.5058 -0.6871
  533TMC3    H1 7917   1.023   2.084  14.355 -0.3875  0.1249 -0.5392
  533TMC3    H2 7918   1.300   2.348  14.516 -0.9450 -0.1736  0.0571
  533TMC3    C7 7919   1.045   2.270  14.525  0.4967 -0.3822  0.2615
  533TMC3    C8 7920   1.513   2.231  14.432 -0.0523 -0.1238  0.3658
  533TMC3    O1 7921   0.953   2.191  14.550  0.0966 -0.1604  0.4647
  533TMC3    O2 7922   1.510   2.284  14.546 -0.2848  0.6480 -0.1064
  534MPD2     C 7923   3.745   3.856   2.031  0.5825  0.2470 -0.2964
  534MPD2    C1 7924   3.715   3.904   1.905  0.1520  0.4764  0.5403
  534MPD2    C2 7925   3.650   3.821   1.818 -0.5677 -0.4637 -0.2498
  534MPD2    C3 7926   3.617   3.696   1.858 -0.1157  0.2446 -0.5515
  534MPD2    C4 7927   3.653   3.644   1.976  0.1118  0.5740 -0.7665
  534MPD2    C5 7928   3.717   3.725   2.065  0.3140 -0.7274 -0.8827
  534MPD2     H 7929   3.630   3.855   1.717  2.0513  0.0797 -0.5892
  534MPD2    H1 7930   3.632   3.544   2.010 -0.3764 -0.1491 -3.2186
  534MPD2    H2 7931   3.797   3.912   2.108 -1.0177  2.2579 -0.6865
  534MPD2    H3 7932   3.733   3.697   2.168 -1.6690  1.2891 -0.0346
  534MPD2     N 7933   3.532   3.616   1.778 -0.5282  0.1537 -0.1798
  534MPD2    H5 7934   3.510   3.524   1.814 -0.2670  0.2693  0.2807
  534MPD2    N1 7935   3.721   4.040   1.863  0.5087  0.3742  0.2219
  534MPD2    H7 7936   3.697   4.050   1.765  0.0970 -1.6975  0.1133
  535TMC3    C1 7937   3.404   3.559   1.589  0.2665  0.1587  0.6057
  535TMC3    C2 7938   3.316   3.500   1.672  0.4179 -0.2976 -0.3967
  535TMC3    C3 7939   3.202   3.447   1.619 -0.5595 -0.3116  0.4332
  535TMC3    C4 7940   3.386   3.566   1.457  0.3381 -0.1345  0.0945
  535TMC3    C5 7941   3.271   3.517   1.404  0.1942  0.3622  0.1823
  535TMC3    C6 7942   3.177   3.454   1.483  0.6710 -0.3560  0.0263
  535TMC3     C 7943   3.490   3.653   1.650  0.3331 -0.0609  0.4388
  535TMC3     O 7944   3.531   3.738   1.572  0.0879 -0.7156  0.5097
  535TMC3     H 7945   3.310   3.536   1.775 -2.1203  1.2395 -1.1022
  535TMC3    H1 7946   3.460   3.613   1.393 -0.2006  0.1019 -0.3496
  535TMC3    H2 7947   3.088   3.418   1.432  1.0332 -1.1118 -0.0679
  535TMC3    C7 7948   3.254   3.523   1.257  0.0584  0.1928 -0.1737
  535TMC3    C8 7949   3.101   3.398   1.708 -1.0022 -0.3182 -0.8776
  535TMC3    O1 7950   3.355   3.526   1.187  0.0441 -0.0524 -0.1981
  535TMC3    O2 7951   2.994   3.386   1.657 -0.3195  0.2992 -0.1571
  536MPD2     C 7952   2.194   1.991  16.069  0.0419 -0.4680 -0.8301
  536MPD2    C1 7953   2.111   1.943  16.168  0.0427  0.3844  0.2586
  536MPD2    C2 7954   1.999   1.866  16.133  0.2859 -0.1507  0.1877
  536MPD2    C3 7955   1.992   1.823  15.998 -1.0058  0.1647  0.0602
  536MPD2    C4 7956   2.078   1.871  15.899 -0.3868 -0.3833 -0.3287
  536MPD2    C5 7957   2.180   1.954  15.937  1.1598  0.2245 -0.5658
  536MPD2     H 7958   1.925   1.836  16.207  0.4063  1.3276  0.9054
  536MPD2    H1 7959   2.088   1.829  15.800 -0.2958  0.8209 -0.8316
  536MPD2    H2 7960   2.270   2.065  16.094  0.4290 -1.5403  1.1304
  536MPD2    H3 7961   2.246   2.004  15.868 -0.5809 -0.1550 -2.5219
  536MPD2     N 7962   1.891   1.728  15.949  0.0137 -0.5727  0.1257
  536MPD2    H5 7963   1.890   1.717  15.848  1.7932  1.8018 -0.1391
  536MPD2    N1 7964   2.140   1.992  16.300 -0.1077 -0.1127 -0.0742
  536MPD2    H7 7965   2.208   2.068  16.302 -0.7811  0.5687 -3.4280
  537TMC3    C1 7966   2.130   2.010  16.541 -0.2358 -0.0157 -0.6027
  537TMC3    C2 7967   2.257   2.066  16.542  0.1480  0.4096 -0.7444
  537TMC3    C3 7968   2.307   2.093  16.664 -0.0773 -0.1549  0.3298
  537TMC3    C4 7969   2.058   1.998  16.655  0.5378  0.1525  0.3135
  537TMC3    C5 7970   2.109   2.036  16.770 -0.3611  0.5811 -0.2049
  537TMC3    C6 7971   2.238   2.081  16.777 -0.0160  0.2151 -0.0503
  537TMC3     C 7972   2.078   1.949  16.414 -0.0524 -0.0281  0.5121
  537TMC3     O 7973   1.992   1.865  16.430 -0.7305  0.1318  0.0577
  537TMC3     H 7974   2.322   2.054  16.456 -1.6044  3.0494 -2.4415
  537TMC3    H1 7975   1.958   1.955  16.652  0.1339  1.1445 -0.5293
  537TMC3    H2 7976   2.279   2.120  16.870 -1.8640  0.5920  0.5932
  537TMC3    C7 7977   2.078   1.943  16.878 -0.4433  0.0804  0.3919
  537TMC3    C8 7978   2.441   2.135  16.676  0.4932  0.3688 -1.2056
  537TMC3    O1 7979   2.175   1.927  16.953  0.1239  0.2246  0.2223
  537TMC3    O2 7980   2.499   2.098  16.778  0.2964 -0.3426  0.6493
  538TMC3    C1 7981   3.002   4.040  11.220 -0.1906 -0.4306  0.2754
  538TMC3    C2 7982   3.073   4.012  11.113 -0.4944 -0.0286  0.9790
  538TMC3    C3 7983   3.024   4.053  10.991 -0.3567  0.1067  0.3085
  538TMC3    C4 7984   2.888   4.112  11.211  1.1346 -0.1839  0.3032
  538TMC3    C5 7985   2.850   4.160  11.091  0.1824 -0.5691 -0.1072
  538TMC3    C6 7986   2.916   4.134  10.973  0.3144  0.0640  0.2774
  538TMC3     C 7987   3.062   4.038  11.358 -0.3351 -0.4222 -0.0012
  538TMC3     O 7988   2.993   4.054  11.457 -0.2574  0.0871  0.6341
  538TMC3     H 7989   3.163   3.953  11.117 -0.2326  0.3670  0.9348
  538TMC3    H1 7990   2.834   4.132  11.302 -0.0281  0.4123 -0.5208
  538TMC3    H2 7991   2.871   4.167  10.880 -0.1530 -1.1928  0.0608
  538TMC3    C7 7992   2.747   4.270  11.101 -0.4765  0.3353 -0.4123
  538TMC3    C8 7993   3.108   4.009  10.880 -0.3656 -0.0269  0.1536
  538TMC3    O1 7994   2.675   4.280  11.197 -0.5262  0.1779  0.1063
  538TMC3    O2 7995   3.151   3.891  10.885 -0.3016  0.0320 -0.3599
  539MPD2     C 7996   2.936   3.674  11.918  0.2693 -0.1488 -0.1722
  539MPD2    C1 7997   2.877   3.643  11.792 -0.8673  0.2402 -0.7255
  539MPD2    C2 7998   2.804   3.739  11.724 -0.2525 -0.0678 -0.5969
  539MPD2    C3 7999   2.806   3.870  11.769 -0.6034  0.8306  0.3615
  539MPD2    C4 8000   2.868   3.904  11.886 -0.1624 -0.3474 -0.3686
  539MPD2    C5 8001   2.934   3.806  11.957  0.1321  0.6209 -0.3955
  539MPD2     H 8002   2.769   3.707  11.627 -0.7399  1.2350 -0.8543
  539MPD2    H1 8003   2.873   4.005  11.925 -1.4610 -1.1485  1.8532
  539MPD2    H2 8004   2.981   3.597  11.979 -0.4570 -0.2718  0.2099
  539MPD2    H3 8005   2.996   3.836  12.041  2.6984 -0.3627 -1.9239
  539MPD2     N 8006   2.744   3.974  11.701 -0.3921  0.1648  0.0447
  539MPD2    H5 8007   2.746   4.065  11.746 -0.8963  0.6055 -0.8155
  539MPD2    N1 8008   2.891   3.514  11.729  0.5603 -0.2147 -1.1182
  539MPD2    H7 8009   2.838   3.498  11.643  0.1542  1.9387 -1.2635
  540TMC3    C1 8010   2.584   4.073  11.569  0.5252 -0.0359  0.1397
  540TMC3    C2 8011   2.548   4.112  11.442  0.2719 -0.4255 -0.3089
  540TMC3    C3 8012   2.454   4.213  11.432 -0.6264 -0.0602 -0.8330
  540TMC3    C4 8013   2.519   4.128  11.678  0.3027  0.4466  0.5835
  540TMC3    C5 8014   2.437   4.233  11.654  0.0739 -0.2219  0.4306
  540TMC3    C6 8015   2.395   4.274  11.531 -0.2029  0.0362  0.4970
  540TMC3     C 8016   2.674   3.963  11.584 -0.0117  0.6527  0.4582
  540TMC3     O 8017   2.685   3.872  11.505 -0.0620 -0.2019 -0.4415
  540TMC3     H 8018   2.596   4.069  11.355  1.2208 -3.0698  1.5450
  540TMC3    H1 8019   2.550   4.093  11.776 -1.3128 -3.2155 -0.2202
  540TMC3    H2 8020   2.315   4.346  11.512  0.7065  0.8173 -0.3796
  540TMC3    C7 8021   2.365   4.289  11.766 -0.8710 -0.7584 -0.0135
  540TMC3    C8 8022   2.387   4.225  11.303  0.0130  0.5753  0.7927
  540TMC3    O1 8023   2.354   4.225  11.870  0.6495  0.3679 -0.2725
  540TMC3    O2 8024   2.339   4.334  11.272  0.3227 -0.2656  0.5967
  541MPD2     C 8025   1.342   0.778  13.608  0.0843 -0.3924 -0.5642
  541MPD2    C1 8026   1.270   0.713  13.511  0.4777  0.4855 -0.6358
  541MPD2    C2 8027   1.235   0.767  13.397 -0.5035 -0.1117  0.9670
  541MPD2    C3 8028   1.293   0.889  13.364  0.0803 -0.7937 -0.4978
  541MPD2    C4 8029   1.364   0.957  13.456 -0.0028  0.5920 -0.4661
  541MPD2    C5 8030   1.399   0.897  13.571 -1.1665  0.3714  0.1094
  541MPD2     H 8031   1.167   0.719  13.327 -0.0443 -2.5093  2.1734
  541MPD2    H1 8032   1.412   1.046  13.417 -0.8722  1.6096  0.7985
  541MPD2    H2 8033   1.373   0.732  13.702 -2.4878  0.7482  0.8177
  541MPD2    H3 8034   1.465   0.945  13.642 -0.2466 -1.4465  0.4922
  541MPD2     N 8035   1.255   0.955  13.241  0.7553  0.2623 -0.0881
  541MPD2    H5 8036   1.264   1.056  13.243 -0.9361  0.4389 -0.5399
  541MPD2    N1 8037   1.208   0.587  13.529 -0.0212  0.5242  0.4602
  541MPD2    H7 8038   1.164   0.554  13.444  0.5821 -3.4187  1.6522
  542TMC3    C1 8039   1.179   0.960  13.000 -0.3055  0.1340 -0.4705
  542TMC3    C2 8040   1.116   0.888  12.893 -0.1335 -0.0099  0.0067
  542TMC3    C3 8041   1.072   0.964  12.790 -0.0519  0.4575 -0.0327
  542TMC3    C4 8042   1.191   1.094  13.004 -0.2559 -0.2466 -0.8869
  542TMC3    C5 8043   1.134   1.165  12.903  0.2518  0.4490  0.0445
  542TMC3    C6 8044   1.083   1.101  12.788  0.0669  0.1065 -0.2303
  542TMC3     C 8045   1.223   0.884  13.123 -0.0452  0.8709  0.4259
  542TMC3     O 8046   1.234   0.761  13.109 -0.6466  0.6386 -0.7642
  542TMC3     H 8047   1.126   0.780  12.883  1.1695  0.0713  0.3559
  542TMC3    H1 8048   1.228   1.146  13.091 -0.0907 -0.0156 -1.0938
  542TMC3    H2 8049   1.032   1.161  12.714 -0.1677  0.4969  0.2528
  542TMC3    C7 8050   1.162   1.305  12.896  0.1241  0.3639 -0.2680
  542TMC3    C8 8051   1.029   0.903  12.669 -0.5439 -0.3322  0.5135
  542TMC3    O1 8052   1.199   1.357  12.791 -0.4935  0.4977  0.1412
  542TMC3    O2 8053   1.022   0.951  12.558 -0.1302 -0.1435 -0.2090
  543TMC3    C1 8054   0.678   2.808  17.087  0.7551  0.0113  0.1339
  543TMC3    C2 8055   0.676   2.714  17.191 -0.3747 -0.1838  0.3114
  543TMC3    C3 8056   0.678   2.767  17.322 -0.0760 -0.1284 -0.3024
  543TMC3    C4 8057   0.668   2.940  17.102  1.1623 -0.4160 -1.0227
  543TMC3    C5 8058   0.664   2.983  17.234 -0.4651 -0.5502  0.4313
  543TMC3    C6 8059   0.665   2.900  17.346  0.2499 -0.0170  0.0186
  543TMC3     C 8060   0.722   2.760  16.957  0.6784 -0.6829 -0.0415
  543TMC3     O 8061   0.765   2.644  16.955  0.1479 -0.2209  0.0108
  543TMC3     H 8062   0.680   2.608  17.167 -1.2195 -0.3553  0.9032
  543TMC3    H1 8063   0.686   3.008  17.020 -0.1265  1.2724  0.0921
  543TMC3    H2 8064   0.669   2.936  17.448 -0.6092 -0.0091  0.0548
  543TMC3    C7 8065   0.635   3.126  17.252 -0.1176 -0.2450 -0.1768
  543TMC3    C8 8066   0.688   2.676  17.432 -0.1355 -0.6487  0.1217
  543TMC3    O1 8067   0.605   3.197  17.158  0.4133 -0.1456 -0.4011
  543TMC3    O2 8068   0.760   2.577  17.413 -0.1067 -0.3387 -0.1962
  544MPD2     C 8069   0.517   2.554   0.209  0.5893 -0.5442  0.3055
  544MPD2    C1 8070   0.621   2.503   0.133 -0.2406 -0.1929 -0.4957
  544MPD2    C2 8071   0.641   2.547   0.005 -0.2333  0.0275  0.3670
  544MPD2    C3 8072   0.565   2.649  17.647 -0.5247 -0.3104  0.3393
  544MPD2    C4 8073   0.462   2.699   0.035 -0.3316  0.0039  0.3344
  544MPD2    C5 8074   0.436   2.654   0.160  0.2032  0.6704  0.1286
  544MPD2     H 8075   0.723   2.502  17.642  0.7647  0.9583  1.1075
  544MPD2    H1 8076   0.405   2.782  17.685 -0.6097 -0.8971 -1.1333
  544MPD2    H2 8077   0.477   2.522   0.305 -0.0578 -0.7102 -0.0188
  544MPD2    H3 8078   0.356   2.689   0.224 -0.2929 -1.3129  0.6065
  544MPD2     N 8079   0.594   2.710  17.526 -0.1538 -0.0759  0.1313
  544MPD2    H5 8080   0.527   2.781  17.499  0.6180  0.1641 -1.1322
  544MPD2    N1 8081   0.688   2.397   0.196 -0.1245 -0.1416  0.0053
  544MPD2    H7 8082   0.648   2.375   0.287 -1.1364  1.7233  0.0065
  545TMC3    C1 8083   0.812   2.207   0.225  0.5739 -0.6678  0.0549
  545TMC3    C2 8084   0.903   2.107   0.179 -0.2269  0.4911  0.8977
  545TMC3    C3 8085   0.909   1.983   0.235  0.1686 -0.2171  0.7256
  545TMC3    C4 8086   0.726   2.175   0.324  0.4876 -0.1478 -0.1959
  545TMC3    C5 8087   0.730   2.050   0.376  1.1526  0.1089 -0.8064
  545TMC3    C6 8088   0.830   1.956   0.343 -0.3725 -0.1280 -0.1811
  545TMC3     C 8089   0.784   2.315   0.131 -0.0872 -0.2631  0.4136
  545TMC3     O 8090   0.848   2.316   0.027  0.1039 -0.2636 -0.2837
  545TMC3     H 8091   0.951   2.119   0.083 -3.4786 -1.6038 -0.9713
  545TMC3    H1 8092   0.651   2.240   0.368  0.6759 -0.3994  0.4869
  545TMC3    H2 8093   0.816   1.854   0.378 -1.6270 -0.3179 -1.2549
  545TMC3    C7 8094   0.600   1.997   0.427  0.5006 -0.0225  0.3934
  545TMC3    C8 8095   1.012   1.891   0.207 -0.1019  0.2192  0.3439
  545TMC3    O1 8096   0.500   2.055   0.391  0.0035  0.9543 -0.5969
  545TMC3    O2 8097   1.079   1.909   0.108 -0.1036 -0.0744 -0.6377
  546MPD2     C 8098   2.454   2.140  17.194 -0.5137  0.4945 -0.8561
  546MPD2    C1 8099   2.382   2.233  17.123 -0.6197 -0.0079  0.1252
  546MPD2    C2 8100   2.450   2.325  17.045  0.3093 -0.7258 -0.4074
  546MPD2    C3 8101   2.586   2.333  17.031  0.4181  0.3560  0.5606
  546MPD2    C4 8102   2.653   2.234  17.099  0.6667 -0.4472  0.2123
  546MPD2    C5 8103   2.591   2.136  17.170  0.0883 -0.0195  0.0330
  546MPD2     H 8104   2.389   2.388  16.981  0.4977 -0.8104 -0.6675
  546MPD2    H1 8105   2.758   2.210  17.082  0.4985 -0.2386 -1.1416
  546MPD2    H2 8106   2.420   2.064  17.263  0.3466 -1.6234 -2.7691
  546MPD2    H3 8107   2.658   2.062  17.211  2.4677  1.6143 -0.8859
  546MPD2     N 8108   2.653   2.429  16.948  0.1525 -0.1315  0.0370
  546MPD2    H5 8109   2.754   2.418  16.957 -0.0392 -0.1163  2.1656
  546MPD2    N1 8110   2.237   2.219  17.135 -0.7496 -0.1462 -0.8267
  546MPD2    H7 8111   2.197   2.302  17.093 -1.9444  0.6672  1.9698
  547TMC3    C1 8112   2.018   2.142  17.183 -0.0081 -0.7625  0.1388
  547TMC3    C2 8113   1.963   2.225  17.085  0.2780  0.0249  0.3305
  547TMC3    C3 8114   1.828   2.249  17.095 -0.1136  0.9893  0.2379
  547TMC3    C4 8115   1.935   2.072  17.272 -0.1494  0.4618 -0.0721
  547TMC3    C5 8116   1.803   2.101  17.276  0.4307  0.3067  0.2772
  547TMC3    C6 8117   1.745   2.187  17.189  0.2667 -0.4816 -0.5195
  547TMC3     C 8118   2.165   2.120  17.189  0.3291  0.0998 -0.9384
  547TMC3     O 8119   2.204   2.022  17.250 -0.4973  0.2419 -0.0043
  547TMC3     H 8120   2.022   2.275  17.010 -1.3943  0.1599 -0.9002
  547TMC3    H1 8121   1.979   2.004  17.344  1.0491 -0.1061 -1.3420
  547TMC3    H2 8122   1.640   2.211  17.202  0.3427 -0.2381 -0.3454
  547TMC3    C7 8123   1.736   2.054  17.387  0.9392  0.0796 -0.2464
  547TMC3    C8 8124   1.761   2.325  16.992  0.7263 -0.5048  0.1423
  547TMC3    O1 8125   1.803   2.018  17.483  0.1742  0.1112  0.2769
  547TMC3    O2 8126   1.654   2.371  17.020  0.3477 -0.2455 -0.3103
  548MPD2     C 8127   2.109   2.667  12.209  0.0823 -0.4097 -0.1664
  548MPD2    C1 8128   2.052   2.577  12.289 -0.1876 -0.4419  0.6160
  548MPD2    C2 8129   2.122   2.463  12.328 -0.3720 -0.2545 -0.4059
  548MPD2    C3 8130   2.236   2.431  12.260  1.0168  0.4962 -0.0342
  548MPD2    C4 8131   2.284   2.521  12.168  0.1178  1.0080  0.4957
  548MPD2    C5 8132   2.233   2.644  12.150  0.2538 -0.4524 -0.1129
  548MPD2     H 8133   2.088   2.409  12.416 -1.5283 -1.2985 -1.5091
  548MPD2    H1 8134   2.375   2.501  12.111 -0.5243  0.2712 -0.2613
  548MPD2    H2 8135   2.055   2.760  12.192  2.1217  0.4592 -2.0508
  548MPD2    H3 8136   2.280   2.715  12.084 -1.7607  0.3240 -0.6988
  548MPD2     N 8137   2.295   2.305  12.283  0.1112 -0.2048 -0.8164
  548MPD2    H5 8138   2.246   2.239  12.341  0.4730  1.2471  1.1545
  548MPD2    N1 8139   1.922   2.607  12.336  0.0146  0.4584 -0.3652
  548MPD2    H7 8140   1.875   2.686  12.293 -1.1562 -0.1286 -0.1729
  549TMC3    C1 8141   1.708   2.562  12.429 -0.5139  0.8367  0.2283
  549TMC3    C2 8142   1.677   2.687  12.440 -0.1950  0.1356  0.4799
  549TMC3    C3 8143   1.547   2.722  12.462  0.1011  0.5496 -0.1555
  549TMC3    C4 8144   1.620   2.460  12.451 -0.1606 -0.4224 -0.3137
  549TMC3    C5 8145   1.489   2.497  12.481 -0.2822  0.7285 -0.6007
  549TMC3    C6 8146   1.445   2.631  12.475  0.3810 -0.1595 -0.0980
  549TMC3     C 8147   1.844   2.524  12.418 -0.0122  0.0464 -0.3377
  549TMC3     O 8148   1.866   2.414  12.472  0.1711 -0.2282 -0.0201
  549TMC3     H 8149   1.745   2.771  12.451  0.4222 -0.4339  1.0396
  549TMC3    H1 8150   1.652   2.358  12.434 -1.6028 -1.1909  1.4982
  549TMC3    H2 8151   1.348   2.661  12.513  0.4730 -0.8650  0.6778
  549TMC3    C7 8152   1.401   2.390  12.521 -0.5363 -0.0127  0.3343
  549TMC3    C8 8153   1.525   2.850  12.523  0.1965  1.4148 -0.6977
  549TMC3    O1 8154   1.288   2.424  12.537  0.3277 -0.5139  0.2874
  549TMC3    O2 8155   1.617   2.915  12.565  0.5207  0.4133  0.1869
  550TMC3    C1 8156   0.392   0.432  12.956  0.1819 -0.1647  0.0677
  550TMC3    C2 8157   0.365   0.539  13.042 -0.7279 -0.0837  0.1958
  550TMC3    C3 8158   0.438   0.653  13.028  0.1630 -0.5163  0.2428
  550TMC3    C4 8159   0.476   0.449  12.852  0.0005  0.3517 -0.7955
  550TMC3    C5 8160   0.538   0.570  12.829  0.1335 -0.8761 -0.2182
  550TMC3    C6 8161   0.532   0.665  12.927  0.0904 -0.2957 -0.0480
  550TMC3     C 8162   0.270   0.371  12.915  0.2465  0.0170 -0.3524
  550TMC3     O 8163   0.195   0.336  13.004  0.5132  0.2356  0.6884
  550TMC3     H 8164   0.287   0.530  13.117  0.4180  1.8679  1.6397
  550TMC3    H1 8165   0.491   0.373  12.777 -0.3777 -1.4042  0.9046
  550TMC3    H2 8166   0.579   0.762  12.916 -1.2032  0.2869 -0.3099
  550TMC3    C7 8167   0.503   0.619  12.698  0.8360  0.1587 -0.0147
  550TMC3    C8 8168   0.359   0.782  13.044  0.0343 -0.9225 -0.9903
  550TMC3    O1 8169   0.421   0.545  12.647 -0.4680  0.1902 -0.7525
  550TMC3    O2 8170   0.372   0.861  12.952  0.0267  0.3614 -0.4765
  551TMC3    C1 8171   3.182   2.737  13.259 -0.5364 -0.4085  0.8050
  551TMC3    C2 8172   3.300   2.801  13.222 -0.0509  0.0162  0.3571
  551TMC3    C3 8173   3.301   2.937  13.234  1.1274 -0.2409  0.8669
  551TMC3    C4 8174   3.078   2.806  13.316 -0.1528  0.2460 -0.1847
  551TMC3    C5 8175   3.097   2.942  13.348 -0.0618  0.1048 -0.0125
  551TMC3    C6 8176   3.208   3.006  13.306  0.5046 -0.3529  0.0744
  551TMC3     C 8177   3.147   2.616  13.185  0.7227  0.9727 -0.8783
  551TMC3     O 8178   3.031   2.610  13.144  0.4573  0.1573  0.3105
  551TMC3     H 8179   3.365   2.750  13.151 -0.5390  1.6619 -1.2528
  551TMC3    H1 8180   2.984   2.757  13.337 -0.8272  1.4284 -0.4599
  551TMC3    H2 8181   3.220   3.113  13.318 -0.0717 -0.1254 -1.4392
  551TMC3    C7 8182   3.006   3.026  13.424  0.3013  0.5747  0.4179
  551TMC3    C8 8183   3.398   3.012  13.152 -0.1640 -1.0835  0.0689
  551TMC3    O1 8184   2.887   3.002  13.409  0.6377 -0.3163  0.0711
  551TMC3    O2 8185   3.501   2.951  13.116  0.3251 -0.3247  0.1448
  552MPD2     C 8186   4.653   0.760  14.127  0.5384  0.0551 -0.3663
  552MPD2    C1 8187   4.600   0.642  14.173  0.2139  0.3475 -0.3413
  552MPD2    C2 8188   4.695   0.565  14.243  0.5593  0.0808  0.0712
  552MPD2    C3 8189   0.100   0.601  14.271  0.2637  0.1517 -0.1921
  552MPD2    C4 8190   0.140   0.727  14.228 -0.3154  0.2909 -0.0239
  552MPD2    C5 8191   0.054   0.806  14.159  0.3336 -0.0033 -0.1058
  552MPD2     H 8192   4.668   0.469  14.284 -2.2865  1.3857  1.2120
  552MPD2    H1 8193   0.245   0.753  14.234  0.4819 -2.7916 -0.2179
  552MPD2    H2 8194   4.597   0.821  14.058  0.5294  0.2650 -0.1733
  552MPD2    H3 8195   0.089   0.897  14.113 -0.4771  0.0221 -0.6677
  552MPD2     N 8196   0.198   0.523  14.341 -0.1755 -0.4140  0.1457
  552MPD2    H5 8197   0.288   0.568  14.347 -0.1970 -0.2916 -0.4031
  552MPD2    N1 8198   4.468   0.597  14.139  0.1757  0.7213  0.8178
  552MPD2    H7 8199   4.438   0.502  14.159 -2.3635  1.0674 -1.4138
  553TMC3    C1 8200   4.279   0.592  14.004 -0.0637  0.6730 -0.5626
  553TMC3    C2 8201   4.247   0.617  13.872 -0.1520  0.4444  0.5386
  553TMC3    C3 8202   4.157   0.532  13.804  0.4130 -0.2123  0.0608
  553TMC3    C4 8203   4.225   0.476  14.067 -0.1259  0.4720 -0.3011
  553TMC3    C5 8204   4.147   0.399  13.991  0.0018 -0.4138  0.3317
  553TMC3    C6 8205   4.094   0.430  13.867  0.7700 -0.6873  0.7537
  553TMC3     C 8206   4.375   0.673  14.066 -0.4884 -0.1501  0.3194
  553TMC3     O 8207   4.370   0.796  14.046 -0.2184 -0.3861 -0.2422
  553TMC3     H 8208   4.279   0.710  13.828  2.1551 -0.7542 -0.3033
  553TMC3    H1 8209   4.258   0.446  14.166 -0.4588 -1.7590 -0.8749
  553TMC3    H2 8210   4.034   0.361  13.808  1.9229  0.3772 -1.6538
  553TMC3    C7 8211   4.144   0.256  14.021  0.1131 -0.0591  0.0151
  553TMC3    C8 8212   4.224   0.493  13.680 -0.2294  0.2538  1.0320
  553TMC3    O1 8213   4.034   0.194  14.015  0.0473  0.1931 -0.0690
  553TMC3    O2 8214   4.336   0.536  13.664 -0.1288 -0.3148  0.5083
  554TMC3    C1 8215   1.516   3.522  11.582 -0.2348 -0.8422 -0.6619
  554TMC3    C2 8216   1.429   3.509  11.483 -0.6328  0.2063  0.2242
  554TMC3    C3 8217   1.406   3.614  11.406 -0.5670  0.1538 -0.7894
  554TMC3    C4 8218   1.572   3.641  11.619 -0.2284  0.0650  0.3209
  554TMC3    C5 8219   1.559   3.745  11.526  0.3524  0.1142 -0.3895
  554TMC3    C6 8220   1.470   3.734  11.425  0.4220  1.0950  0.2923
  554TMC3     C 8221   1.514   3.416  11.674 -0.0829  0.1156  0.0077
  554TMC3     O 8222   1.416   3.350  11.679  0.2786  0.4806  0.6543
  554TMC3     H 8223   1.391   3.409  11.464  0.8198  0.1375 -2.3704
  554TMC3    H1 8224   1.627   3.650  11.712 -0.0698 -0.7679  0.3090
  554TMC3    H2 8225   1.446   3.823  11.367  2.3922  0.2235 -1.8601
  554TMC3    C7 8226   1.650   3.861  11.518 -0.0024  0.3606 -0.5130
  554TMC3    C8 8227   1.391   3.587  11.259 -0.2216 -0.4404  0.0199
  554TMC3    O1 8228   1.616   3.947  11.439 -0.4666 -0.0339 -0.2896
  554TMC3    O2 8229   1.471   3.658  11.193 -0.4216  0.1954 -0.4299
  555TMC3    C1 8230   0.839   3.945  14.934  0.4534 -0.3470  0.2750
  555TMC3    C2 8231   0.836   4.034  15.037  0.4613 -0.1241  0.0727
  555TMC3    C3 8232   0.918   4.019  15.144  0.4030  0.5482 -0.5872
  555TMC3    C4 8233   0.920   3.834  14.936  0.0531  0.7130  0.1219
  555TMC3    C5 8234   0.976   3.800  15.058  0.2680 -0.0666 -0.8177
  555TMC3    C6 8235   0.975   3.893  15.166  0.1400  0.5673  0.1991
  555TMC3     C 8236   0.794   3.989  14.803  0.4922 -0.2701 -0.2047
  555TMC3     O 8237   0.875   3.972  14.710  0.1142 -0.2786  0.4550
  555TMC3     H 8238   0.776   4.124  15.026  3.9288  2.3108  0.7167
  555TMC3    H1 8239   0.923   3.775  14.845  0.0701 -0.2558  0.7549
  555TMC3    H2 8240   1.003   3.860  15.266  0.2714  0.7194  0.2128
  555TMC3    C7 8241   1.003   3.665  15.087 -0.6377  0.7341 -0.1650
  555TMC3    C8 8242   0.906   4.111  15.254  0.3744 -0.6906 -0.9536
  555TMC3    O1 8243   1.011   3.625  15.203 -0.4890 -0.5260  0.4675
  555TMC3    O2 8244   0.810   4.185  15.265 -0.1920  0.5685 -0.1842
  556MPD2     C 8245   3.595   0.537  10.609  0.0522 -0.5452 -0.0955
  556MPD2    C1 8246   3.608   0.418  10.678  0.0548  0.1532 -0.5110
  556MPD2    C2 8247   3.541   0.309  10.629  0.1572 -0.3992  0.0136
  556MPD2    C3 8248   3.469   0.313  10.512 -0.1382  0.1318 -0.2969
  556MPD2    C4 8249   3.433   0.434  10.465  1.1173  0.5644 -0.3488
  556MPD2    C5 8250   3.507   0.546  10.508  0.0116 -0.4182 -0.2933
  556MPD2     H 8251   3.547   0.208  10.671  1.6007 -0.1228  0.4729
  556MPD2    H1 8252   3.366   0.455  10.383 -1.0292  2.3735  1.8875
  556MPD2    H2 8253   3.642   0.630  10.641 -0.6536 -0.6631  1.2490
  556MPD2    H3 8254   3.496   0.638  10.451 -3.3915  0.2844  1.4723
  556MPD2     N 8255   3.429   0.196  10.443  0.6393  0.0594 -0.0378
  556MPD2    H5 8256   3.451   0.108  10.489 -1.2998  0.7349  2.2059
  556MPD2    N1 8257   3.679   0.407  10.797 -0.3442  0.1603 -0.4826
  556MPD2    H7 8258   3.669   0.328  10.860  1.7712 -0.9990 -1.6045
  557TMC3    C1 8259   3.323   0.054  10.276 -0.1948  0.1067 -0.5503
  557TMC3    C2 8260   3.313   0.028  10.145  0.3161  0.4933  0.6003
  557TMC3    C3 8261   3.292   4.624  10.103  0.4762  0.3872  0.0795
  557TMC3    C4 8262   3.314   4.675  10.363 -0.1542  0.2742  0.0627
  557TMC3    C5 8263   3.278   4.546  10.314 -0.1367  0.7235 -0.4428
  557TMC3    C6 8264   3.266   4.517  10.186  1.2394 -0.2119  0.1908
  557TMC3     C 8265   3.366   0.190  10.324  0.7915 -0.6894  0.1021
  557TMC3     O 8266   3.364   0.275  10.244  0.4870  0.2224  0.2203
  557TMC3     H 8267   3.331   0.113  10.080 -0.8474 -0.8299 -1.4525
  557TMC3    H1 8268   3.302   4.712  10.464  1.7746 -3.3695  1.6486
  557TMC3    H2 8269   3.254   4.418  10.142  2.0003 -1.0484  1.8354
  557TMC3    C7 8270   3.247   4.451  10.420  0.3295  0.1034 -0.1455
  557TMC3    C8 8271   3.305   4.611   9.963 -0.2694  0.0083  0.5908
  557TMC3    O1 8272   3.230   4.490  10.534 -0.2219 -0.1237 -0.4344
  557TMC3    O2 8273   3.299   4.706   9.890 -0.0642 -0.1487 -0.0660
  558TMC3    C1 8274   1.608   3.064  10.230 -0.1732 -0.7170 -0.4437
  558TMC3    C2 8275   1.563   2.932  10.229  0.2625 -0.5084  0.1838
  558TMC3    C3 8276   1.483   2.889  10.128  0.0384 -0.4378 -0.5161
  558TMC3    C4 8277   1.593   3.146  10.122  0.4892 -0.1928 -0.3833
  558TMC3    C5 8278   1.517   3.090  10.018  0.2467 -0.6960 -0.4124
  558TMC3    C6 8279   1.456   2.965  10.012  0.4088  0.2655  0.2868
  558TMC3     C 8280   1.727   3.072  10.307 -0.4033 -0.0830 -0.8651
  558TMC3     O 8281   1.775   2.963  10.335  0.8615 -0.2696  0.1161
  558TMC3     H 8282   1.555   2.882  10.325  1.4850 -1.3000 -0.1248
  558TMC3    H1 8283   1.641   3.243  10.116  2.3516 -1.1778 -1.6618
  558TMC3    H2 8284   1.406   2.914   9.931 -1.4504  0.2862  1.4241
  558TMC3    C7 8285   1.483   3.187   9.914  0.1446 -0.0534  0.4694
  558TMC3    C8 8286   1.491   2.747  10.109  0.3514 -0.3859 -0.3921
  558TMC3    O1 8287   1.545   3.290   9.915 -0.3118 -0.5886 -0.2405
  558TMC3    O2 8288   1.412   2.685  10.035  0.4521  0.3094 -0.4030
  559MPD2     C 8289   1.510   3.413  10.584 -0.6483 -0.1916  0.8490
  559MPD2    C1 8290   1.507   3.274  10.603 -0.1113  0.0342 -0.2399
  559MPD2    C2 8291   1.590   3.218  10.694  0.1991  0.1305  0.0696
  559MPD2    C3 8292   1.681   3.289  10.768  0.0324  0.5502  0.5112
  559MPD2    C4 8293   1.684   3.429  10.749 -0.0607  0.0059 -1.0656
  559MPD2    C5 8294   1.601   3.485  10.656  0.7094 -0.7024  0.5782
  559MPD2     H 8295   1.593   3.112  10.714  1.7559 -0.0838 -1.2683
  559MPD2    H1 8296   1.763   3.493  10.786  1.0896 -1.1051 -1.5881
  559MPD2    H2 8297   1.439   3.452  10.512 -0.5567 -1.3616  0.1393
  559MPD2    H3 8298   1.594   3.592  10.639  0.1401 -0.7345  0.6242
  559MPD2     N 8299   1.763   3.219  10.856 -0.5036 -0.4292  0.8741
  559MPD2    H5 8300   1.754   3.119  10.866 -0.9988 -0.4613  0.1615
  559MPD2    N1 8301   1.423   3.209  10.510 -0.1006  0.2374 -0.3283
  559MPD2    H7 8302   1.360   3.264  10.453  0.7662 -0.9001 -2.4069
  560TMC3    C1 8303   1.892   3.173  11.043  1.1036  0.0323 -0.0976
  560TMC3    C2 8304   1.941   3.059  10.987  0.2560  0.2744 -0.8895
  560TMC3    C3 8305   2.022   2.980  11.065  0.2614 -0.2546  0.3556
  560TMC3    C4 8306   1.947   3.217  11.155  0.0874 -0.2298 -0.3705
  560TMC3    C5 8307   2.013   3.132  11.235 -0.0011  0.0835 -0.2398
  560TMC3    C6 8308   2.049   3.005  11.197 -0.1304  0.4160  0.3475
  560TMC3     C 8309   1.839   3.278  10.953 -0.6226 -0.4320 -0.0385
  560TMC3     O 8310   1.854   3.394  10.985  0.0608  0.2148 -0.1685
  560TMC3     H 8311   1.942   3.038  10.881 -3.0976 -1.9390 -0.4496
  560TMC3    H1 8312   1.931   3.320  11.186  0.4103 -0.1568 -0.4477
  560TMC3    H2 8313   2.105   2.932  11.255 -0.5619  0.2617  0.5739
  560TMC3    C7 8314   2.080   3.172  11.352  0.3649  0.7890  0.3403
  560TMC3    C8 8315   2.099   2.885  10.983  0.0976  0.1211  0.4851
  560TMC3    O1 8316   2.098   3.091  11.445  0.6797 -0.6697  0.2930
  560TMC3    O2 8317   2.045   2.843  10.878  0.1661 -0.3183 -0.0886
  561TMC3    C1 8318   4.608   2.156  11.701  0.5437  0.1332 -0.0019
  561TMC3    C2 8319   4.499   2.119  11.771 -0.6743  0.4488  0.3408
  561TMC3    C3 8320   4.402   2.209  11.813 -0.2304 -0.3542 -0.5417
  561TMC3    C4 8321   4.618   2.280  11.655  0.2963  0.5125  0.6391
  561TMC3    C5 8322   4.524   2.372  11.704 -0.1198 -0.1744  0.4219
  561TMC3    C6 8323   4.420   2.343  11.786  0.1246  0.5180 -0.1371
  561TMC3     C 8324   4.691   2.048  11.643  0.2394  0.1236  0.5905
  561TMC3     O 8325   4.640   1.941  11.647 -0.3133 -0.9528  0.3839
  561TMC3     H 8326   4.489   2.013  11.792  0.8287  0.0064 -1.2160
  561TMC3    H1 8327   4.697   2.314  11.590  0.7195 -1.5330  0.1146
  561TMC3    H2 8328   4.347   2.422  11.797 -2.0957 -1.7899  1.6212
  561TMC3    C7 8329   4.536   2.515  11.686  0.6344  0.3423 -0.0963
  561TMC3    C8 8330   4.325   2.169  11.932 -0.1643 -0.0134 -0.2606
  561TMC3    O1 8331   4.510   2.579  11.787  0.0683  0.1280  0.0704
  561TMC3    O2 8332   4.340   2.057  11.978  0.0825  0.3288 -0.0782
  562TMC3    C1 8333   1.000   3.913  16.251 -0.2850  0.0342 -0.5966
  562TMC3    C2 8334   0.922   4.029  16.248  0.2754  0.3720 -0.4359
  562TMC3    C3 8335   0.880   4.075  16.127  0.6263 -0.8301 -0.4747
  562TMC3    C4 8336   1.022   3.844  16.137 -0.4266 -0.0636  0.0614
  562TMC3    C5 8337   0.983   3.896  16.018  0.6055  0.0171  0.0840
  562TMC3    C6 8338   0.901   4.005  16.008  0.5446 -0.2229  0.1206
  562TMC3     C 8339   1.036   3.847  16.374  0.0670 -0.0139  0.0157
  562TMC3     O 8340   0.992   3.906  16.470  0.2097  0.0223 -0.1222
  562TMC3     H 8341   0.897   4.082  16.339 -0.0642  1.2266 -1.0329
  562TMC3    H1 8342   1.076   3.750  16.136 -0.4207 -0.0577 -0.2618
  562TMC3    H2 8343   0.882   4.044  15.909 -0.3600 -0.1033  0.3418
  562TMC3    C7 8344   1.027   3.842  15.893 -0.0769  0.0926  0.4815
  562TMC3    C8 8345   0.810   4.208  16.132  0.3723  0.0883 -0.5607
  562TMC3    O1 8346   0.953   3.854  15.797  0.2074  0.1342  0.3640
  562TMC3    O2 8347   0.829   4.258  16.243 -0.1428 -0.3295 -0.6355
  563MPD2     C 8348   3.467   0.482  15.351  0.0430  0.6960 -0.1567
  563MPD2    C1 8349   3.507   0.599  15.408 -0.5675  0.1758 -0.0652
  563MPD2    C2 8350   3.635   0.643  15.388  0.4882 -0.7764 -0.4908
  563MPD2    C3 8351   3.714   0.571  15.296  0.3580 -0.3794  0.6515
  563MPD2    C4 8352   3.674   0.455  15.236 -0.2567  1.0389 -0.3315
  563MPD2    C5 8353   3.550   0.413  15.271  0.3732  0.1445 -0.3252
  563MPD2     H 8354   3.674   0.734  15.434  3.8245 -2.2540 -0.4276
  563MPD2    H1 8355   3.731   0.413  15.153 -0.4939  1.6136 -0.7862
  563MPD2    H2 8356   3.370   0.437  15.369  0.3394  1.6018  3.6951
  563MPD2    H3 8357   3.522   0.321  15.223  2.2200  0.1239 -1.3752
  563MPD2     N 8358   3.842   0.630  15.271  0.4226 -0.0495  0.3478
  563MPD2    H5 8359   3.853   0.720  15.316 -1.3976 -0.2330  1.1821
  563MPD2    N1 8360   3.409   0.678  15.485 -0.0775 -0.0669 -0.0322
  563MPD2    H7 8361   3.323   0.630  15.509 -0.3170 -0.3280 -1.3923
  564TMC3    C1 8362   3.323   0.846  15.635  0.3034 -0.4483 -0.2021
  564TMC3    C2 8363   3.196   0.803  15.625 -0.1779 -0.1202 -0.1131
  564TMC3    C3 8364   3.108   0.840  15.722  0.1821  0.2769 -0.3974
  564TMC3    C4 8365   3.367   0.926  15.742 -0.2735  0.4178 -0.2242
  564TMC3    C5 8366   3.277   0.969  15.833 -0.1905 -0.0688 -0.3631
  564TMC3    C6 8367   3.150   0.917  15.826 -0.6722  0.7915  0.2085
  564TMC3     C 8368   3.429   0.797  15.551  0.1218  0.0955 -0.4066
  564TMC3     O 8369   3.523   0.874  15.539 -0.0526  0.2094 -0.1239
  564TMC3     H 8370   3.160   0.745  15.540 -1.4953 -0.2557  0.5397
  564TMC3    H1 8371   3.469   0.953  15.766 -0.4842 -0.2077  1.3982
  564TMC3    H2 8372   3.070   0.937  15.897  0.5453  0.2156  1.7445
  564TMC3    C7 8373   3.332   0.974  15.971 -0.4355  0.1386  0.9584
  564TMC3    C8 8374   2.995   0.757  15.760 -0.1625 -0.3730  0.1037
  564TMC3    O1 8375   3.443   0.918  15.988  0.2918  0.3130 -0.0998
  564TMC3    O2 8376   3.005   0.712  15.872 -0.1669  0.3396 -0.1715
  565TMC3    C1 8377   4.215   2.101   9.824  0.3761 -0.3559  0.3699
  565TMC3    C2 8378   4.143   1.985   9.851 -0.0354 -0.5413 -0.0549
  565TMC3    C3 8379   4.004   1.995   9.845 -0.0454  0.4279  0.1771
  565TMC3    C4 8380   4.161   2.220   9.782 -0.8347 -0.5742  0.4572
  565TMC3    C5 8381   4.021   2.216   9.765  0.3035  0.6453  0.7338
  565TMC3    C6 8382   3.944   2.108   9.791 -0.0982 -0.1291 -0.0116
  565TMC3     C 8383   4.354   2.089   9.825  0.3217 -0.3517 -1.2939
  565TMC3     O 8384   4.415   2.197   9.820  0.4363 -0.0466 -0.0200
  565TMC3     H 8385   4.176   1.895   9.901 -0.5352 -0.6082  0.1559
  565TMC3    H1 8386   4.216   2.304   9.741  1.2558 -0.8918  2.6176
  565TMC3    H2 8387   3.840   2.129   9.813 -0.4205 -1.7368  0.0285
  565TMC3    C7 8388   3.948   2.341   9.731 -0.8322  0.0855 -0.0634
  565TMC3    C8 8389   3.940   1.945   9.968  0.0113  0.0643 -0.4997
  565TMC3    O1 8390   3.825   2.331   9.734 -0.3487  0.2480 -0.3116
  565TMC3    O2 8391   4.011   1.932  10.068  0.4154 -0.3625 -0.1836
  566MPD2     C 8392   0.456   3.897  14.327  0.6505  0.2760  0.5414
  566MPD2    C1 8393   0.555   3.898  14.235  0.3138 -0.3040 -0.1897
  566MPD2    C2 8394   0.540   3.845  14.110  0.5225 -0.3840  0.0911
  566MPD2    C3 8395   0.416   3.798  14.072 -0.1064 -1.1537 -0.2719
  566MPD2    C4 8396   0.315   3.802  14.170 -0.0831  0.5318  1.1436
  566MPD2    C5 8397   0.344   3.838  14.299  0.3728 -0.0706 -1.2562
  566MPD2     H 8398   0.620   3.831  14.038 -0.8501  1.9001 -1.8624
  566MPD2    H1 8399   0.215   3.776  14.134  0.0609 -1.3946  2.1265
  566MPD2    H2 8400   0.472   3.938  14.426 -0.8041 -1.0909  1.3320
  566MPD2    H3 8401   0.267   3.843  14.375  2.9236 -1.0532  1.4243
  566MPD2     N 8402   0.405   3.749  13.933  0.4036 -0.3648  0.1453
  566MPD2    H5 8403   0.494   3.742  13.886  1.0143  0.1286  1.2477
  566MPD2    N1 8404   0.666   3.972  14.270 -0.2082 -0.2363 -0.9651
  566MPD2    H7 8405   0.667   4.001  14.367  1.6888 -0.2711 -0.9686
  567TMC3    C1 8406   0.871   4.092  14.237 -0.4005  0.5737 -0.3625
  567TMC3    C2 8407   0.959   4.129  14.133  0.6414  0.5853  0.8128
  567TMC3    C3 8408   1.093   4.102  14.152 -0.2892 -1.0436 -0.2153
  567TMC3    C4 8409   0.913   4.033  14.353  0.1513  0.4678  0.3522
  567TMC3    C5 8410   1.048   4.002  14.371  0.5412 -0.2379  0.1976
  567TMC3    C6 8411   1.134   4.038  14.272 -0.4289  0.4535  0.3863
  567TMC3     C 8412   0.752   4.034  14.181 -0.2358  0.4936  0.6255
  567TMC3     O 8413   0.735   4.054  14.062 -0.7139  0.2549  0.3212
  567TMC3     H 8414   0.931   4.181  14.042 -0.9630 -1.5369  0.1083
  567TMC3    H1 8415   0.840   4.006  14.430 -0.0251 -1.3836 -0.4543
  567TMC3    H2 8416   1.234   3.998  14.286 -0.3987  0.0673 -0.9462
  567TMC3    C7 8417   1.061   3.863  14.397 -0.0180 -0.3586  0.2442
  567TMC3    C8 8418   1.151   4.053  14.028 -0.1084 -0.2682  0.6474
  567TMC3    O1 8419   1.131   3.811  14.305  0.4709 -0.2958  0.4847
  567TMC3    O2 8420   1.072   4.039  13.936  0.1208  0.1745 -0.6633
  568MPD2     C 8421   3.103   4.092  16.361  0.7445 -0.1499  0.2378
  568MPD2    C1 8422   3.023   4.160  16.452 -0.0705  0.0416 -0.9857
  568MPD2    C2 8423   2.970   4.285  16.422  0.0573  0.0843  0.6044
  568MPD2    C3 8424   2.977   4.331  16.288 -0.5313  0.6673 -0.4165
  568MPD2    C4 8425   3.061   4.260  16.200 -0.5255  0.4528 -0.0513
  568MPD2    C5 8426   3.115   4.141  16.236  0.8193  0.2759  1.0965
  568MPD2     H 8427   2.912   4.343  16.492  0.4971  0.4416  0.6664
  568MPD2    H1 8428   3.081   4.293  16.099  2.3330 -0.2857  0.2788
  568MPD2    H2 8429   3.152   3.999  16.385 -2.2062 -2.2384 -1.8047
  568MPD2    H3 8430   3.174   4.088  16.162 -0.5208  0.4155 -0.0820
  568MPD2     N 8431   2.912   4.446  16.253 -0.0269 -0.5272  0.7294
  568MPD2    H5 8432   2.846   4.478  16.323 -2.1361 -2.5050 -0.3723
  568MPD2    N1 8433   2.990   4.089  16.578  0.7905  0.0153  0.0250
  568MPD2    H7 8434   3.034   3.999  16.589  0.0451 -0.6622 -2.5720
  569TMC3    C1 8435   2.841   4.640  16.132 -0.2123 -0.0107 -0.5193
  569TMC3    C2 8436   2.849   4.712  16.255  0.3503  0.2077  0.0344
  569TMC3    C3 8437   2.807   0.118  16.245  0.0335 -0.2107  0.6143
  569TMC3    C4 8438   2.797   4.694  16.011  0.3111 -0.0314  0.7499
  569TMC3    C5 8439   2.761   0.111  16.015 -0.4329 -0.2204 -0.6462
  569TMC3    C6 8440   2.757   0.182  16.131  0.0898 -0.2483  0.3497
  569TMC3     C 8441   2.899   4.503  16.123 -0.1562 -0.1866  0.2569
  569TMC3     O 8442   2.950   4.460  16.017  0.0806 -0.2574 -0.2999
  569TMC3     H 8443   2.881   4.660  16.344  1.0915 -2.4646 -1.7789
  569TMC3    H1 8444   2.819   4.642  15.919 -0.2807  2.0694 -0.5585
  569TMC3    H2 8445   2.730   0.287  16.128  2.3512  0.3253  0.7693
  569TMC3    C7 8446   2.731   0.163  15.881  0.0982 -0.4538 -0.4353
  569TMC3    C8 8447   2.806   0.204  16.361  0.2371 -0.4863 -1.5379
  569TMC3    O1 8448   2.700   0.086  15.786 -0.7762  0.1206  0.0933
  569TMC3    O2 8449   2.731   0.302  16.350 -0.3733  0.1018 -0.7819
  570TMC3    C1 8450   2.281   3.142  16.172  0.5012 -0.0258 -0.3038
  570TMC3    C2 8451   2.388   3.118  16.096  0.2649 -0.1532  0.0055
  570TMC3    C3 8452   2.459   3.231  16.058  0.6083  0.3274 -0.1309
  570TMC3    C4 8453   2.224   3.263  16.200 -0.0732  0.6834 -0.4671
  570TMC3    C5 8454   2.297   3.372  16.156  0.0772  0.4607  0.0735
  570TMC3    C6 8455   2.420   3.360  16.095  0.4784  0.0621 -0.2818
  570TMC3     C 8456   2.222   3.021  16.235  1.8525 -0.4427 -0.4520
  570TMC3     O 8457   2.256   2.914  16.188  0.1828 -0.5343 -0.2565
  570TMC3     H 8458   2.424   3.017  16.076  0.7612 -0.2770  1.5344
  570TMC3    H1 8459   2.135   3.273  16.260 -0.3430 -0.7781 -0.6179
  570TMC3    H2 8460   2.478   3.449  16.074 -3.0234  1.8803 -2.1919
  570TMC3    C7 8461   2.245   3.496  16.203  0.4856  0.2948  0.6232
  570TMC3    C8 8462   2.571   3.222  15.964 -0.4879 -0.0686 -0.3174
  570TMC3    O1 8463   2.162   3.497  16.298 -0.4312 -0.3944  0.1382
  570TMC3    O2 8464   2.639   3.321  15.960  0.2074  0.3044 -0.6168
  571MPD2     C 8465   0.089   0.881  17.493  0.4121 -0.4428  0.3677
  571MPD2    C1 8466   4.682   0.830  17.517 -0.0465 -0.3659 -0.5130
  571MPD2    C2 8467   4.566   0.912  17.510  0.1950 -0.0797  0.1512
  571MPD2    C3 8468   4.588   1.046  17.475  0.2393  0.0449 -0.6324
  571MPD2    C4 8469   4.717   1.092  17.460 -0.3319  0.4104  0.2264
  571MPD2    C5 8470   0.107   1.014  17.475 -0.7739  0.2485  0.5065
  571MPD2     H 8471   4.466   0.874  17.528 -0.2875  0.8238 -0.5879
  571MPD2    H1 8472   0.013   1.199  17.456 -1.6632  0.6921  1.6417
  571MPD2    H2 8473   0.175   0.815  17.494 -0.2355 -1.2939 -0.5224
  571MPD2    H3 8474   0.209   1.053  17.467 -1.2604  1.5571  0.6242
  571MPD2     N 8475   4.478   1.145  17.466 -0.8655 -0.8135 -0.1246
  571MPD2    H5 8476   4.504   1.243  17.464 -1.1711 -0.7259  0.2192
  571MPD2    N1 8477   4.682   0.689  17.537  0.0449  0.3391  0.0136
  571MPD2    H7 8478   0.046   0.644  17.510 -0.4738 -0.3268 -0.5350
  572TMC3    C1 8479   4.265   1.245  17.481 -0.1862 -0.0462 -0.0626
  572TMC3    C2 8480   4.137   1.236  17.447  0.2034 -0.2497 -0.1592
  572TMC3    C3 8481   4.048   1.334  17.483 -0.1853  0.4299 -0.9100
  572TMC3    C4 8482   4.306   1.353  17.549 -0.5311  0.3069 -0.2027
  572TMC3    C5 8483   4.223   1.463  17.563  0.8342 -0.0159  0.1413
  572TMC3    C6 8484   4.089   1.454  17.539  0.3605 -0.1725 -0.7040
  572TMC3     C 8485   4.342   1.121  17.468  0.1704 -0.1297 -0.3659
  572TMC3     O 8486   4.278   1.018  17.470 -0.0872 -0.6465  0.4054
  572TMC3     H 8487   4.098   1.138  17.421 -0.5252  0.2761 -1.0777
  572TMC3    H1 8488   4.412   1.367  17.565 -0.8889  0.6377  1.9143
  572TMC3    H2 8489   4.024   1.540  17.530 -0.8975 -1.1170 -0.7099
  572TMC3    C7 8490   4.273   1.568  17.640 -0.2373 -0.4681 -0.2353
  572TMC3    C8 8491   3.911   1.298  17.468 -0.1710 -0.5655 -0.4175
  572TMC3    O1 8492   4.301   1.536   0.063  0.3357 -0.2662  0.5502
  572TMC3    O2 8493   3.878   1.212  17.387  0.2622  0.2357  0.0862
  573MPD2     C 8494   1.161   1.546   1.338  0.2303 -0.4300  0.3332
  573MPD2    C1 8495   1.191   1.450   1.248 -0.2589  0.3790  0.3159
  573MPD2    C2 8496   1.096   1.391   1.166 -0.3340 -0.3692 -0.0616
  573MPD2    C3 8497   0.963   1.438   1.175  0.3061 -0.0040 -0.0188
  573MPD2    C4 8498   0.931   1.541   1.263 -0.0534 -0.0732 -0.7874
  573MPD2    C5 8499   1.030   1.585   1.350  0.4051  0.3402  0.3881
  573MPD2     H 8500   1.122   1.307   1.103 -1.2465 -0.3595 -0.4525
  573MPD2    H1 8501   0.829   1.569   1.289  0.3884 -0.4286  1.3223
  573MPD2    H2 8502   1.233   1.577   1.412 -1.6717  2.1449  1.0991
  573MPD2    H3 8503   1.002   1.659   1.423  0.9832  0.1233  0.8326
  573MPD2     N 8504   0.862   1.393   1.091 -0.5433 -0.8412 -0.3770
  573MPD2    H5 8505   0.769   1.434   1.100  0.3314  0.9666  0.4016
  573MPD2    N1 8506   1.328   1.415   1.243  0.0090 -0.2892  0.6146
  573MPD2    H7 8507   1.395   1.460   1.305  2.4959 -1.1376 -1.4423
  574TMC3    C1 8508   0.726   1.246   0.973  0.2499 -0.1448 -0.2125
  574TMC3    C2 8509   0.648   1.344   0.923  0.3958  0.6991  0.1236
  574TMC3    C3 8510   0.537   1.302   0.866  0.3474  0.6580  0.6518
  574TMC3    C4 8511   0.702   1.118   0.952 -0.1098 -0.2041  0.0720
  574TMC3    C5 8512   0.586   1.076   0.893  0.3860  0.1253  0.4754
  574TMC3    C6 8513   0.501   1.168   0.844 -0.3075  0.4253 -0.6057
  574TMC3     C 8514   0.857   1.276   1.021  0.0355 -0.2121 -0.8024
  574TMC3     O 8515   0.951   1.203   1.003  0.4628  0.0801 -0.1036
  574TMC3     H 8516   0.668   1.449   0.942 -0.9706  1.1158 -0.7410
  574TMC3    H1 8517   0.778   1.047   0.982 -1.5090 -1.7356 -0.0006
  574TMC3    H2 8518   0.409   1.138   0.794 -0.5430  1.5436 -0.8475
  574TMC3    C7 8519   0.547   0.939   0.899  0.8399  0.2397 -0.2994
  574TMC3    C8 8520   0.446   1.403   0.813  0.3490  0.4533 -0.4382
  574TMC3    O1 8521   0.467   0.894   0.815  0.1052 -0.2397  0.0738
  574TMC3    O2 8522   0.326   1.380   0.815  0.0485  0.4636  0.5107
  575TMC3    C1 8523   4.059   1.473  10.697  0.4198  0.2634 -0.1974
  575TMC3    C2 8524   3.976   1.378  10.740  0.1586 -0.5305 -0.4300
  575TMC3    C3 8525   3.872   1.347  10.657  0.2976 -0.2050  0.1729
  575TMC3    C4 8526   4.043   1.535  10.574 -0.2210 -0.0853  0.3091
  575TMC3    C5 8527   3.939   1.502  10.494 -0.5803  0.4544  0.7437
  575TMC3    C6 8528   3.846   1.410  10.535 -0.1766  0.0757  0.3369
  575TMC3     C 8529   4.167   1.506  10.783  0.4317 -0.2906  0.1195
  575TMC3     O 8530   4.151   1.497  10.904 -0.1625  0.2573 -0.0334
  575TMC3     H 8531   3.990   1.336  10.839 -3.0176  1.7142  0.9962
  575TMC3    H1 8532   4.108   1.617  10.544  0.1819  0.0334  1.5364
  575TMC3    H2 8533   3.762   1.371  10.479  1.5779 -1.2368 -1.3809
  575TMC3    C7 8534   3.923   1.583  10.372  0.2991 -0.5017  0.0888
  575TMC3    C8 8535   3.773   1.247  10.693 -0.1879 -0.5093  0.3264
  575TMC3    O1 8536   4.010   1.657  10.330  0.7747  0.1435  0.4107
  575TMC3    O2 8537   3.692   1.205  10.613 -0.2489 -0.2660  0.4788
  576MPD2     C 8538   3.348   2.807  12.792 -0.7635 -0.6005 -0.7181
  576MPD2    C1 8539   3.380   2.895  12.698 -0.3756  0.0363 -0.4708
  576MPD2    C2 8540   3.295   3.000  12.673  0.4730  0.1296 -0.7065
  576MPD2    C3 8541   3.181   3.029  12.747 -0.2647  0.9255  0.2253
  576MPD2    C4 8542   3.155   2.945  12.851  0.0643  0.2274 -0.0630
  576MPD2    C5 8543   3.239   2.836  12.871  0.1535  0.9386  0.0603
  576MPD2     H 8544   3.317   3.072  12.594 -1.2653  2.4447  0.9097
  576MPD2    H1 8545   3.060   2.952  12.904  0.0529 -0.0278 -0.0517
  576MPD2    H2 8546   3.392   2.711  12.817 -0.3868 -0.8090 -2.2254
  576MPD2    H3 8547   3.204   2.768  12.947  1.0080 -0.1976 -0.5694
  576MPD2     N 8548   3.087   3.126  12.705  0.4052  0.5866 -0.4223
  576MPD2    H5 8549   3.110   3.189  12.630 -0.2894  1.6566  0.2633
  576MPD2    N1 8550   3.491   2.884  12.615  0.6688  0.6245  0.0355
  576MPD2    H7 8551   3.509   2.952  12.541  1.0750  0.7465  0.2433
  577TMC3    C1 8552   3.666   2.773  12.515  0.1333  0.2152 -0.0652
  577TMC3    C2 8553   3.762   2.672  12.527 -0.5144  0.0257  0.3902
  577TMC3    C3 8554   3.863   2.657  12.435  0.0143  0.3278  0.8053
  577TMC3    C4 8555   3.668   2.851  12.397  0.0112 -0.5675 -0.6514
  577TMC3    C5 8556   3.759   2.820  12.299  0.4807  0.5021  0.1147
  577TMC3    C6 8557   3.858   2.728  12.320 -0.0987  0.0038  0.5272
  577TMC3     C 8558   3.568   2.775  12.617 -0.4732 -0.4393  0.2900
  577TMC3     O 8559   3.578   2.683  12.700  0.1678 -0.6985 -0.0454
  577TMC3     H 8560   3.766   2.610  12.615  1.4098  0.0584  0.3363
  577TMC3    H1 8561   3.596   2.930  12.380 -0.8621 -0.9089  1.3596
  577TMC3    H2 8562   3.922   2.716  12.233  1.4021  2.1307  1.3330
  577TMC3    C7 8563   3.791   2.898  12.178  0.2160  0.1767  0.3315
  577TMC3    C8 8564   3.924   2.524  12.430  0.8280 -0.2975 -0.9174
  577TMC3    O1 8565   3.908   2.937  12.171 -0.3399  0.2723  0.2154
  577TMC3    O2 8566   3.879   2.445  12.511  0.3028  0.2514 -0.5982
  578MPD2     C 8567   2.146   3.851   1.618 -0.4976  0.4787 -0.6028
  578MPD2    C1 8568   2.268   3.830   1.559 -0.2320 -0.2388  0.2253
  578MPD2    C2 8569   2.332   3.706   1.576 -0.2436  0.0920 -0.0986
  578MPD2    C3 8570   2.275   3.609   1.657 -0.0708  0.2294  0.7626
  578MPD2    C4 8571   2.149   3.637   1.711  0.9111  0.3196 -0.0614
  578MPD2    C5 8572   2.080   3.757   1.684  0.0399  0.4597  1.2184
  578MPD2     H 8573   2.421   3.680   1.520  1.9751  1.8679  2.5463
  578MPD2    H1 8574   2.098   3.555   1.762  1.1043  0.0145 -0.3571
  578MPD2    H2 8575   2.090   3.944   1.610 -0.0138  0.7497 -0.8047
  578MPD2    H3 8576   1.978   3.774   1.718 -1.1610 -3.1596 -0.5260
  578MPD2     N 8577   2.354   3.493   1.688 -0.3729  0.2714  0.2294
  578MPD2    H5 8578   2.436   3.475   1.630 -0.5733  0.3640 -0.0840
  578MPD2    N1 8579   2.327   3.941   1.498  0.4283  0.5545 -0.5176
  578MPD2    H7 8580   2.273   4.026   1.512  1.6981  1.4861 -1.2242
  579TMC3    C1 8581   2.390   3.303   1.835 -0.6709  0.4911  0.0034
  579TMC3    C2 8582   2.438   3.269   1.967  0.3877 -0.1015  0.0217
  579TMC3    C3 8583   2.510   3.154   1.971 -0.1320 -0.5651  0.1979
  579TMC3    C4 8584   2.421   3.230   1.726 -0.3275 -0.4102  0.6795
  579TMC3    C5 8585   2.504   3.120   1.746  0.1488  0.1502  0.5943
  579TMC3    C6 8586   2.540   3.076   1.866  0.6114  0.1308  0.8211
  579TMC3     C 8587   2.337   3.433   1.811 -0.0183  0.2009  0.4946
  579TMC3     O 8588   2.270   3.463   1.905 -0.0065  0.1028 -0.3447
  579TMC3     H 8589   2.430   3.343   2.045  1.8190 -0.5903  0.6162
  579TMC3    H1 8590   2.427   3.272   1.626  3.2745  1.1899  1.5439
  579TMC3    H2 8591   2.598   2.987   1.885 -0.3179 -1.0309 -1.8881
  579TMC3    C7 8592   2.585   3.072   1.633 -0.2631  0.4504 -0.0786
  579TMC3    C8 8593   2.618   3.169   2.059  0.8907  0.5341  1.1717
  579TMC3    O1 8594   2.701   3.044   1.652  0.0082  0.6942 -0.0979
  579TMC3    O2 8595   2.604   3.198   2.176  0.3316  0.5119  0.3623
  580TMC3    C1 8596   1.327   2.461  12.097 -0.8808 -0.3424 -0.0451
  580TMC3    C2 8597   1.234   2.490  12.002  0.3150 -0.0726  0.4070
  580TMC3    C3 8598   1.178   2.390  11.927  0.6356 -0.0866 -0.4152
  580TMC3    C4 8599   1.348   2.329  12.125  0.5527 -0.4776  0.1749
  580TMC3    C5 8600   1.275   2.235  12.063 -0.2310  0.0011 -0.1550
  580TMC3    C6 8601   1.199   2.260  11.956 -0.2624  0.1121 -0.5898
  580TMC3     C 8602   1.450   2.538  12.062  0.0472  0.3344  0.0871
  580TMC3     O 8603   1.447   2.650  12.007  0.2155  0.2685 -0.1810
  580TMC3     H 8604   1.230   2.591  11.962 -0.2399  0.2865  1.3824
  580TMC3    H1 8605   1.402   2.307  12.216  1.0108 -0.2145 -0.0344
  580TMC3    H2 8606   1.157   2.179  11.898 -1.9104  0.5795 -0.0617
  580TMC3    C7 8607   1.301   2.100  12.110 -0.9329  0.4680  0.0005
  580TMC3    C8 8608   1.185   2.409  11.781 -0.4433 -0.8188 -0.6090
  580TMC3    O1 8609   1.407   2.090  12.170  0.6539  0.2725  0.2376
  580TMC3    O2 8610   1.138   2.506  11.729 -0.1672 -0.6521  0.7215
  581MPD2     C 8611   4.396   1.921  14.757  0.1347  0.0172 -1.0495
  581MPD2    C1 8612   4.296   1.860  14.825 -0.5677 -0.2642  0.3175
  581MPD2    C2 8613   4.165   1.892  14.796 -0.1770  0.7910  0.1392
  581MPD2    C3 8614   4.129   1.995  14.710  0.6302 -0.0539 -0.6643
  581MPD2    C4 8615   4.231   2.047  14.637  0.5331  0.2683 -0.5844
  581MPD2    C5 8616   4.360   2.011  14.660  0.1710 -0.1043  0.0304
  581MPD2     H 8617   4.090   1.842  14.856 -2.1274  0.7273 -2.3558
  581MPD2    H1 8618   4.214   2.129  14.569  0.3737  0.1150 -0.7291
  581MPD2    H2 8619   4.502   1.902  14.772 -0.2200 -2.0445 -1.2291
  581MPD2    H3 8620   4.433   2.076  14.612 -0.6827  0.4650 -0.4835
  581MPD2     N 8621   3.993   2.046  14.711 -0.7211  0.0735 -0.1893
  581MPD2    H5 8622   3.927   1.986  14.758  0.0838 -1.4142 -0.9282
  581MPD2    N1 8623   4.337   1.774  14.929 -0.0335  0.3854 -0.4310
  581MPD2    H7 8624   4.431   1.790  14.965 -0.3508  0.3002  0.4451
  582TMC3    C1 8625   4.333   1.627  15.109  0.1547  0.7168 -0.2717
  582TMC3    C2 8626   4.434   1.698  15.174  0.1033 -0.3721  0.3152
  582TMC3    C3 8627   4.468   1.667  15.302 -0.1422  0.6597  1.5164
  582TMC3    C4 8628   4.277   1.518  15.167  0.6429 -0.6009  0.1304
  582TMC3    C5 8629   4.308   1.502  15.295  0.4004  0.5810 -0.6274
  582TMC3    C6 8630   4.397   1.574  15.372 -0.6327 -0.3232  0.0731
  582TMC3     C 8631   4.262   1.680  14.994 -0.3050  0.1914 -0.2088
  582TMC3     O 8632   4.171   1.613  14.954  1.1178  0.1696  0.4896
  582TMC3     H 8633   4.477   1.785  15.125  0.5514 -0.7776 -0.0203
  582TMC3    H1 8634   4.188   1.466  15.133  0.3655  1.2432 -1.9359
  582TMC3    H2 8635   4.406   1.553  15.478 -0.0833 -0.6952 -0.0464
  582TMC3    C7 8636   4.192   1.477  15.369  0.4313  0.2911 -0.0335
  582TMC3    C8 8637   4.510   1.779  15.392  0.4352 -0.2929 -0.0513
  582TMC3    O1 8638   4.116   1.388  15.332  0.2521 -0.0732 -0.3435
  582TMC3    O2 8639   4.484   1.761  15.510  0.5792  0.1950  0.7275
  583MPD2     C 8640   3.929   4.021  16.636  1.1109  0.0787 -0.1293
  583MPD2    C1 8641   4.057   4.078  16.617 -0.4379  1.1591 -0.8285
  583MPD2    C2 8642   4.092   4.197  16.683  0.0771  0.4533 -0.1027
  583MPD2    C3 8643   4.002   4.272  16.762  0.2318 -0.3589 -0.1094
  583MPD2    C4 8644   3.873   4.219  16.763  0.0728 -0.0834 -0.5265
  583MPD2    C5 8645   3.836   4.099  16.703  0.2996 -0.2872 -0.0474
  583MPD2     H 8646   4.185   4.244  16.656 -0.1067  1.7070  1.4754
  583MPD2    H1 8647   3.793   4.274  16.812  0.2996 -0.2848  0.0692
  583MPD2    H2 8648   3.900   3.929  16.587  3.7774 -1.7707  1.7516
  583MPD2    H3 8649   3.732   4.072  16.716 -0.0900  0.6917 -1.1387
  583MPD2     N 8650   4.042   4.389  16.830 -0.4664  0.0835 -0.3102
  583MPD2    H5 8651   4.138   4.417  16.816 -0.3561 -1.1552 -1.9763
  583MPD2    N1 8652   4.161   4.004  16.551  0.5396  0.1536 -0.1183
  583MPD2    H7 8653   4.242   4.063  16.535  0.4846  0.2336 -0.0968
  584TMC3    C1 8654   4.022   4.576  16.976 -0.6353 -0.3748  0.3866
  584TMC3    C2 8655   4.084   4.672  16.899  0.6975  0.2128  0.1024
  584TMC3    C3 8656   4.130   0.065  16.956 -0.0429  0.1917 -0.4345
  584TMC3    C4 8657   4.002   4.598  17.110  0.0652 -0.4606  0.5339
  584TMC3    C5 8658   4.064   4.708  17.165  0.0829  0.7096 -0.1217
  584TMC3    C6 8659   4.112   0.092  17.091  0.1320 -0.0243 -0.4735
  584TMC3     C 8660   3.962   4.460  16.917 -0.1334 -0.3222 -0.0972
  584TMC3     O 8661   3.851   4.435  16.967  0.1168 -0.5704  0.3185
  584TMC3     H 8662   4.091   4.658  16.792 -0.8850 -0.3046  0.0639
  584TMC3    H1 8663   3.957   4.520  17.171 -0.5802 -0.0355  0.6019
  584TMC3    H2 8664   4.162   0.177  17.136 -2.0680  1.8128 -1.5234
  584TMC3    C7 8665   4.030   0.005  17.305  1.0674  0.4936  0.2940
  584TMC3    C8 8666   4.183   0.161  16.868  0.4878  0.3011  0.5926
  584TMC3    O1 8667   4.030   4.624  17.371 -0.2700 -0.3152  0.4935
  584TMC3    O2 8668   4.217   0.116  16.760 -0.4659 -0.3161  0.3435
  585MPD2     C 8669   2.990   3.139   0.123  0.7998 -0.1421  0.2243
  585MPD2    C1 8670   3.121   3.168   0.137  0.0608  0.9487  0.8021
  585MPD2    C2 8671   3.213   3.076   0.091 -0.7190 -0.7004  0.1848
  585MPD2    C3 8672   3.171   2.962   0.033  0.4340  0.7155  0.0986
  585MPD2    C4 8673   3.041   2.944   0.005  0.1882  0.0825 -0.3474
  585MPD2    C5 8674   2.950   3.036   0.049 -0.5163  0.4344 -0.6621
  585MPD2     H 8675   3.318   3.100   0.102 -0.9963  0.6147  0.0490
  585MPD2    H1 8676   2.999   2.867  17.633 -0.8071 -0.0935  0.5465
  585MPD2    H2 8677   2.913   3.207   0.158  1.7147  0.4885  1.0130
  585MPD2    H3 8678   2.843   3.026   0.033 -0.5380  0.3724 -0.4820
  585MPD2     N 8679   3.254   2.860  17.678 -1.0051 -0.0232  0.3086
  585MPD2    H5 8680   3.199   2.792  17.626  0.1290  0.3634 -1.4258
  585MPD2    N1 8681   3.156   3.283   0.209  0.7412 -0.0129  0.4368
  585MPD2    H7 8682   3.084   3.331   0.262  1.4896 -0.5275  1.9071
  586TMC3    C1 8683   3.431   2.717  17.651 -0.1942 -0.7316 -0.4625
  586TMC3    C2 8684   3.371   2.602  17.689 -0.2762 -0.2856  0.3164
  586TMC3    C3 8685   3.428   2.491  17.642 -0.1361  0.2577  0.1297
  586TMC3    C4 8686   3.543   2.727  17.575  0.2468 -0.4600 -0.5464
  586TMC3    C5 8687   3.602   2.613  17.538 -0.3723  0.3762  0.2106
  586TMC3    C6 8688   3.550   2.486  17.577  0.3464 -0.1196 -0.2184
  586TMC3     C 8689   3.384   2.843   0.011  0.5790 -0.0076 -0.8226
  586TMC3     O 8690   3.466   2.918   0.067  0.1540  0.0819 -0.1308
  586TMC3     H 8691   3.284   2.606   0.063  0.8846  1.5883  1.7975
  586TMC3    H1 8692   3.582   2.825  17.552  1.1925 -0.0704  2.7646
  586TMC3    H2 8693   3.582   2.387  17.547 -0.2509 -0.0949 -0.9403
  586TMC3    C7 8694   3.669   2.605  17.408  0.2526  0.2644 -0.0759
  586TMC3    C8 8695   3.334   2.384  17.632 -0.5434  0.0250 -0.2705
  586TMC3    O1 8696   3.620   2.681  17.323 -0.0031 -0.3009  0.5445
  586TMC3    O2 8697   3.239   2.369   0.021  0.1108  0.2940 -0.1525
  587TMC3    C1 8698   1.448   1.751  16.435 -0.0403 -0.9799  0.5746
  587TMC3    C2 8699   1.367   1.844  16.502  0.0587  0.1382  0.1061
  587TMC3    C3 8700   1.418   1.892  16.620 -0.1205 -0.0754  0.0553
  587TMC3    C4 8701   1.580   1.729  16.474  0.4898 -0.2633  0.1656
  587TMC3    C5 8702   1.619   1.776  16.594 -0.3904 -0.2979 -0.5944
  587TMC3    C6 8703   1.541   1.853  16.669  0.2979 -0.1752 -0.5969
  587TMC3     C 8704   1.394   1.636  16.361 -0.1082 -0.3560  0.8972
  587TMC3     O 8705   1.458   1.570  16.278  0.3143  0.2350 -0.1525
  587TMC3     H 8706   1.268   1.871  16.466 -1.0359 -2.4825  1.1802
  587TMC3    H1 8707   1.643   1.666  16.413 -0.0282 -0.0583 -0.5826
  587TMC3    H2 8708   1.582   1.876  16.766  0.2818  2.4035 -1.2012
  587TMC3    C7 8709   1.724   1.715  16.661  0.2085 -0.0159  0.4198
  587TMC3    C8 8710   1.359   1.992  16.702 -0.2289  0.1108 -0.1289
  587TMC3    O1 8711   1.832   1.709  16.608  0.3120  0.3325 -0.3721
  587TMC3    O2 8712   1.437   2.050  16.780  0.1187  0.4382  0.1360
  588TMC3    C1 8713   2.848   3.753   9.616  0.8389 -0.1316  0.2017
  588TMC3    C2 8714   2.844   3.615   9.594  0.1607 -0.6303  0.1292
  588TMC3    C3 8715   2.880   3.526   9.689  0.0155 -0.1014  0.4740
  588TMC3    C4 8716   2.898   3.802   9.735  0.3044 -0.7536  0.5138
  588TMC3    C5 8717   2.937   3.706   9.827  0.3184  0.0724  0.4301
  588TMC3    C6 8718   2.937   3.568   9.808  0.7240 -0.3222 -0.2269
  588TMC3     C 8719   2.767   3.848   9.536 -0.0276  0.0689 -0.3417
  588TMC3     O 8720   2.679   3.791   9.469  0.6923  0.5739  0.3603
  588TMC3     H 8721   2.791   3.586   9.504 -1.9229  2.6590  0.2915
  588TMC3    H1 8722   2.921   3.906   9.750 -1.2161 -0.0920 -1.6795
  588TMC3    H2 8723   2.956   3.499   9.889 -1.2061  1.7252  1.9814
  588TMC3    C7 8724   2.956   3.753   9.961 -0.3445 -0.3033 -0.1758
  588TMC3    C8 8725   2.878   3.386   9.655 -0.2502 -0.9739 -0.3603
  588TMC3    O1 8726   3.053   3.717  10.026  0.2621 -0.0633 -0.0458
  588TMC3    O2 8727   2.805   3.363   9.557 -0.5029  0.0832 -0.4055
  589TMC3    C1 8728   2.435   2.117   1.284  0.2478 -0.3170  0.3474
  589TMC3    C2 8729   2.485   2.219   1.359 -0.1186 -0.2772 -0.5718
  589TMC3    C3 8730   2.620   2.227   1.371  0.5255 -0.3667  0.1073
  589TMC3    C4 8731   2.516   2.039   1.220 -0.0218 -0.3203 -0.4502
  589TMC3    C5 8732   2.648   2.047   1.230  0.0601  0.0744  0.5488
  589TMC3    C6 8733   2.708   2.143   1.309 -0.5449 -0.0628  0.4009
  589TMC3     C 8734   2.316   2.155   1.215  0.5592 -0.0001  0.5506
  589TMC3     O 8735   2.322   2.123   1.091  0.7825 -0.3407  0.1568
  589TMC3     H 8736   2.426   2.305   1.390 -0.6985 -0.3632 -1.4226
  589TMC3    H1 8737   2.486   1.953   1.161  0.0137 -1.5634  1.3733
  589TMC3    H2 8738   2.804   2.134   1.357  0.4157  0.1711 -1.4646
  589TMC3    C7 8739   2.727   1.922   1.217  0.5337  0.6092  0.1217
  589TMC3    C8 8740   2.682   2.341   1.436  0.2784  0.2599 -0.9800
  589TMC3    O1 8741   2.667   1.813   1.226 -0.4932 -0.3062  0.2347
  589TMC3    O2 8742   2.608   2.404   1.512  0.1092  0.0963 -0.1118
  590MPD2     C 8743   1.175   4.318  16.455 -0.1583  0.1422  0.0668
  590MPD2    C1 8744   1.233   4.362  16.337  0.4753  0.1832 -0.9366
  590MPD2    C2 8745   1.367   4.400  16.346 -0.8401  0.8840 -0.1791
  590MPD2    C3 8746   1.433   4.412  16.463  0.5666 -0.4062  0.3822
  590MPD2    C4 8747   1.376   4.361  16.579  0.3959 -0.3247 -0.1356
  590MPD2    C5 8748   1.242   4.319  16.576  0.0664  0.2746  0.4589
  590MPD2     H 8749   1.433   4.414  16.261  2.0555 -1.6591  1.6134
  590MPD2    H1 8750   1.427   4.360  16.675 -1.8372 -0.6187  1.0430
  590MPD2    H2 8751   1.074   4.280  16.465 -0.2052  0.8542  2.1794
  590MPD2    H3 8752   1.200   4.281  16.669  2.6327 -1.0488  1.0747
  590MPD2     N 8753   1.553   4.492  16.460 -0.2249 -0.0724  0.2136
  590MPD2    H5 8754   1.571   4.531  16.368  0.9231 -1.8704 -0.3252
  590MPD2    N1 8755   1.153   4.372  16.223 -0.5441 -0.5213 -0.2072
  590MPD2    H7 8756   1.056   4.345  16.236 -0.0023 -2.6826 -0.7691
  591TMC3    C1 8757   1.699   4.654  16.503 -0.0849 -0.0362  0.8379
  591TMC3    C2 8758   1.761   4.601  16.386  0.0521  0.6774  0.5651
  591TMC3    C3 8759   1.822   4.684  16.294  0.3309  0.2091  0.7609
  591TMC3    C4 8760   1.712   0.067  16.521 -0.2427 -0.0205 -0.1242
  591TMC3    C5 8761   1.758   0.150  16.420 -0.1406 -0.5670  0.4038
  591TMC3    C6 8762   1.814   0.097  16.309 -0.5652  0.0041 -0.2510
  591TMC3     C 8763   1.596   4.580  16.560 -0.3655  0.1180 -0.4962
  591TMC3     O 8764   1.549   4.602  16.669  0.0170  0.1362 -0.0556
  591TMC3     H 8765   1.777   4.494  16.372  2.2790  1.1532 -0.4051
  591TMC3    H1 8766   1.654   0.113  16.600  1.4017  0.0237  1.0483
  591TMC3    H2 8767   1.875   0.152  16.238 -2.2584  1.1021 -0.8491
  591TMC3    C7 8768   1.790   0.287  16.448 -0.2741 -0.0869 -0.8633
  591TMC3    C8 8769   1.833   4.624  16.166 -0.2788  0.9175 -0.1679
  591TMC3    O1 8770   1.796   0.326  16.561  0.1950  0.3035  0.1928
  591TMC3    O2 8771   1.871   4.510  16.153  0.2571  0.3544  0.0578
  592MPD2     C 8772   2.164   1.598  11.384 -0.5143 -0.1522 -0.7955
  592MPD2    C1 8773   2.170   1.671  11.504  0.4616 -0.7717  0.3749
  592MPD2    C2 8774   2.089   1.630  11.610 -0.7145 -0.0901 -0.4605
  592MPD2    C3 8775   2.020   1.512  11.603 -0.7715 -0.4923  0.4315
  592MPD2    C4 8776   2.023   1.441  11.484  0.4273 -0.3366  0.6083
  592MPD2    C5 8777   2.087   1.490  11.375 -0.4354  0.2423  0.1401
  592MPD2     H 8778   2.081   1.683  11.704 -0.9342 -1.3732  0.2365
  592MPD2    H1 8779   1.974   1.345  11.472  0.8831 -0.3942 -0.7529
  592MPD2    H2 8780   2.213   1.623  11.291 -3.1083 -0.9312 -2.3520
  592MPD2    H3 8781   2.090   1.424  11.289 -0.6695 -0.3942  0.6229
  592MPD2     N 8782   1.957   1.464  11.722  0.7371 -0.5164  0.1403
  592MPD2    H5 8783   1.958   1.519  11.807  1.8342 -0.1043 -0.1442
  592MPD2    N1 8784   2.252   1.790  11.518 -0.0899  0.2570  0.0078
  592MPD2    H7 8785   2.324   1.804  11.448 -0.2019  1.7139  0.1961
  593TMC3    C1 8786   2.353   1.978  11.620 -0.2885 -0.1419 -0.6648
  593TMC3    C2 8787   2.380   2.033  11.744  0.1797  0.7974 -0.1019
  593TMC3    C3 8788   2.503   2.082  11.778  0.2258  0.1200  0.4391
  593TMC3    C4 8789   2.454   1.971  11.528  0.5198 -0.2338 -0.4821
  593TMC3    C5 8790   2.574   2.024  11.557  0.9211  0.1416  0.6277
  593TMC3    C6 8791   2.598   2.078  11.680 -0.6336  0.7988  0.2093
  593TMC3     C 8792   2.242   1.880  11.615 -0.8802  0.2049 -0.4066
  593TMC3     O 8793   2.143   1.899  11.687  0.0966 -0.0968 -0.1422
  593TMC3     H 8794   2.303   2.030  11.820 -1.1217 -2.3065 -1.5663
  593TMC3    H1 8795   2.444   1.921  11.432 -0.6370 -0.2858 -0.3373
  593TMC3    H2 8796   2.689   2.133  11.701 -0.7821  0.4492  1.7123
  593TMC3    C7 8797   2.680   2.031  11.450  0.7844 -0.7629  0.2349
  593TMC3    C8 8798   2.539   2.046  11.913 -0.1659  0.0794 -0.3148
  593TMC3    O1 8799   2.776   2.102  11.478 -0.6692 -0.0828  0.6551
  593TMC3    O2 8800   2.446   2.026  11.987 -0.0187  0.6694 -0.1746
  594MPD2     C 8801   0.766   0.493  14.018  0.0243 -0.1157 -0.0688
  594MPD2    C1 8802   0.778   0.481  14.151 -0.7886  0.4444 -0.0138
  594MPD2    C2 8803   0.883   0.528  14.219 -0.1185  0.6939  0.3926
  594MPD2    C3 8804   0.986   0.598  14.153  0.3581  0.7372  1.2428
  594MPD2    C4 8805   0.986   0.601  14.011  0.3809  0.2345  0.0555
  594MPD2    C5 8806   0.871   0.552  13.947  0.1139 -0.2086  0.0073
  594MPD2     H 8807   0.892   0.525  14.327  1.6766  0.3690  0.2362
  594MPD2    H1 8808   1.057   0.652  13.947 -0.8392  0.6674 -0.9598
  594MPD2    H2 8809   0.675   0.471  13.963  1.5150 -4.0470 -0.8754
  594MPD2    H3 8810   0.871   0.545  13.839  0.1517 -0.9573  0.0595
  594MPD2     N 8811   1.086   0.653  14.238  0.0318  0.6343 -0.5576
  594MPD2    H5 8812   1.074   0.653  14.339  2.9311 -2.0045 -0.2132
  594MPD2    N1 8813   0.666   0.424  14.208 -0.5312 -0.5600 -0.0263
  594MPD2    H7 8814   0.594   0.400  14.141  2.3016 -1.4056 -2.7438
  595TMC3    C1 8815   1.532   0.796  14.321  0.5517 -0.7028 -0.2998
  595TMC3    C2 8816   1.432   0.744  14.237 -0.2530  0.6149 -0.2827
  595TMC3    C3 8817   1.308   0.722  14.288  0.2762 -0.1506  0.1511
  595TMC3    C4 8818   1.504   0.821  14.455 -0.3200  0.2224 -0.1634
  595TMC3    C5 8819   1.378   0.791  14.507 -0.3711  0.5036  0.2798
  595TMC3    C6 8820   1.281   0.738  14.426 -0.7187 -0.7088  0.0289
  595TMC3     C 8821   1.658   0.850  14.254  0.1141 -0.0203 -0.9414
  595TMC3     O 8822   1.652   0.867  14.134  0.0530 -0.2090 -0.0954
  595TMC3     H 8823   1.449   0.744  14.130 -0.4521 -2.4909 -0.3259
  595TMC3    H1 8824   1.586   0.869  14.508 -0.1402 -0.3723  0.0932
  595TMC3    H2 8825   1.186   0.730  14.477 -2.3198  1.8211 -2.5887
  595TMC3    C7 8826   1.327   0.887  14.603  0.0848 -0.2149  0.3831
  595TMC3    C8 8827   1.205   0.714  14.190  0.3886 -0.8720  0.3233
  595TMC3    O1 8828   1.220   0.944  14.574 -0.1597  0.0189 -0.5421
  595TMC3    O2 8829   1.226   0.745  14.074  0.3084  0.4025 -0.5250
  596MPD2     C 8830   0.238   3.773  16.784  0.1852  0.2320 -0.3825
  596MPD2    C1 8831   0.232   3.877  16.691  1.3482  0.3895 -0.1999
  596MPD2    C2 8832   0.278   3.848  16.564 -0.3695  0.3137 -0.3989
  596MPD2    C3 8833   0.310   3.720  16.526 -0.0235 -0.5331 -0.3326
  596MPD2    C4 8834   0.314   3.621  16.617 -0.6128 -0.3108  0.2684
  596MPD2    C5 8835   0.282   3.655  16.745  0.1142  0.0765  0.2202
  596MPD2     H 8836   0.274   3.931  16.494 -0.5466 -0.5903 -1.4574
  596MPD2    H1 8837   0.362   3.527  16.595 -0.7335 -0.5216  0.9243
  596MPD2    H2 8838   0.226   3.782  16.892 -1.7106  1.2435 -0.6985
  596MPD2    H3 8839   0.284   3.580  16.824  1.2390 -0.0685  0.0598
  596MPD2     N 8840   0.352   3.691  16.387  0.0860  0.2327 -0.3159
  596MPD2    H5 8841   0.363   3.596  16.355 -2.8790 -0.5541  1.0483
  596MPD2    N1 8842   0.203   4.013  16.719 -0.1188 -0.5708  0.2376
  596MPD2    H7 8843   0.227   4.075  16.642 -0.6589 -1.9881 -1.0719
  597TMC3    C1 8844   0.131   4.211  16.835  0.0223 -0.1408  0.1723
  597TMC3    C2 8845   0.236   4.281  16.783  0.2532  0.7706  0.3622
  597TMC3    C3 8846   0.239   4.417  16.805 -0.1687  0.1371 -0.1631
  597TMC3    C4 8847   0.042   4.275  16.918 -0.8132  0.6948 -0.0883
  597TMC3    C5 8848   0.040   4.416  16.922  0.7642 -0.6286 -0.7613
  597TMC3    C6 8849   0.140   4.489  16.865  0.4498  0.5396  0.0699
  597TMC3     C 8850   0.143   4.067  16.830 -0.3651  0.0202 -0.0820
  597TMC3     O 8851   0.099   3.996  16.920  0.7051 -0.6388 -0.5289
  597TMC3     H 8852   0.312   4.239  16.719  0.1439  1.2324 -0.0693
  597TMC3    H1 8853   4.681   4.228  16.969  1.7756 -2.8121  0.8858
  597TMC3    H2 8854   0.147   4.595  16.883  1.3975  0.5709 -0.4595
  597TMC3    C7 8855   4.683   4.488  17.023 -0.1780  0.3490  0.3177
  597TMC3    C8 8856   0.353   4.500  16.765 -0.8760 -0.1154 -0.1771
  597TMC3    O1 8857   4.640   4.418  17.117  0.5496 -0.1264  0.2384
  597TMC3    O2 8858   0.338   4.619  16.774  0.5472 -0.3089 -0.4210
  598TMC3    C1 8859   3.053   0.454  15.258  0.3013 -0.4225  0.7624
  598TMC3    C2 8860   2.946   0.377  15.210 -0.5351 -0.5597 -0.0514
  598TMC3    C3 8861   2.881   0.426  15.098  0.5942 -0.9573  0.3727
  598TMC3    C4 8862   3.100   0.573  15.192  0.7779  0.4457 -0.4011
  598TMC3    C5 8863   3.038   0.613  15.082  0.1381  0.1267  0.5503
  598TMC3    C6 8864   2.924   0.540  15.034  0.0116  0.4546  0.1886
  598TMC3     C 8865   3.097   0.435  15.401 -0.3929  0.1177 -0.3474
  598TMC3     O 8866   3.152   0.529  15.455 -0.2831  0.0979 -0.4431
  598TMC3     H 8867   2.916   0.284  15.256 -2.8452 -0.7089 -1.8714
  598TMC3    H1 8868   3.185   0.622  15.239  0.7762  0.0881 -0.0219
  598TMC3    H2 8869   2.874   0.574  14.944  0.5285  0.1989 -0.1957
  598TMC3    C7 8870   3.109   0.681  14.964  0.8959  0.5650  0.0248
  598TMC3    C8 8871   2.797   0.339  15.014 -0.1539 -0.3515  0.1309
  598TMC3    O1 8872   3.073   0.640  14.857  0.5994  0.2407  0.2390
  598TMC3    O2 8873   2.753   0.391  14.912 -0.3219 -0.0362 -0.0316
  599MPD2     C 8874   3.468   3.037  16.304  0.1318 -0.2938  0.1389
  599MPD2    C1 8875   3.429   2.919  16.251  0.3220 -0.2914 -0.0738
  599MPD2    C2 8876   3.299   2.879  16.267  0.2073  0.3189  0.4029
  599MPD2    C3 8877   3.199   2.960  16.319 -0.1299 -0.4339  0.2810
  599MPD2    C4 8878   3.236   3.085  16.351  0.7424  0.5216 -0.2558
  599MPD2    C5 8879   3.364   3.118  16.351  0.4918 -0.9334  0.2589
  599MPD2     H 8880   3.269   2.778  16.238 -3.6315  1.9971 -1.3777
  599MPD2    H1 8881   3.164   3.164  16.368 -1.1916 -1.3203  0.2608
  599MPD2    H2 8882   3.569   3.065  16.278 -0.1079  0.9949  0.5868
  599MPD2    H3 8883   3.379   3.225  16.351 -0.1010 -0.8509  0.7095
  599MPD2     N 8884   3.064   2.926  16.340  0.5032 -0.8911  0.4603
  599MPD2    H5 8885   3.006   2.984  16.400  0.0824 -1.1290  0.2843
  599MPD2    N1 8886   3.525   2.843  16.185  0.0257  0.6235  0.6833
  599MPD2    H7 8887   3.617   2.885  16.176 -0.3953  1.7639  1.6635
  600TMC3    C1 8888   2.850   2.816  16.312 -0.4211 -0.3176  0.2105
  600TMC3    C2 8889   2.780   2.712  16.263  0.3725  1.1303 -0.1215
  600TMC3    C3 8890   2.643   2.721  16.248 -0.2088 -0.2721 -0.0872
  600TMC3    C4 8891   2.786   2.930  16.357  0.1008 -0.3710 -0.0466
  600TMC3    C5 8892   2.647   2.936  16.343 -0.1040  0.0113 -0.7667
  600TMC3    C6 8893   2.574   2.841  16.278 -0.0961 -0.2458 -0.5905
  600TMC3     C 8894   2.998   2.816  16.291  0.1132 -0.8162  0.0382
  600TMC3     O 8895   3.045   2.735  16.212  0.0322 -0.2397 -0.4972
  600TMC3     H 8896   2.839   2.627  16.233 -2.4654 -1.2675  1.0305
  600TMC3    H1 8897   2.837   3.015  16.399  1.9047 -1.2291 -0.5052
  600TMC3    H2 8898   2.474   2.861  16.241  0.7533  1.2862 -2.0219
  600TMC3    C7 8899   2.597   3.065  16.372  0.3054  0.0702 -0.5042
  600TMC3    C8 8900   2.590   2.642  16.138 -0.9759 -0.3948  0.3382
  600TMC3    O1 8901   2.483   3.071  16.422 -0.0174 -0.5891  1.0037
  600TMC3    O2 8902   2.673   2.586  16.069 -0.0305  0.1568 -0.2544
  601MPD2     C 8903   4.586   1.969  17.676  0.4299 -0.1709  0.2867
  601MPD2    C1 8904   4.564   1.947  17.543 -0.3509 -0.6381  0.2253
  601MPD2    C2 8905   4.467   1.855  17.509 -0.7966 -0.2951 -0.4157
  601MPD2    C3 8906   4.415   1.770  17.608  0.4056  0.1712 -0.2004
  601MPD2    C4 8907   4.451   1.782   0.049 -0.4777  0.5176 -0.7004
  601MPD2    C5 8908   4.539   1.887   0.076 -0.2261  0.3741 -0.2348
  601MPD2     H 8909   4.447   1.833  17.404 -0.5800 -1.9554 -0.1118
  601MPD2    H1 8910   4.400   1.722   0.124 -1.0596  2.6590  0.6115
  601MPD2    H2 8911   4.644   2.056   0.017  1.2990 -1.1271  1.3064
  601MPD2    H3 8912   4.547   1.899   0.184 -1.7727  0.3129 -0.1117
  601MPD2     N 8913   4.333   1.664  17.564 -0.0688 -0.7247  0.9586
  601MPD2    H5 8914   4.311   1.672  17.466  0.7118  2.0360  1.0019
  601MPD2    N1 8915   4.633   2.014  17.440 -0.1388 -0.4171 -0.3555
  601MPD2    H7 8916   4.589   1.998  17.350 -1.0446 -1.2481  0.2345
  602TMC3    C1 8917   0.089   2.099  17.320 -0.6904 -0.0991 -0.7813
  602TMC3    C2 8918   0.218   2.051  17.304 -0.0637  0.2851 -0.3990
  602TMC3    C3 8919   0.255   2.013  17.180  0.6336  0.2865  0.3326
  602TMC3    C4 8920   4.722   2.091  17.214  0.0767  0.1457  0.4976
  602TMC3    C5 8921   0.039   2.042  17.091  0.5185 -0.7955  0.5587
  602TMC3    C6 8922   0.174   2.011  17.067 -0.1849 -0.0857  0.6000
  602TMC3     C 8923   0.033   2.070  17.451  0.4831 -0.0295 -0.0095
  602TMC3     O 8924   0.113   2.050  17.546  0.4506  0.1359  0.1786
  602TMC3     H 8925   0.280   2.034  17.391  1.6299 -1.9768 -2.0317
  602TMC3    H1 8926   4.624   2.137  17.223 -0.0514 -0.3940  1.8262
  602TMC3    H2 8927   0.194   1.947  16.981  2.2907 -0.9176  1.8088
  602TMC3    C7 8928   4.666   2.058  16.990 -0.3276 -0.3256 -0.4660
  602TMC3    C8 8929   0.398   1.987  17.150 -0.1873 -0.9106 -0.3017
  602TMC3    O1 8930   4.547   2.042  17.015 -0.3735 -0.0626 -0.4656
  602TMC3    O2 8931   0.475   1.951  17.240  0.1505  0.2604 -0.3911
  603TMC3    C1 8932   3.326   1.020  10.987  0.9398 -0.6044 -0.1152
  603TMC3    C2 8933   3.307   1.026  11.122 -0.1473  0.0474 -0.5955
  603TMC3    C3 8934   3.337   1.141  11.186  0.0218 -0.0167  0.1923
  603TMC3    C4 8935   3.377   1.122  10.912 -0.0177  0.1189  0.2629
  603TMC3    C5 8936   3.417   1.231  10.986  0.9924 -0.9535 -0.4193
  603TMC3    C6 8937   3.406   1.241  11.118  0.5020 -1.2602 -0.5402
  603TMC3     C 8938   3.297   0.901  10.920  0.1773  0.1153 -0.4746
  603TMC3     O 8939   3.284   0.916  10.799 -0.2049  0.3647 -0.4586
  603TMC3     H 8940   3.256   0.944  11.171 -0.2378  1.9777  2.4894
  603TMC3    H1 8941   3.395   1.106  10.806 -3.0775 -0.8899 -0.0835
  603TMC3    H2 8942   3.424   1.341  11.157  2.7073 -2.5503  1.7985
  603TMC3    C7 8943   3.443   1.348  10.905  0.3881  0.3770 -0.4202
  603TMC3    C8 8944   3.343   1.141  11.335 -1.2713 -0.1332 -0.2040
  603TMC3    O1 8945   3.510   1.430  10.963 -0.4281 -0.2502  0.2533
  603TMC3    O2 8946   3.327   1.029  11.381  0.3304  0.0984 -0.4438
  604MPD2     C 8947   4.109   0.494  16.466  0.3913 -0.3175  0.4190
  604MPD2    C1 8948   3.986   0.438  16.468 -0.1121 -1.2873  0.0695
  604MPD2    C2 8949   3.958   0.334  16.382 -0.0733 -0.4853 -0.0150
  604MPD2    C3 8950   4.057   0.265  16.310  0.2266  0.5824  0.2084
  604MPD2    C4 8951   4.183   0.319  16.317 -0.6603 -0.2528 -0.0604
  604MPD2    C5 8952   4.209   0.431  16.396  0.2617 -0.0311  0.3245
  604MPD2     H 8953   3.854   0.301  16.379  0.0300 -0.7727 -0.4296
  604MPD2    H1 8954   4.272   0.277  16.271 -1.5294 -0.5293 -1.4873
  604MPD2    H2 8955   4.140   0.584  16.519 -2.0967  0.0115  1.2834
  604MPD2    H3 8956   4.312   0.466  16.398  0.3535 -0.2723 -0.2466
  604MPD2     N 8957   4.033   0.153  16.226 -0.3778 -0.4411 -0.1998
  604MPD2    H5 8958   3.935   0.141  16.203 -0.4927 -1.1823  0.6902
  604MPD2    N1 8959   3.893   0.501  16.557 -0.0584 -0.4086  0.2111
  604MPD2    H7 8960   3.923   0.590  16.595 -0.8014 -0.1339  0.1621
  605TMC3    C1 8961   3.699   0.584  16.635  0.0113 -0.5333  1.0847
  605TMC3    C2 8962   3.778   0.672  16.709 -0.0968  0.0375  0.0190
  605TMC3    C3 8963   3.762   0.806  16.700  0.0319 -0.5403 -0.1318
  605TMC3    C4 8964   3.605   0.637  16.548  0.6369 -0.1476  0.5545
  605TMC3    C5 8965   3.590   0.771  16.549  0.3873  0.4769  0.8306
  605TMC3    C6 8966   3.669   0.862  16.617  0.6872 -0.4693 -0.7065
  605TMC3     C 8967   3.763   0.474  16.568  0.7906  0.5678 -0.0315
  605TMC3     O 8968   3.690   0.390  16.513  0.2295  0.6080  0.4561
  605TMC3     H 8969   3.841   0.639  16.790  1.5732  2.1463 -0.4324
  605TMC3    H1 8970   3.544   0.573  16.486 -1.2017  0.6559  1.5208
  605TMC3    H2 8971   3.673   0.970  16.606  1.4548 -0.5178 -0.9751
  605TMC3    C7 8972   3.501   0.825  16.448  0.7375 -0.1361 -0.5729
  605TMC3    C8 8973   3.899   0.843  16.681  0.6137 -0.6340 -0.1476
  605TMC3    O1 8974   3.467   0.750  16.357  0.0525 -0.6500  0.8227
  605TMC3    O2 8975   3.971   0.756  16.632  0.4669  0.2222  0.1551
  606TMC3    C1 8976   0.271   4.054  17.472  0.3925 -0.3238  0.8237
  606TMC3    C2 8977   0.215   4.099  17.587 -0.3362  0.2076 -0.6898
  606TMC3    C3 8978   0.158   4.002  17.675 -0.2997 -0.2189  0.1316
  606TMC3    C4 8979   0.251   3.922  17.427 -0.3206 -0.3784  0.3273
  606TMC3    C5 8980   0.177   3.842  17.509  0.9918 -0.4432  0.1792
  606TMC3    C6 8981   0.129   3.877  17.632  0.6023 -0.0105 -0.0044
  606TMC3     C 8982   0.358   4.137  17.392 -0.8380  0.1527  0.8467
  606TMC3     O 8983   0.397   4.239  17.444 -0.0113 -0.3197 -0.1071
  606TMC3     H 8984   0.236   4.199  17.623 -0.1370  0.2501 -0.9273
  606TMC3    H1 8985   0.290   3.885  17.332 -0.4144  1.3440 -0.3854
  606TMC3    H2 8986   0.102   3.799   0.011  2.1303  0.4783  1.1209
  606TMC3    C7 8987   0.218   3.706  17.492  0.0057  0.8905  0.4115
  606TMC3    C8 8988   0.220   4.000   0.116  0.0372 -0.7701 -0.0133
  606TMC3    O1 8989   0.325   3.683  17.435 -0.5966 -0.2371  0.1495
  606TMC3    O2 8990   0.248   3.892   0.172 -0.1200  0.1204 -0.1268
  607MPD2     C 8991   2.279   1.055  11.335  0.7138 -0.2506  0.4860
  607MPD2    C1 8992   2.270   1.148  11.423  0.8512 -0.5731 -0.0863
  607MPD2    C2 8993   2.219   1.127  11.548  0.3086 -0.0485 -0.0647
  607MPD2    C3 8994   2.187   1.005  11.589  0.0350  0.3773  0.1521
  607MPD2    C4 8995   2.196   0.898  11.501  0.5891  0.3526 -0.4301
  607MPD2    C5 8996   2.241   0.929  11.372 -0.2824  1.3703  0.1433
  607MPD2     H 8997   2.209   1.216  11.610 -0.1544  0.1897 -0.4795
  607MPD2    H1 8998   2.160   0.799  11.529  2.4107  0.3779  2.0425
  607MPD2    H2 8999   2.317   1.065  11.234  0.1221  0.1191  0.3028
  607MPD2    H3 9000   2.248   0.841  11.309 -1.7633 -0.0977  2.0631
  607MPD2     N 9001   2.142   0.985  11.727 -0.1508 -0.0280 -0.0267
  607MPD2    H5 9002   2.139   1.068  11.786 -0.3844 -1.4554  1.9558
  607MPD2    N1 9003   2.344   1.265  11.413  0.3823  0.4314  0.6110
  607MPD2    H7 9004   2.365   1.315  11.498 -0.6187  2.5374 -0.3847
  608TMC3    C1 9005   2.481   1.440  11.355  0.0656  0.3995 -0.7189
  608TMC3    C2 9006   2.458   1.490  11.480 -0.1747  0.2583 -0.3783
  608TMC3    C3 9007   2.550   1.569  11.541  0.5322  0.7757 -0.4055
  608TMC3    C4 9008   2.597   1.475  11.287 -0.0593  0.6583  0.6536
  608TMC3    C5 9009   2.678   1.566  11.353  0.1137  0.7740  0.8129
  608TMC3    C6 9010   2.660   1.616  11.476 -0.0897  0.6898 -0.3190
  608TMC3     C 9011   2.408   1.323  11.307 -0.5577  0.2734  0.1938
  608TMC3     O 9012   2.415   1.300  11.189 -1.0413  0.3492  0.2778
  608TMC3     H 9013   2.356   1.487  11.517 -0.2095  0.4501 -0.4601
  608TMC3    H1 9014   2.623   1.434  11.190  1.2827  0.4269  1.1153
  608TMC3    H2 9015   2.722   1.695  11.518  1.2359 -0.3911 -0.2526
  608TMC3    C7 9016   2.803   1.602  11.290  0.2948 -0.0045 -0.0552
  608TMC3    C8 9017   2.517   1.621  11.668  0.3605 -0.4442 -0.4068
  608TMC3    O1 9018   2.798   1.595  11.169  0.8354  0.0914  0.2934
  608TMC3    O2 9019   2.542   1.738  11.701  0.1462 -0.1892 -0.2343
  609TMC3    C1 9020   0.860   0.456   9.197 -0.3961  0.0208  0.0901
  609TMC3    C2 9021   0.775   0.362   9.149 -0.1339 -0.3220  0.0358
  609TMC3    C3 9022   0.813   0.280   9.053 -0.5948 -0.3605 -0.5580
  609TMC3    C4 9023   0.989   0.456   9.153 -0.3811  0.3214  0.9586
  609TMC3    C5 9024   1.030   0.374   9.049 -0.1342 -0.0431 -0.3168
  609TMC3    C6 9025   0.941   0.283   8.999  0.6024  0.6638  0.1008
  609TMC3     C 9026   0.861   0.444   9.337 -0.1873  0.3304  0.9319
  609TMC3     O 9027   0.760   0.466   9.403  0.1205  0.3003 -0.2574
  609TMC3     H 9028   0.673   0.365   9.186 -0.1954 -0.7327 -0.0993
  609TMC3    H1 9029   1.060   0.528   9.191 -0.2629  1.1219 -0.7421
  609TMC3    H2 9030   0.974   0.209   8.926 -0.4738  1.6222 -1.3578
  609TMC3    C7 9031   1.166   0.328   9.073  0.5713 -0.1040 -0.3502
  609TMC3    C8 9032   0.707   0.203   8.991  0.8644  0.8198  0.1003
  609TMC3    O1 9033   1.222   0.362   9.175 -0.2670  0.1523 -0.4368
  609TMC3    O2 9034   0.591   0.239   8.993  0.8302  0.2180  0.3598
  610TMC3    C1 9035   2.477   0.409  12.478 -0.0987  0.0375 -0.1945
  610TMC3    C2 9036   2.421   0.529  12.476 -0.0123  0.1869  0.4856
  610TMC3    C3 9037   2.466   0.626  12.554  0.6967 -0.1170  0.1005
  610TMC3    C4 9038   2.561   0.380  12.579 -0.1507  0.2960  0.1841
  610TMC3    C5 9039   2.609   0.487  12.649 -0.3969  0.0312 -0.4995
  610TMC3    C6 9040   2.571   0.616  12.635  0.1529  0.4403  0.0225
  610TMC3     C 9041   2.410   0.295  12.413 -0.1631 -0.9205 -0.4197
  610TMC3     O 9042   2.466   0.183  12.416 -0.3379  0.0486  0.2836
  610TMC3     H 9043   2.344   0.557  12.405  1.7399 -2.6544 -2.5224
  610TMC3    H1 9044   2.584   0.276  12.598 -0.2240  0.4914  1.3277
  610TMC3    H2 9045   2.573   0.686  12.718  1.7705 -0.0043  0.3716
  610TMC3    C7 9046   2.732   0.464  12.731  0.3268 -0.1655  0.1776
  610TMC3    C8 9047   2.419   0.757  12.539 -0.2610 -0.2038  0.2773
  610TMC3    O1 9048   2.800   0.566  12.753  0.1370 -0.0384 -0.2909
  610TMC3    O2 9049   2.494   0.841  12.588  0.0982 -0.1661 -0.0100
  611MPD2     C 9050   2.502   1.113  10.555  0.0345  0.2267 -0.5261
  611MPD2    C1 9051   2.487   1.125  10.420 -0.3065  0.2933 -0.8703
  611MPD2    C2 9052   2.590   1.181  10.342 -0.1413 -0.2486 -0.8778
  611MPD2    C3 9053   2.706   1.223  10.396  0.5499  0.4870  0.2894
  611MPD2    C4 9054   2.721   1.212  10.535  0.5779  0.0358  0.7980
  611MPD2    C5 9055   2.616   1.167  10.615  0.3169  1.0418  0.1293
  611MPD2     H 9056   2.574   1.184  10.235 -0.2361  0.8133 -0.8355
  611MPD2    H1 9057   2.808   1.251  10.586 -1.6969  1.8824  3.2422
  611MPD2    H2 9058   2.417   1.086  10.616 -1.3240  2.8604 -1.2508
  611MPD2    H3 9059   2.637   1.165  10.722 -1.4927 -0.8497  0.4495
  611MPD2     N 9060   2.813   1.287  10.326 -0.4986 -0.3016  0.3092
  611MPD2    H5 9061   2.894   1.315  10.381  0.0426 -2.0099  0.3607
  611MPD2    N1 9062   2.370   1.061  10.365  0.6920 -0.3520 -0.1666
  611MPD2    H7 9063   2.301   1.024  10.430  0.2640  0.1240 -0.3574
  612TMC3    C1 9064   2.927   1.389  10.138  0.3598  0.0589 -0.1905
  612TMC3    C2 9065   3.002   1.463  10.229  0.7420 -0.1741 -0.7625
  612TMC3    C3 9066   3.087   1.547  10.176  0.0300 -0.3870 -0.0053
  612TMC3    C4 9067   2.945   1.399  10.001 -0.1382  0.5835 -0.3557
  612TMC3    C5 9068   3.040   1.482   9.952 -0.0484  0.1450  0.3451
  612TMC3    C6 9069   3.121   1.548  10.043  1.1841  0.3100 -0.2724
  612TMC3     C 9070   2.815   1.314  10.188  0.4910  0.5829 -0.0934
  612TMC3     O 9071   2.732   1.289  10.098  0.3206 -0.2093 -0.0664
  612TMC3     H 9072   2.974   1.482  10.332 -2.8531 -0.0995 -1.7410
  612TMC3    H1 9073   2.885   1.336   9.937  0.3409 -1.1337  0.8820
  612TMC3    H2 9074   3.203   1.613  10.013  1.0286 -0.0123 -1.3656
  612TMC3    C7 9075   3.057   1.498   9.811  0.8813  0.0907 -0.0757
  612TMC3    C8 9076   3.201   1.592  10.262 -0.5552  0.5452 -0.1114
  612TMC3    O1 9077   3.158   1.559   9.774 -0.0827  0.2422  0.5125
  612TMC3    O2 9078   3.283   1.674  10.224 -0.3213  0.1269  0.3807
  613MPD2     C 9079   1.659   3.747  16.273 -0.5551  0.4685 -0.4562
  613MPD2    C1 9080   1.719   3.814  16.165  0.3962 -0.7538  0.2913
  613MPD2    C2 9081   1.806   3.756  16.073 -0.0898  0.6751  0.5914
  613MPD2    C3 9082   1.853   3.630  16.099 -0.3283  0.3420  0.4175
  613MPD2    C4 9083   1.814   3.571  16.217  0.2551 -0.3254  0.4033
  613MPD2    C5 9084   1.723   3.627  16.309 -0.2583 -0.3067  0.0089
  613MPD2     H 9085   1.833   3.812  15.985 -0.1897  0.8004  0.6406
  613MPD2    H1 9086   1.858   3.479  16.254 -0.6005 -1.7074 -2.0005
  613MPD2    H2 9087   1.586   3.793  16.337 -1.5115 -1.8736  0.1422
  613MPD2    H3 9088   1.689   3.574  16.397 -0.3715  0.4656  0.4293
  613MPD2     N 9089   1.947   3.554  16.011  0.0275 -0.8487  0.5755
  613MPD2    H5 9090   1.969   3.466  16.056 -1.5004 -1.6442 -0.2320
  613MPD2    N1 9091   1.670   3.940  16.137 -0.1758  0.3046  0.3546
  613MPD2    H7 9092   1.729   3.982  16.066 -1.4179  0.6816 -0.4563
  614TMC3    C1 9093   1.524   4.128  16.126 -0.1706 -0.5172  0.5893
  614TMC3    C2 9094   1.628   4.175  16.059 -0.3534  0.3502  1.1196
  614TMC3    C3 9095   1.612   4.198  15.924 -1.2658  0.1881  0.2437
  614TMC3    C4 9096   1.396   4.140  16.075  0.0332  0.6700 -0.1306
  614TMC3    C5 9097   1.385   4.176  15.946 -0.0311 -0.8727 -0.8666
  614TMC3    C6 9098   1.492   4.205  15.864 -0.2117  0.3895  0.0747
  614TMC3     C 9099   1.553   3.995  16.187  0.4243  0.2327 -0.2734
  614TMC3     O 9100   1.455   3.946  16.244  0.2187  0.8070 -0.2614
  614TMC3     H 9101   1.729   4.166  16.097  0.2208 -0.2060 -0.5431
  614TMC3    H1 9102   1.309   4.099  16.126 -0.3979 -1.3516 -2.4801
  614TMC3    H2 9103   1.490   4.209  15.756 -0.2501 -0.5764  0.0420
  614TMC3    C7 9104   1.256   4.168  15.885  0.0226  0.1183  1.1540
  614TMC3    C8 9105   1.725   4.172  15.851  0.4844  0.1183 -0.1633
  614TMC3    O1 9106   1.164   4.165  15.965 -0.3298  0.2640  0.2637
  614TMC3    O2 9107   1.819   4.107  15.905  0.3220 -0.0748  0.3675
  615MPD2     C 9108   1.491   0.626  15.711  0.3208 -0.1515  0.8093
  615MPD2    C1 9109   1.381   0.617  15.792 -0.5418 -0.4918 -0.2563
  615MPD2    C2 9110   1.278   0.530  15.769 -0.6784  0.1453  0.2002
  615MPD2    C3 9111   1.282   0.450  15.662 -0.0355  0.5928 -0.3409
  615MPD2    C4 9112   1.398   0.450  15.581  0.3604  0.2180 -0.4290
  615MPD2    C5 9113   1.499   0.536  15.605 -0.3568 -0.7191 -1.0987
  615MPD2     H 9114   1.193   0.539  15.835 -0.3882 -1.1446  0.7390
  615MPD2    H1 9115   1.396   0.397  15.487  0.7953 -1.8845  0.7535
  615MPD2    H2 9116   1.574   0.693  15.728  0.7289 -0.4649  0.0909
  615MPD2    H3 9117   1.586   0.544  15.541 -0.6926 -0.5967 -1.5465
  615MPD2     N 9118   1.173   0.370  15.618  0.0522 -0.5661  0.1789
  615MPD2    H5 9119   1.182   0.324  15.528 -3.5281  0.1099 -0.5091
  615MPD2    N1 9120   1.359   0.694  15.905 -0.4463  0.6039 -0.6333
  615MPD2    H7 9121   1.266   0.685  15.944 -1.0444  1.7426 -1.7799
  616TMC3    C1 9122   1.397   0.857  16.073  0.2174 -0.3907  0.8887
  616TMC3    C2 9123   1.494   0.886  16.171  0.1372 -0.9231  0.4929
  616TMC3    C3 9124   1.440   0.912  16.297 -0.0141 -0.5240  0.3886
  616TMC3    C4 9125   1.261   0.859  16.100 -0.1317  0.0098 -0.0610
  616TMC3    C5 9126   1.218   0.890  16.226 -0.1638 -0.1855 -0.1985
  616TMC3    C6 9127   1.304   0.918  16.327  0.4388  0.6709  0.0892
  616TMC3     C 9128   1.448   0.782  15.957 -0.1003 -0.0380  0.3481
  616TMC3     O 9129   1.565   0.803  15.923  0.0082  0.2455 -0.4790
  616TMC3     H 9130   1.599   0.879  16.145  0.3359  2.7490  0.4309
  616TMC3    H1 9131   1.193   0.843  16.017  0.7937 -2.1732 -0.3872
  616TMC3    H2 9132   1.279   0.939  16.430 -0.1953 -0.5456  0.1881
  616TMC3    C7 9133   1.084   0.926  16.252 -0.3606  0.3537 -0.5150
  616TMC3    C8 9134   1.525   0.949  16.407  0.2466 -0.7391 -0.5787
  616TMC3    O1 9135   1.060   0.994  16.352 -0.1482  0.6267  0.1823
  616TMC3    O2 9136   1.477   0.953  16.521  0.7682 -0.0250  0.1639
  617MPD2     C 9137   4.022   3.546  13.780  0.4581 -0.3739  0.4999
  617MPD2    C1 9138   4.058   3.450  13.874 -0.1525 -0.5162  0.1794
  617MPD2    C2 9139   3.963   3.366  13.930  0.4059 -0.3189  0.4027
  617MPD2    C3 9140   3.835   3.358  13.873 -0.0067  0.2519  0.4394
  617MPD2    C4 9141   3.806   3.438  13.767  0.7254  0.1614 -0.2480
  617MPD2    C5 9142   3.897   3.537  13.719  0.4706  0.7066  0.0863
  617MPD2     H 9143   3.988   3.297  14.009  1.5045 -0.4576 -0.0636
  617MPD2    H1 9144   3.709   3.439  13.720  0.1089 -1.3959  0.9911
  617MPD2    H2 9145   4.092   3.616  13.737  0.8386 -1.6371 -0.9320
  617MPD2    H3 9146   3.875   3.604  13.637 -0.2767 -1.0352 -1.1257
  617MPD2     N 9147   3.726   3.286  13.925  0.0459 -0.2941  0.4539
  617MPD2    H5 9148   3.644   3.291  13.866 -0.7399  2.6029  1.7739
  617MPD2    N1 9149   4.189   3.467  13.938 -0.5016 -0.0456  0.8311
  617MPD2    H7 9150   4.254   3.535  13.900 -1.4937 -0.7711 -2.1908
  618TMC3    C1 9151   4.343   3.471  14.099 -0.1411  0.3012 -0.3679
  618TMC3    C2 9152   4.466   3.431  14.064 -0.4019 -0.3148  0.4604
  618TMC3    C3 9153   4.556   3.538  14.052 -0.7504  0.4605 -0.1929
  618TMC3    C4 9154   4.307   3.592  14.137 -0.9631 -0.5577 -0.2142
  618TMC3    C5 9155   4.392   3.696  14.129 -0.8364 -0.2700  0.0391
  618TMC3    C6 9156   4.523   3.668  14.085  0.5420 -0.1847 -0.2303
  618TMC3     C 9157   4.240   3.393  14.041 -0.3549 -0.4131 -0.6900
  618TMC3     O 9158   4.194   3.305  14.111  0.2557  0.3499 -0.2291
  618TMC3     H 9159   4.486   3.337  14.014 -0.6518 -0.5862  0.8767
  618TMC3    H1 9160   4.206   3.613  14.170 -1.3299 -1.5505 -0.7068
  618TMC3    H2 9161   4.589   3.753  14.074  1.5095 -0.8489  0.5013
  618TMC3    C7 9162   4.353   3.835  14.100 -0.4947  0.2431 -0.4753
  618TMC3    C8 9163   4.621   3.542  13.928 -0.0010  0.3965  0.0060
  618TMC3    O1 9164   4.428   3.927  14.109 -0.1678  0.2769 -0.3002
  618TMC3    O2 9165   4.606   3.647  13.864  0.4366  0.1058  0.8197
  619MPD2     C 9166   4.633   4.482  13.931  0.0725 -0.0930  0.5200
  619MPD2    C1 9167   4.585   4.589  13.867  0.7090  0.4515  0.4969
  619MPD2    C2 9168   4.455   4.627  13.882  0.3415 -0.1645  0.4201
  619MPD2    C3 9169   4.363   4.541  13.932  0.0753 -0.5559 -0.3541
  619MPD2    C4 9170   4.410   4.439  14.006  0.4095 -0.4389  0.5117
  619MPD2    C5 9171   4.549   4.417  14.013  0.2666 -0.0865  0.2729
  619MPD2     H 9172   4.420   0.003  13.852 -1.2191 -1.0685 -0.7188
  619MPD2    H1 9173   4.337   4.378  14.058 -0.1518 -1.5463 -1.5854
  619MPD2    H2 9174   0.013   4.448  13.923  0.2157  0.6109 -0.6840
  619MPD2    H3 9175   4.586   4.332  14.069  4.1211  1.6325  0.3601
  619MPD2     N 9176   4.223   4.561  13.911  0.3236  0.4760  0.0507
  619MPD2    H5 9177   4.157   4.498  13.955  1.6947 -3.2553 -3.2316
  619MPD2    N1 9178   4.653   4.678  13.782 -0.3274  0.1116  0.1583
  619MPD2    H7 9179   4.598   0.024  13.732  0.5123  0.7979  0.1719
  620TMC3    C1 9180   0.096   0.040  13.657 -0.6894  0.2342 -0.8410
  620TMC3    C2 9181   0.005   0.070  13.562  0.0682  0.3207 -0.2279
  620TMC3    C3 9182   0.036   0.177  13.478 -0.1235 -0.7940 -0.0626
  620TMC3    C4 9183   0.206   0.119  13.693 -0.4984  0.8346  0.1999
  620TMC3    C5 9184   0.218   0.234  13.623  0.3545  0.0252  0.4559
  620TMC3    C6 9185   0.146   0.259  13.509  0.2634  0.0612  0.0267
  620TMC3     C 9186   0.064   4.669  13.757  0.3442  0.2777 -0.3441
  620TMC3     O 9187   0.156   4.610  13.810  0.2761 -0.3216  0.6514
  620TMC3     H 9188   4.655   4.720  13.526 -0.5186  0.9386 -0.2741
  620TMC3    H1 9189   0.266   0.097  13.781 -1.0605  1.6624  0.7908
  620TMC3    H2 9190   0.157   0.353  13.457 -0.5573 -0.6268 -1.3656
  620TMC3    C7 9191   0.237   0.349  13.711 -0.5271  0.4190  0.0954
  620TMC3    C8 9192   4.644   0.253  13.460 -0.0471  0.3198 -0.3908
  620TMC3    O1 9193   0.340   0.361  13.773  0.1553  0.0458 -0.2598
  620TMC3    O2 9194   4.647   0.359  13.521 -0.3773 -0.0604 -0.6956
  621MPD2     C 9195   0.583   4.255   9.598  0.4497 -0.0251  0.9216
  621MPD2    C1 9196   0.593   4.216   9.728  0.3131  0.7912 -0.2411
  621MPD2    C2 9197   0.696   4.269   9.803  0.5332 -0.9386 -0.1682
  621MPD2    C3 9198   0.795   4.346   9.743  0.4004 -0.5549 -0.1549
  621MPD2    C4 9199   0.786   4.391   9.613  0.7575 -0.5829 -0.0316
  621MPD2    C5 9200   0.675   4.342   9.542  0.0199 -0.9629 -0.0656
  621MPD2     H 9201   0.713   4.255   9.909  1.0753 -0.5589 -0.2033
  621MPD2    H1 9202   0.844   4.476   9.579 -0.0072 -0.2653 -0.5438
  621MPD2    H2 9203   0.501   4.214   9.540  0.5364  2.0731 -0.6814
  621MPD2    H3 9204   0.671   4.374   9.438 -1.2123 -0.6376  0.0909
  621MPD2     N 9205   0.893   4.397   9.834 -0.1437  0.4915 -0.3394
  621MPD2    H5 9206   0.880   4.370   9.931 -3.4194  3.1431 -0.0322
  621MPD2    N1 9207   0.495   4.122   9.774  0.2401 -0.5936  1.2882
  621MPD2    H7 9208   0.419   4.097   9.711  2.3417  0.6433 -1.7663
  622TMC3    C1 9209   0.363   4.004   9.935 -0.5577  0.7428 -0.2441
  622TMC3    C2 9210   0.355   3.935  10.052  0.5575 -0.2847 -0.1670
  622TMC3    C3 9211   0.228   3.896  10.101  0.0625 -0.6071  0.2189
  622TMC3    C4 9212   0.253   4.017   9.863  0.0497  0.1498  0.1145
  622TMC3    C5 9213   0.135   3.964   9.910  0.3438 -0.1192 -0.0906
  622TMC3    C6 9214   0.113   3.909  10.030 -0.2353  0.1236  0.0066
  622TMC3     C 9215   0.490   4.070   9.902  0.0815 -0.6516  0.2822
  622TMC3     O 9216   0.578   4.090   9.989  0.0836  0.0288 -0.1385
  622TMC3     H 9217   0.441   3.949  10.116  1.0359  1.1168 -1.1308
  622TMC3    H1 9218   0.259   4.075   9.772 -0.5761 -1.5397 -1.0128
  622TMC3    H2 9219   0.014   3.880  10.064 -0.6866 -0.0007 -1.4050
  622TMC3    C7 9220   0.014   4.018   9.866 -0.4490 -0.3051 -0.0349
  622TMC3    C8 9221   0.219   3.886  10.252  0.2739  0.1859 -0.2109
  622TMC3    O1 9222   4.634   3.950   9.870  0.4706 -0.2803 -0.5348
  622TMC3    O2 9223   0.332   3.877  10.307 -0.1742 -0.2914 -0.1940
  623MPD2     C 9224   4.237   0.366  15.793  0.8482 -0.3059  0.3196
  623MPD2    C1 9225   4.275   0.504  15.769  0.1347  0.8251  0.7780
  623MPD2    C2 9226   4.341   0.567  15.870  0.2811  0.2291 -0.0477
  623MPD2    C3 9227   4.373   0.504  15.990 -1.0928 -0.1910  0.1364
  623MPD2    C4 9228   4.341   0.373  16.009  0.5958  0.1118  0.1162
  623MPD2    C5 9229   4.275   0.295  15.908  0.1327 -0.5522 -0.1004
  623MPD2     H 9230   4.366   0.672  15.859  1.9312 -0.1549  0.0151
  623MPD2    H1 9231   4.377   0.322  16.098 -3.0444 -1.1711  0.8722
  623MPD2    H2 9232   4.191   0.312  15.711  2.5301 -0.4072 -0.5566
  623MPD2    H3 9233   4.265   0.188  15.917  0.9192 -0.5068  1.3268
  623MPD2     N 9234   4.450   0.575  16.082  0.5446  0.4191 -0.7456
  623MPD2    H5 9235   4.464   0.673  16.059  0.1119  1.3456  2.8484
  623MPD2    N1 9236   4.255   0.575  15.645  0.7160 -0.4321  0.0490
  623MPD2    H7 9237   4.284   0.673  15.640 -0.3058 -0.1515 -0.4567
  624TMC3    C1 9238   4.697   0.674  16.461 -0.3113  0.2911  0.3437
  624TMC3    C2 9239   4.613   0.787  16.491 -0.2979 -0.0633 -0.2020
  624TMC3    C3 9240   4.503   0.821  16.409 -0.3444  1.3150 -0.3335
  624TMC3    C4 9241   4.663   0.593  16.361  0.1930 -0.4315  0.1573
  624TMC3    C5 9242   4.563   0.627  16.275 -0.4347  0.0262  0.2054
  624TMC3    C6 9243   4.481   0.740  16.305 -0.6897 -0.2131  0.4007
  624TMC3     C 9244   0.062   0.624  16.563  0.5302 -0.0083  0.5432
  624TMC3     O 9245   0.124   0.711  16.624 -0.4766 -0.2600 -0.4425
  624TMC3     H 9246   4.633   0.846  16.580 -0.0622  0.4020 -0.5619
  624TMC3    H1 9247   0.004   0.510  16.332  1.1872  1.4369 -3.1281
  624TMC3    H2 9248   4.397   0.766  16.241 -3.0473 -1.2005  3.1082
  624TMC3    C7 9249   4.514   0.521  16.194 -0.0060  0.2193  0.2713
  624TMC3    C8 9250   4.385   0.867  16.470 -0.1417  0.5328 -0.3164
  624TMC3    O1 9251   4.526   0.411  16.245 -0.1063 -0.1769  0.3575
  624TMC3    O2 9252   4.286   0.817  16.419  0.2571 -0.4301 -0.3445
  625MPD2     C 9253   3.917   1.778   0.337 -0.5530 -0.2457 -0.5592
  625MPD2    C1 9254   3.938   1.898   0.406  0.3963 -0.2363 -0.2784
  625MPD2    C2 9255   3.999   1.899   0.527  0.3016 -0.3388  0.7945
  625MPD2    C3 9256   4.040   1.777   0.591 -1.1121  0.1447 -0.3246
  625MPD2    C4 9257   3.998   1.658   0.531  0.0259 -0.3698 -0.4361
  625MPD2    C5 9258   3.941   1.665   0.407 -0.8251  0.0547 -0.1905
  625MPD2     H 9259   4.022   1.993   0.575  0.8645  0.1885 -0.5033
  625MPD2    H1 9260   4.014   1.560   0.574 -0.9180 -0.4048 -0.1825
  625MPD2    H2 9261   3.865   1.768   0.242 -1.5500 -1.5109  0.1255
  625MPD2    H3 9262   3.905   1.573   0.361 -0.2899 -0.4564  0.4228
  625MPD2     N 9263   4.106   1.780   0.715  0.5722  0.0421 -0.5563
  625MPD2    H5 9264   4.111   1.875   0.750 -0.2745 -0.3306  0.5483
  625MPD2    N1 9265   3.912   2.028   0.353  0.0301  0.1423  0.2294
  625MPD2    H7 9266   3.947   2.105   0.408 -1.7974  1.4426 -0.4360
  626TMC3    C1 9267   3.803   2.187   0.232  0.6083  0.6834  0.0572
  626TMC3    C2 9268   3.853   2.252   0.116  1.0714 -0.0633  0.6571
  626TMC3    C3 9269   3.890   2.382   0.130 -0.3564  0.2185 -0.3783
  626TMC3    C4 9270   3.821   2.250   0.352 -0.0775 -0.6779 -0.5796
  626TMC3    C5 9271   3.885   2.373   0.360 -0.2454  0.1470  0.4760
  626TMC3    C6 9272   3.906   2.446   0.246 -0.2311 -0.0828 -0.2584
  626TMC3     C 9273   3.830   2.044   0.247 -0.0565 -0.4728  0.3316
  626TMC3     O 9274   3.754   1.969   0.186  0.3080 -0.7842 -0.1822
  626TMC3     H 9275   3.855   2.210   0.016 -0.9107 -1.5222  1.2324
  626TMC3    H1 9276   3.784   2.198   0.440  0.8610  1.8907  1.3353
  626TMC3    H2 9277   3.954   2.543   0.253  1.6262 -1.1087  1.3200
  626TMC3    C7 9278   3.999   2.374   0.446 -0.1800 -0.3545 -0.1433
  626TMC3    C8 9279   3.909   2.470   0.013  0.3776  0.3803 -0.1188
  626TMC3    O1 9280   4.015   2.270   0.515 -0.1604  0.0396  0.1008
  626TMC3    O2 9281   3.905   2.421  17.589 -0.2839  0.0087 -0.7373
  627MPD2     C 9282   3.361   2.028  14.408 -0.1319  0.0330 -0.0817
  627MPD2    C1 9283   3.358   2.013  14.545 -0.8182  0.2308 -0.1365
  627MPD2    C2 9284   3.265   1.939  14.611  0.2898  0.5196 -0.0395
  627MPD2    C3 9285   3.163   1.870  14.547 -0.1338 -0.4353  0.1514
  627MPD2    C4 9286   3.154   1.891  14.408 -0.4033 -0.9469 -0.1310
  627MPD2    C5 9287   3.252   1.972  14.341  0.8428 -0.3410 -0.2778
  627MPD2     H 9288   3.263   1.943  14.719  1.1141 -0.1687  0.0030
  627MPD2    H1 9289   3.076   1.846  14.347 -0.6008 -0.4654 -0.2338
  627MPD2    H2 9290   3.432   2.089  14.354 -1.1241  1.3029  0.0391
  627MPD2    H3 9291   3.240   1.994  14.236  2.5569 -0.2369 -0.4397
  627MPD2     N 9292   3.065   1.804  14.627  0.1165  0.0891  0.2478
  627MPD2    H5 9293   3.081   1.787  14.726  0.4304 -2.5557 -0.2714
  627MPD2    N1 9294   3.461   2.068  14.616 -0.4228 -0.4817 -0.0425
  627MPD2    H7 9295   3.458   2.037  14.713  2.3465 -1.0522 -0.1364
  628TMC3    C1 9296   3.615   2.234  14.686  0.1948 -0.1183  0.3707
  628TMC3    C2 9297   3.725   2.156  14.697 -0.4198  0.5080  0.1243
  628TMC3    C3 9298   3.840   2.224  14.726  0.5488 -0.2850 -0.0766
  628TMC3    C4 9299   3.625   2.368  14.700 -0.2155  0.4361  0.2468
  628TMC3    C5 9300   3.737   2.429  14.750  0.4206  0.4074  0.0707
  628TMC3    C6 9301   3.848   2.355  14.761  0.4359 -0.4030 -0.2743
  628TMC3     C 9302   3.519   2.193  14.587  0.2624 -1.0309  0.3394
  628TMC3     O 9303   3.483   2.277  14.510 -0.1438 -0.1054  0.4008
  628TMC3     H 9304   3.720   2.055  14.659  1.7368  0.1963  0.6650
  628TMC3    H1 9305   3.534   2.427  14.690 -1.5886 -1.7592 -0.1793
  628TMC3    H2 9306   3.948   2.397  14.771 -0.1717  1.0113 -0.0744
  628TMC3    C7 9307   3.751   2.574  14.785  0.0447 -0.5414 -0.2187
  628TMC3    C8 9308   3.968   2.178  14.673  0.2162 -0.0040  0.9856
  628TMC3    O1 9309   3.829   2.602  14.877  0.2579  0.5904  0.1593
  628TMC3    O2 9310   4.034   2.262  14.613  0.0283 -0.1650  0.0161
  629MPD2     C 9311   1.912   1.252  16.573 -0.1225 -0.0446  0.0814
  629MPD2    C1 9312   1.961   1.170  16.473 -0.1036 -0.3099  0.5459
  629MPD2    C2 9313   1.868   1.089  16.405  0.1886  0.3738 -0.5207
  629MPD2    C3 9314   1.740   1.063  16.450  0.5836 -0.2086  0.1112
  629MPD2    C4 9315   1.702   1.139  16.557 -0.4346 -0.3245 -0.5272
  629MPD2    C5 9316   1.779   1.237  16.615 -0.5632 -0.0277 -0.3709
  629MPD2     H 9317   1.901   1.025  16.324  3.2614 -0.6985  1.5405
  629MPD2    H1 9318   1.603   1.142  16.601  0.6532 -0.6148  1.9268
  629MPD2    H2 9319   1.977   1.328  16.614  0.1455 -1.1111  1.6185
  629MPD2    H3 9320   1.738   1.298  16.695  0.0762  0.5895 -0.5092
  629MPD2     N 9321   1.653   0.982  16.370 -0.0933  0.3797  0.3786
  629MPD2    H5 9322   1.689   0.963  16.277 -0.3099  0.8328  0.2027
  629MPD2    N1 9323   2.092   1.179  16.435 -0.1727  0.5338  0.7471
  629MPD2    H7 9324   2.152   1.220  16.506  0.0517 -0.6281  1.2455
  630TMC3    C1 9325   2.297   1.162  16.328  0.1162  0.0616 -0.9600
  630TMC3    C2 9326   2.364   1.215  16.222 -0.2935 -0.0632  0.1028
  630TMC3    C3 9327   2.485   1.267  16.242  0.3008  0.1043  0.0346
  630TMC3    C4 9328   2.355   1.159  16.451 -0.1748 -0.4383 -0.0814
  630TMC3    C5 9329   2.484   1.203  16.461  0.8343 -0.0498 -0.0919
  630TMC3    C6 9330   2.549   1.265  16.359  0.6026 -0.1178  0.2114
  630TMC3     C 9331   2.151   1.140  16.316 -0.1174 -0.5099  0.2127
  630TMC3     O 9332   2.103   1.102  16.215 -0.3175 -0.5289 -0.9540
  630TMC3     H 9333   2.307   1.229  16.130 -1.8862  0.6830  1.2098
  630TMC3    H1 9334   2.317   1.095  16.530 -0.5463  1.8266  1.5513
  630TMC3    H2 9335   2.650   1.301  16.373  1.2346 -1.5816 -0.5742
  630TMC3    C7 9336   2.528   1.240  16.595 -0.6617  0.1715 -0.0809
  630TMC3    C8 9337   2.563   1.330  16.137  0.9411 -0.3225  0.5415
  630TMC3    O1 9338   2.531   1.149  16.680 -0.5059 -0.0689  0.5010
  630TMC3    O2 9339   2.661   1.391  16.174 -0.3589  0.2240  0.5892
  631MPD2     C 9340   0.114   0.277  15.641 -0.0802  0.2238 -0.5483
  631MPD2    C1 9341   0.167   0.263  15.511  0.2980 -0.0610  0.4866
  631MPD2    C2 9342   0.297   0.235  15.492 -0.7076  0.3190  0.5262
  631MPD2    C3 9343   0.381   0.211  15.605  0.7295 -0.6269 -0.3092
  631MPD2    C4 9344   0.320   0.209  15.730  0.6049  0.3983 -0.2002
  631MPD2    C5 9345   0.190   0.239  15.750  0.4475 -0.7552  0.0573
  631MPD2     H 9346   0.340   0.239  15.392 -0.8460  3.6838  0.5975
  631MPD2    H1 9347   0.373   0.185  15.821  1.7203 -0.2585 -1.0113
  631MPD2    H2 9348   0.006   0.281  15.651  0.0202 -1.4408  1.1763
  631MPD2    H3 9349   0.139   0.232  15.846  1.4464 -1.9167  0.4956
  631MPD2     N 9350   0.522   0.187  15.584  0.5625 -0.2713  0.0137
  631MPD2    H5 9351   0.551   0.202  15.488  0.3340  2.0783  0.3236
  631MPD2    N1 9352   0.080   0.309  15.404 -0.4636 -0.1992  0.6417
  631MPD2    H7 9353   4.706   0.336  15.424 -0.3763 -0.6411  1.6424
  632TMC3    C1 9354   0.041   0.407  15.185  0.2012  0.1488  0.2705
  632TMC3    C2 9355   4.652   0.468  15.242  0.0781 -0.5933  0.4070
  632TMC3    C3 9356   4.593   0.575  15.179  0.7569  0.2796  0.2910
  632TMC3    C4 9357   0.101   0.456  15.068  0.2219  0.4109 -0.6716
  632TMC3    C5 9358   0.045   0.577  15.022  0.0492 -0.0254  0.7073
  632TMC3    C6 9359   4.650   0.633  15.070  0.0557  0.6692  0.0112
  632TMC3     C 9360   0.121   0.327  15.271  0.8374 -0.6355  0.1473
  632TMC3     O 9361   0.218   0.277  15.216 -0.3225 -0.1067 -1.0891
  632TMC3     H 9362   4.608   0.425  15.331 -0.5898 -0.3424  0.2013
  632TMC3    H1 9363   0.187   0.402  15.031  0.1306  0.2831 -0.6968
  632TMC3    H2 9364   4.610   0.715  15.011  0.2148  1.1858  0.6298
  632TMC3    C7 9365   0.121   0.652  14.928 -0.4594 -0.0901 -0.2229
  632TMC3    C8 9366   4.507   0.657  15.257 -0.6630  0.2115  0.1381
  632TMC3    O1 9367   0.064   0.747  14.876 -0.2000 -0.2515 -0.0655
  632TMC3    O2 9368   4.519   0.626  15.375  0.0893 -0.4166 -0.0199
  633MPD2     C 9369   4.127   3.704  17.403  0.6348 -0.1235  0.0455
  633MPD2    C1 9370   4.241   3.634  17.397 -0.3768 -0.4127 -0.2907
  633MPD2    C2 9371   4.261   3.528  17.484  0.5473 -0.0402  1.0671
  633MPD2    C3 9372   4.150   3.480  17.561 -0.4668  0.0708 -0.2478
  633MPD2    C4 9373   4.037   3.551  17.568 -0.7793  0.4606  0.7603
  633MPD2    C5 9374   4.025   3.664  17.487  0.5771 -0.4607 -0.3277
  633MPD2     H 9375   4.355   3.473  17.483  1.6388  1.8881 -3.3202
  633MPD2    H1 9376   3.948   3.513  17.617 -1.3585  0.9163  0.0776
  633MPD2    H2 9377   4.119   3.797  17.347  4.1360 -1.2381 -2.3153
  633MPD2    H3 9378   3.940   3.732  17.493 -0.0287 -1.3889  1.7014
  633MPD2     N 9379   4.167   3.352  17.635  0.3429 -0.3558 -0.4040
  633MPD2    H5 9380   4.084   3.306  17.670 -1.8577  2.5521 -1.7237
  633MPD2    N1 9381   4.342   3.669  17.302 -0.2115 -0.1145  0.2094
  633MPD2    H7 9382   4.415   3.602  17.280  1.0903  1.3194  0.1204
  634TMC3    C1 9383   4.434   3.787  17.111  0.6475  0.1654  0.7216
  634TMC3    C2 9384   4.494   3.675  17.058  0.0132  0.5112  0.4480
  634TMC3    C3 9385   4.570   3.692  16.948 -0.3213 -0.4291  0.9299
  634TMC3    C4 9386   4.452   3.911  17.060  0.1245  0.6957  0.6084
  634TMC3    C5 9387   4.503   3.914  16.935  0.4814 -0.4866  0.2306
  634TMC3    C6 9388   4.572   3.811  16.880 -0.0260  0.2931 -0.2218
  634TMC3     C 9389   4.356   3.788  17.235 -0.5308  0.2302 -0.3181
  634TMC3     O 9390   4.308   3.893  17.275 -0.2070  0.2572 -0.2402
  634TMC3     H 9391   4.475   3.578  17.103  0.3175 -0.1819 -0.9262
  634TMC3    H1 9392   4.399   3.996  17.103 -0.3311  0.6759  0.0903
  634TMC3    H2 9393   4.603   3.819  16.776 -0.5822  2.8661 -0.1993
  634TMC3    C7 9394   4.482   4.029  16.852 -0.3791 -0.0571 -0.1656
  634TMC3    C8 9395   4.622   3.566  16.896  0.8493 -0.6499  0.1505
  634TMC3    O1 9396   4.531   4.034  16.740 -0.3306 -0.4157 -0.1577
  634TMC3    O2 9397   4.624   3.479  16.982  0.1887 -0.1561 -0.1726
  635TMC3    C1 9398   4.607   0.473  17.586  0.6420 -0.1076 -0.1970
  635TMC3    C2 9399   4.660   0.413  17.481  0.8229  0.1314 -0.2999
  635TMC3    C3 9400   4.706   0.281  17.499 -0.6448 -0.9277 -0.1789
  635TMC3    C4 9401   4.582   0.409   0.019  0.0086  0.4094  0.4153
  635TMC3    C5 9402   4.621   0.274   0.023 -0.5136  0.1237 -0.4554
  635TMC3    C6 9403   4.684   0.210  17.611 -0.3015 -0.4673 -0.1993
  635TMC3     C 9404   4.572   0.617  17.578 -0.4912 -0.2411  0.2141
  635TMC3     O 9405   4.461   0.650  17.622 -0.7869 -0.0079 -0.0972
  635TMC3     H 9406   4.691   0.469  17.394 -0.0440 -1.0217 -1.3503
  635TMC3    H1 9407   4.524   0.460   0.096 -0.3391 -1.1705  1.2007
  635TMC3    H2 9408   0.009   0.116  17.637  1.3646 -0.4769 -3.2548
  635TMC3    C7 9409   4.640   0.217   0.155  0.7794  0.2454  0.6303
  635TMC3    C8 9410   0.058   0.233  17.386 -0.2094 -0.0788  0.1847
  635TMC3    O1 9411   4.674   0.101   0.166  0.2489 -0.0129 -0.6072
  635TMC3    O2 9412   0.072   0.312  17.291  0.2597  0.4861  0.1505
  636MPD2     C 9413   1.181   3.781  15.644 -0.3715 -0.6811  0.2085
  636MPD2    C1 9414   1.236   3.793  15.772 -0.6710 -0.2059  0.7293
  636MPD2    C2 9415   1.375   3.778  15.787  0.4948  0.9830 -0.1048
  636MPD2    C3 9416   1.457   3.767  15.674  0.2479  0.0832  0.4812
  636MPD2    C4 9417   1.399   3.761  15.548 -0.2856 -0.0981  0.4520
  636MPD2    C5 9418   1.261   3.779  15.534 -0.1067 -0.2638  0.2471
  636MPD2     H 9419   1.425   3.786  15.883 -3.3982  1.6174  1.8535
  636MPD2    H1 9420   1.449   3.750  15.452 -0.1586  0.4051  0.4630
  636MPD2    H2 9421   1.080   3.805  15.613 -1.0978 -1.7346  1.7498
  636MPD2    H3 9422   1.214   3.773  15.437  1.8221  0.4464 -0.7266
  636MPD2     N 9423   1.592   3.736  15.691  0.5994  0.6896 -0.4151
  636MPD2    H5 9424   1.611   3.702  15.785  0.0124 -0.5942 -0.7692
  636MPD2    N1 9425   1.161   3.816  15.890  0.6621  0.2393  0.0577
  636MPD2    H7 9426   1.212   3.818  15.978 -0.3577 -0.0694  0.6658
  637TMC3    C1 9427   1.816   3.758  15.662  0.5919  0.0695 -0.0025
  637TMC3    C2 9428   1.844   3.684  15.771 -0.0901  0.0460 -0.4968
  637TMC3    C3 9429   1.971   3.698  15.817 -0.7777 -0.1819 -1.3436
  637TMC3    C4 9430   1.907   3.835  15.593  0.0940  0.1359  0.0332
  637TMC3    C5 9431   2.032   3.841  15.647 -0.2481 -0.2275 -0.4526
  637TMC3    C6 9432   2.064   3.771  15.758 -0.0123 -0.1624 -0.0449
  637TMC3     C 9433   1.684   3.770  15.602  0.6185  0.6411  0.1370
  637TMC3     O 9434   1.672   3.838  15.502  0.3299 -0.0836  0.0938
  637TMC3     H 9435   1.768   3.613  15.802  0.7619 -0.9801 -0.7824
  637TMC3    H1 9436   1.889   3.880  15.496  0.5214 -2.8961 -1.4715
  637TMC3    H2 9437   2.166   3.777  15.793 -1.2236  1.8013  3.1607
  637TMC3    C7 9438   2.144   3.915  15.589  0.9301  0.4931  0.5424
  637TMC3    C8 9439   2.003   3.578  15.886 -0.0636  0.1333 -0.2868
  637TMC3    O1 9440   2.253   3.868  15.605  0.1474  0.2514 -0.0164
  637TMC3    O2 9441   2.079   3.499  15.837  0.5395 -0.3515 -0.0953
  638MPD2     C 9442   1.068   2.556  14.749 -0.1335  0.5872 -0.1287
  638MPD2    C1 9443   1.023   2.429  14.709  0.0403  0.4722 -0.0871
  638MPD2    C2 9444   0.962   2.345  14.804 -0.2731  1.1657 -0.3604
  638MPD2    C3 9445   0.910   2.394  14.923 -0.8356 -0.3644  0.2348
  638MPD2    C4 9446   0.936   2.524  14.953  0.0576 -0.2374  0.0448
  638MPD2    C5 9447   1.015   2.602  14.869 -0.0432  0.2155  0.5680
  638MPD2     H 9448   0.954   2.239  14.781  2.5875  0.9535 -0.2952
  638MPD2    H1 9449   0.913   2.573  15.047 -2.5962 -2.1691  0.3913
  638MPD2    H2 9450   1.132   2.619  14.688 -0.3062 -0.1158 -1.0230
  638MPD2    H3 9451   1.027   2.704  14.906 -0.2938  0.6707 -0.6097
  638MPD2     N 9452   0.836   2.310  15.002  0.2198  0.7884 -0.1481
  638MPD2    H5 9453   0.851   2.212  14.978  1.9929  0.8202  0.8405
  638MPD2    N1 9454   1.082   2.389  14.589 -0.2742 -0.2388 -0.2145
  638MPD2    H7 9455   1.154   2.451  14.554 -0.6906  0.5425  0.3126
  639TMC3    C1 9456   0.670   2.255  15.157  0.3798  0.3652  0.2445
  639TMC3    C2 9457   0.534   2.258  15.160 -0.4621  0.2622  0.6919
  639TMC3    C3 9458   0.464   2.142  15.186  0.2297  0.8726  0.3931
  639TMC3    C4 9459   0.739   2.143  15.183  0.8002 -0.3368 -0.2385
  639TMC3    C5 9460   0.674   2.029  15.216  0.0121  0.3884  0.0458
  639TMC3    C6 9461   0.537   2.023  15.212 -0.4147  0.6294 -0.4109
  639TMC3     C 9462   0.737   2.355  15.080  0.4423 -0.5034  0.7209
  639TMC3     O 9463   0.672   2.461  15.071 -0.5776  0.0127  0.1366
  639TMC3     H 9464   0.482   2.346  15.124  0.7680  0.1647 -1.3585
  639TMC3    H1 9465   0.847   2.145  15.191  0.9032  0.8271 -1.7652
  639TMC3    H2 9466   0.488   1.936  15.254 -0.0322  0.2819 -0.6826
  639TMC3    C7 9467   0.748   1.930  15.288  0.4072  0.1087  0.0441
  639TMC3    C8 9468   0.348   2.138  15.106 -0.3212  0.0037 -0.4483
  639TMC3    O1 9469   0.710   1.893  15.401  0.6269  0.0929  0.0250
  639TMC3    O2 9470   0.283   2.242  15.096 -0.6341  0.2905 -0.3727
  640MPD2     C 9471   1.279   1.355   9.769 -0.3170 -0.2783 -0.0559
  640MPD2    C1 9472   1.369   1.410   9.685 -0.3550  0.6985  0.2246
  640MPD2    C2 9473   1.354   1.541   9.643 -0.3249 -0.6617  0.1348
  640MPD2    C3 9474   1.237   1.606   9.676 -0.5037  0.1479 -0.1089
  640MPD2    C4 9475   1.142   1.548   9.767  0.0289 -0.5498 -0.8508
  640MPD2    C5 9476   1.162   1.420   9.812  1.0240 -0.3091  0.1656
  640MPD2     H 9477   1.423   1.589   9.575 -1.1517  1.3640  0.7237
  640MPD2    H1 9478   1.051   1.600   9.796  0.2456 -0.9371  0.5433
  640MPD2    H2 9479   1.291   1.253   9.802 -0.0806  0.5705  2.4866
  640MPD2    H3 9480   1.101   1.370   9.886 -1.2360  0.9784 -0.8114
  640MPD2     N 9481   1.204   1.738   9.625 -0.0412  1.0392  0.6183
  640MPD2    H5 9482   1.113   1.772   9.654 -0.4581  0.9290 -0.5744
  640MPD2    N1 9483   1.496   1.343   9.658 -0.3317 -0.1213 -0.3075
  640MPD2    H7 9484   1.519   1.260   9.711  2.9588 -0.1199 -1.7395
  641TMC3    C1 9485   1.692   1.275   9.538 -0.4933  0.2807  0.2780
  641TMC3    C2 9486   1.707   1.163   9.616  0.0184  0.3962 -0.1921
  641TMC3    C3 9487   1.802   1.077   9.574 -1.0300 -1.1292  0.2173
  641TMC3    C4 9488   1.785   1.308   9.446 -0.1369 -0.4108  0.1363
  641TMC3    C5 9489   1.878   1.217   9.410  0.2358  0.9581  0.7297
  641TMC3    C6 9490   1.888   1.096   9.470  0.8581 -0.1788 -0.3153
  641TMC3     C 9491   1.584   1.372   9.555  0.0483  0.3404  0.1773
  641TMC3     O 9492   1.579   1.461   9.471 -0.0018  0.3544  0.2647
  641TMC3     H 9493   1.640   1.152   9.700 -1.8698  2.3343 -1.4501
  641TMC3    H1 9494   1.770   1.400   9.391  2.5296 -0.3730 -0.5259
  641TMC3    H2 9495   1.969   1.025   9.454  0.0994 -1.3848  1.2745
  641TMC3    C7 9496   1.979   1.259   9.314  0.7717 -0.0142  0.1000
  641TMC3    C8 9497   1.802   0.941   9.628  0.3495  0.3531  0.3013
  641TMC3    O1 9498   2.002   1.380   9.317 -0.7599  0.2338  0.4288
  641TMC3    O2 9499   1.850   0.851   9.560 -0.9410  0.2501  0.0761
  642TMC3    C1 9500   2.460   2.143  12.310  0.3090 -0.1985  0.2021
  642TMC3    C2 9501   2.560   2.136  12.404  0.6227  0.2194  0.8419
  642TMC3    C3 9502   2.546   2.031  12.494  0.3470 -0.1320 -0.0247
  642TMC3    C4 9503   2.352   2.056  12.311  0.7908  0.1517  0.9299
  642TMC3    C5 9504   2.345   1.958  12.401  0.3367  0.1395 -0.2772
  642TMC3    C6 9505   2.448   1.947  12.490  0.1534  0.1012  0.3747
  642TMC3     C 9506   2.431   2.273  12.266 -0.1936  0.1971 -0.1582
  642TMC3     O 9507   2.525   2.342  12.231 -0.9631  0.1069  0.4477
  642TMC3     H 9508   2.641   2.208  12.409  0.2727  0.5586  1.6615
  642TMC3    H1 9509   2.269   2.074  12.244  1.6380  0.6737  0.0116
  642TMC3    H2 9510   2.440   1.873  12.569 -0.7342  0.4508  0.6152
  642TMC3    C7 9511   2.262   1.849  12.362 -0.0644  0.1997 -0.5670
  642TMC3    C8 9512   2.656   1.994  12.581 -0.5883 -0.1482 -0.1883
  642TMC3    O1 9513   2.225   1.846  12.245 -0.4825  0.3433  0.0373
  642TMC3    O2 9514   2.660   1.876  12.613 -0.3487  0.5985 -0.3148
  643TMC3    C1 9515   1.623   1.821   0.525  0.9036 -0.3514  0.1870
  643TMC3    C2 9516   1.492   1.835   0.565  0.8538  0.3373  0.3269
  643TMC3    C3 9517   1.392   1.850   0.468  0.5056 -0.6337  0.3455
  643TMC3    C4 9518   1.655   1.810   0.393  0.4276 -0.1016 -0.0259
  643TMC3    C5 9519   1.556   1.830   0.303 -0.4045 -0.3495  0.6930
  643TMC3    C6 9520   1.426   1.840   0.331  0.0017 -0.2810  0.1162
  643TMC3     C 9521   1.739   1.837   0.613  0.2342  0.0537 -0.0640
  643TMC3     O 9522   1.839   1.779   0.573 -0.1238  0.0313 -0.2515
  643TMC3     H 9523   1.460   1.828   0.668  0.9518 -1.6670  0.2122
  643TMC3    H1 9524   1.755   1.785   0.361  0.7669  0.7277  0.3910
  643TMC3    H2 9525   1.351   1.844   0.253  1.0951 -1.9667 -1.0123
  643TMC3    C7 9526   1.588   1.844   0.163  0.9379 -0.1557  0.7536
  643TMC3    C8 9527   1.306   1.962   0.495  0.4580  0.5211 -0.6738
  643TMC3    O1 9528   1.665   1.927   0.133  0.0102  0.4943  0.2169
  643TMC3    O2 9529   1.268   1.988   0.611  0.0991 -0.0786 -0.1604
  644MPD2     C 9530   2.395   1.105   9.639  0.0672 -0.4163  0.5879
  644MPD2    C1 9531   2.520   1.151   9.682 -0.2866  0.0075 -0.1076
  644MPD2    C2 9532   2.567   1.273   9.636  0.3249  0.1714 -0.1707
  644MPD2    C3 9533   2.503   1.343   9.544 -0.1539  0.3688 -0.1382
  644MPD2    C4 9534   2.377   1.297   9.494 -0.5656 -0.0608 -0.2295
  644MPD2    C5 9535   2.324   1.182   9.545  0.2880  0.5489 -0.3373
  644MPD2     H 9536   2.659   1.320   9.669 -0.4106 -0.0222  2.2207
  644MPD2    H1 9537   2.343   1.354   9.409 -1.4530  0.3133  0.3741
  644MPD2    H2 9538   2.359   1.007   9.669  1.3429 -1.5800 -1.7033
  644MPD2    H3 9539   2.231   1.139   9.512  0.2163 -1.0959  2.0090
  644MPD2     N 9540   2.559   1.462   9.504  1.0122  0.9695 -1.1979
  644MPD2    H5 9541   2.638   1.486   9.563  0.8536 -0.9475 -0.1930
  644MPD2    N1 9542   2.579   1.079   9.782 -0.0029 -0.2813 -0.3099
  644MPD2    H7 9543   2.532   0.993   9.810  0.2942  0.1418  1.4615
  645TMC3    C1 9544   2.597   1.670   9.387  0.0051  0.6441  0.6104
  645TMC3    C2 9545   2.704   1.700   9.468 -0.0132 -0.1186  0.0797
  645TMC3    C3 9546   2.764   1.822   9.453 -0.4420 -0.5678  0.0463
  645TMC3    C4 9547   2.556   1.751   9.282 -0.2383 -0.2996 -0.8569
  645TMC3    C5 9548   2.621   1.867   9.271 -0.0305  0.2753  0.0799
  645TMC3    C6 9549   2.730   1.905   9.344 -0.8572 -0.2217 -0.2427
  645TMC3     C 9550   2.518   1.548   9.408 -0.3269  0.5132 -0.4040
  645TMC3     O 9551   2.425   1.538   9.336  0.3722 -0.1664  0.5632
  645TMC3     H 9552   2.745   1.630   9.540 -2.9449 -2.1865 -0.2572
  645TMC3    H1 9553   2.462   1.733   9.231  0.3957 -1.3275 -1.6508
  645TMC3    H2 9554   2.800   1.986   9.325  0.8855 -1.6973 -0.1069
  645TMC3    C7 9555   2.545   1.977   9.223  0.4952  0.0994  0.6875
  645TMC3    C8 9556   2.872   1.867   9.537  0.3924  0.5932  0.7452
  645TMC3    O1 9557   2.439   1.960   9.160 -0.0168 -0.2310  1.2423
  645TMC3    O2 9558   2.942   1.956   9.489 -0.2088  0.5786  0.2096
  646MPD2     C 9559   0.910   1.076  14.442  0.0659 -0.7492 -0.4122
  646MPD2    C1 9560   0.843   1.110  14.550  0.7815  0.0007  0.4764
  646MPD2    C2 9561   0.732   1.197  14.554  0.4357 -0.4070 -0.0130
  646MPD2    C3 9562   0.686   1.250  14.436  0.0403 -0.7870  0.2436
  646MPD2    C4 9563   0.763   1.225  14.324  0.0970 -0.3610  0.1818
  646MPD2    C5 9564   0.871   1.144  14.333  0.1981 -0.5525 -0.4152
  646MPD2     H 9565   0.693   1.237  14.647 -1.9739 -2.2191 -0.2538
  646MPD2    H1 9566   0.741   1.283  14.235 -1.1638  1.3071  1.5647
  646MPD2    H2 9567   0.992   1.006  14.438  0.3269 -0.3539 -2.0706
  646MPD2    H3 9568   0.940   1.127  14.251  2.6982  2.5840  1.0602
  646MPD2     N 9569   0.569   1.324  14.433 -0.1143  0.0535 -0.7858
  646MPD2    H5 9570   0.525   1.354  14.520 -0.7961 -2.0602 -0.3962
  646MPD2    N1 9571   0.901   1.065  14.669 -0.1994 -0.0406  0.4404
  646MPD2    H7 9572   0.993   1.023  14.653  0.9523  2.8107 -0.4438
  647TMC3    C1 9573   0.933   0.999  14.906 -0.5142  0.3967  0.6194
  647TMC3    C2 9574   0.910   1.026  15.035  0.3988 -0.0681  0.2898
  647TMC3    C3 9575   0.993   0.967  15.131  0.4045  0.0275 -0.3509
  647TMC3    C4 9576   1.027   0.909  14.862  0.0122 -0.7321  0.0129
  647TMC3    C5 9577   1.095   0.838  14.957  0.0385 -0.6466  0.3273
  647TMC3    C6 9578   1.098   0.880  15.088 -0.0947 -0.1750  0.4208
  647TMC3     C 9579   0.860   1.081  14.805  0.0950 -0.2532  0.1322
  647TMC3     O 9580   0.769   1.144  14.851 -0.4685  0.0841 -0.0815
  647TMC3     H 9581   0.831   1.092  15.068  2.3539  3.8776 -2.9927
  647TMC3    H1 9582   1.038   0.894  14.755  0.3298 -1.5651  0.1639
  647TMC3    H2 9583   1.153   0.827  15.165 -0.3970  0.1584  0.8633
  647TMC3    C7 9584   1.175   0.722  14.919 -0.1775  0.0573  0.4355
  647TMC3    C8 9585   0.921   0.908  15.246  0.0135 -0.1615  0.0014
  647TMC3    O1 9586   1.256   0.675  15.000  0.1397  0.3249 -0.2074
  647TMC3    O2 9587   0.994   0.853  15.332 -0.3274 -0.0879 -0.3476
  648TMC3    C1 9588   0.347   3.742  16.152  0.9206  0.6714 -0.3678
  648TMC3    C2 9589   0.397   3.626  16.112 -0.0172  0.2751 -1.0673
  648TMC3    C3 9590   0.380   3.589  15.979  0.1810  0.6819 -0.2478
  648TMC3    C4 9591   0.276   3.824  16.062  0.2451  0.1151 -0.1096
  648TMC3    C5 9592   0.269   3.789  15.930  0.4529 -1.6021  0.6901
  648TMC3    C6 9593   0.315   3.665  15.891  0.5232  0.2749 -0.5525
  648TMC3     C 9594   0.360   3.793  16.286 -0.2804  0.4756  0.2485
  648TMC3     O 9595   0.360   3.916  16.294  0.5414 -0.3365 -0.2349
  648TMC3     H 9596   0.430   3.559  16.191 -1.4323  0.4123 -0.3668
  648TMC3    H1 9597   0.232   3.916  16.099  0.0980  0.2853 -0.7059
  648TMC3    H2 9598   0.309   3.636  15.787  0.4741  0.3525 -0.5712
  648TMC3    C7 9599   0.143   3.824  15.864  0.4286  0.0481 -0.0803
  648TMC3    C8 9600   0.436   3.466  15.932  0.0176  0.3313  0.3699
  648TMC3    O1 9601   0.087   3.736  15.800 -0.5009 -0.6286  0.0622
  648TMC3    O2 9602   0.452   3.458  15.812 -0.1238  0.4231 -0.5660
  649TMC3    C1 9603   2.863   4.367  12.955 -0.1076 -0.4594 -0.1083
  649TMC3    C2 9604   2.947   4.447  12.882  0.2599  0.0710 -0.8206
  649TMC3    C3 9605   3.073   4.461  12.935  0.1545 -0.1588  0.8752
  649TMC3    C4 9606   2.890   4.315  13.080  0.5812  0.2725 -0.0811
  649TMC3    C5 9607   3.021   4.332  13.123  0.1900  0.0321  0.3295
  649TMC3    C6 9608   3.112   4.416  13.057 -0.1364  0.3589  0.5626
  649TMC3     C 9609   2.730   4.388  12.910 -0.1016 -0.0475 -0.1553
  649TMC3     O 9610   2.687   4.498  12.907 -0.0947  0.4393  0.1585
  649TMC3     H 9611   2.910   4.478  12.785 -3.2237  1.4478  0.9419
  649TMC3    H1 9612   2.823   4.250  13.135  1.1324 -0.2968 -0.0819
  649TMC3    H2 9613   3.215   4.425  13.088 -0.3468 -0.4267  1.4795
  649TMC3    C7 9614   3.059   4.297  13.262 -0.3001  0.0997 -0.2275
  649TMC3    C8 9615   3.168   4.550  12.868  0.0345 -0.4097  0.4454
  649TMC3    O1 9616   3.148   4.361  13.314  0.2565  0.4303  0.0782
  649TMC3    O2 9617   3.261   4.597  12.930  0.3387 -0.4264 -0.0803
  650TMC3    C1 9618   1.561   1.428  12.667 -1.2019 -0.4939 -0.3946
  650TMC3    C2 9619   1.607   1.548  12.713 -0.1525 -0.0763 -0.8179
  650TMC3    C3 9620   1.652   1.639  12.621 -0.4352 -0.5575  0.2542
  650TMC3    C4 9621   1.527   1.408  12.534 -0.6186 -0.4550  0.2047
  650TMC3    C5 9622   1.552   1.515  12.445 -0.4624  0.1164  0.3651
  650TMC3    C6 9623   1.617   1.626  12.491 -0.4810 -0.3455  0.2525
  650TMC3     C 9624   1.583   1.315  12.758  0.6111  0.1456  0.9314
  650TMC3     O 9625   1.691   1.328  12.813 -0.4772  0.2289  1.0147
  650TMC3     H 9626   1.626   1.557  12.819 -0.3470 -2.1010 -0.6188
  650TMC3    H1 9627   1.486   1.314  12.496  0.2821 -1.0618  0.7270
  650TMC3    H2 9628   1.631   1.707  12.420  0.0718 -0.2077  0.5167
  650TMC3    C7 9629   1.467   1.511  12.325  0.3553  0.3175  0.7292
  650TMC3    C8 9630   1.644   1.779  12.648  0.4014 -0.0266  0.1651
  650TMC3    O1 9631   1.430   1.400  12.286  0.4684  0.0461  0.7517
  650TMC3    O2 9632   1.736   1.855  12.620  0.3861  0.0893 -0.2119
  651MPD2     C 9633   0.621   2.585  10.646 -0.4694 -0.4709 -0.8130
  651MPD2    C1 9634   0.628   2.716  10.660  0.3228  0.3202 -0.4770
  651MPD2    C2 9635   0.736   2.787  10.609 -0.0401 -0.0697 -0.2333
  651MPD2    C3 9636   0.829   2.725  10.530  0.8080  0.2238  0.0302
  651MPD2    C4 9637   0.817   2.587  10.509  0.2140 -0.2018  0.2852
  651MPD2    C5 9638   0.707   2.525  10.565  0.3845  0.0635  0.0437
  651MPD2     H 9639   0.744   2.895  10.616  2.0645 -0.1946 -0.8193
  651MPD2    H1 9640   0.892   2.529  10.456  2.1246  1.4058  1.2562
  651MPD2    H2 9641   0.535   2.527  10.678  0.9074 -2.7636 -1.2650
  651MPD2    H3 9642   0.708   2.417  10.554 -0.8629 -0.0291  0.8415
  651MPD2     N 9643   0.924   2.806  10.475  0.5777 -0.2564  1.0539
  651MPD2    H5 9644   0.914   2.907  10.485  0.6655 -0.1874  0.4579
  651MPD2    N1 9645   0.541   2.792  10.740 -0.1781  0.1506 -0.4512
  651MPD2    H7 9646   0.556   2.892  10.747  2.5366 -0.3468  0.7486
  652TMC3    C1 9647   1.291   3.041  10.412 -0.1122 -0.6975 -0.3913
  652TMC3    C2 9648   1.239   2.914  10.423 -0.4308  0.1228 -0.0844
  652TMC3    C3 9649   1.111   2.893  10.378  0.0971  0.6522 -0.0643
  652TMC3    C4 9650   1.221   3.137  10.338  0.4404 -0.4432 -0.3199
  652TMC3    C5 9651   1.097   3.109  10.285  0.1814  0.7823 -0.1598
  652TMC3    C6 9652   1.034   2.993  10.314  0.6755  0.8930 -0.2541
  652TMC3     C 9653   1.400   3.073  10.501  0.6258  0.5033 -0.0141
  652TMC3     O 9654   1.440   2.981  10.572 -0.4824 -0.5942 -0.1818
  652TMC3     H 9655   1.279   2.837  10.487 -0.2435 -0.2678 -0.6751
  652TMC3    H1 9656   1.270   3.233  10.324 -1.3622  0.0318 -3.4363
  652TMC3    H2 9657   0.949   2.956  10.258 -0.5387  2.9590  0.2217
  652TMC3    C7 9658   1.015   3.230  10.261  0.2757  0.5206  0.2042
  652TMC3    C8 9659   1.037   2.773  10.419 -0.5100  0.4938  0.3931
  652TMC3    O1 9660   1.062   3.343  10.237 -0.7216  0.5832  0.0788
  652TMC3    O2 9661   1.090   2.662  10.421  0.3228  0.6543 -0.1933
  653MPD2     C 9662   4.000   4.198  17.607 -0.0628 -0.2766 -0.1433
  653MPD2    C1 9663   4.075   4.267  17.517  0.0904 -0.7465  0.2274
  653MPD2    C2 9664   4.067   4.215  17.389  0.7762 -0.3024  0.0341
  653MPD2    C3 9665   3.997   4.094  17.362  0.0764 -0.1793 -0.1316
  653MPD2    C4 9666   3.932   4.031  17.465  0.3429  0.4901 -0.1217
  653MPD2    C5 9667   3.923   4.086  17.585 -0.1144  0.2400 -0.0933
  653MPD2     H 9668   4.101   4.267  17.300 -1.3842 -0.5111 -0.9316
  653MPD2    H1 9669   3.866   3.949  17.440 -1.2599  2.1332 -1.2017
  653MPD2    H2 9670   4.011   4.217   0.022  0.7056 -3.6632  0.3742
  653MPD2    H3 9671   3.869   4.044  17.669  0.7517 -1.8474 -0.5736
  653MPD2     N 9672   3.984   4.031  17.237 -0.5148 -0.2459 -0.9859
  653MPD2    H5 9673   3.912   3.960  17.229 -1.3022  0.5145 -0.7599
  653MPD2    N1 9674   4.146   4.387  17.547  0.0467  0.0217 -0.0655
  653MPD2    H7 9675   4.198   4.429  17.470  1.4866  0.4549  1.1368
  654TMC3    C1 9676   4.003   3.988  17.011  0.5041  0.8300  0.3856
  654TMC3    C2 9677   3.868   3.972  17.000  0.5185  0.4398  0.5914
  654TMC3    C3 9678   3.824   3.857  16.940 -0.7321  0.2002  0.2760
  654TMC3    C4 9679   4.096   3.892  16.973  0.5081  0.9385  0.6958
  654TMC3    C5 9680   4.045   3.781  16.912 -0.3797 -0.2165  0.2289
  654TMC3    C6 9681   3.907   3.758  16.892  0.2655 -0.0796  0.8034
  654TMC3     C 9682   4.050   4.062  17.123  0.0395 -0.6547 -0.8784
  654TMC3     O 9683   4.157   4.120  17.101  0.4694  0.6746 -0.1162
  654TMC3     H 9684   3.810   4.058  17.032  1.1266  1.6830 -1.6481
  654TMC3    H1 9685   4.204   3.906  16.980  0.7911 -1.8765  1.8517
  654TMC3    H2 9686   3.886   3.679  16.821  2.4158 -0.7729  0.9237
  654TMC3    C7 9687   4.148   3.708  16.846 -0.6208  1.0044  0.6883
  654TMC3    C8 9688   3.682   3.842  16.931  0.1263  0.1145  0.1682
  654TMC3    O1 9689   4.251   3.769  16.812  0.0372  0.6023  0.1018
  654TMC3    O2 9690   3.622   3.942  16.962 -0.3651  0.0922 -0.5862
  655MPD2     C 9691   0.702   3.931  15.576 -0.0233  0.6030 -0.7753
  655MPD2    C1 9692   0.576   3.952  15.530  0.1051  0.1030 -0.4582
  655MPD2    C2 9693   0.528   3.872  15.430 -0.0032  0.2121  1.5827
  655MPD2    C3 9694   0.609   3.768  15.377 -0.8438  0.1870 -0.5901
  655MPD2    C4 9695   0.738   3.751  15.435  0.4063  0.1761  0.3651
  655MPD2    C5 9696   0.780   3.836  15.527  0.3702  0.0692  0.0739
  655MPD2     H 9697   0.428   3.892  15.395  0.1942 -0.0200  0.8792
  655MPD2    H1 9698   0.808   3.672  15.408 -1.7716 -0.7281 -2.6799
  655MPD2    H2 9699   0.743   3.980  15.664 -0.0743 -2.7182  1.1112
  655MPD2    H3 9700   0.880   3.827  15.568  0.3072 -2.6457 -0.3284
  655MPD2     N 9701   0.565   3.675  15.281 -0.4415  0.2255 -0.0129
  655MPD2    H5 9702   0.630   3.609  15.240 -0.6885 -0.4225  0.6458
  655MPD2    N1 9703   0.486   4.041  15.593  0.5287  0.5908 -0.0556
  655MPD2    H7 9704   0.394   4.050  15.550  1.1926  3.0484 -0.9473
  656TMC3    C1 9705   0.409   4.203  15.755 -0.0032 -0.2837 -0.1139
  656TMC3    C2 9706   0.397   4.220  15.890 -0.1425 -0.0005 -0.1095
  656TMC3    C3 9707   0.305   4.310  15.938  0.0392 -0.4257  0.7730
  656TMC3    C4 9708   0.318   4.255  15.671 -0.3624 -0.9422 -0.1762
  656TMC3    C5 9709   0.216   4.332  15.724 -0.4234  0.3663 -0.5345
  656TMC3    C6 9710   0.212   4.370  15.856 -0.1524 -0.7157  0.4304
  656TMC3     C 9711   0.521   4.122  15.708  0.6218  0.0398 -0.4520
  656TMC3     O 9712   0.612   4.110  15.785  0.7640 -0.3393 -0.4538
  656TMC3     H 9713   0.457   4.169  15.964  1.5033  1.9537 -0.0824
  656TMC3    H1 9714   0.328   4.247  15.563  2.4435 -1.5056  0.1361
  656TMC3    H2 9715   0.145   4.437  15.908  0.5985  1.1528 -1.0498
  656TMC3    C7 9716   0.092   4.333  15.649  0.3035  0.3422 -0.0792
  656TMC3    C8 9717   0.244   4.263  16.063  0.3157 -0.0519 -1.3577
  656TMC3    O1 9718   0.087   4.275  15.544 -0.0706  0.2749 -0.4425
  656TMC3    O2 9719   0.244   4.142  16.058  0.3935 -0.0154 -0.0512
  657TMC3    C1 9720   4.395   2.880  15.285  0.3222 -0.2900  0.3835
  657TMC3    C2 9721   4.506   2.900  15.360  0.2585 -0.2858  0.9795
  657TMC3    C3 9722   4.507   2.984  15.467  0.2301  0.5014 -0.3151
  657TMC3    C4 9723   4.276   2.934  15.309 -0.1086  0.7341 -0.0856
  657TMC3    C5 9724   4.276   3.026  15.412 -0.2770 -0.0010  0.1190
  657TMC3    C6 9725   4.385   3.044  15.499 -0.4905 -0.3889  0.0298
  657TMC3     C 9726   4.422   2.844  15.148  0.3123 -0.1336  0.0790
  657TMC3     O 9727   4.329   2.807  15.079  0.0728  0.0832  0.1835
  657TMC3     H 9728   4.594   2.842  15.335  1.0098  1.1616  0.2736
  657TMC3    H1 9729   4.186   2.919  15.249 -0.3718 -1.3867  0.8229
  657TMC3    H2 9730   4.381   3.106  15.588  0.6187 -0.2917  0.0130
  657TMC3    C7 9731   4.146   3.091  15.442 -0.3029 -0.8527  0.4614
  657TMC3    C8 9732   4.614   3.019  15.555  0.1064 -0.6452 -0.4950
  657TMC3    O1 9733   4.047   3.035  15.397 -0.3970  0.0309  0.2788
  657TMC3    O2 9734   4.591   3.117  15.632 -0.2195  0.2196  0.0139
  658MPD2     C 9735   0.858   3.422  14.559  0.1192  0.4098 -0.0550
  658MPD2    C1 9736   0.799   3.525  14.627  0.2549  0.0579 -0.0977
  658MPD2    C2 9737   0.848   3.651  14.616 -0.6293 -0.0788 -0.6156
  658MPD2    C3 9738   0.951   3.678  14.522 -0.4729  0.1607  0.0457
  658MPD2    C4 9739   1.001   3.578  14.446  0.2882 -0.6391 -0.4177
  658MPD2    C5 9740   0.958   3.450  14.473  0.7964 -0.2213 -0.2476
  658MPD2     H 9741   0.804   3.736  14.668 -1.2011 -1.4149  1.0722
  658MPD2    H1 9742   1.074   3.595  14.368  0.3699  1.2856  0.0658
  658MPD2    H2 9743   0.828   3.319  14.576  0.9607  0.3540  1.0880
  658MPD2    H3 9744   1.015   3.371  14.425  0.7778 -1.0304  1.0262
  658MPD2     N 9745   0.988   3.812  14.507  0.2959 -0.0453 -0.6966
  658MPD2    H5 9746   0.947   3.876  14.574 -1.1156  1.7360 -3.2446
  658MPD2    N1 9747   0.702   3.495  14.726 -0.2645 -0.5239  0.2601
  658MPD2    H7 9748   0.669   3.399  14.724  0.7777 -0.7809 -3.6731
  659TMC3    C1 9749   0.547   3.517  14.909  0.1206 -0.8902  0.4220
  659TMC3    C2 9750   0.540   3.574  15.035 -0.4114 -0.0172 -0.0008
  659TMC3    C3 9751   0.431   3.583  15.108  0.5669 -0.1809  0.3462
  659TMC3    C4 9752   0.429   3.464  14.858 -0.0644 -0.2632 -0.0354
  659TMC3    C5 9753   0.312   3.484  14.937  0.0513  0.5154 -0.3111
  659TMC3    C6 9754   0.310   3.541  15.061  0.4393  0.1768 -0.1658
  659TMC3     C 9755   0.641   3.576  14.818  0.0286  0.6042 -0.4592
  659TMC3     O 9756   0.674   3.690  14.851 -0.6856 -0.4842 -0.2369
  659TMC3     H 9757   0.629   3.626  15.071 -1.1304 -0.4682  2.4498
  659TMC3    H1 9758   0.420   3.429  14.756 -0.1707  2.3880 -0.9259
  659TMC3    H2 9759   0.215   3.550  15.113  0.8601 -0.7973  0.7575
  659TMC3    C7 9760   0.180   3.432  14.895  0.2793  0.0917  0.2651
  659TMC3    C8 9761   0.435   3.660  15.233 -0.2630  0.4490 -0.2080
  659TMC3    O1 9762   0.090   3.500  14.938  0.3406  0.0533 -0.5200
  659TMC3    O2 9763   0.332   3.704  15.275  0.1439  0.0915  0.3003
  660MPD2     C 9764   3.809   2.088  12.754  0.3579  0.0887  0.8062
  660MPD2    C1 9765   3.681   2.034  12.727  0.3361 -0.5280  0.0830
  660MPD2    C2 9766   3.605   2.003  12.836 -0.4934 -0.1149  0.2057
  660MPD2    C3 9767   3.655   2.025  12.961 -0.5234  0.0621 -0.4708
  660MPD2    C4 9768   3.779   2.081  12.982  0.1160  0.5450  0.0132
  660MPD2    C5 9769   3.861   2.120  12.879  0.4466  0.3842 -0.1480
  660MPD2     H 9770   3.501   1.973  12.828 -0.2400 -0.6097 -1.2592
  660MPD2    H1 9771   3.817   2.106  13.081 -2.3919 -1.3385  1.4475
  660MPD2    H2 9772   3.867   2.121  12.669 -1.6210  1.4505 -0.0276
  660MPD2    H3 9773   3.957   2.169  12.890  0.6189 -0.0404  0.2276
  660MPD2     N 9774   3.561   2.011  13.070 -0.1510 -0.6474  0.3833
  660MPD2    H5 9775   3.472   1.964  13.058  0.5577 -2.3157  1.7494
  660MPD2    N1 9776   3.634   2.026  12.595  0.3004 -0.2221 -0.3127
  660MPD2    H7 9777   3.685   2.087  12.531  0.0447  1.0003  0.6536
  661TMC3    C1 9778   3.479   1.957  12.421  0.9584  0.5737 -0.2888
  661TMC3    C2 9779   3.563   1.982  12.311  0.7026 -0.6048 -0.5762
  661TMC3    C3 9780   3.497   2.008  12.188 -0.0826 -0.0101  0.7135
  661TMC3    C4 9781   3.344   1.971  12.421 -0.1682  0.5171 -0.0231
  661TMC3    C5 9782   3.282   2.007  12.305  0.8229 -0.7399  0.1030
  661TMC3    C6 9783   3.359   2.010  12.187 -0.1225 -0.4395 -0.0965
  661TMC3     C 9784   3.531   1.940  12.558 -0.0745 -0.6397 -0.3571
  661TMC3     O 9785   3.465   1.870  12.634 -0.4521 -0.6502  0.2154
  661TMC3     H 9786   3.668   1.952  12.313  0.6404 -0.6656  1.3040
  661TMC3    H1 9787   3.293   1.976  12.517  1.1205  0.4494  0.6615
  661TMC3    H2 9788   3.302   2.004  12.094 -1.1129  1.0182  0.4159
  661TMC3    C7 9789   3.152   1.949  12.297 -0.4806  0.5384 -0.5631
  661TMC3    C8 9790   3.554   1.956  12.067 -0.1507  0.2469 -0.3617
  661TMC3    O1 9791   3.133   1.852  12.369  0.3710  0.3909 -0.6836
  661TMC3    O2 9792   3.483   1.881  12.004  0.2791 -0.5982  0.0318
  662MPD2     C 9793   3.201   1.919  17.432  0.2887 -0.4963 -0.3550
  662MPD2    C1 9794   3.132   1.993  17.524  0.3472 -0.2775 -0.2414
  662MPD2    C2 9795   3.185   2.118  17.559  0.1462  0.6247 -0.5034
  662MPD2    C3 9796   3.311   2.162  17.507 -0.6437  1.0866  0.0241
  662MPD2    C4 9797   3.376   2.077  17.423 -0.4989 -0.0351 -0.5110
  662MPD2    C5 9798   3.322   1.958  17.391  0.2437 -0.0416 -0.2386
  662MPD2     H 9799   3.136   2.194  17.619 -0.8874 -0.4641  0.0216
  662MPD2    H1 9800   3.473   2.092  17.376  0.3824  1.3743  1.7723
  662MPD2    H2 9801   3.173   1.821  17.395  0.8512 -1.1557  0.9370
  662MPD2    H3 9802   3.378   1.904  17.316  0.4720 -1.8799  1.2818
  662MPD2     N 9803   3.372   2.284  17.535  0.2071 -0.3598 -0.0695
  662MPD2    H5 9804   3.451   2.303  17.475 -1.1639  0.0344 -1.7637
  662MPD2    N1 9805   3.020   1.944  17.596  0.1405  0.6211  0.4460
  662MPD2    H7 9806   2.976   2.004  17.665 -1.9641 -1.6086  1.0482
  663TMC3    C1 9807   2.857   1.782  17.668 -0.9483 -0.9208 -0.0629
  663TMC3    C2 9808   2.775   1.885   0.020  0.2879  0.5153 -0.1676
  663TMC3    C3 9809   2.652   1.844   0.058  0.0554  0.4655 -0.4343
  663TMC3    C4 9810   2.821   1.648  17.684  0.1587  0.5160  0.4674
  663TMC3    C5 9811   2.715   1.611   0.065 -0.5171 -0.4878  0.3200
  663TMC3    C6 9812   2.632   1.713   0.113 -0.0402 -0.1361 -0.1190
  663TMC3     C 9813   2.979   1.812  17.584  0.6092  0.0866  0.2454
  663TMC3     O 9814   3.029   1.713  17.533 -0.2824 -0.1740  0.3822
  663TMC3     H 9815   2.778   1.978  17.656  1.9557  0.5365 -0.0554
  663TMC3    H1 9816   2.902   1.579  17.663  0.1588  1.3526 -2.2290
  663TMC3    H2 9817   2.533   1.692   0.152  0.2246  0.7795  1.0380
  663TMC3    C7 9818   2.677   1.472   0.090 -0.3564  0.6570 -1.1635
  663TMC3    C8 9819   2.579   1.935   0.141 -0.0573  0.1892  0.2238
  663TMC3    O1 9820   2.591   1.456   0.174 -0.2446  0.2177 -0.5307
  663TMC3    O2 9821   2.481   1.893   0.200  0.0867 -0.0027 -0.5971
  664MPD2     C 9822   1.875   0.920  17.454  0.7507 -0.5670  0.1393
  664MPD2    C1 9823   1.918   1.032  17.528  0.2414  0.5131 -0.2209
  664MPD2    C2 9824   1.887   1.038  17.663 -0.6998 -0.4830  0.5412
  664MPD2    C3 9825   1.812   0.942   0.040 -0.2548  0.9551  0.6042
  664MPD2    C4 9826   1.767   0.833  17.659  0.0583  0.2024 -0.1408
  664MPD2    C5 9827   1.797   0.827  17.524  0.3450  0.0648  0.5738
  664MPD2     H 9828   1.931   1.119   0.029  0.9721 -0.7889 -0.3324
  664MPD2    H1 9829   1.704   0.754   0.006  0.3268 -1.0604 -2.3574
  664MPD2    H2 9830   1.887   0.904  17.347 -0.2796  1.9072 -0.3346
  664MPD2    H3 9831   1.764   0.739  17.471  1.6429  0.2636 -0.5779
  664MPD2     N 9832   1.801   0.956   0.180 -0.3439 -0.5623  0.4496
  664MPD2    H5 9833   1.844   1.038   0.219 -0.1299 -0.5163  0.1188
  664MPD2    N1 9834   1.992   1.143  17.477  0.9286  0.4608 -0.0173
  664MPD2    H7 9835   2.013   1.218  17.543  0.0459  0.0822  0.7010
  665TMC3    C1 9836   1.720   0.928   0.392 -0.0064  0.8312 -0.6016
  665TMC3    C2 9837   1.746   0.837   0.496  0.6745  0.1299  0.0850
  665TMC3    C3 9838   1.714   0.878   0.620  0.0977  0.5968  0.8432
  665TMC3    C4 9839   1.690   1.061   0.409 -0.1964 -0.0397 -0.6693
  665TMC3    C5 9840   1.669   1.096   0.532 -0.5272 -0.3123  0.3198
  665TMC3    C6 9841   1.667   1.006   0.642 -0.0667  0.2126  0.4587
  665TMC3     C 9842   1.743   0.863   0.263  0.4053  0.5252  0.0841
  665TMC3     O 9843   1.707   0.747   0.247 -0.0771 -0.0722 -0.1584
  665TMC3     H 9844   1.801   0.746   0.476  1.8615  0.9485 -0.3621
  665TMC3    H1 9845   1.672   1.128   0.326 -0.4546  0.3851 -0.2672
  665TMC3    H2 9846   1.630   1.033   0.740  0.9632 -3.4617  1.8581
  665TMC3    C7 9847   1.632   1.236   0.548  0.3513  0.2243 -0.6363
  665TMC3    C8 9848   1.755   0.787   0.719  0.2929  0.0504  0.6876
  665TMC3    O1 9849   1.579   1.290   0.451  0.3237 -0.2126 -0.3108
  665TMC3    O2 9850   1.831   0.697   0.692 -0.4118  0.1084  0.3352
  666TMC3    C1 9851   1.092   4.486   9.930  0.7020  0.2021 -0.2863
  666TMC3    C2 9852   1.101   4.384  10.016  0.3236  0.0292  0.2278
  666TMC3    C3 9853   1.198   4.404  10.115  0.4410  1.1224  0.1649
  666TMC3    C4 9854   1.169   4.597   9.929  0.6080 -0.3922 -0.8478
  666TMC3    C5 9855   1.252   4.619  10.035  0.1677 -0.5106 -0.7342
  666TMC3    C6 9856   1.263   4.525  10.126 -0.0495  0.2536 -0.2016
  666TMC3     C 9857   1.006   4.472   9.809  0.5118 -0.4137  0.2215
  666TMC3     O 9858   1.045   4.523   9.704 -0.1616 -0.7453  0.1170
  666TMC3     H 9859   1.037   4.297  10.012  0.5729 -0.2617  2.7286
  666TMC3    H1 9860   1.153   4.670   9.849  0.3885  0.4212 -0.0582
  666TMC3    H2 9861   1.312   4.551  10.219 -0.7793  0.0200  0.2397
  666TMC3    C7 9862   1.254   0.026  10.098  0.0941  0.4656  0.5185
  666TMC3    C8 9863   1.214   4.312  10.227 -0.3903  0.0471 -0.3201
  666TMC3    O1 9864   1.214   0.032  10.215 -0.0627  0.7778  0.5914
  666TMC3    O2 9865   1.117   4.244  10.245  0.1912  0.4469  0.1882
  667MPD2     C 9866   2.250   4.703  14.409 -0.8561  0.4930 -0.2644
  667MPD2    C1 9867   2.149   4.703  14.500  0.7050  0.6297  0.1192
  667MPD2    C2 9868   2.018   4.657  14.461 -0.2565 -0.5046 -0.2673
  667MPD2    C3 9869   2.008   4.598  14.331 -0.1794  0.6643 -0.7716
  667MPD2    C4 9870   2.112   4.594  14.238  0.1596  0.3660  0.4890
  667MPD2    C5 9871   2.227   4.655  14.283 -0.2356 -0.0131  0.0613
  667MPD2     H 9872   1.940   4.658  14.536  2.1247  1.6922  2.1678
  667MPD2    H1 9873   2.111   4.551  14.139 -0.6233 -0.1659  0.7269
  667MPD2    H2 9874   2.341   0.035  14.431 -0.6368  1.3700 -3.4142
  667MPD2    H3 9875   2.310   4.667  14.213  0.0984 -0.3730  0.3920
  667MPD2     N 9876   1.883   4.545  14.287  0.7184  0.4820 -0.7651
  667MPD2    H5 9877   1.870   4.523  14.189 -2.2516 -0.6186 -0.1047
  667MPD2    N1 9878   2.161   0.037  14.631 -0.3733  0.1343 -0.2550
  667MPD2    H7 9879   2.079   0.053  14.689 -0.1838 -2.7334  0.7712
  668TMC3    C1 9880   2.261   0.112  14.835 -0.4860  0.5848  0.5280
  668TMC3    C2 9881   2.328   0.219  14.901  0.3851  0.3568  0.5923
  668TMC3    C3 9882   2.317   0.215  15.045  0.4390  0.3806  0.6664
  668TMC3    C4 9883   2.190   0.018  14.910  0.0056  0.5598 -0.0908
  668TMC3    C5 9884   2.174   0.027  15.044 -0.0427 -0.2639 -0.0070
  668TMC3    C6 9885   2.233   0.130  15.112 -0.7429  0.1163 -0.2313
  668TMC3     C 9886   2.276   0.088  14.690 -0.6667  0.2217 -0.6615
  668TMC3     O 9887   2.375   0.135  14.637 -0.4592 -0.0044  0.3918
  668TMC3     H 9888   2.392   0.285  14.843  0.2053  0.6980  0.7841
  668TMC3    H1 9889   2.141   4.660  14.856 -0.2960  0.8944 -0.3097
  668TMC3    H2 9890   2.231   0.122  15.220 -0.5581 -0.5265 -0.2743
  668TMC3    C7 9891   2.062   4.680  15.097  0.4753  0.2192 -0.8065
  668TMC3    C8 9892   2.394   0.312  15.126 -0.1514 -0.6506  0.3400
  668TMC3    O1 9893   2.046   4.561  15.067  0.3547 -0.1157 -0.2576
  668TMC3    O2 9894   2.397   0.278  15.243 -0.0856  0.5463 -0.5146
  669TMC3    C1 9895   0.432   0.177  14.544 -0.2729 -0.4196  0.2118
  669TMC3    C2 9896   0.313   0.237  14.510  0.5980 -0.2713  0.2045
  669TMC3    C3 9897   0.318   0.325  14.406  0.4488  0.6675  0.2396
  669TMC3    C4 9898   0.551   0.208  14.483 -0.0509  0.1203  0.1693
  669TMC3    C5 9899   0.546   0.300  14.380  0.2806  0.2208  0.0961
  669TMC3    C6 9900   0.428   0.356  14.342 -0.3089  0.4427 -0.1778
  669TMC3     C 9901   0.435   0.093  14.667 -0.1981 -0.9708 -0.2032
  669TMC3     O 9902   0.375   0.137  14.767  0.2815 -0.2418  0.0572
  669TMC3     H 9903   0.224   0.224  14.571 -0.3235  1.6650 -0.7538
  669TMC3    H1 9904   0.648   0.172  14.515 -2.1726 -1.7490  4.4061
  669TMC3    H2 9905   0.428   0.435  14.267 -0.3732  0.5171 -0.0979
  669TMC3    C7 9906   0.675   0.360  14.331  0.5616  0.3176  0.3895
  669TMC3    C8 9907   0.190   0.394  14.378 -0.6516 -0.5819 -0.3802
  669TMC3    O1 9908   0.758   0.370  14.422 -0.0193  0.0353  0.1386
  669TMC3    O2 9909   0.089   0.332  14.404 -0.1192  0.0561 -0.2702
  670MPD2     C 9910   3.572   3.475  13.278 -0.3752 -0.4274  0.0083
  670MPD2    C1 9911   3.703   3.485  13.305 -0.4461 -0.6761  0.3723
  670MPD2    C2 9912   3.762   3.399  13.393  0.5431 -0.0034 -0.2469
  670MPD2    C3 9913   3.692   3.293  13.447 -0.0249  0.3775 -0.2050
  670MPD2    C4 9914   3.558   3.279  13.415  0.1307  0.3936 -0.3114
  670MPD2    C5 9915   3.501   3.370  13.333  0.8185  0.2040  0.5125
  670MPD2     H 9916   3.864   3.417  13.426 -0.8619  1.7781  3.0797
  670MPD2    H1 9917   3.502   3.191  13.444 -0.4560  0.2952 -1.7826
  670MPD2    H2 9918   3.521   3.540  13.207  0.4592  0.1521 -0.0653
  670MPD2    H3 9919   3.397   3.355  13.305  0.4829  2.0535  0.7986
  670MPD2     N 9920   3.769   3.209  13.534  0.1468  0.1001 -0.6525
  670MPD2    H5 9921   3.868   3.229  13.532  0.0372  0.9318  1.3942
  670MPD2    N1 9922   3.785   3.587  13.265 -0.3855 -0.2777  0.2195
  670MPD2    H7 9923   3.883   3.580  13.289 -0.6096 -0.2512  1.1415
  671TMC3    C1 9924   3.809   3.044  13.702 -0.2235 -0.1167 -0.3880
  671TMC3    C2 9925   3.935   3.088  13.717 -0.4895 -0.3155 -0.2816
  671TMC3    C3 9926   4.007   3.040  13.832  0.3932  0.0834  0.1251
  671TMC3    C4 9927   3.758   2.961  13.800 -0.5483 -0.3572 -0.1359
  671TMC3    C5 9928   3.828   2.914  13.905  0.2979 -0.1606 -0.4697
  671TMC3    C6 9929   3.962   2.950  13.924 -0.2375 -0.1591  0.1920
  671TMC3     C 9930   3.716   3.112  13.621 -0.0387 -0.8415  0.2438
  671TMC3     O 9931   3.601   3.068  13.623 -0.0174 -0.2181 -0.9426
  671TMC3     H 9932   3.990   3.136  13.636  0.6362 -2.0380 -0.5356
  671TMC3    H1 9933   3.655   2.930  13.793 -0.4545 -0.9810  1.1524
  671TMC3    H2 9934   4.020   2.904  14.002  0.1797  0.0039 -0.0212
  671TMC3    C7 9935   3.755   2.823  13.994  0.4149 -0.1954  0.3695
  671TMC3    C8 9936   4.149   3.011  13.815 -0.4342  0.6414  0.5032
  671TMC3    O1 9937   3.633   2.816  13.974  0.4277 -0.2395 -0.0506
  671TMC3    O2 9938   4.188   2.967  13.706  0.6154 -0.2074 -0.4844
  672MPD2     C 9939   4.596   4.050   0.376 -0.0530  0.1819 -0.0736
  672MPD2    C1 9940   4.635   3.954   0.476  0.5151 -0.2235 -0.4766
  672MPD2    C2 9941   0.038   3.970   0.541  0.2299  0.0022  0.2106
  672MPD2    C3 9942   0.117   4.073   0.496  0.3123  0.9021 -0.2990
  672MPD2    C4 9943   0.063   4.164   0.412 -0.8406  0.5820  0.4075
  672MPD2    C5 9944   4.664   4.156   0.357 -0.8228  0.5057 -0.7291
  672MPD2     H 9945   0.070   3.903   0.620 -1.5109 -0.2745  0.6910
  672MPD2    H1 9946   0.125   4.250   0.387  0.9797 -0.8582 -0.0722
  672MPD2    H2 9947   4.505   4.034   0.319 -0.9837  0.8385  1.2195
  672MPD2    H3 9948   4.644   4.229   0.279  0.4356  0.0333 -1.4994
  672MPD2     N 9949   0.244   4.117   0.548  0.0123  0.4023  0.7829
  672MPD2    H5 9950   0.274   4.211   0.528  0.2918  0.1302 -0.0681
  672MPD2    N1 9951   4.562   3.837   0.507 -0.3983 -0.8752  0.1403
  672MPD2    H7 9952   4.594   3.780   0.585  0.3463 -2.1740 -1.1120
  673TMC3    C1 9953   4.379   3.697   0.525 -0.0888  0.7773 -0.0849
  673TMC3    C2 9954   4.445   3.634   0.626  0.4282 -0.0535 -0.2179
  673TMC3    C3 9955   4.369   3.583   0.732  0.6926  0.2650 -0.4520
  673TMC3    C4 9956   4.239   3.708   0.529 -0.1407  0.2708  0.2219
  673TMC3    C5 9957   4.167   3.665   0.641 -0.4736  0.3480  0.0409
  673TMC3    C6 9958   4.236   3.606   0.741  0.5665 -0.1053  0.3866
  673TMC3     C 9959   4.448   3.806   0.453  0.6543  0.1078  0.0962
  673TMC3     O 9960   4.377   3.866   0.380 -0.3779  0.1638 -0.2892
  673TMC3     H 9961   4.552   3.616   0.618  0.3105 -1.1918  0.6648
  673TMC3    H1 9962   4.192   3.763   0.449 -1.8052  0.9392  1.6602
  673TMC3    H2 9963   4.189   3.582   0.836 -1.0017  1.3599 -0.0205
  673TMC3    C7 9964   4.031   3.718   0.660 -0.8829  0.1890 -0.2613
  673TMC3    C8 9965   4.436   3.520   0.840  0.2185  0.0496  0.1402
  673TMC3    O1 9966   3.962   3.673   0.750  0.0252  0.5583  0.4504
  673TMC3    O2 9967   4.375   3.516   0.948 -0.7060  0.7601  0.5918
  674MPD2     C 9968   3.850   4.071   0.242 -0.2358  0.3538  0.3694
  674MPD2    C1 9969   3.901   3.939   0.237  0.5615  0.2043  0.1267
  674MPD2    C2 9970   3.817   3.834   0.269  0.5989 -0.1289  0.3262
  674MPD2    C3 9971   3.682   3.856   0.303 -0.3318  0.2408 -0.3320
  674MPD2    C4 9972   3.632   3.989   0.312 -0.3342 -0.3533 -0.2683
  674MPD2    C5 9973   3.718   4.094   0.285  0.1648 -0.3037 -0.5249
  674MPD2     H 9974   3.852   3.734   0.248 -1.6589 -1.3647  2.4133
  674MPD2    H1 9975   3.529   4.009   0.339  0.1356  2.1084 -0.3378
  674MPD2    H2 9976   3.906   4.161   0.216  1.8174 -0.5529  1.6581
  674MPD2    H3 9977   3.683   4.196   0.300  1.8279  0.2531 -0.3969
  674MPD2     N 9978   3.593   3.746   0.320  0.0347  0.3105  0.2989
  674MPD2    H5 9979   3.627   3.650   0.324  1.0414  0.6608  0.2357
  674MPD2    N1 9980   4.039   3.920   0.190  0.6982 -0.4631  0.5112
  674MPD2    H7 9981   4.088   4.009   0.177 -0.6511  0.3113  0.7462
  675TMC3    C1 9982   4.230   3.828   0.081  0.1041  0.5886  0.1884
  675TMC3    C2 9983   4.304   3.710   0.074  0.0912  1.0464  0.2286
  675TMC3    C3 9984   4.437   3.722   0.037  0.3424  0.0546 -0.4630
  675TMC3    C4 9985   4.287   3.946   0.042  0.4792 -0.3448  0.1612
  675TMC3    C5 9986   4.411   3.943  17.687 -0.2910 -0.1329 -0.0298
  675TMC3    C6 9987   4.491   3.834  17.682 -0.2251  0.3455  0.2831
  675TMC3     C 9988   4.092   3.812   0.131 -0.1981 -0.3354  1.1810
  675TMC3     O 9989   4.044   3.697   0.140 -0.3263  0.6989  0.0963
  675TMC3     H 9990   4.254   3.618   0.103 -0.4089  0.6263 -1.9848
  675TMC3    H1 9991   4.221   4.031   0.054  1.6029  0.5601 -0.1386
  675TMC3    H2 9992   4.595   3.842  17.653 -0.0600  0.4400  0.9069
  675TMC3    C7 9993   4.475   4.067  17.657 -0.3594 -0.0041 -0.2637
  675TMC3    C8 9994   4.528   3.638   0.105 -0.5603 -0.2823 -0.4813
  675TMC3    O1 9995   4.569   4.061  17.577  0.1999 -1.0934 -0.0662
  675TMC3    O2 9996   4.646   3.652   0.086  0.0705 -0.1137  0.0005
  676MPD2     C 9997   1.673   1.000  11.203  0.0886  0.2706 -0.1903
  676MPD2    C1 9998   1.562   0.936  11.262 -0.2089  0.3881 -0.0374
  676MPD2    C2 9999   1.536   0.806  11.233  0.2746 -0.0164 -0.3157
  676MPD2    C310000   1.608   0.736  11.127  0.5091 -0.1973  0.5124
  676MPD2    C410001   1.711   0.807  11.067 -0.2120  0.4716 -0.8037
  676MPD2    C510002   1.747   0.933  11.113  0.4326 -0.2649 -0.1650
  676MPD2     H10003   1.457   0.749  11.281  1.9717 -2.5304 -0.5296
  676MPD2    H110004   1.771   0.771  10.984  0.9058 -0.5822  0.4545
  676MPD2    H210005   1.701   1.102  11.228  2.3059 -0.1911 -0.7867
  676MPD2    H310006   1.825   0.993  11.068  1.9305 -2.4576 -0.4874
  676MPD2     N10007   1.567   0.613  11.067  0.1827 -0.1922 -0.0348
  676MPD2    H510008   1.625   0.584  10.990  1.8309  2.1338  0.3486
  676MPD2    N110009   1.498   0.997  11.370 -0.2420  0.6688  0.1551
  676MPD2    H710010   1.545   1.080  11.405 -0.5053  0.9507 -0.1658
  677TMC3    C110011   1.317   1.045  11.522  0.3296  0.1773  0.0160
  677TMC3    C210012   1.208   0.990  11.583 -0.6197 -0.5612  0.0659
  677TMC3    C310013   1.120   1.074  11.644  0.0284  0.1583 -0.8263
  677TMC3    C410014   1.351   1.179  11.527 -0.3538  0.5817  0.9668
  677TMC3    C510015   1.260   1.259  11.598  0.0228 -0.4769 -0.0517
  677TMC3    C610016   1.143   1.207  11.647 -0.5942  1.0112 -0.6976
  677TMC3     C10017   1.376   0.954  11.426 -0.1903  0.3730  0.2844
  677TMC3     O10018   1.301   0.862  11.401  0.1768  0.6063  0.3522
  677TMC3     H10019   1.180   0.886  11.572 -0.9188 -0.3442 -1.2744
  677TMC3    H110020   1.424   1.224  11.460 -2.8831  1.4737 -1.1448
  677TMC3    H210021   1.091   1.269  11.719  1.1484 -0.0663  1.4979
  677TMC3    C710022   1.305   1.389  11.649  0.5131  0.4119  1.3188
  677TMC3    C810023   1.009   1.002  11.703 -0.3186 -0.3084 -0.3211
  677TMC3    O110024   1.245   1.438  11.744  0.1051 -0.0068  0.1703
  677TMC3    O210025   0.947   0.922  11.631 -0.8039  0.0753  0.1106
  678MPD2     C10026   3.026   2.732   1.448  0.0228 -0.3486 -0.0451
  678MPD2    C110027   3.079   2.636   1.362 -0.1036 -0.1948 -0.3165
  678MPD2    C210028   3.005   2.519   1.343 -1.1968 -0.1624 -0.6464
  678MPD2    C310029   2.878   2.501   1.400 -0.0566 -0.3282  0.2140
  678MPD2    C410030   2.832   2.604   1.484 -0.0438 -0.4101 -0.4233
  678MPD2    C510031   2.907   2.715   1.508 -0.6791  0.6234  0.0944
  678MPD2     H10032   3.033   2.445   1.269  1.7528 -1.6208  1.9649
  678MPD2    H110033   2.735   2.599   1.533  0.5761  1.1017  0.9720
  678MPD2    H210034   3.081   2.823   1.470 -0.2745 -0.4715  1.1901
  678MPD2    H310035   2.859   2.787   1.574 -0.0383  0.3887  0.8049
  678MPD2     N10036   2.809   2.373   1.383  0.4906 -0.5270 -0.0011
  678MPD2    H510037   2.847   2.324   1.303  0.8692  1.7133 -1.1831
  678MPD2    N110038   3.206   2.654   1.302  0.1948 -0.0581  0.6937
  678MPD2    H710039   3.234   2.579   1.239 -0.1906 -1.6028  2.3282
  679TMC3    C110040   3.499   2.584   1.064  0.3259 -0.0397  0.6024
  679TMC3    C210041   3.433   2.598   1.186 -0.5232  0.6588  0.1377
  679TMC3    C310042   3.394   2.727   1.215  0.1277  0.8699  0.2870
  679TMC3    C410043   3.546   2.690   0.988 -0.1957  0.4147  0.2148
  679TMC3    C510044   3.521   2.814   1.034 -0.2074  0.5926 -0.1133
  679TMC3    C610045   3.441   2.838   1.144  0.5151  0.4837  0.0566
  679TMC3     C10046   3.506   2.442   1.019 -0.4413  0.4957 -0.0363
  679TMC3     O10047   3.432   2.360   1.072 -0.2045  0.2431  0.0920
  679TMC3     H10048   3.405   2.512   1.245  0.6964  0.6479  0.6965
  679TMC3    H110049   3.592   2.681   0.891 -2.8344  0.1178 -1.0119
  679TMC3    H210050   3.417   2.940   1.171 -1.5133 -0.2873  1.1594
  679TMC3    C710051   3.527   2.923   0.944 -0.0453 -0.2203 -0.2480
  679TMC3    C810052   3.296   2.750   1.322 -0.5093  0.9486 -0.2179
  679TMC3    O110053   3.572   3.028   0.983  0.3170  0.3543 -0.5131
  679TMC3    O210054   3.286   2.860   1.372  0.3443 -0.0416  0.1169
  680MPD2     C10055   2.839   0.334  13.643 -0.2479 -0.8923  0.2960
  680MPD2    C110056   2.880   0.319  13.777 -0.1585  0.4531  1.1083
  680MPD2    C210057   2.974   0.406  13.822 -0.0193 -0.0973  0.1148
  680MPD2    C310058   3.027   0.507  13.740  0.1184 -0.4270 -0.1058
  680MPD2    C410059   2.964   0.530  13.622 -0.1361  0.0722  0.7498
  680MPD2    C510060   2.875   0.445  13.574  0.4826 -0.3346  0.0103
  680MPD2     H10061   3.008   0.387  13.924  0.2590 -1.6732 -0.2666
  680MPD2    H110062   2.992   0.613  13.558 -0.6655 -0.9464 -0.7896
  680MPD2    H210063   2.770   0.259  13.604 -2.0242  2.0717 -2.3238
  680MPD2    H310064   2.832   0.457  13.476  1.8702 -0.0741 -0.5604
  680MPD2     N10065   3.123   0.600  13.794 -0.1267  0.1708  0.3519
  680MPD2    H510066   3.168   0.666  13.731 -1.4744  2.3047  1.6161
  680MPD2    N110067   2.854   0.205  13.856  0.4254  0.0982  0.2845
  680MPD2    H710068   2.900   0.214  13.946  1.8699  0.8727 -0.5184
  681TMC3    C110069   2.797   4.714  13.919 -0.5492  0.2176  0.4195
  681TMC3    C210070   2.816   0.025  14.047  0.2617  0.2478 -0.1354
  681TMC3    C310071   2.887   4.658  14.117 -0.3106  0.0531 -0.2373
  681TMC3    C410072   2.837   4.594  13.859 -0.5895 -0.7985  0.1108
  681TMC3    C510073   2.910   4.511  13.933 -0.5078 -0.4301  0.1577
  681TMC3    C610074   2.919   4.533  14.071 -0.0956  0.0841  0.0649
  681TMC3     C10075   2.778   0.095  13.818  0.0608  1.4375  0.2639
  681TMC3     O10076   2.724   0.069  13.709 -0.6215 -0.2221  0.2319
  681TMC3     H10077   2.771   0.113  14.091  0.5998 -0.5828  1.8446
  681TMC3    H110078   2.821   4.578  13.753  0.6576  0.4665 -0.2678
  681TMC3    H210079   2.973   4.457  14.126 -1.1084  0.8029  2.0128
  681TMC3    C710080   2.925   4.373  13.883 -0.3199  0.2579  0.5387
  681TMC3    C810081   2.909   4.703  14.259 -0.4844  0.8110  0.0713
  681TMC3    O110082   2.852   4.298  13.946  0.0199  0.5750  0.4719
  681TMC3    O210083   2.856   0.085  14.293 -0.2671 -0.0680  0.0921
  682MPD2     C10084   0.971   1.174  10.810 -0.4166 -0.0359  0.1481
  682MPD2    C110085   0.935   1.046  10.843  0.0558  0.1013  0.2334
  682MPD2    C210086   0.885   1.022  10.971  0.3557 -0.5842  0.2070
  682MPD2    C310087   0.893   1.129  11.062 -0.4110  0.1006 -0.2838
  682MPD2    C410088   0.940   1.250  11.023  0.7846  0.2775  0.2609
  682MPD2    C510089   0.977   1.278  10.901  0.2843 -0.6528 -0.1574
  682MPD2     H10090   0.850   0.923  11.001 -0.6568 -0.1970  0.3306
  682MPD2    H110091   0.940   1.330  11.096 -0.9437  1.2850 -0.8382
  682MPD2    H210092   1.004   1.200  10.710  0.5390  0.0928  0.5036
  682MPD2    H310093   1.004   1.379  10.870 -0.6637 -0.9517 -1.8972
  682MPD2     N10094   0.846   1.116  11.198  0.2530  0.2888  0.0442
  682MPD2    H510095   0.792   1.033  11.220  1.4920 -0.7382 -0.7451
  682MPD2    N110096   0.948   0.937  10.757  0.2817  0.3815 -0.1892
  682MPD2    H710097   0.946   0.849  10.808 -2.9628 -0.3566 -1.6002
  683TMC3    C110098   0.694   1.226  11.629 -0.3920  0.4671 -0.1322
  683TMC3    C210099   0.577   1.158  11.606  0.3764 -0.2444  0.3685
  683TMC3    C310100   0.566   1.114  11.479 -0.7049 -0.2027 -0.1398
  683TMC3    C410101   0.796   1.228  11.529  0.5383  0.4202 -0.4426
  683TMC3    C510102   0.773   1.178  11.407 -0.1320 -0.1558  0.5465
  683TMC3    C610103   0.655   1.126  11.376 -0.8055  0.0403  0.0077
  683TMC3     C10104   0.722   1.282  11.754  0.0895 -0.2659 -0.0424
  683TMC3     O10105   0.828   1.347  11.761  0.5407 -0.1704 -0.4873
  683TMC3     H10106   0.490   1.172  11.669  0.5940 -2.8921  1.2406
  683TMC3    H110107   0.891   1.270  11.558 -0.5275  1.2182  1.9141
  683TMC3    H210108   0.630   1.095  11.275  0.2003  1.1571 -0.5796
  683TMC3    C710109   0.882   1.189  11.307 -0.1998 -0.6871  0.3260
  683TMC3    C810110   0.437   1.060  11.441 -0.8177 -0.0852 -0.2400
  683TMC3    O110111   0.969   1.273  11.323  0.2372 -0.8038  0.5500
  683TMC3    O210112   0.403   1.066  11.321 -0.2251  0.2372  0.1462
  684MPD2     C10113   3.871   1.115  15.619  0.2013  0.9310  0.7516
  684MPD2    C110114   4.005   1.110  15.585 -0.0459  0.4158 -0.3319
  684MPD2    C210115   4.092   1.212  15.626  0.1651 -0.7376  0.1869
  684MPD2    C310116   4.036   1.314  15.692 -0.1587  0.3618  0.0836
  684MPD2    C410117   3.906   1.316  15.733 -0.1726 -0.5149 -0.5757
  684MPD2    C510118   3.819   1.213  15.701  1.0402  0.0679  0.0045
  684MPD2     H10119   4.194   1.213  15.589 -0.0700  1.4761 -0.3986
  684MPD2    H110120   3.876   1.394  15.803  0.5373  1.1781 -2.1513
  684MPD2    H210121   3.809   1.026  15.613 -0.6118  1.7059 -2.0351
  684MPD2    H310122   3.721   1.209  15.748  0.9402 -0.5598 -0.2680
  684MPD2     N10123   4.116   1.424  15.730  0.1907 -0.5385  0.4261
  684MPD2    H510124   4.062   1.483  15.792  2.2506  1.2084  0.5740
  684MPD2    N110125   4.061   1.016  15.496 -0.3300  0.7535  0.2513
  684MPD2    H710126   4.161   1.015  15.476 -0.3827 -1.8033  0.0462
  685TMC3    C110127   4.069   0.827  15.370  0.8636 -0.3100  0.3669
  685TMC3    C210128   4.025   0.785  15.249 -1.3779 -0.0319 -0.0746
  685TMC3    C310129   4.062   0.656  15.219 -0.2612  0.5368  0.4145
  685TMC3    C410130   4.137   0.759  15.467  0.0426 -0.8654  0.1220
  685TMC3    C510131   4.178   0.631  15.432 -0.7927  0.0388 -0.3535
  685TMC3    C610132   4.141   0.586  15.309  0.7048  0.1051  0.5245
  685TMC3     C10133   3.982   0.924  15.432 -0.2575 -0.5099  0.4778
  685TMC3     O10134   3.861   0.911  15.419  0.1507 -0.1304 -0.3421
  685TMC3     H10135   3.966   0.850  15.186  0.6048 -1.1997 -3.1537
  685TMC3    H110136   4.158   0.798  15.566 -3.3520 -0.5829  0.7040
  685TMC3    H210137   4.185   0.494  15.273  0.3498  0.2087 -0.1720
  685TMC3    C710138   4.198   0.525  15.531  0.1629 -0.3357 -0.2855
  685TMC3    C810139   3.944   0.576  15.199  0.1378 -0.3690 -0.2380
  685TMC3    O110140   4.149   0.420  15.502 -0.4103 -0.2187  0.2564
  685TMC3    O210141   3.956   0.461  15.159 -0.4127  0.5121 -0.4534
  686MPD2     C10142   0.468   0.407  15.196 -0.0948  0.7515  0.7583
  686MPD2    C110143   0.565   0.428  15.290 -0.1759 -0.3545  0.4330
  686MPD2    C210144   0.671   0.342  15.288  0.1235 -0.9117  0.5714
  686MPD2    C310145   0.683   0.229  15.207  0.0889  0.4025  0.4107
  686MPD2    C410146   0.591   0.217  15.103 -0.1053  0.2368 -0.1243
  686MPD2    C510147   0.483   0.306  15.103 -0.5934  0.3050 -0.4628
  686MPD2     H10148   0.749   0.369  15.359 -0.4446  1.8905  0.1623
  686MPD2    H110149   0.597   0.133  15.035 -1.0057 -0.1545  0.2711
  686MPD2    H210150   0.389   0.481  15.186 -1.3287 -0.3783  2.1766
  686MPD2    H310151   0.405   0.286  15.031 -1.7451  0.6939  0.6636
  686MPD2     N10152   0.783   0.127  15.208  0.5938 -0.3683  0.3318
  686MPD2    H510153   0.789   0.071  15.124  1.0866 -0.4745  0.4362
  686MPD2    N110154   0.544   0.527  15.386 -0.1921  0.2101 -0.8253
  686MPD2    H710155   0.462   0.585  15.372 -2.1174 -1.9899  1.2758
  687TMC3    C110156   0.874   0.166  15.430 -0.1646  0.2205 -1.0957
  687TMC3    C210157   0.761   0.121  15.499  0.3105 -0.3423 -0.6884
  687TMC3    C310158   0.746   0.155  15.633 -0.1852 -0.1546 -0.0694
  687TMC3    C410159   0.974   0.233  15.492 -0.5226 -0.1809  0.5059
  687TMC3    C510160   0.960   0.265  15.628  0.9213  0.2257  0.1371
  687TMC3    C610161   0.845   0.229  15.694  0.2845 -0.2587 -0.4741
  687TMC3     C10162   0.895   0.121  15.297  0.0851 -0.0652 -0.3344
  687TMC3     O10163   1.005   0.077  15.274  0.3151 -0.2013  0.1235
  687TMC3     H10164   0.689   0.062  15.443  2.0871 -2.2403 -1.0068
  687TMC3    H110165   1.056   0.261  15.428 -0.6444 -1.1957 -0.0869
  687TMC3    H210166   0.834   0.259  15.798  0.8062 -0.2620 -0.4186
  687TMC3    C710167   1.055   0.354  15.692  0.3951 -0.2840  0.4386
  687TMC3    C810168   0.615   0.182  15.686  0.4946  0.4424  0.8905
  687TMC3    O110169   1.040   0.369  15.814 -0.4115  0.0880  0.8125
  687TMC3    O210170   0.602   0.212  15.799 -0.5620  0.6443  0.5585
  688MPD2     C10171   4.469   0.205  17.216 -0.5942 -0.3953 -0.1181
  688MPD2    C110172   4.484   0.071  17.266 -0.4283 -0.0868  0.1422
  688MPD2    C210173   4.550   4.698  17.194 -0.0334 -0.3435 -0.4692
  688MPD2    C310174   4.588   4.715  17.069 -0.1390  0.0718  0.5105
  688MPD2    C410175   4.560   0.119  17.011  0.7216  0.3976 -0.4037
  688MPD2    C510176   4.522   0.225  17.092 -0.0218 -0.0490 -0.8041
  688MPD2     H10177   4.566   4.603  17.244  0.0470  1.0399  2.1232
  688MPD2    H110178   4.594   0.151  16.913 -0.3577  0.1020 -0.8712
  688MPD2    H210179   4.415   0.281  17.271 -1.0075  0.0968 -1.2058
  688MPD2    H310180   4.502   0.319  17.042  1.0861  0.5371 -0.1402
  688MPD2     N10181   4.647   4.619  16.989 -0.2819 -0.8159 -0.1789
  688MPD2    H510182   4.674   4.649  16.896  1.0322 -0.6204  0.2654
  688MPD2    N110183   4.427   0.038  17.394 -0.6968 -0.6094  0.0808
  688MPD2    H710184   4.433   4.662  17.420  0.7094 -0.2945  0.9222
  689TMC3    C110185   4.326   0.050  17.593  0.1855  1.4488  0.2944
  689TMC3    C210186   4.320   0.112   0.022 -0.1068  0.7114  0.7307
  689TMC3    C310187   4.256   0.051   0.121 -1.4420 -0.8673 -0.1098
  689TMC3    C410188   4.268   4.644  17.570  0.4101  0.1087  0.5699
  689TMC3    C510189   4.214   4.585  17.671  0.1206 -0.7414  0.3693
  689TMC3    C610190   4.210   4.644   0.106  0.1763 -0.0772 -0.5547
  689TMC3     C10191   4.386   0.123  17.488  0.1850 -0.1010 -0.0637
  689TMC3     O10192   4.403   0.244  17.496  0.2929 -0.2197  0.3429
  689TMC3     H10193   4.374   0.206   0.032  1.2873  0.0114 -0.2825
  689TMC3    H110194   4.266   4.602  17.470  1.6650  1.8289 -0.1699
  689TMC3    H210195   4.148   4.598   0.182  0.9553 -1.3021 -0.6585
  689TMC3    C710196   4.156   4.455  17.667  0.0686  0.3140  0.5208
  689TMC3    C810197   4.287   0.100   0.253 -0.1500 -0.4004  0.6912
  689TMC3    O110198   4.125   4.416   0.087  0.2592  0.4701 -0.2562
  689TMC3    O210199   4.285   0.015   0.341  0.3143 -0.3140 -0.6105
  690MPD2     C10200   1.762   1.291  16.118 -0.4668 -1.2630 -0.0264
  690MPD2    C110201   1.791   1.267  15.984  0.4413 -1.0109  0.1988
  690MPD2    C210202   1.919   1.296  15.939 -0.0975  0.2883  0.0845
  690MPD2    C310203   2.016   1.357  16.023  0.0950  0.1152 -0.3703
  690MPD2    C410204   1.982   1.384  16.155 -0.0745 -0.1206  0.1239
  690MPD2    C510205   1.854   1.354  16.196  0.1507 -0.8107  0.2918
  690MPD2     H10206   1.951   1.284  15.836 -0.8823  1.5372 -0.3135
  690MPD2    H110207   2.050   1.433  16.224  1.3612 -1.2861 -0.4568
  690MPD2    H210208   1.676   1.255  16.173 -1.5432 -1.2999 -1.7454
  690MPD2    H310209   1.829   1.357  16.302  0.0627 -0.5758  0.2662
  690MPD2     N10210   2.131   1.421  15.969  0.0703 -0.4298  0.2096
  690MPD2    H510211   2.130   1.422  15.867  1.6406  0.3526  0.1881
  690MPD2    N110212   1.706   1.207  15.890 -0.5092 -0.0881 -0.5117
  690MPD2    H710213   1.744   1.172  15.803 -0.1124 -0.9427 -0.0088
  691TMC3    C110214   1.496   1.136  15.809 -0.6974 -0.7181 -0.2260
  691TMC3    C210215   1.369   1.185  15.791 -0.8251 -0.1453 -0.1659
  691TMC3    C310216   1.295   1.141  15.689  0.2982 -0.1887 -0.1734
  691TMC3    C410217   1.552   1.051  15.717  0.4358 -0.1030  0.3607
  691TMC3    C510218   1.470   1.012  15.619  0.1372 -0.5165 -0.1771
  691TMC3    C610219   1.342   1.050  15.604 -0.7285  0.7033 -0.4424
  691TMC3     C10220   1.572   1.182  15.925  0.2205 -0.1252 -0.5500
  691TMC3     O10221   1.498   1.208  16.016  0.3805 -0.3295 -0.7498
  691TMC3     H10222   1.330   1.252  15.866 -1.1247 -0.7725  0.2400
  691TMC3    H110223   1.650   1.006  15.719  1.5413  2.2870 -1.1018
  691TMC3    H210224   1.277   1.019  15.523 -0.1380 -2.1013  0.1443
  691TMC3    C710225   1.537   0.973  15.493  0.5539 -0.3007 -0.6416
  691TMC3    C810226   1.149   1.146  15.713 -0.1603  0.1235 -0.2821
  691TMC3    O110227   1.653   1.013  15.476  0.1673 -0.1356 -0.2267
  691TMC3    O210228   1.081   1.044  15.700  0.7273  0.5172  0.2277
  692TMC3    C110229   3.629   2.667  16.064  0.0417 -0.6286  0.2651
  692TMC3    C210230   3.752   2.713  16.107  1.0694  0.3954 -0.1539
  692TMC3    C310231   3.860   2.674  16.036  0.3927 -0.1413  0.4802
  692TMC3    C410232   3.612   2.552  15.989 -0.0600  0.4497  0.5444
  692TMC3    C510233   3.722   2.492  15.949  0.6866  1.0850  0.9667
  692TMC3    C610234   3.845   2.555  15.958 -0.0692  0.0356 -0.2152
  692TMC3     C10235   3.509   2.721  16.127 -0.2837  0.8117  0.0215
  692TMC3     O10236   3.408   2.650  16.120 -0.0058  0.0590 -0.0315
  692TMC3     H10237   3.761   2.810  16.155  1.1557  0.1893  0.2520
  692TMC3    H110238   3.513   2.515  15.966 -0.4227  2.0309 -0.4204
  692TMC3    H210239   3.927   2.535  15.891  0.6803  0.3290  0.6199
  692TMC3    C710240   3.698   2.357  15.902 -0.7796  0.1937  0.5268
  692TMC3    C810241   3.974   2.649  16.123  0.6152  0.2217  0.1068
  692TMC3    O110242   3.583   2.336  15.862 -0.0335  0.3499 -0.4987
  692TMC3    O210243   4.037   2.550  16.099 -0.2072 -0.0859 -0.4673
  693MPD2     C10244   2.476   4.665  10.917  0.6822 -0.1528 -0.1945
  693MPD2    C110245   2.443   4.568  11.011  0.6634  0.2730  0.8459
  693MPD2    C210246   2.537   4.470  11.046  0.5871  0.5807  0.4805
  693MPD2    C310247   2.658   4.466  10.980  0.0922  0.8956 -0.2345
  693MPD2    C410248   2.690   4.559  10.891  0.6846  0.5592  0.3020
  693MPD2    C510249   2.604   4.670  10.863 -0.3567 -0.7572  0.3077
  693MPD2     H10250   2.505   4.393  11.116 -0.2108 -0.2787 -0.8421
  693MPD2    H110251   2.777   4.546  10.827 -0.4142  1.6777 -1.4110
  693MPD2    H210252   2.420   0.035  10.910  0.1503 -0.4114  0.7460
  693MPD2    H310253   2.641   0.032  10.806  0.6673 -1.9917 -0.8368
  693MPD2     N10254   2.747   4.356  10.991 -0.3752 -0.2063 -0.8271
  693MPD2    H510255   2.815   4.356  10.916  0.8340  2.7706  0.2652
  693MPD2    N110256   2.317   4.557  11.072  0.3643 -0.2852  0.1184
  693MPD2    H710257   2.302   4.477  11.133  0.9504 -1.9030 -1.8684
  694TMC3    C110258   2.087   4.566  11.093  0.2453  0.4821  0.1531
  694TMC3    C210259   2.008   4.518  10.991 -0.3978 -0.2300  0.0875
  694TMC3    C310260   1.942   4.406  11.013 -0.4785  0.7828  0.0074
  694TMC3    C410261   2.101   4.509  11.217 -0.3465 -0.6268  0.6240
  694TMC3    C510262   2.019   4.400  11.242 -0.1106 -1.3726 -0.0222
  694TMC3    C610263   1.946   4.345  11.139 -0.2513  0.0866  0.1792
  694TMC3     C10264   2.205   4.631  11.041 -0.0423 -0.5248  0.2733
  694TMC3     O10265   2.194   4.716  10.954 -0.2433 -0.1295  0.4413
  694TMC3     H10266   1.994   4.581  10.904  2.6332 -1.3197 -1.1903
  694TMC3    H110267   2.156   4.559  11.297 -0.6712  1.7884 -0.6662
  694TMC3    H210268   1.890   4.254  11.155  2.4301 -1.5596  0.1584
  694TMC3    C710269   2.021   4.349  11.379 -0.8739  0.2857  0.8908
  694TMC3    C810270   1.883   4.333  10.905 -0.5869 -0.2684 -1.2646
  694TMC3    O110271   2.070   4.423  11.463 -0.2946 -0.3076  0.2529
  694TMC3    O210272   1.801   4.249  10.938  0.5798  0.1100  0.7637
  695MPD2     C10273   3.892   2.053  13.542 -0.1636 -0.0528 -0.4837
  695MPD2    C110274   3.918   2.044  13.682 -0.1286 -0.0436  0.2314
  695MPD2    C210275   3.812   2.013  13.767 -0.3579  0.7514 -0.0209
  695MPD2    C310276   3.686   2.015  13.717  0.6801  0.4592 -0.5162
  695MPD2    C410277   3.660   2.022  13.580 -1.1447 -0.0143 -0.1539
  695MPD2    C510278   3.767   2.043  13.494 -0.2292 -0.8494  0.3006
  695MPD2     H10279   3.838   2.001  13.871  0.4404  1.9022 -0.0880
  695MPD2    H110280   3.559   2.030  13.541 -0.8354 -0.0098 -0.9673
  695MPD2    H210281   3.969   2.069  13.467  0.4584  1.3721  0.4673
  695MPD2    H310282   3.747   2.052  13.388 -3.1541  1.3380  1.0493
  695MPD2     N10283   3.575   1.997  13.806 -1.4133  0.1385  0.1451
  695MPD2    H510284   3.600   2.006  13.904  1.9812 -0.7647 -0.6326
  695MPD2    N110285   4.051   2.077  13.735  0.0365 -0.3118  0.5551
  695MPD2    H710286   4.071   2.072  13.835  0.2418 -0.8645  0.4849
  696TMC3    C110287   3.369   2.046  13.888  0.5473  0.1390 -0.0823
  696TMC3    C210288   3.444   2.061  14.007 -0.2523 -0.4614  0.5948
  696TMC3    C310289   3.422   2.184  14.078 -0.3544 -0.0583 -0.2025
  696TMC3    C410290   3.274   2.140  13.853  0.4132  0.3097  0.2702
  696TMC3    C510291   3.255   2.245  13.937  0.1096  0.4493 -0.5124
  696TMC3    C610292   3.326   2.275  14.049 -0.1350  0.9903 -0.0405
  696TMC3     C10293   3.439   1.993  13.774  0.3206 -0.6831 -0.4581
  696TMC3     O10294   3.379   2.003  13.671 -0.3291  0.4257  0.0537
  696TMC3     H10295   3.518   1.989  14.040 -0.0088 -0.8323 -0.7472
  696TMC3    H110296   3.232   2.143  13.753 -1.4674  1.7413  1.1119
  696TMC3    H210297   3.303   2.364  14.107 -2.6503 -0.4652  1.1897
  696TMC3    C710298   3.151   2.347  13.904 -0.1256  0.0412  0.0831
  696TMC3    C810299   3.534   2.232  14.149 -0.4175  0.1730 -0.6833
  696TMC3    O110300   3.038   2.304  13.882 -0.0453 -0.4150  0.6985
  696TMC3    O210301   3.616   2.148  14.192  0.6390 -0.0419  0.4028
  697MPD2     C10302   3.217   3.999  15.751 -0.1171 -0.0447  0.0444
  697MPD2    C110303   3.202   3.943  15.624 -0.2601 -0.3346  0.9788
  697MPD2    C210304   3.163   4.026  15.518 -0.2183 -0.3502 -0.1903
  697MPD2    C310305   3.133   4.153  15.538  0.0503 -0.5026 -0.0536
  697MPD2    C410306   3.133   4.209  15.668  0.4812 -0.4296  0.3558
  697MPD2    C510307   3.184   4.132  15.770  0.4786  0.3367 -0.1362
  697MPD2     H10308   3.140   3.982  15.422 -1.7482  1.4945 -0.6639
  697MPD2    H110309   3.092   4.308  15.684  0.8902 -0.4627  1.5815
  697MPD2    H210310   3.263   3.940  15.830 -3.2051 -1.1168  1.0547
  697MPD2    H310311   3.205   4.180  15.864  0.7929 -0.1164  0.0285
  697MPD2     N10312   3.102   4.234  15.428 -0.2467  0.3116  0.4643
  697MPD2    H510313   3.103   4.189  15.337  1.1450  0.2799  0.5075
  697MPD2    N110314   3.213   3.802  15.600 -0.1714 -0.3975  0.2076
  697MPD2    H710315   3.186   3.766  15.509 -0.2054 -0.0139  0.0674
  698TMC3    C110316   3.089   4.435  15.304  0.2346  0.4736 -0.2613
  698TMC3    C210317   3.140   4.555  15.294  0.1056 -0.3270  0.0983
  698TMC3    C310318   3.175   4.601  15.167  0.2827  0.1650  0.4024
  698TMC3    C410319   3.050   4.363  15.187  0.1435 -0.6239 -0.0608
  698TMC3    C510320   3.094   4.410  15.066 -0.5996 -0.5073  0.0949
  698TMC3    C610321   3.156   4.530  15.056  0.2066  0.0594  0.5201
  698TMC3     C10322   3.101   4.372  15.433 -0.3006 -0.0620  0.5640
  698TMC3     O10323   3.143   4.444  15.523 -0.3878 -0.0376  0.1104
  698TMC3     H10324   3.159   4.624  15.376 -2.2860  0.1261  0.2756
  698TMC3    H110325   3.008   4.263  15.191  0.4448 -0.7954 -1.3423
  698TMC3    H210326   3.155   4.577  14.958 -0.5591  1.1584  1.0498
  698TMC3    C710327   3.078   4.336  14.944 -0.1721  0.2096 -0.0858
  698TMC3    C810328   3.179   0.019  15.148 -0.6638 -0.3546 -0.6554
  698TMC3    O110329   2.986   4.252  14.942 -0.2342 -0.0608 -0.2770
  698TMC3    O210330   3.098   0.092  15.199 -0.2943  0.1788  0.1603
  699TMC3    C110331   3.430   2.073  13.252 -0.5474  0.7226  0.5849
  699TMC3    C210332   3.381   1.943  13.264  1.2591  0.2666 -0.4055
  699TMC3    C310333   3.263   1.931  13.327 -0.4178  0.1268  0.0312
  699TMC3    C410334   3.370   2.179  13.314  0.2217 -0.4043 -0.0157
  699TMC3    C510335   3.249   2.164  13.369 -1.7197  0.3169 -0.5294
  699TMC3    C610336   3.193   2.040  13.372  0.2193 -0.0439  0.4320
  699TMC3     C10337   3.560   2.086  13.185 -0.4135  0.4694  0.3421
  699TMC3     O10338   3.618   2.192  13.208 -0.0883  0.2113  0.0129
  699TMC3     H10339   3.434   1.861  13.217  1.4636 -0.4729  1.1267
  699TMC3    H110340   3.419   2.276  13.320  0.0083 -0.2965 -0.0206
  699TMC3    H210341   3.091   2.029  13.407 -1.0503  2.3288 -2.5335
  699TMC3    C710342   3.163   2.275  13.407 -0.4964 -0.5326 -0.7340
  699TMC3    C810343   3.185   1.812  13.318  0.9545 -0.6411  0.4891
  699TMC3    O110344   3.044   2.262  13.378  0.2300 -0.7257  0.0045
  699TMC3    O210345   3.107   1.787  13.410 -1.1727  0.2248  0.0701
  700TMC3    C110346   2.161   0.084  16.725  0.4361  0.3052 -0.5966
  700TMC3    C210347   2.181   4.672  16.757  0.0735 -0.2775  0.0562
  700TMC3    C310348   2.211   4.647  16.887 -0.1783  0.0738  0.3089
  700TMC3    C410349   2.160   0.187  16.812  0.0290  0.0059 -0.2774
  700TMC3    C510350   2.193   0.142  16.940  0.5577 -0.4366 -0.6151
  700TMC3    C610351   2.210   0.015  16.983  0.4284  0.3072  0.8609
  700TMC3     C10352   2.134   0.108  16.583  0.5960  0.2432  0.0169
  700TMC3     O10353   2.120   0.012  16.512 -0.0604 -0.1635  0.5660
  700TMC3     H10354   2.199   4.591  16.687  0.1394 -1.0597  0.9832
  700TMC3    H110355   2.127   0.287  16.785  0.2153  0.5628  1.5812
  700TMC3    H210356   2.236   4.718  17.086 -2.8425  1.6945  1.9627
  700TMC3    C710357   2.255   0.245  17.025  0.9148  0.2633 -0.1882
  700TMC3    C810358   2.282   4.524  16.918 -0.1746  0.6118  0.5183
  700TMC3    O110359   2.215   0.237  17.139  0.5485 -0.2891  0.2482
  700TMC3    O210360   2.351   4.476  16.829  0.3235 -0.1389 -0.1811
  701TMC3    C110361   2.388   3.266  15.606  0.7792  0.3993 -0.0232
  701TMC3    C210362   2.391   3.227  15.477  0.1949  0.0323  0.1315
  701TMC3    C310363   2.493   3.282  15.400  0.0282  0.0989  0.2280
  701TMC3    C410364   2.464   3.360  15.657 -0.4472 -0.0420 -0.1232
  701TMC3    C510365   2.559   3.415  15.579  0.2282  0.2291  0.3442
  701TMC3    C610366   2.576   3.380  15.451 -0.3202 -0.6340 -1.0789
  701TMC3     C10367   2.288   3.214  15.695 -0.1392  0.5560 -0.2048
  701TMC3     O10368   2.275   3.273  15.798 -0.5529  0.1828 -0.4372
  701TMC3     H10369   2.336   3.142  15.441 -2.1761  2.1059 -1.1497
  701TMC3    H110370   2.453   3.394  15.760  1.3874  0.3944 -0.0799
  701TMC3    H210371   2.652   3.428  15.390 -0.5209  0.4732 -0.4408
  701TMC3    C710372   2.603   3.546  15.606 -0.6311  0.1505 -0.5182
  701TMC3    C810373   2.497   3.264  15.259 -0.1765 -0.0130 -0.7716
  701TMC3    O110374   2.578   3.623  15.514  0.6077 -0.7793  0.3826
  701TMC3    O210375   2.583   3.325  15.200 -0.5299 -0.5147  0.0206
  702MPD2     C10376   1.687   0.310  10.429 -0.0177  0.1972  0.4255
  702MPD2    C110377   1.704   0.393  10.538  0.0448 -0.2016  0.6791
  702MPD2    C210378   1.803   0.489  10.532 -0.1201 -0.0645 -0.5698
  702MPD2    C310379   1.878   0.505  10.410  0.3353 -0.4505  0.1460
  702MPD2    C410380   1.853   0.422  10.303  0.1497 -0.4142 -0.2073
  702MPD2    C510381   1.758   0.326  10.316 -0.1531 -0.1614 -0.2021
  702MPD2     H10382   1.821   0.553  10.617 -0.2416 -1.5627  0.5902
  702MPD2    H110383   1.906   0.425  10.209 -0.0396  1.2479 -0.2637
  702MPD2    H210384   1.613   0.232  10.439 -0.8524  0.3353 -4.4540
  702MPD2    H310385   1.735   0.265  10.230 -0.9309 -0.9091  0.5424
  702MPD2     N10386   1.966   0.619  10.407 -0.4502 -0.0380 -0.3320
  702MPD2    H510387   1.959   0.689  10.480  2.1105 -0.0626 -0.0636
  702MPD2    N110388   1.636   0.385  10.658  0.0336  0.1139  0.0161
  702MPD2    H710389   1.668   0.438  10.738 -1.5792 -0.1177  0.8173
  703TMC3    C110390   2.079   0.801  10.320 -0.0905 -0.5795 -0.4118
  703TMC3    C210391   1.990   0.891  10.364  0.0310  0.2611  0.6586
  703TMC3    C310392   2.015   1.028  10.355 -0.6487 -0.5780  0.0288
  703TMC3    C410393   2.191   0.846  10.244  1.0686 -0.0656  0.0107
  703TMC3    C510394   2.208   0.983  10.227 -0.4329 -0.9533  0.5184
  703TMC3    C610395   2.130   1.080  10.285 -0.1357 -0.3232  0.3955
  703TMC3     C10396   2.044   0.659  10.302  0.1868 -0.3723 -0.0530
  703TMC3     O10397   2.079   0.595  10.207 -0.3199 -0.1560 -0.1828
  703TMC3     H10398   1.911   0.849  10.425  0.4269  0.6446  1.4388
  703TMC3    H110399   2.265   0.781  10.198 -0.4158 -0.0796 -2.3045
  703TMC3    H210400   2.153   1.185  10.274 -0.5574 -0.0228  2.4632
  703TMC3    C710401   2.344   1.030  10.234 -0.5443  0.7000  0.4195
  703TMC3    C810402   1.984   1.108  10.471  0.2605  0.9282  0.2049
  703TMC3    O110403   2.400   1.072  10.134  0.1661  0.0831 -0.0201
  703TMC3    O210404   2.082   1.170  10.514  0.8025 -0.2108 -0.2399
  704TMC3    C110405   4.089   3.886  12.492 -0.2126  0.3324 -0.2163
  704TMC3    C210406   4.220   3.942  12.505  0.0105 -0.4049 -0.0969
  704TMC3    C310407   4.312   3.876  12.585 -0.2020 -0.1367 -0.1245
  704TMC3    C410408   4.054   3.774  12.560  0.1208 -0.1129 -0.2443
  704TMC3    C510409   4.152   3.705  12.635  0.0639  0.7769 -0.2416
  704TMC3    C610410   4.277   3.758  12.648 -0.1288 -0.0492  0.0563
  704TMC3     C10411   4.003   3.923  12.384  0.3495 -0.1765 -0.1628
  704TMC3     O10412   3.878   3.908  12.396  0.2746 -0.0062 -0.2071
  704TMC3     H10413   4.259   4.012  12.432  1.3479 -1.0199  0.0249
  704TMC3    H110414   3.971   3.714  12.523  0.1058  0.9102 -1.9047
  704TMC3    H210415   4.361   3.704  12.691  0.9118  1.5380  0.0029
  704TMC3    C710416   4.142   3.563  12.669 -0.3045  0.2493  0.5031
  704TMC3    C810417   4.453   3.875  12.541 -0.1295 -0.9683  0.7881
  704TMC3    O110418   4.242   3.495  12.679  0.1843  0.2419 -0.2870
  704TMC3    O210419   4.479   3.939  12.435 -0.3212 -0.1941 -0.0146
  705MPD2     C10420   4.270   1.821  16.199 -0.3338  0.3694 -0.3213
  705MPD2    C110421   4.254   1.953  16.228 -0.0525 -0.4863  0.3694
  705MPD2    C210422   4.154   1.993  16.320  0.1386 -0.4353 -0.0847
  705MPD2    C310423   4.056   1.905  16.373  0.7329 -0.3040  0.6270
  705MPD2    C410424   4.066   1.776  16.324 -0.1076 -0.5057 -0.2691
  705MPD2    C510425   4.178   1.733  16.258 -0.7440 -0.0350  0.6219
  705MPD2     H10426   4.146   2.101  16.333 -0.1651 -0.4162 -0.4060
  705MPD2    H110427   3.992   1.698  16.332  0.5409 -1.2449 -1.4800
  705MPD2    H210428   4.350   1.789  16.134 -0.5388 -0.9445  0.0782
  705MPD2    H310429   4.171   1.630  16.224  1.0771  0.9001 -2.5042
  705MPD2     N10430   3.942   1.948  16.442  0.2271  1.0690  0.5787
  705MPD2    H510431   3.867   1.881  16.451  0.1168  0.8462 -2.0725
  705MPD2    N110432   4.344   2.054  16.176  0.4081  0.0774  0.5573
  705MPD2    H710433   4.306   2.148  16.172 -1.3032 -0.5055  2.9787
  706TMC3    C110434   4.680   2.241  15.929 -0.1161 -0.0295  0.2833
  706TMC3    C210435   4.637   2.365  15.960  0.1868  0.1113 -0.5951
  706TMC3    C310436   4.548   2.381  16.065  0.4619  0.7606 -0.2099
  706TMC3    C410437   4.637   2.130  15.998 -0.5465 -0.4218 -0.0770
  706TMC3    C510438   4.541   2.152  16.092 -0.0858  0.6635  0.0050
  706TMC3    C610439   4.514   2.276  16.146 -0.4697  0.0313 -0.1767
  706TMC3     C10440   0.010   2.229  15.796 -0.1679 -0.2074  0.1303
  706TMC3     O10441   0.077   2.323  15.753  0.0074 -0.4258 -0.2060
  706TMC3     H10442   4.660   2.447  15.893 -3.1477 -0.1262 -2.0355
  706TMC3    H110443   4.661   2.028  15.969  1.1399 -0.8662  2.8455
  706TMC3    H210444   4.426   2.283  16.209  0.0634  0.0802  0.5577
  706TMC3    C710445   4.476   2.033  16.143  0.3224  0.1981  0.3847
  706TMC3    C810446   4.474   2.505  16.075 -0.6022 -0.9188  0.2163
  706TMC3    O110447   4.539   1.928  16.137  0.3829 -0.3441 -0.0981
  706TMC3    O210448   4.418   2.546  15.972  0.0518 -0.1441  0.5368
  707TMC3    C110449   2.310   1.593   1.780 -0.0507  0.1341 -0.3978
  707TMC3    C210450   2.399   1.497   1.739 -0.1040 -0.6381  0.1941
  707TMC3    C310451   2.529   1.498   1.786  0.2186  0.7457  0.0757
  707TMC3    C410452   2.341   1.686   1.870  0.6512 -0.1586  0.1726
  707TMC3    C510453   2.472   1.681   1.913 -0.7324 -0.1369 -0.4617
  707TMC3    C610454   2.569   1.597   1.864  0.3380  0.3139 -0.5745
  707TMC3     C10455   2.173   1.559   1.762  0.4799 -0.4941  0.8805
  707TMC3     O10456   2.148   1.441   1.734  0.3422  0.3564  0.5639
  707TMC3     H10457   2.371   1.418   1.670 -1.6660 -1.4967  1.8164
  707TMC3    H110458   2.261   1.736   1.924  0.7716 -0.9825  1.1173
  707TMC3    H210459   2.674   1.610   1.887 -0.1713 -1.4843  2.6479
  707TMC3    C710460   2.503   1.779   2.016 -0.2406  0.4051  0.2904
  707TMC3    C810461   2.624   1.385   1.753 -0.2945  0.8651 -0.2927
  707TMC3    O110462   2.413   1.799   2.097  0.1296  0.2741  0.1122
  707TMC3    O210463   2.737   1.386   1.801 -0.3760 -0.1614 -0.3524
  708MPD2     C10464   2.140   0.554  13.703  0.1758  0.0707 -0.0863
  708MPD2    C110465   2.022   0.498  13.752  1.1031  0.5811 -0.7012
  708MPD2    C210466   2.026   0.436  13.873  0.3379 -0.0584 -0.4035
  708MPD2    C310467   2.136   0.436  13.960 -0.3901 -0.3514 -0.6180
  708MPD2    C410468   2.237   0.516  13.919  0.2086  0.1881  0.5285
  708MPD2    C510469   2.234   0.581  13.800 -0.3141  0.1614  0.1669
  708MPD2     H10470   1.934   0.386  13.903 -0.9871  0.7834 -3.0280
  708MPD2    H110471   2.327   0.530  13.978  1.0144 -0.5709 -0.5183
  708MPD2    H210472   2.152   0.623  13.620 -2.7654  0.4817 -0.1756
  708MPD2    H310473   2.310   0.653  13.772 -0.1033  0.3168  1.1432
  708MPD2     N10474   2.146   0.371  14.083 -0.3412  0.4061  0.5544
  708MPD2    H510475   2.237   0.373  14.130 -0.2582 -0.0614  0.4167
  708MPD2    N110476   1.897   0.528  13.693  0.3244  0.0950  0.3966
  708MPD2    H710477   1.820   0.498  13.753  0.7219 -3.1175 -0.7200
  709TMC3    C110478   1.721   0.575  13.555 -0.3509 -0.4850 -0.3842
  709TMC3    C210479   1.675   0.473  13.475  1.0386 -0.3239  0.1725
  709TMC3    C310480   1.584   0.386  13.526 -0.2735 -0.0159  0.2937
  709TMC3    C410481   1.666   0.592  13.678 -0.9403  0.3828 -0.2256
  709TMC3    C510482   1.568   0.506  13.721  0.2216 -0.0301  0.5775
  709TMC3    C610483   1.527   0.404  13.648  0.1847 -0.6280  0.7648
  709TMC3     C10484   1.870   0.575  13.566  0.2799 -0.1217 -0.3483
  709TMC3     O10485   1.949   0.603  13.479 -0.1758 -0.2982 -0.7956
  709TMC3     H10486   1.731   0.454  13.385  1.4887  0.5001  0.2734
  709TMC3    H110487   1.700   0.677  13.736  1.3895 -2.0931  2.0092
  709TMC3    H210488   1.463   0.332  13.696 -0.4840 -0.3264  0.3269
  709TMC3    C710489   1.590   0.481  13.860 -0.2336 -0.1694 -0.0612
  709TMC3    C810490   1.519   0.286  13.442 -0.3786  0.0743  0.5559
  709TMC3    O110491   1.704   0.509  13.898 -0.3536  0.4518  0.1042
  709TMC3    O210492   1.462   0.195  13.497  0.4893  0.4394  0.1977
  710TMC3    C110493   2.808   2.911   0.310 -0.1838 -0.4352 -1.0525
  710TMC3    C210494   2.762   2.797   0.257  0.4039 -0.1483 -0.2364
  710TMC3    C310495   2.853   2.699   0.250  0.1078  0.2700 -0.3570
  710TMC3    C410496   2.931   2.925   0.360  0.4895 -0.2880 -0.4620
  710TMC3    C510497   3.019   2.822   0.351 -0.3487  0.1186  0.2063
  710TMC3    C610498   2.982   2.701   0.300 -0.0322  0.4349  0.3098
  710TMC3     C10499   2.708   3.000   0.378  0.0350 -0.1004  0.1167
  710TMC3     O10500   2.593   2.991   0.334 -0.2715 -0.0981  0.0082
  710TMC3     H10501   2.672   2.796   0.197 -0.0518 -2.6597  0.5030
  710TMC3    H110502   2.964   3.018   0.406 -0.1617 -0.4734  0.3844
  710TMC3    H210503   3.043   2.611   0.306 -3.1598 -1.5915  1.2357
  710TMC3    C710504   3.155   2.830   0.406 -0.1551 -0.7008  0.7381
  710TMC3    C810505   2.804   2.562   0.222 -0.3747 -0.1248  0.6925
  710TMC3    O110506   3.218   2.725   0.414  0.4535 -0.0401 -0.0017
  710TMC3    O210507   2.894   2.482   0.195 -0.1676  0.2339 -0.8531
  711TMC3    C110508   3.113   3.035  15.056  0.3759  0.3204  0.6969
  711TMC3    C210509   3.126   3.070  15.187 -0.1543  0.2616  0.1514
  711TMC3    C310510   3.245   3.063  15.254  0.8316 -0.1391 -0.0100
  711TMC3    C410511   3.223   3.002  14.984 -0.4365 -0.0154 -0.2310
  711TMC3    C510512   3.336   2.984  15.054  0.1979 -0.0152  0.2126
  711TMC3    C610513   3.350   3.015  15.183 -0.8842 -0.4563  0.3160
  711TMC3     C10514   2.997   2.957  15.024  0.4273  0.2278 -0.0151
  711TMC3     O10515   3.010   2.871  14.940  0.0808 -0.0967  0.3863
  711TMC3     H10516   3.041   3.104  15.246 -0.0631 -2.3875  1.8146
  711TMC3    H110517   3.208   2.981  14.879 -1.2632 -0.1421 -0.0874
  711TMC3    H210518   3.441   2.977  15.229 -0.9266  0.2277  0.9697
  711TMC3    C710519   3.424   2.884  15.009 -0.2715  0.3565 -0.8940
  711TMC3    C810520   3.236   3.055  15.397 -0.8844 -0.6294  0.4097
  711TMC3    O110521   3.540   2.874  15.050 -0.2619  0.0405  0.3616
  711TMC3    O210522   3.125   3.059  15.449  0.3647  0.1298  0.2818
  712MPD2     C10523   3.677   3.903  13.720  0.2682  0.4487  0.7815
  712MPD2    C110524   3.617   3.973  13.618  0.0046  0.0212 -0.4234
  712MPD2    C210525   3.641   4.110  13.608 -0.1088 -0.0131 -0.0289
  712MPD2    C310526   3.692   4.180  13.715  0.7004  0.3068 -0.5465
  712MPD2    C410527   3.745   4.100  13.818 -0.6750  0.0065  0.0782
  712MPD2    C510528   3.740   3.967  13.824  0.8617  0.5236 -0.4522
  712MPD2     H10529   3.606   4.152  13.514 -0.2268  2.2944  1.0317
  712MPD2    H110530   3.798   4.152  13.897 -2.4526  1.0448  0.5987
  712MPD2    H210531   3.683   3.795  13.729 -3.1651  0.1011 -0.9409
  712MPD2    H310532   3.794   3.917  13.904  0.4057  1.6843  0.5813
  712MPD2     N10533   3.701   4.319  13.712  0.4265 -0.0900 -0.5043
  712MPD2    H510534   3.697   4.351  13.616 -4.5145 -0.1581 -0.2959
  712MPD2    N110535   3.543   3.909  13.514 -0.0026  0.3522  0.4580
  712MPD2    H710536   3.528   3.965  13.431 -0.9506  0.0718  0.4374
  713TMC3    C110537   3.841   4.512  13.766  1.0419  0.0797  0.1752
  713TMC3    C210538   3.966   4.526  13.827 -0.6962 -0.4405 -0.1184
  713TMC3    C310539   4.028   4.644  13.823 -1.1579 -0.1718  0.7907
  713TMC3    C410540   3.776   4.616  13.704 -0.5232 -0.1278  0.0198
  713TMC3    C510541   3.846   0.006  13.689  0.0274 -0.3528 -0.2879
  713TMC3    C610542   3.965   0.021  13.753 -0.8322 -0.6313  0.6434
  713TMC3     C10543   3.754   4.406  13.812 -0.2788 -0.7203 -0.0741
  713TMC3     O10544   3.763   4.376  13.930  0.2736  0.0344 -0.3337
  713TMC3     H10545   4.010   4.428  13.840  0.5604  0.2373  0.7289
  713TMC3    H110546   3.670   4.603  13.691 -0.6415  0.9634 -0.0944
  713TMC3    H210547   4.017   0.114  13.735 -0.2571 -1.3600 -1.5351
  713TMC3    C710548   3.784   0.125  13.641 -0.3966 -0.5782  0.3355
  713TMC3    C810549   4.170   4.648  13.824  0.4318 -0.5183 -0.4195
  713TMC3    O110550   3.854   0.229  13.647  0.5575  0.0082 -0.1076
  713TMC3    O210551   4.219   4.716  13.739  0.1037 -0.3336 -0.6482
  714MPD2     C10552   1.787   2.990   1.599  0.7343 -0.3004 -0.6745
  714MPD2    C110553   1.863   2.998   1.487  0.0979 -0.6865 -0.4662
  714MPD2    C210554   1.826   3.087   1.395  0.0992  1.0208  0.0103
  714MPD2    C310555   1.714   3.168   1.415 -0.1484  0.7384  0.2393
  714MPD2    C410556   1.635   3.154   1.528  0.1297 -0.0919  0.0800
  714MPD2    C510557   1.675   3.069   1.624 -0.0756  0.2174  0.7337
  714MPD2     H10558   1.872   3.094   1.298 -0.5043 -0.1290 -0.3558
  714MPD2    H110559   1.546   3.212   1.549  0.4102  0.2174  0.4154
  714MPD2    H210560   1.820   2.929   1.683 -1.3949  2.0870  1.9089
  714MPD2    H310561   1.628   3.048   1.719 -1.1811  2.5152  0.6932
  714MPD2     N10562   1.687   3.263   1.308  1.0677  0.0180 -0.2379
  714MPD2    H510563   1.747   3.258   1.226 -0.2379  0.7132 -1.2450
  714MPD2    N110564   1.972   2.912   1.473  0.2390  0.9613 -0.7141
  714MPD2    H710565   2.003   2.861   1.555 -2.3904  1.5928  0.6563
  715TMC3    C110566   2.163   2.811   1.383 -0.6065  0.0129 -0.3011
  715TMC3    C210567   2.204   2.719   1.290  0.3516  0.4509  0.1346
  715TMC3    C310568   2.325   2.660   1.307  0.6895  0.2486 -0.3349
  715TMC3    C410569   2.237   2.842   1.493  0.5264  0.2474 -0.0820
  715TMC3    C510570   2.346   2.762   1.514 -0.1537  0.2634  0.2211
  715TMC3    C610571   2.393   2.663   1.424 -0.2893 -0.7150 -0.5986
  715TMC3     C10572   2.047   2.892   1.359  0.4332 -0.2612  0.5068
  715TMC3     O10573   2.016   2.923   1.245  0.1034 -0.1597 -0.4155
  715TMC3     H10574   2.147   2.696   1.201 -2.8978 -1.4217  2.6989
  715TMC3    H110575   2.202   2.916   1.564 -0.6409  0.6181 -1.0395
  715TMC3    H210576   2.485   2.610   1.449  0.1595  0.5893  0.5633
  715TMC3    C710577   2.404   2.759   1.652  0.3157 -1.2615  0.1625
  715TMC3    C810578   2.381   2.588   1.196  0.3744 -0.2251  0.4889
  715TMC3    O110579   2.519   2.714   1.661  0.6074  0.2433  0.0379
  715TMC3    O210580   2.316   2.568   1.099 -0.1695  0.2595 -0.0889
  716MPD2     C10581   1.761   0.818   9.976 -0.0646 -0.3266  0.4354
  716MPD2    C110582   1.751   0.812   9.837 -0.1409 -0.6055 -0.1151
  716MPD2    C210583   1.733   0.695   9.772 -0.6947 -0.6141  0.2525
  716MPD2    C310584   1.736   0.574   9.841 -0.3390  0.1477 -0.2455
  716MPD2    C410585   1.744   0.581   9.978 -0.0118  0.1944 -0.5318
  716MPD2    C510586   1.766   0.699  10.041  0.2660 -0.0413  0.2829
  716MPD2     H10587   1.723   0.687   9.664 -1.6525 -0.0217  0.2897
  716MPD2    H110588   1.738   0.494  10.041 -0.3124 -0.4518 -1.4453
  716MPD2    H210589   1.783   0.906  10.034  1.3639 -0.1131 -0.4290
  716MPD2    H310590   1.801   0.691  10.143 -1.2853  0.3912  0.8466
  716MPD2     N10591   1.732   0.452   9.765  0.1769  0.2661 -0.0254
  716MPD2    H510592   1.720   0.466   9.666 -3.0599  0.7089  0.4378
  716MPD2    N110593   1.749   0.930   9.761  0.6278 -0.0479  0.6365
  716MPD2    H710594   1.744   1.017   9.813 -2.6251 -0.3395  0.7906
  717TMC3    C110595   1.754   0.238   9.694  0.5164  0.3759  0.8916
  717TMC3    C210596   1.660   0.244   9.596  0.5940  0.4667 -0.3433
  717TMC3    C310597   1.669   0.159   9.488  0.4533 -0.3350  0.0649
  717TMC3    C410598   1.832   0.125   9.709  0.2244  0.3652  0.1543
  717TMC3    C510599   1.825   0.031   9.607 -0.1426 -0.6830 -0.0228
  717TMC3    C610600   1.751   0.047   9.491 -0.1375  0.3686 -0.0116
  717TMC3     C10601   1.746   0.326   9.808  0.3340  0.2324 -0.5888
  717TMC3     O10602   1.756   0.272   9.918  0.2650 -0.0744 -0.1328
  717TMC3     H10603   1.587   0.324   9.594  0.9758  0.7775 -1.7719
  717TMC3    H110604   1.890   0.108   9.799  0.2738 -0.6951 -0.0804
  717TMC3    H210605   1.770   4.706   9.406 -1.2676  1.5806 -1.1660
  717TMC3    C710606   1.894   4.626   9.613  0.4956 -0.3774 -0.6196
  717TMC3    C810607   1.572   0.170   9.384 -0.0525 -0.2872 -0.3432
  717TMC3    O110608   1.880   4.554   9.515  0.2442  0.3897  0.1613
  717TMC3    O210609   1.490   0.256   9.405  0.2002 -0.1652 -0.3158
  718MPD2     C10610   0.688   4.421  12.775 -0.3153  0.8024  0.0958
  718MPD2    C110611   0.647   4.511  12.675  0.3457 -0.0415 -0.6806
  718MPD2    C210612   0.512   4.543  12.668 -0.3776 -0.3852 -0.2576
  718MPD2    C310613   0.418   4.479  12.745  0.5388 -0.3464 -0.1537
  718MPD2    C410614   0.454   4.381  12.830 -0.4024  0.3046 -0.2834
  718MPD2    C510615   0.589   4.354  12.844  0.2085 -0.1784 -0.4082
  718MPD2     H10616   0.475   4.611  12.593  2.9051  0.9494 -0.6877
  718MPD2    H110617   0.386   4.325  12.893 -2.2837  1.6790 -1.0975
  718MPD2    H210618   0.794   4.399  12.787  0.3180  2.8462 -1.7629
  718MPD2    H310619   0.620   4.280  12.917 -1.0876  0.3609  0.6795
  718MPD2     N10620   0.284   4.520  12.734 -0.2023  0.4410  0.5897
  718MPD2    H510621   0.272   4.610  12.689 -1.4637  0.0434  0.1390
  718MPD2    N110622   0.741   4.573  12.594 -0.0813 -0.6327  0.2136
  718MPD2    H710623   0.838   4.542  12.601  0.6824  0.9461 -3.4053
  719TMC3    C110624   0.828   4.711  12.405 -0.2197  0.4944  0.0962
  719TMC3    C210625   0.778   0.055  12.300  0.3524 -0.3276 -0.1470
  719TMC3    C310626   0.787   4.721  12.176  0.2304  0.0606  0.2408
  719TMC3    C410627   0.916   4.607  12.381  0.3354  0.4537  0.0609
  719TMC3    C510628   0.934   4.564  12.255  0.6392 -0.3969 -0.3862
  719TMC3    C610629   0.867   4.618  12.148 -0.5239 -0.2538  0.6255
  719TMC3     C10630   0.714   4.666  12.495  0.2770  0.1064 -0.4663
  719TMC3     O10631   0.609   4.714  12.450  0.1684 -0.2856 -0.1389
  719TMC3     H10632   0.713   0.140  12.318 -0.5667 -0.1289 -4.4609
  719TMC3    H110633   0.963   4.559  12.467 -3.0163  2.0141  2.7691
  719TMC3    H210634   0.883   4.587  12.045 -0.2081  4.2879 -0.6882
  719TMC3    C710635   1.048   4.480  12.227  0.1969  0.2684  0.4595
  719TMC3    C810636   0.664   0.006  12.100 -0.1196  0.1848  0.7108
  719TMC3    O110637   1.132   4.471  12.313  0.4081  0.3014  0.9242
  719TMC3    O210638   0.665   4.697  11.978 -0.4648  0.2797  0.7516
  720MPD2     C10639   4.247   1.399  14.387  0.1523 -0.0812 -1.2214
  720MPD2    C110640   4.294   1.385  14.257 -0.0016  0.5741 -0.2438
  720MPD2    C210641   4.405   1.306  14.234 -0.5858 -0.1173  0.4518
  720MPD2    C310642   4.481   1.267  14.340 -0.7356 -0.8024 -0.4477
  720MPD2    C410643   4.440   1.291  14.467 -0.6517 -0.0884 -0.1633
  720MPD2    C510644   4.312   1.343  14.490 -0.4204 -0.6985  0.1106
  720MPD2     H10645   4.433   1.287  14.131 -0.7913 -1.5200  0.6504
  720MPD2    H110646   4.496   1.261  14.555 -0.9596  1.2911  0.5016
  720MPD2    H210647   4.162   1.460  14.417  1.3637  0.5604  0.9153
  720MPD2    H310648   4.265   1.357  14.586 -2.0737 -2.3763 -0.4462
  720MPD2     N10649   4.607   1.208  14.308 -0.3106 -0.6821  0.3752
  720MPD2    H510650   4.636   1.190  14.213 -1.9916 -2.8696  0.2714
  720MPD2    N110651   4.230   1.435  14.141 -0.1342 -0.0176  0.4585
  720MPD2    H710652   4.274   1.415  14.052  0.4768  1.6214  0.3953
  721TMC3    C110653   0.120   1.143  14.330  0.3323  0.3160  0.5012
  721TMC3    C210654   0.200   1.062  14.404 -0.0849  0.6778 -0.4496
  721TMC3    C310655   0.316   1.016  14.350  0.2103  0.4815  0.6760
  721TMC3    C410656   0.142   1.166  14.198  0.6565 -0.0024 -0.1177
  721TMC3    C510657   0.256   1.108  14.139 -0.6300  0.3806 -0.1089
  721TMC3    C610658   0.340   1.036  14.220  0.7241 -0.4516  0.6415
  721TMC3     C10659   4.713   1.178  14.398 -0.4212 -1.1210 -0.4862
  721TMC3     O10660   4.710   1.187  14.519  0.2074 -0.3146 -0.1008
  721TMC3     H10661   0.160   1.048  14.503  1.5839  0.1824  0.1497
  721TMC3    H110662   0.085   1.235  14.137 -2.7463 -1.5296  1.3561
  721TMC3    H210663   0.411   0.972  14.168  1.3386 -0.3731  1.3933
  721TMC3    C710664   0.295   1.132  14.001  0.2591  0.8185 -0.4269
  721TMC3    C810665   0.407   0.932  14.425  0.4423 -0.1664 -0.2493
  721TMC3    O110666   0.206   1.178  13.930 -0.2368 -0.2103 -1.1093
  721TMC3    O210667   0.494   0.879  14.358 -0.1361  0.3968 -0.1347
  722MPD2     C10668   2.704   4.435  13.473 -0.3357 -0.2338  0.0276
  722MPD2    C110669   2.687   4.489  13.346  1.0086  0.1531  0.0292
  722MPD2    C210670   2.610   4.416  13.252  0.3600  0.5476  0.1034
  722MPD2    C310671   2.567   4.288  13.275 -0.4242 -0.4673  0.0522
  722MPD2    C410672   2.600   4.231  13.398  0.2868 -0.2742 -0.3563
  722MPD2    C510673   2.659   4.309  13.490 -0.0581  0.0398 -0.3213
  722MPD2     H10674   2.588   4.463  13.156  0.5070  1.7012  0.6282
  722MPD2    H110675   2.575   4.130  13.429  1.3433 -0.3296  0.3200
  722MPD2    H210676   2.750   4.482  13.559 -1.6222 -1.0012  1.1392
  722MPD2    H310677   2.685   4.257  13.581  0.0694  1.6890  0.5852
  722MPD2     N10678   2.483   4.228  13.183  0.5533 -0.8675 -0.7991
  722MPD2    H510679   2.465   4.280  13.098 -3.1003  2.4998  1.9969
  722MPD2    N110680   2.736   4.623  13.320 -0.2831  0.4188 -0.0694
  722MPD2    H710681   2.712   4.671  13.234 -3.4634  1.8219  1.6209
  723TMC3    C110682   2.325   4.077  13.099 -0.0335 -0.2717 -0.6738
  723TMC3    C210683   2.314   3.947  13.056 -0.0160 -0.0476  0.0328
  723TMC3    C310684   2.246   3.934  12.938 -0.0589 -0.0475 -0.2298
  723TMC3    C410685   2.262   4.185  13.035 -0.3692  0.2105  0.3447
  723TMC3    C510686   2.170   4.151  12.934 -0.2172  0.4903  0.5706
  723TMC3    C610687   2.170   4.029  12.871 -0.3491 -0.4942 -0.6984
  723TMC3     C10688   2.445   4.097  13.182 -0.8318  0.6813  0.3314
  723TMC3     O10689   2.492   4.006  13.242 -0.0614 -0.3133 -0.2570
  723TMC3     H10690   2.354   3.858  13.102  1.4239  0.4511 -0.2502
  723TMC3    H110691   2.280   4.283  13.078 -0.5189 -0.2994  1.5790
  723TMC3    H210692   2.099   4.009  12.792 -1.4926 -1.0644  0.4639
  723TMC3    C710693   2.073   4.248  12.889  0.0200  0.5132  0.0666
  723TMC3    C810694   2.256   3.801  12.874 -0.4148 -0.0420 -0.2619
  723TMC3    O110695   2.005   4.207  12.794 -0.5563 -0.5608  0.3117
  723TMC3    O210696   2.363   3.748  12.886  0.3222  0.0517 -0.1986
  724TMC3    C110697   3.899   2.477   9.301  0.3445 -0.3043  0.0556
  724TMC3    C210698   3.766   2.512   9.290  0.2248  0.1603  0.1902
  724TMC3    C310699   3.733   2.641   9.261  0.1426  1.2807 -0.2988
  724TMC3    C410700   3.999   2.560   9.261  0.4259 -0.2158  0.3447
  724TMC3    C510701   3.959   2.682   9.211  0.2102 -0.0754  0.2231
  724TMC3    C610702   3.827   2.731   9.217  0.4375  0.0405 -0.3339
  724TMC3     C10703   3.922   2.340   9.347 -0.2698 -0.3108 -0.1629
  724TMC3     O10704   3.826   2.265   9.364 -0.5632  0.4954  0.4185
  724TMC3     H10705   3.695   2.449   9.344  2.3892 -1.3914  1.2157
  724TMC3    H110706   4.103   2.530   9.260  0.4226 -0.3404  4.0214
  724TMC3    H210707   3.794   2.832   9.196 -1.1799 -0.1773  1.2123
  724TMC3    C710708   4.065   2.772   9.172 -0.5139  0.2298 -0.0764
  724TMC3    C810709   3.603   2.690   9.300 -0.0513  0.6090 -0.3642
  724TMC3    O110710   4.179   2.746   9.206 -0.2379  0.7856 -0.3671
  724TMC3    O210711   3.506   2.614   9.297 -0.6017  0.1447  0.2786
  725TMC3    C110712   0.339   1.542  12.982 -0.5488 -0.2552 -0.1042
  725TMC3    C210713   0.285   1.500  12.863 -0.4553  0.5131  0.6767
  725TMC3    C310714   0.163   1.444  12.863 -0.0071  0.5576  0.3064
  725TMC3    C410715   0.272   1.533  13.100  0.7852  0.2455  0.1844
  725TMC3    C510716   0.153   1.466  13.095 -0.9780  0.3214 -0.4767
  725TMC3    C610717   0.103   1.410  12.979  0.2678 -0.2246 -0.1577
  725TMC3     C10718   0.482   1.570  12.992  0.0882  0.1205  0.1651
  725TMC3     O10719   0.514   1.634  13.091 -0.3852 -0.1251  0.3167
  725TMC3     H10720   0.342   1.518  12.772 -1.2082 -1.6652 -0.2329
  725TMC3    H110721   0.329   1.538  13.192  0.4633 -1.3571  0.4693
  725TMC3    H210722   0.007   1.360  12.975 -0.4357  1.0958  0.1027
  725TMC3    C710723   0.142   1.371  13.205  0.1124  0.0807 -0.2924
  725TMC3    C810724   0.117   1.379  12.746  0.0309  0.1499 -0.6674
  725TMC3    O110725   0.172   1.400  13.320 -0.1312 -0.0516  0.0729
  725TMC3    O210726   0.036   1.290  12.771  0.2958 -0.5060 -0.1575
  726MPD2     C10727   3.056   2.433  10.139  0.2661  0.5627  0.1812
  726MPD2    C110728   2.942   2.458  10.225 -0.3587 -0.0493 -0.6797
  726MPD2    C210729   2.901   2.360  10.310 -0.1275 -0.3929 -0.1371
  726MPD2    C310730   2.953   2.231  10.298 -0.7352  0.0838 -0.0449
  726MPD2    C410731   3.059   2.205  10.216  0.1061 -0.0555 -0.0195
  726MPD2    C510732   3.110   2.306  10.140  1.2023 -0.3206  0.1533
  726MPD2     H10733   2.804   2.376  10.357  1.0137 -0.2865  2.1482
  726MPD2    H110734   3.092   2.102  10.208 -0.0110 -0.1973  1.4198
  726MPD2    H210735   3.091   2.504  10.066  1.0754 -0.5382 -0.4985
  726MPD2    H310736   3.184   2.283  10.064  1.2632 -0.3094  0.2094
  726MPD2     N10737   2.886   2.118  10.356 -0.1125  0.3585 -0.4260
  726MPD2    H510738   2.890   2.021  10.325  2.4562  1.7624 -4.5980
  726MPD2    N110739   2.896   2.591  10.238 -0.3977  0.7959 -0.0503
  726MPD2    H710740   2.845   2.623  10.320  0.7822  1.2441  0.5104
  727TMC3    C110741   2.860   2.815  10.177 -0.0297 -0.6012  0.8778
  727TMC3    C210742   2.909   2.876  10.288 -0.5341 -0.3565 -0.0907
  727TMC3    C310743   2.858   3.002  10.304 -0.6702 -0.0442 -0.2525
  727TMC3    C410744   2.800   2.879  10.075  0.2197 -0.1810 -0.5725
  727TMC3    C510745   2.771   3.009  10.090  0.2392 -0.1969  0.0195
  727TMC3    C610746   2.801   3.079  10.198 -0.6521  0.2254 -0.0967
  727TMC3     C10747   2.914   2.690  10.144 -0.2744  0.2099 -0.2860
  727TMC3     O10748   2.933   2.664  10.025  0.4461 -0.8827  0.0699
  727TMC3     H10749   2.956   2.821  10.369 -1.0265  1.7371  1.5989
  727TMC3    H110750   2.756   2.821   9.994 -0.3465  1.2368 -1.2873
  727TMC3    H210751   2.768   3.181  10.216 -1.8301  0.0658 -1.3875
  727TMC3    C710752   2.674   3.056  10.000  0.0794  0.5071 -0.1494
  727TMC3    C810753   2.921   3.085  10.405  0.0473 -0.5216  0.7210
  727TMC3    O110754   2.601   2.970   9.957  0.0319  0.0849 -0.4544
  727TMC3    O210755   2.935   3.202  10.376 -0.0285  0.1807 -0.3211
  728TMC3    C110756   2.299   1.583  15.926  0.2780  0.4807 -0.2094
  728TMC3    C210757   2.386   1.680  15.966 -0.5883  0.4027  0.1712
  728TMC3    C310758   2.442   1.756  15.868 -0.2004  0.1622 -0.3851
  728TMC3    C410759   2.274   1.571  15.792  0.0495 -0.2995 -0.3273
  728TMC3    C510760   2.321   1.656  15.701  0.5298 -0.4291 -0.1273
  728TMC3    C610761   2.413   1.747  15.733 -0.7311  0.2054 -0.2154
  728TMC3     C10762   2.210   1.519  16.028  0.1040 -0.1428 -0.3486
  728TMC3     O10763   2.228   1.536  16.149 -0.4693  0.4611 -0.2395
  728TMC3     H10764   2.400   1.693  16.073  0.2333 -0.2314  0.1435
  728TMC3    H110765   2.222   1.485  15.753 -1.8799  0.9681 -0.5768
  728TMC3    H210766   2.466   1.798  15.653  0.7406  0.0652  0.6736
  728TMC3    C710767   2.295   1.633  15.561 -0.1599 -0.0737  0.0696
  728TMC3    C810768   2.514   1.876  15.925  0.1090 -0.7393 -0.1727
  728TMC3    O110769   2.234   1.528  15.530  0.3378 -0.3312 -0.2810
  728TMC3    O210770   2.523   1.887  16.047 -0.0235  0.4070  0.5871
  729MPD2     C10771   4.462   3.208  17.074  0.3695 -0.6950  0.3336
  729MPD2    C110772   4.498   3.077  17.111  0.5276  0.1619  0.6384
  729MPD2    C210773   4.419   3.026  17.217 -0.0846  0.2324 -0.0549
  729MPD2    C310774   4.327   3.094  17.297 -0.1955  0.2610 -0.0476
  729MPD2    C410775   4.303   3.221  17.252 -0.3265 -0.5177 -0.8319
  729MPD2    C510776   4.361   3.272  17.141  0.0085 -0.2299  0.6068
  729MPD2     H10777   4.432   2.921  17.240  1.5303  0.7941  1.6110
  729MPD2    H110778   4.245   3.285  17.318  1.0312  0.2245 -0.3482
  729MPD2    H210779   4.510   3.268  16.997  3.2739 -1.4193  1.5622
  729MPD2    H310780   4.341   3.377  17.125  0.6443  0.0817  1.8537
  729MPD2     N10781   4.275   3.051  17.421 -0.5051  0.1923  0.5931
  729MPD2    H510782   4.204   3.111  17.463  0.2831  0.0869  2.1035
  729MPD2    N110783   4.601   3.001  17.043  0.2638 -0.6601 -0.1942
  729MPD2    H710784   4.650   3.054  16.971  0.1902 -1.3481 -0.7477
  730TMC3    C110785   4.317   2.969  17.639  0.3645  0.5970 -0.3914
  730TMC3    C210786   4.442   2.952   0.008 -0.4152 -0.2842 -0.4456
  730TMC3    C310787   4.488   3.057   0.079 -0.5167  1.2618 -0.2438
  730TMC3    C410788   4.235   3.075  17.670  1.1278  0.5397  0.3187
  730TMC3    C510789   4.282   3.176   0.059 -0.3094 -0.4828  0.6652
  730TMC3    C610790   4.407   3.159   0.123  0.8443  0.1013  0.8039
  730TMC3     C10791   4.317   2.944  17.496 -0.1267 -0.3452  0.9535
  730TMC3     O10792   4.379   2.844  17.463  0.1291 -0.5772  0.0704
  730TMC3     H10793   4.503   2.871  17.659  0.1470  1.2697 -2.7231
  730TMC3    H110794   4.142   3.095  17.617  0.8387 -3.7258 -0.8005
  730TMC3    H210795   4.443   3.234   0.193 -3.3385  0.9037  2.1063
  730TMC3    C710796   4.281   3.312   0.001 -0.3829 -0.1598 -0.4763
  730TMC3    C810797   4.621   3.089   0.031  0.5957  0.5672  0.4305
  730TMC3    O110798   4.394   3.365   0.004  0.6805 -0.1493  0.6435
  730TMC3    O210799   4.682   2.998  17.669 -0.0541 -0.1358  0.4148
  731MPD2     C10800   4.118   0.734  12.445 -0.1735 -0.6096 -0.4715
  731MPD2    C110801   4.224   0.651  12.459  0.0548 -0.2311 -0.0814
  731MPD2    C210802   4.227   0.556  12.558 -0.4935 -0.2905 -0.6422
  731MPD2    C310803   4.114   0.545  12.640 -0.1729  0.0250  0.5384
  731MPD2    C410804   4.010   0.630  12.627  0.1606 -0.7497 -0.1713
  731MPD2    C510805   4.010   0.723  12.528 -0.2916 -0.6919 -0.1984
  731MPD2     H10806   4.314   0.493  12.570 -0.7429  0.2214  3.9122
  731MPD2    H110807   3.924   0.624  12.692 -0.3451  1.5408 -0.6482
  731MPD2    H210808   4.112   0.809  12.366  2.1318  0.5344  0.4283
  731MPD2    H310809   3.925   0.789  12.515  0.2559 -0.2169 -1.4257
  731MPD2     N10810   4.091   0.444  12.729 -0.7862 -0.2904 -0.6607
  731MPD2    H510811   4.001   0.448  12.778 -0.2961  2.8559 -0.0161
  731MPD2    N110812   4.331   0.684  12.380 -0.0345 -0.6049 -0.3044
  731MPD2    H710813   4.328   0.753  12.305 -0.3372 -1.7085 -1.3184
  732TMC3    C110814   4.544   0.695  12.286  0.0828  0.2265 -0.1980
  732TMC3    C210815   4.485   0.704  12.165  0.1076 -0.7073  0.2208
  732TMC3    C310816   4.549   0.778  12.064  0.3267  0.1273  0.1193
  732TMC3    C410817   4.666   0.743  12.317 -0.3986  0.1681  0.1212
  732TMC3    C510818   0.000   0.821  12.215  0.1220  0.1175 -0.0627
  732TMC3    C610819   4.661   0.850  12.097 -0.2618  0.2343  0.0258
  732TMC3     C10820   4.464   0.637  12.388  0.4798 -0.7285  0.2000
  732TMC3     O10821   4.529   0.571  12.473  0.1358 -0.3974  0.0443
  732TMC3     H10822   4.387   0.661  12.151 -0.7559  0.8699  1.4659
  732TMC3    H110823   4.698   0.730  12.420  1.2964 -0.4296 -0.4803
  732TMC3    H210824   4.703   0.922  12.028  1.4035 -0.0673  0.7078
  732TMC3    C710825   0.125   0.891  12.237  0.2963 -0.0961 -0.3774
  732TMC3    C810826   4.489   0.798  11.938  0.7367  0.5286  0.7157
  732TMC3    O110827   0.152   0.973  12.156  0.6281 -0.0299 -0.2587
  732TMC3    O210828   4.560   0.859  11.862 -0.5994 -0.0965  0.7331
  733TMC3    C110829   4.558   4.613  12.736 -0.1328  0.0335  0.4222
  733TMC3    C210830   4.661   4.542  12.791 -0.3167 -0.3220  0.2930
  733TMC3    C310831   0.047   4.512  12.721 -0.3343 -0.0897  0.3942
  733TMC3    C410832   4.569   4.647  12.598 -0.2570  0.0688  0.0163
  733TMC3    C510833   4.689   4.625  12.537  0.1493  0.4257 -0.0178
  733TMC3    C610834   0.064   4.547  12.591  0.0828  0.1277 -0.2860
  733TMC3     C10835   4.426   4.619  12.795 -0.3743 -0.2576  0.0999
  733TMC3     O10836   4.342   4.676  12.726  0.2759  0.2126 -0.7265
  733TMC3     H10837   4.663   4.511  12.895  2.1678 -0.2946  0.2480
  733TMC3    H110838   4.500   4.708  12.541  0.6056  1.2161  0.2109
  733TMC3    H210839   0.155   4.523  12.537  1.8580  1.7833  2.0006
  733TMC3    C710840   4.709   4.653  12.396  0.1368  0.3692  0.5426
  733TMC3    C810841   0.170   4.467  12.792 -0.1129  0.2912 -0.3525
  733TMC3    O110842   4.617   4.644  12.312 -0.5238 -0.2395  0.3641
  733TMC3    O210843   0.161   4.388  12.885 -0.4361  0.2477  0.1800
  734MPD2     C10844   2.337   1.493  12.133  0.1266  0.0771 -0.3845
  734MPD2    C110845   2.307   1.398  12.048 -0.5581 -0.0155 -0.1679
  734MPD2    C210846   2.349   1.411  11.916 -0.5683  0.2654  0.2878
  734MPD2    C310847   2.401   1.532  11.870  0.1735 -0.3917  0.3674
  734MPD2    C410848   2.423   1.636  11.957  0.4283 -0.3570  0.9996
  734MPD2    C510849   2.397   1.617  12.093 -0.5442  0.5149  0.3316
  734MPD2     H10850   2.326   1.336  11.840  0.5877  0.7560 -0.5460
  734MPD2    H110851   2.463   1.732  11.925 -2.6803  0.1978 -1.2165
  734MPD2    H210852   2.302   1.491  12.236  1.4312 -1.6495  0.0250
  734MPD2    H310853   2.414   1.694  12.168 -3.4736  0.2758  1.2450
  734MPD2     N10854   2.445   1.530  11.737 -0.2580 -0.0080 -0.3094
  734MPD2    H510855   2.435   1.440  11.693 -1.7768 -1.5048  3.0727
  734MPD2    N110856   2.249   1.275  12.093  0.7490  0.2335  0.0860
  734MPD2    H710857   2.271   1.247  12.188  1.1730 -0.8681 -0.3397
  735TMC3    C110858   2.131   1.066  12.073  0.7119  0.2242 -0.5790
  735TMC3    C210859   2.054   1.000  11.978  0.3403 -0.1450 -0.7414
  735TMC3    C310860   2.095   0.875  11.935 -0.1368  0.3056 -0.4577
  735TMC3    C410861   2.234   0.998  12.131 -0.2424  0.2744  0.1523
  735TMC3    C510862   2.275   0.875  12.091  0.4409  0.2720  0.9116
  735TMC3    C610863   2.202   0.813  11.997  0.4660 -0.6998 -0.4110
  735TMC3     C10864   2.173   1.192  12.012  0.0833  0.1980  0.3591
  735TMC3     O10865   2.133   1.206  11.898  0.4781 -0.3007  0.2790
  735TMC3     H10866   1.969   1.052  11.934 -0.2140  0.4843  1.0876
  735TMC3    H110867   2.291   1.043  12.212  2.6117 -0.0762 -1.6594
  735TMC3    H210868   2.255   0.732  11.947  0.5505 -2.2042  2.1303
  735TMC3    C710869   2.407   0.828  12.131  0.6524 -0.5741 -0.0066
  735TMC3    C810870   2.123   0.865  11.790  0.1639 -0.0490  0.0160
  735TMC3    O110871   2.492   0.916  12.165  0.7538 -0.3036  0.3721
  735TMC3    O210872   2.115   0.750  11.751  0.1469 -0.9362 -0.2866
  736MPD2     C10873   2.519   0.479  12.168  0.2498  0.2310 -0.4231
  736MPD2    C110874   2.531   0.617  12.175 -0.1470  0.5600 -0.2008
  736MPD2    C210875   2.657   0.681  12.202 -0.2151  0.5162  0.5807
  736MPD2    C310876   2.764   0.601  12.223 -0.4046  0.1456 -0.1002
  736MPD2    C410877   2.746   0.462  12.218  0.0077  0.4513  0.3744
  736MPD2    C510878   2.626   0.403  12.199 -0.4747  0.2962  0.0872
  736MPD2     H10879   2.661   0.789  12.202 -1.4511  0.5634  1.0870
  736MPD2    H110880   2.827   0.395  12.241 -0.6253 -0.3576  0.2366
  736MPD2    H210881   2.424   0.433  12.145 -0.1721  0.6714  0.4518
  736MPD2    H310882   2.629   0.298  12.224  0.9138  0.6138  1.2470
  736MPD2     N10883   2.895   0.649  12.229  0.1689 -0.2224  0.5986
  736MPD2    H510884   2.972   0.584  12.236 -0.1472 -0.7266 -0.6167
  736MPD2    N110885   2.414   0.693  12.141 -0.2115 -0.5017  0.5399
  736MPD2    H710886   2.338   0.628  12.126 -0.0133 -0.5948 -0.0563
  737TMC3    C110887   3.055   0.777  12.124  0.4416  0.0777  0.2720
  737TMC3    C210888   3.109   0.903  12.091 -0.5493  0.6715 -0.2423
  737TMC3    C310889   3.212   0.913  12.002 -0.2396  0.2809 -0.3886
  737TMC3    C410890   3.084   0.674  12.037  0.1555  0.6494  0.3173
  737TMC3    C510891   3.174   0.694  11.938  0.0427  0.0527 -0.4082
  737TMC3    C610892   3.242   0.812  11.913 -0.1312 -0.2002  0.2107
  737TMC3     C10893   2.937   0.775  12.204 -0.1493 -0.3913 -0.0582
  737TMC3     O10894   2.874   0.882  12.208  0.3065  0.7312 -0.2894
  737TMC3     H10895   3.087   0.980  12.163  1.4901  1.5967 -0.5966
  737TMC3    H110896   3.037   0.577  12.049 -1.0850  1.1067 -0.8185
  737TMC3    H210897   3.332   0.818  11.853 -0.0364 -0.3419  0.3387
  737TMC3    C710898   3.204   0.572  11.864 -0.2357 -0.2627  0.1308
  737TMC3    C810899   3.249   1.051  11.967  0.2631 -0.4172 -0.3532
  737TMC3    O110900   3.189   0.468  11.935 -0.2736 -0.5199  0.5747
  737TMC3    O210901   3.226   1.128  12.060  0.0004  0.1264 -0.1301
  738MPD2     C10902   3.187   0.244  14.958 -0.2588  0.7233  0.1276
  738MPD2    C110903   3.302   0.172  15.005 -0.5891 -0.5082  0.4506
  738MPD2    C210904   3.427   0.196  14.953 -0.3173 -0.2669 -0.0135
  738MPD2    C310905   3.452   0.311  14.883  0.7632 -0.0976  0.3627
  738MPD2    C410906   3.342   0.387  14.840  0.6717  0.1101  0.8299
  738MPD2    C510907   3.210   0.351  14.875 -0.1079 -0.6718 -1.1454
  738MPD2     H10908   3.507   0.127  14.977 -0.1077  0.9836  2.9089
  738MPD2    H110909   3.364   0.478  14.785 -1.6620  0.3334  0.2467
  738MPD2    H210910   3.087   0.216  14.989 -0.3079  2.3662  1.5230
  738MPD2    H310911   3.121   0.410  14.852  1.3116  2.7539  2.0279
  738MPD2     N10912   3.578   0.358  14.856  0.3198  0.2130 -0.0655
  738MPD2    H510913   3.584   0.448  14.810  2.6548 -0.5754 -1.3221
  738MPD2    N110914   3.289   0.051  15.070 -0.2878  0.8117  0.2231
  738MPD2    H710915   3.365   4.706  15.063  0.7889  1.9167  1.2752
  739TMC3    C110916   3.803   0.363  14.826  0.1046 -0.4029  0.5792
  739TMC3    C210917   3.784   0.419  14.702  0.0727  0.2192 -0.0025
  739TMC3    C310918   3.889   0.463  14.628  0.1199 -0.3527  0.0674
  739TMC3    C410919   3.926   0.357  14.876 -0.0411 -0.7257 -0.1609
  739TMC3    C510920   4.033   0.413  14.809 -0.0669  0.8211  0.3593
  739TMC3    C610921   4.019   0.464  14.681 -0.3281  0.0143 -0.3356
  739TMC3     C10922   3.696   0.290  14.885 -0.2153  0.4378  0.6366
  739TMC3     O10923   3.721   0.208  14.976 -0.4950 -0.1361  0.4272
  739TMC3     H10924   3.684   0.424  14.659  0.1184 -0.4671 -0.1884
  739TMC3    H110925   3.943   0.312  14.973 -0.5887 -0.1011  0.2188
  739TMC3    H210926   4.108   0.490  14.625  1.4149 -0.1838  2.3384
  739TMC3    C710927   4.163   0.372  14.852 -0.1940  0.3897 -0.5675
  739TMC3    C810928   3.872   0.496  14.493  0.0707  0.6041 -0.2182
  739TMC3    O110929   4.255   0.390  14.773  0.1327  0.9060 -0.0790
  739TMC3    O210930   3.768   0.460  14.445 -0.1797 -0.1314 -0.0395
  740TMC3    C110931   4.339   1.750  14.334  0.0634  0.7117  0.2080
  740TMC3    C210932   4.390   1.704  14.455 -1.0140  0.1193  0.0416
  740TMC3    C310933   4.511   1.645  14.449  0.3697  0.0960 -0.9186
  740TMC3    C410934   4.401   1.729  14.212  0.0803 -0.1226  0.0402
  740TMC3    C510935   4.519   1.665  14.210 -0.3488  0.8268  0.0591
  740TMC3    C610936   4.576   1.636  14.330  0.2535  1.4442 -0.1800
  740TMC3     C10937   4.208   1.816  14.334 -0.8406  0.3864 -0.0355
  740TMC3     O10938   4.173   1.868  14.229  0.4012  0.1680 -0.2888
  740TMC3     H10939   4.340   1.729  14.548  1.0625 -0.3386  1.2986
  740TMC3    H110940   4.350   1.759  14.121 -2.1424 -0.1688  1.2788
  740TMC3    H210941   4.676   1.592  14.332 -0.2022  0.3480 -1.1378
  740TMC3    C710942   4.575   1.594  14.096 -0.1726 -0.3191 -0.4743
  740TMC3    C810943   4.586   1.615  14.572 -0.1560  0.3081 -0.1319
  740TMC3    O110944   4.641   1.493  14.121  0.1833  0.3935  0.0842
  740TMC3    O210945   4.706   1.599  14.558 -0.6962 -0.5032  0.1798
  741TMC3    C110946   3.692   0.994  14.239 -0.4004 -0.1274 -0.2143
  741TMC3    C210947   3.600   0.895  14.213  0.2112  0.8641  0.1304
  741TMC3    C310948   3.599   0.790  14.303 -0.2463  0.0909 -0.4929
  741TMC3    C410949   3.778   0.992  14.343  0.1273  0.0271  0.5857
  741TMC3    C510950   3.767   0.891  14.436  0.5908  0.3559 -0.1634
  741TMC3    C610951   3.680   0.790  14.413  0.5417 -0.1444  0.4123
  741TMC3     C10952   3.719   1.080  14.125 -0.0986  0.2496  0.4100
  741TMC3     O10953   3.631   1.090  14.040  0.5416 -0.5713  0.4395
  741TMC3     H10954   3.530   0.902  14.131 -0.3562  2.1034  0.7369
  741TMC3    H110955   3.838   1.080  14.367 -1.3186  1.1415  0.0693
  741TMC3    H210956   3.667   0.706  14.481 -1.3704  0.8231  1.2563
  741TMC3    C710957   3.829   0.891  14.565 -0.0659 -0.0889 -0.4321
  741TMC3    C810958   3.473   0.714  14.305  0.2434  0.2147 -0.0753
  741TMC3    O110959   3.762   0.836  14.652 -0.0392  0.2550 -0.4708
  741TMC3    O210960   3.371   0.771  14.268  0.5051 -0.8333  0.2327
  742TMC3    C110961   3.504   4.197  15.053 -0.0295 -0.0907  0.1187
  742TMC3    C210962   3.398   4.120  15.005  0.4818  1.2088 -0.1101
  742TMC3    C310963   3.435   4.019  14.923  0.2917 -0.6394 -0.2482
  742TMC3    C410964   3.635   4.156  15.047 -0.1033  0.1048 -0.5424
  742TMC3    C510965   3.662   4.037  14.980 -0.7421 -0.9010  0.1531
  742TMC3    C610966   3.563   3.963  14.918  0.3467  0.1134 -0.0314
  742TMC3     C10967   3.462   4.304  15.138 -0.3755  0.5613  0.4693
  742TMC3     O10968   3.355   4.298  15.192  0.5398 -0.1540  0.3200
  742TMC3     H10969   3.304   4.173  14.993 -0.4141 -0.2143  0.4794
  742TMC3    H110970   3.710   4.205  15.108  0.0152  0.2415 -0.7981
  742TMC3    H210971   3.594   3.888  14.846  3.1590 -0.4659  1.7756
  742TMC3    C710972   3.781   3.959  15.010  0.0545  0.6351  1.0971
  742TMC3    C810973   3.356   3.991  14.801  0.0274 -0.7494 -0.1442
  742TMC3    O110974   3.787   3.854  14.950 -0.2929 -0.5886 -0.1453
  742TMC3    O210975   3.415   3.994  14.693  0.1964 -0.0285  1.0464
  743MPD2     C10976   2.472   0.153   1.372 -0.1585 -0.6114 -0.6924
  743MPD2    C110977   2.552   0.266   1.361 -0.7427 -0.1854 -0.1892
  743MPD2    C210978   2.675   0.268   1.426 -1.2988  0.0473  0.2352
  743MPD2    C310979   2.710   0.173   1.515  0.5438  0.0076 -0.1641
  743MPD2    C410980   2.630   0.062   1.524  0.5762  0.1453  0.2816
  743MPD2    C510981   2.508   0.051   1.456  0.0056 -0.7845  0.9305
  743MPD2     H10982   2.735   0.356   1.409 -0.3999 -0.2651  1.7517
  743MPD2    H110983   2.637   4.698   1.590  1.8872  1.4087  1.8084
  743MPD2    H210984   2.380   0.139   1.318  1.1296 -1.4831 -2.6538
  743MPD2    H310985   2.434   4.696   1.476 -0.6798  0.1958  2.2011
  743MPD2     N10986   2.826   0.198   1.594  0.4526  0.2340 -0.0983
  743MPD2    H510987   2.866   0.290   1.581 -1.8361  1.1639 -0.6018
  743MPD2    N110988   2.510   0.371   1.276 -0.3241 -0.5320  0.1939
  743MPD2    H710989   2.411   0.362   1.258 -0.0576  1.6121 -2.3570
  744TMC3    C110990   2.497   0.590   1.176 -0.1985  0.1038 -0.3057
  744TMC3    C210991   2.534   0.718   1.222 -0.0057 -0.3822  0.2922
  744TMC3    C310992   2.438   0.809   1.211 -0.0673 -0.0080  0.0905
  744TMC3    C410993   2.370   0.561   1.133  1.1390  0.3106  0.2363
  744TMC3    C510994   2.277   0.658   1.134  0.6814 -0.0479  0.1298
  744TMC3    C610995   2.306   0.782   1.179 -0.1710 -0.7882  0.0642
  744TMC3     C10996   2.576   0.490   1.251  0.2880 -0.5228  0.3329
  744TMC3     O10997   2.685   0.531   1.291  0.3260  0.0164  0.0071
  744TMC3     H10998   2.640   0.741   1.227 -0.3439  1.1108  0.5063
  744TMC3    H110999   2.346   0.457   1.116 -1.0776  0.4270  2.8054
  744TMC3    H211000   2.226   0.855   1.183 -0.1408 -0.6733 -1.5462
  744TMC3    C711001   2.144   0.635   1.080 -0.0243  0.3378  0.2516
  744TMC3    C811002   2.456   0.927   1.298 -0.0746 -0.0937 -0.3687
  744TMC3    O111003   2.130   0.576   0.974  0.0393  0.2246 -0.2627
  744TMC3    O211004   2.386   1.027   1.280 -0.3578 -0.3484  0.2406
  745TMC3    C111005   3.407   3.744  13.403  1.0209  1.2242  0.0808
  745TMC3    C211006   3.310   3.657  13.449  0.0200 -0.1604 -0.1714
  745TMC3    C311007   3.180   3.680  13.426 -0.4015  0.2806  0.1292
  745TMC3    C411008   3.375   3.844  13.316 -0.0830 -0.0960  0.8740
  745TMC3    C511009   3.237   3.863  13.292  0.3223 -0.4614 -0.6562
  745TMC3    C611010   3.138   3.788  13.344 -0.6165  0.3852  0.2074
  745TMC3     C11011   3.502   3.780  13.516 -0.7365 -0.0054 -0.1265
  745TMC3     O11012   3.496   3.706  13.612  0.3406  0.1539  0.6876
  745TMC3     H11013   3.331   3.572  13.512  0.3063  0.8196  1.0684
  745TMC3    H111014   3.446   3.916  13.278 -1.6980 -0.2019 -2.3321
  745TMC3    H211015   3.033   3.805  13.324  0.2596  2.3250 -2.6431
  745TMC3    C711016   3.206   3.923  13.162 -0.4948 -0.6542  0.4901
  745TMC3    C811017   3.102   3.681  13.545  0.2634  0.0472  0.6820
  745TMC3    O111018   3.103   3.880  13.111 -0.0240 -0.1670  0.4584
  745TMC3    O211019   2.981   3.686  13.527 -0.0466 -0.6908  0.2099
  746TMC3    C111020   1.456   0.418  11.024  0.6389 -0.0503  0.0036
  746TMC3    C211021   1.505   0.421  10.896 -0.8855 -1.1476  0.2968
  746TMC3    C311022   1.485   0.310  10.814  0.4889  0.3257 -0.4460
  746TMC3    C411023   1.386   0.309  11.077  0.3024 -0.2049  0.2515
  746TMC3    C511024   1.378   0.202  10.995  0.4398  0.3880  0.6242
  746TMC3    C611025   1.412   0.199  10.858  0.2789 -0.3727 -0.9967
  746TMC3     C11026   1.461   0.536  11.102 -0.2374  0.3255  0.2723
  746TMC3     O11027   1.392   0.545  11.202  0.4033 -0.2507  0.4755
  746TMC3     H11028   1.524   0.516  10.848 -0.9526 -0.2634  2.0281
  746TMC3    H111029   1.345   0.305  11.177 -1.2572 -0.2199 -0.3885
  746TMC3    H211030   1.401   0.114  10.792  2.0615 -2.0616  0.8972
  746TMC3    C711031   1.291   0.094  11.030 -0.2394  0.0264 -0.9720
  746TMC3    C811032   1.515   0.316  10.677 -0.1939  0.5079 -0.3358
  746TMC3    O111033   1.219   0.051  10.939  0.5205 -0.0984 -0.4373
  746TMC3    O211034   1.456   0.241  10.603  0.2363  0.0907  0.1866
  747TMC3    C111035   3.794   0.497  10.988  0.3485  0.4134  0.5620
  747TMC3    C211036   3.700   0.448  11.078  0.2662  0.1142  0.0094
  747TMC3    C311037   3.716   0.473  11.211 -0.4993  0.0321 -0.6265
  747TMC3    C411038   3.891   0.579  11.036 -0.2635  0.1189  0.0950
  747TMC3    C511039   3.894   0.613  11.172 -0.1820 -0.0756  0.0326
  747TMC3    C611040   3.803   0.562  11.258  0.2403  0.0817 -0.1717
  747TMC3     C11041   3.760   0.509  10.846 -0.0263  0.1620 -0.1437
  747TMC3     O11042   3.803   0.609  10.790  0.6916  0.1793 -0.5535
  747TMC3     H11043   3.617   0.389  11.041  1.0376 -0.6812 -0.4395
  747TMC3    H111044   3.965   0.627  10.974 -0.8331 -0.6166 -1.1482
  747TMC3    H211045   3.808   0.568  11.366 -2.1518  0.9680 -0.1181
  747TMC3    C711046   4.003   0.686  11.220  0.1445 -0.0951 -0.6071
  747TMC3    C811047   3.631   0.394  11.296 -0.4321  0.0297 -0.7945
  747TMC3    O111048   3.988   0.725  11.336 -0.2783 -0.4342  0.0788
  747TMC3    O211049   3.582   0.283  11.266  0.2431 -0.1376  0.3937
  748MPD2     C11050   0.489   3.009   1.228  0.3374  0.2693 -0.2106
  748MPD2    C111051   0.497   2.874   1.232 -0.2444 -0.7114  0.8960
  748MPD2    C211052   0.619   2.814   1.256  0.2834  0.3974 -0.2490
  748MPD2    C311053   0.737   2.884   1.241  0.4567 -0.0776 -0.2516
  748MPD2    C411054   0.727   3.022   1.224 -0.3090  0.7098  0.4267
  748MPD2    C511055   0.602   3.080   1.226  0.0527  1.0040  0.2102
  748MPD2     H11056   0.631   2.706   1.265  0.2347  0.5723  2.0879
  748MPD2    H111057   0.814   3.083   1.202 -0.0057  0.2448  0.3442
  748MPD2    H211058   0.394   3.060   1.214 -0.8914 -2.4014 -1.5106
  748MPD2    H311059   0.587   3.188   1.221  0.6561  1.1051  0.5205
  748MPD2     N11060   0.849   2.817   1.217 -0.2660 -0.1408 -0.0850
  748MPD2    H511061   0.840   2.718   1.239  0.1890  0.3950  2.5480
  748MPD2    N111062   0.374   2.796   1.224  0.5324  0.1922 -0.7711
  748MPD2    H711063   0.288   2.842   1.195 -0.1612 -1.8223 -1.9187
  749TMC3    C111064   1.074   2.769   1.158 -0.3993  0.2614  0.3350
  749TMC3    C211065   1.101   2.691   1.267  0.2951  0.2040  0.1505
  749TMC3    C311066   1.218   2.623   1.268  1.1322 -0.2173 -0.0236
  749TMC3    C411067   1.161   2.774   1.052 -0.0867 -0.1470  0.4418
  749TMC3    C511068   1.273   2.698   1.054 -0.1085 -0.0084 -0.2253
  749TMC3    C611069   1.306   2.619   1.164 -0.2853  0.1539  0.9827
  749TMC3     C11070   0.960   2.859   1.154 -0.3092  0.1251  0.4446
  749TMC3     O11071   0.973   2.952   1.077  0.0175  0.3361 -0.2694
  749TMC3     H11072   1.031   2.683   1.349 -0.3663 -1.1240 -0.5482
  749TMC3    H111073   1.132   2.824   0.961  1.1627 -0.6388 -0.2277
  749TMC3    H211074   1.407   2.582   1.180  0.0440 -0.4035 -2.4257
  749TMC3    C711075   1.371   2.706   0.952  0.6270 -0.4387 -0.5238
  749TMC3    C811076   1.248   2.539   1.383 -0.0739  0.1136 -0.3064
  749TMC3    O111077   1.372   2.805   0.882 -0.2221  0.1264 -0.5000
  749TMC3    O211078   1.197   2.559   1.495  0.1547  0.3571  0.0336
  750MPD2     C11079   2.196   2.421  11.025  0.3753  0.0910  0.3715
  750MPD2    C111080   2.073   2.412  11.077  0.9210  0.1689 -0.2134
  750MPD2    C211081   1.987   2.313  11.025 -0.3055  0.5412  0.3003
  750MPD2    C311082   2.039   2.216  10.941 -0.0533  0.2319  0.0070
  750MPD2    C411083   2.158   2.238  10.885 -0.7221  1.1728  0.6449
  750MPD2    C511084   2.248   2.336  10.929 -0.6414  0.5005 -0.1868
  750MPD2     H11085   1.890   2.305  11.072 -1.4635  1.1408 -2.0111
  750MPD2    H111086   2.194   2.164  10.814 -2.2099  1.4522 -0.4096
  750MPD2    H211087   2.262   2.505  11.047  0.1265  0.6129 -0.8542
  750MPD2    H311088   2.343   2.355  10.878 -0.1953 -0.2605  0.3540
  750MPD2     N11089   1.972   2.092  10.909 -0.4176  0.3241 -0.3025
  750MPD2    H511090   2.023   2.025  10.852  0.8969  0.1480  1.0573
  750MPD2    N111091   2.032   2.511  11.166 -0.3168  0.3485  0.0416
  750MPD2    H711092   2.099   2.571  11.212 -2.9313  1.0543  2.8764
  751TMC3    C111093   1.825   1.913  10.910 -0.0343 -0.6500 -0.6623
  751TMC3    C211094   1.735   1.850  10.983  0.5378  0.4087  0.8932
  751TMC3    C311095   1.709   1.717  10.952 -0.4897  0.3208 -0.1613
  751TMC3    C411096   1.899   1.856  10.812 -0.0505  0.3335 -0.2073
  751TMC3    C511097   1.870   1.722  10.777  0.3335 -0.1979  0.1573
  751TMC3    C611098   1.772   1.653  10.846  0.0772  0.0244  0.1097
  751TMC3     C11099   1.850   2.050  10.957  0.2983  0.7555  0.0367
  751TMC3     O11100   1.785   2.092  11.049 -0.5752  0.3431 -0.1837
  751TMC3     H11101   1.681   1.902  11.061 -0.1972 -1.1047  1.4005
  751TMC3    H111102   1.956   1.909  10.737 -0.2808 -1.7584 -1.8667
  751TMC3    H211103   1.740   1.550  10.831  0.1105 -0.3215  2.4511
  751TMC3    C711104   1.911   1.669  10.647  0.6846  0.2343 -0.1580
  751TMC3    C811105   1.628   1.636  11.036  0.0943  0.4115  0.7354
  751TMC3    O111106   2.012   1.713  10.597  0.0380 -0.6126 -0.0953
  751TMC3    O211107   1.675   1.528  11.052  0.0502  0.1014 -0.2821
  752TMC3    C111108   0.500   2.187  17.570 -0.1683  0.6050 -0.0302
  752TMC3    C211109   0.404   2.260  17.633 -0.5364  0.6953  0.2215
  752TMC3    C311110   0.358   2.210   0.058 -0.1984  0.4949  0.3494
  752TMC3    C411111   0.556   2.073  17.629 -0.9696 -0.0780  0.3396
  752TMC3    C511112   0.488   2.024   0.045 -0.3870 -0.2707 -0.0637
  752TMC3    C611113   0.393   2.091   0.116  0.6006  0.1629  0.4466
  752TMC3     C11114   0.555   2.219  17.443 -0.7118 -0.4677 -0.2074
  752TMC3     O11115   0.656   2.163  17.408  0.0044 -0.1979  0.0213
  752TMC3     H11116   0.365   2.359  17.612  0.8739  0.4648 -3.4380
  752TMC3    H111117   0.636   2.017  17.583 -0.6532  1.2865 -0.7838
  752TMC3    H211118   0.352   2.054   0.209  0.8876 -0.6767  0.2401
  752TMC3    C711119   0.541   1.901   0.104 -0.1848 -0.5633 -0.5047
  752TMC3    C811120   0.296   2.308   0.145  0.6197  0.2410 -0.2697
  752TMC3    O111121   0.662   1.897   0.101  0.7496 -0.0105  0.2679
  752TMC3    O211122   0.218   2.384   0.097 -0.4486  0.7378  0.0919
  753TMC3    C111123   2.236   3.564  13.414  0.8729 -0.1423 -0.2179
  753TMC3    C211124   2.316   3.572  13.523 -0.0595  0.4138 -0.2890
  753TMC3    C311125   2.400   3.461  13.542  0.7205 -0.4471 -0.0315
  753TMC3    C411126   2.243   3.456  13.330 -0.1122  0.0141  0.5841
  753TMC3    C511127   2.342   3.360  13.343  0.1226  0.5004  0.2188
  753TMC3    C611128   2.416   3.359  13.451 -0.4794  0.1289  0.9038
  753TMC3     C11129   2.172   3.682  13.353 -0.1224 -1.0398  0.3079
  753TMC3     O11130   2.093   3.651  13.264  0.3300 -0.0179  0.2665
  753TMC3     H11131   2.295   3.651  13.594  0.8392  0.7610 -0.4067
  753TMC3    H111132   2.187   3.447  13.237 -0.6629 -2.1556  1.1097
  753TMC3    H211133   2.494   3.287  13.468 -1.6310 -1.2614  0.3178
  753TMC3    C711134   2.323   3.232  13.277  0.2839  0.0875  0.9513
  753TMC3    C811135   2.472   3.438  13.668 -0.6319  1.1390  0.8438
  753TMC3    O111136   2.213   3.180  13.262  0.5691 -0.4439 -0.2610
  753TMC3    O211137   2.490   3.319  13.695  0.2161 -0.2870 -0.9113
  754MPD2     C11138   1.585   2.551  12.844 -0.1127  0.3322 -0.3020
  754MPD2    C111139   1.586   2.413  12.839 -0.5074 -0.4327  0.0901
  754MPD2    C211140   1.476   2.342  12.882 -0.0965  0.1947 -0.0993
  754MPD2    C311141   1.365   2.409  12.932  0.3442 -0.0090  0.7929
  754MPD2    C411142   1.360   2.546  12.914 -0.6938  0.3233  0.2632
  754MPD2    C511143   1.468   2.616  12.874  0.1658 -0.8274 -0.6205
  754MPD2     H11144   1.481   2.234  12.886  0.3949  0.2949  1.8564
  754MPD2    H111145   1.270   2.604  12.931 -1.1475 -0.0267 -0.9459
  754MPD2    H211146   1.669   2.614  12.823 -0.0238  0.3244  0.0237
  754MPD2    H311147   1.464   2.722  12.854  1.6849 -0.5898  0.3034
  754MPD2     N11148   1.252   2.356  12.982 -0.3556 -0.2262  0.0382
  754MPD2    H511149   1.167   2.411  12.995  0.7551  1.2691  0.9564
  754MPD2    N111150   1.712   2.356  12.804 -0.4965 -0.3450  0.0340
  754MPD2    H711151   1.776   2.423  12.763  0.2377 -1.9145 -1.3888
  755MPD2     C11152   0.320   2.499  13.280 -0.9060 -0.2275  0.4549
  755MPD2    C111153   0.441   2.537  13.340 -0.1062 -0.8272 -0.5967
  755MPD2    C211154   0.559   2.479  13.302  0.3787  0.3115 -0.0704
  755MPD2    C311155   0.554   2.369  13.211  0.0596  0.4237 -0.3127
  755MPD2    C411156   0.430   2.319  13.172 -0.7151  0.3308 -0.1303
  755MPD2    C511157   0.314   2.384  13.213 -0.0914 -0.4122  0.2281
  755MPD2     H11158   0.652   2.519  13.341  0.9180  2.4189 -3.5561
  755MPD2    H111159   0.423   2.229  13.112  1.2825  0.3886 -0.4407
  755MPD2    H211160   0.228   2.547  13.310  0.0885  1.8707  0.1600
  755MPD2    H311161   0.220   2.350  13.173  0.3791 -1.3339 -0.0929
  755MPD2     N11162   0.672   2.301  13.175 -0.1608  0.0506  0.4140
  755MPD2    H511163   0.656   2.216  13.122  2.4825  0.4318 -0.9835
  755MPD2    N111164   0.454   2.641  13.433  0.5417  0.8946  0.0230
  755MPD2    H711165   0.548   2.659  13.469  0.9314  0.6531 -0.8783
  756MPD2     C11166   1.347   3.348   9.703  0.2899 -0.4676  1.0823
  756MPD2    C111167   1.321   3.218   9.732 -0.5027 -0.5000 -0.0872
  756MPD2    C211168   1.217   3.149   9.674  0.1537  0.0119 -0.5320
  756MPD2    C311169   1.125   3.218   9.597 -0.1516  0.0592 -0.0252
  756MPD2    C411170   1.144   3.354   9.573 -0.1920 -0.3299 -0.2258
  756MPD2    C511171   1.256   3.408   9.626 -0.3328 -0.6784  0.7643
  756MPD2     H11172   1.215   3.041   9.684  1.4631  0.2186  1.8382
  756MPD2    H111173   1.094   3.424   9.507 -0.1485 -0.8229 -0.7805
  756MPD2    H211174   1.420   3.408   9.756 -0.4187 -0.6048  2.2231
  756MPD2    H311175   1.277   3.513   9.610  0.1802 -1.0960 -1.3002
  756MPD2     N11176   1.022   3.141   9.540 -0.0816 -0.0210  0.6556
  756MPD2    H511177   1.010   3.041   9.552  0.2656 -0.3016 -1.3621
  756MPD2    N111178   1.381   3.142   9.837  0.3414 -0.3670  0.3014
  756MPD2    H711179   1.330   3.060   9.866 -0.6939 -0.2086 -1.1141
  757MPD2     C11180   0.708   2.307   9.783  0.0204  0.5239  0.0285
  757MPD2    C111181   0.634   2.316   9.671  0.1547 -0.0932  0.0573
  757MPD2    C211182   0.616   2.448   9.623 -0.0696 -0.6989  0.1661
  757MPD2    C311183   0.658   2.563   9.685 -0.0474  0.2271 -0.1292
  757MPD2    C411184   0.723   2.551   9.807 -0.2028  0.0067 -0.6244
  757MPD2    C511185   0.738   2.423   9.851 -0.4112 -0.4573 -0.1487
  757MPD2     H11186   0.567   2.453   9.527 -1.4084 -3.7204  0.6651
  757MPD2    H111187   0.762   2.636   9.861  1.5978 -0.1272 -1.7339
  757MPD2    H211188   0.728   2.212   9.831 -1.4954 -0.6500 -1.6668
  757MPD2    H311189   0.790   2.406   9.945 -2.3068 -2.7930  0.4884
  757MPD2     N11190   0.647   2.687   9.606 -0.1040 -1.1469  0.5629
  757MPD2    H511191   0.602   2.669   9.516 -0.6606 -2.5245  1.1220
  757MPD2    N111192   0.590   2.198   9.606 -0.0687 -0.5057 -0.1254
  757MPD2    H711193   0.616   2.110   9.650 -1.0713 -0.4516  0.5935
  758MPD2     C11194   1.070   1.681  16.069 -0.3009  0.1902  0.2402
  758MPD2    C111195   1.194   1.745  16.074 -0.0645 -0.5033 -0.8401
  758MPD2    C211196   1.206   1.870  16.133 -0.0021  0.0306 -0.2919
  758MPD2    C311197   1.090   1.930  16.187 -0.7099  0.2607  0.0609
  758MPD2    C411198   0.973   1.857  16.194  0.2873 -0.0873 -0.0005
  758MPD2    C511199   0.965   1.733  16.138 -0.2844  0.1433 -0.6325
  758MPD2     H11200   1.304   1.917  16.134 -0.3578  0.6920  2.0615
  758MPD2    H111201   0.890   1.898  16.250  0.4173 -1.8166  1.4787
  758MPD2    H211202   1.062   1.584  16.023  2.1430 -0.0806  0.4156
  758MPD2    H311203   0.875   1.672  16.132 -0.0798 -0.1396 -0.8550
  758MPD2     N11204   1.103   2.053  16.250  1.0313 -0.8694 -0.2386
  758MPD2    H511205   1.009   2.083  16.274  1.3617 -0.8924  1.0721
  758MPD2    N111206   1.320   1.689  16.024 -0.2732  0.2135  0.3535
  758MPD2    H711207   1.406   1.740  16.039 -1.1034  1.9210 -0.6147
  759MPD2     C11208   4.716   0.270  10.321 -0.2076 -1.6648  0.3357
  759MPD2    C111209   0.032   0.134  10.349  0.1448  0.6152 -0.3909
  759MPD2    C211210   0.156   0.083  10.307 -0.2567 -0.2286  0.2164
  759MPD2    C311211   0.233   0.167  10.233  0.2805  0.3079  0.0342
  759MPD2    C411212   0.189   0.292  10.199 -0.4552  0.2960 -1.0287
  759MPD2    C511213   0.075   0.349  10.247 -0.5042 -0.1490 -0.1727
  759MPD2     H11214   0.187   4.705  10.337 -3.8469 -0.8312  2.0683
  759MPD2    H111215   0.240   0.362  10.135 -1.9326  2.2316 -0.0793
  759MPD2    H211216   4.623   0.303  10.364 -1.1752  1.4553 -4.2111
  759MPD2    H311217   0.034   0.444  10.213 -1.2095  0.0736  1.2963
  759MPD2     N11218   0.351   0.108  10.191 -0.4504  0.0011 -0.4679
  759MPD2    H511219   0.370   0.011  10.211  1.0466 -0.3987 -3.8715
  759MPD2    N111220   4.655   0.049  10.403  0.6374 -0.1168  0.0896
  759MPD2    H711221   4.666   4.670  10.401  1.8781  0.0605 -2.1864
  760MPD2     C11222   4.587   2.309  12.163 -0.0934 -0.0210  0.6462
  760MPD2    C111223   4.681   2.313  12.068 -0.2456  0.1085 -0.1921
  760MPD2    C211224   0.031   2.197  12.027 -0.1892  0.0629 -0.3545
  760MPD2    C311225   0.001   2.070  12.085  0.2814  0.1860  0.0798
  760MPD2    C411226   4.619   2.061  12.181 -0.1583 -0.0856 -0.1269
  760MPD2    C511227   4.556   2.180  12.219 -0.0190 -0.5152  0.0875
  760MPD2     H11228   0.123   2.217  11.974 -0.2828  1.2290 -0.0723
  760MPD2    H111229   4.588   1.966  12.224  1.6039  0.4487  2.3137
  760MPD2    H211230   4.513   2.388  12.174 -0.1857 -0.0851  0.4881
  760MPD2    H311231   4.473   2.174  12.288 -1.8158 -2.0382 -2.1932
  760MPD2     N11232   0.076   1.952  12.053  0.2666  0.0188 -0.5061
  760MPD2    H511233   0.063   1.869  12.111  0.5943  0.3338  0.0217
  760MPD2    N111234   0.014   2.431  12.009 -0.1037  0.5227  0.7971
  760MPD2    H711235   0.081   2.420  11.934 -0.0633 -0.7444  1.0159
  761MPD2     C11236   1.189   1.529  11.298 -0.1975 -0.2964 -0.3309
  761MPD2    C111237   1.278   1.442  11.231 -0.3178  0.6396 -0.1174
  761MPD2    C211238   1.394   1.493  11.172 -0.0982 -0.0070 -0.2101
  761MPD2    C311239   1.415   1.631  11.169  0.8207  0.4814  0.0524
  761MPD2    C411240   1.328   1.709  11.237 -0.0746  0.6221  0.2969
  761MPD2    C511241   1.216   1.664  11.300  0.1602  0.3664 -0.2512
  761MPD2     H11242   1.455   1.422  11.118 -0.7826  0.5204 -1.6666
  761MPD2    H111243   1.351   1.815  11.241  1.4989  0.2595  0.7712
  761MPD2    H211244   1.098   1.492  11.346 -0.3089 -2.0118 -1.9005
  761MPD2    H311245   1.147   1.730  11.351  0.4081 -1.6577  2.7194
  761MPD2     N11246   1.513   1.695  11.086 -0.4563 -0.1860  0.0089
  761MPD2    H511247   1.504   1.794  11.066 -1.4925 -0.6474 -1.8485
  761MPD2    N111248   1.233   1.306  11.208 -0.2762 -1.1017 -0.2871
  761MPD2    H711249   1.137   1.286  11.234 -0.7459  1.5302 -0.0397
  762MPD2     C11250   1.704   1.246  10.877 -0.0259  0.4315  0.0369
  762MPD2    C111251   1.644   1.150  10.802  0.0106 -0.3364 -0.4720
  762MPD2    C211252   1.700   1.095  10.686 -0.0198  0.2912  0.2285
  762MPD2    C311253   1.825   1.140  10.642 -0.2709  0.4688 -0.1621
  762MPD2    C411254   1.893   1.234  10.713 -0.3820  0.1496 -0.1506
  762MPD2    C511255   1.832   1.287  10.827 -0.4736 -0.2091  0.0496
  762MPD2     H11256   1.646   1.022  10.627  3.2446 -1.7471 -0.2507
  762MPD2    H111257   1.981   1.285  10.677  0.3391 -1.2083 -0.2832
  762MPD2    H211258   1.645   1.290  10.957 -1.3070  0.6197 -1.0189
  762MPD2    H311259   1.876   1.363  10.890 -0.9959 -0.2958  0.5240
  762MPD2     N11260   1.863   1.085  10.523  0.1872  0.3727  0.1760
  762MPD2    H511261   1.792   1.040  10.466 -0.9235 -3.2132  4.4020
  762MPD2    N111262   1.519   1.111  10.854  0.0871  0.1858  0.2449
  762MPD2    H711263   1.488   1.174  10.927  1.1521 -0.6849  1.4505
  763MPD2     C11264   3.704   2.216  16.202  0.5907  0.2952 -0.7642
  763MPD2    C111265   3.581   2.269  16.224 -0.5579  0.3119  0.5920
  763MPD2    C211266   3.551   2.376  16.309  0.7009  0.7115 -0.4473
  763MPD2    C311267   3.668   2.444  16.353 -0.3355  0.0206  0.7387
  763MPD2    C411268   3.795   2.390  16.334  0.1702 -0.8819 -0.3164
  763MPD2    C511269   3.812   2.275  16.261 -0.0313  0.7990 -0.5081
  763MPD2     H11270   3.451   2.410  16.332 -0.0005 -1.4464 -0.3246
  763MPD2    H111271   3.875   2.441  16.387 -1.0278 -1.6381  2.2288
  763MPD2    H211272   3.732   2.136  16.135  0.3541 -1.2856  1.0168
  763MPD2    H311273   3.915   2.242  16.245 -0.3690 -0.3783 -0.2816
  763MPD2     N11274   3.668   2.571  16.418  0.1546  0.2657 -0.4175
  763MPD2    H511275   3.761   2.606  16.439  0.0351  0.5829 -0.4200
  763MPD2    N111276   3.471   2.200  16.162 -0.4033 -0.3052  1.1120
  763MPD2    H711277   3.382   2.249  16.149  0.5134  0.9389 -0.4062
  764MPD2     C11278   1.025   3.612  17.262  0.6027 -0.3679  0.0561
  764MPD2    C111279   0.955   3.728  17.296  0.2941 -0.4177  0.6974
  764MPD2    C211280   0.968   3.785  17.424  0.2413  0.8569 -0.3561
  764MPD2    C311281   1.051   3.719  17.515 -0.5620  0.1622  0.1254
  764MPD2    C411282   1.120   3.607  17.486  0.4865  0.8273 -1.3665
  764MPD2    C511283   1.106   3.559  17.360 -0.0585 -0.8149 -0.2365
  764MPD2     H11284   0.917   3.877  17.450 -3.0455 -1.1778  0.4145
  764MPD2    H111285   1.167   3.542  17.558  0.3879  1.6615 -0.5635
  764MPD2    H211286   1.015   3.576  17.160  0.8012 -2.3750  0.7438
  764MPD2    H311287   1.158   3.468  17.334  4.5006  1.6903  0.2807
  764MPD2     N11288   1.043   3.763  17.649 -0.2502  0.1254 -0.2394
  764MPD2    H511289   0.971   3.825  17.684 -0.6711 -1.5271  1.8166
  764MPD2    N111290   0.877   3.800  17.198 -0.0492 -0.2035  0.0921
  764MPD2    H711291   0.848   3.892  17.230 -0.0111 -0.1368 -0.0679
  765MPD2     C11292   0.738   1.367  15.915  0.1626 -0.6156  0.4391
  765MPD2    C111293   0.812   1.459  15.860 -0.1467  0.1298  0.4379
  765MPD2    C211294   0.940   1.430  15.818  0.1793 -0.1970 -0.1364
  765MPD2    C311295   0.977   1.299  15.808  0.7184 -0.0406 -0.9922
  765MPD2    C411296   0.884   1.198  15.838  0.3367 -0.0839 -0.1402
  765MPD2    C511297   0.770   1.234  15.907  0.3832 -0.3813 -0.2248
  765MPD2     H11298   1.001   1.518  15.799  1.4240 -1.5407 -2.4199
  765MPD2    H111299   0.903   1.091  15.829 -0.1932 -0.3315  1.5984
  765MPD2    H211300   0.642   1.392  15.959  0.4416  1.0007  0.1456
  765MPD2    H311301   0.713   1.148  15.942 -0.8969  0.2405 -0.8134
  765MPD2     N11302   1.106   1.268  15.756  0.3669 -1.1055 -0.0606
  765MPD2    H511303   1.169   1.346  15.742 -0.1330 -0.8398 -0.8199
  765MPD2    N111304   0.753   1.592  15.863  0.1259  0.3767  0.2276
  765MPD2    H711305   0.671   1.608  15.920  0.5018 -0.4549  0.9936
  766MPD2     C11306   0.292   1.744  15.387 -0.0654  0.7282 -0.9405
  766MPD2    C111307   0.418   1.723  15.431  0.4383  0.5475 -0.2167
  766MPD2    C211308   0.505   1.657  15.345  0.7925 -0.8362 -0.4777
  766MPD2    C311309   0.470   1.646  15.208  0.5230 -0.7747 -0.4622
  766MPD2    C411310   0.347   1.684  15.160  0.4216 -0.1772  0.2076
  766MPD2    C511311   0.263   1.728  15.256 -0.1914  0.2192  0.1825
  766MPD2     H11312   0.600   1.617  15.376  1.0936 -0.0487 -0.3865
  766MPD2    H111313   0.308   1.672  15.059  0.1873 -1.1593  0.4155
  766MPD2    H211314   0.222   1.792  15.455  2.1926 -0.5741  2.2898
  766MPD2    H311315   0.164   1.757  15.222  0.1614  3.2983  1.7261
  766MPD2     N11316   0.557   1.601  15.111 -0.6358 -0.2691  0.0682
  766MPD2    H511317   0.546   1.624  15.013 -3.3773  0.5675  0.5985
  766MPD2    N111318   0.464   1.760  15.559 -0.8251  0.4235  0.2394
  766MPD2    H711319   0.550   1.708  15.572 -1.4145 -0.9104 -1.0804
  767MPD2     C11320   0.129   2.069  14.914  0.1116  0.5235 -0.2949
  767MPD2    C111321   0.243   1.999  14.929  0.2108  0.3217  0.4205
  767MPD2    C211322   0.268   1.906  14.829  0.2867 -0.3209 -0.0003
  767MPD2    C311323   0.174   1.885  14.726 -0.1149  0.1155 -0.1969
  767MPD2    C411324   0.059   1.953  14.725 -0.6110  0.7155 -0.6458
  767MPD2    C511325   0.037   2.052  14.817  0.1549 -0.3295 -0.3543
  767MPD2     H11326   0.368   1.863  14.829  0.5163  0.2033 -0.1648
  767MPD2    H111327   4.721   1.932  14.637  2.4482 -0.5303 -2.4463
  767MPD2    H211328   0.096   2.135  14.993  2.6432 -0.4281  1.5371
  767MPD2    H311329   4.668   2.111  14.810  0.4238  0.3075  1.4346
  767MPD2     N11330   0.190   1.796  14.621 -0.4781  0.1693  0.3970
  767MPD2    H511331   0.120   1.801  14.548  0.9648  0.8116 -0.9461
  767MPD2    N111332   0.340   2.024  15.027  0.3017  0.0924 -0.4175
  767MPD2    H711333   0.430   1.977  15.028  0.4267  0.2949 -2.0013
  768MPD2     C11334   1.254   4.432  10.915  0.4293 -1.0654 -0.3535
  768MPD2    C111335   1.168   4.341  10.970  0.3038 -0.3028  0.2510
  768MPD2    C211336   1.199   4.300  11.103  0.5207 -0.3243 -0.2097
  768MPD2    C311337   1.303   4.348  11.179 -0.2834  0.8304  0.3322
  768MPD2    C411338   1.380   4.445  11.117  0.3881 -0.6160  0.9296
  768MPD2    C511339   1.356   4.481  10.986 -0.1317 -0.0617  0.8077
  768MPD2     H11340   1.121   4.242  11.151  1.4219 -0.5674  0.9666
  768MPD2    H111341   1.465   4.485  11.170  0.9851 -1.8291  0.8780
  768MPD2    H211342   1.238   4.468  10.814  0.8188  0.7403  0.2225
  768MPD2    H311343   1.418   4.562  10.948 -0.5947 -0.7535 -1.3928
  768MPD2     N11344   1.318   4.326  11.317  0.5458 -0.8129  0.1453
  768MPD2    H511345   1.369   4.390  11.377  1.8317  0.4571 -2.3217
  768MPD2    N111346   1.041   4.306  10.924 -0.9434 -0.0000 -0.0330
  768MPD2    H711347   0.990   4.241  10.983 -1.7287  0.3372 -0.3428
  769MPD2     C11348   2.419   2.969  14.846  0.4902  0.0183  0.3209
  769MPD2    C111349   2.347   2.917  14.950  1.0092  0.0651  0.2291
  769MPD2    C211350   2.347   2.989  15.069  0.3877  0.8608  0.3084
  769MPD2    C311351   2.418   3.107  15.086  0.1668  0.5695  0.2689
  769MPD2    C411352   2.493   3.151  14.976  0.1286  1.0528 -0.6441
  769MPD2    C511353   2.488   3.084  14.859 -0.3260  0.1425 -0.2622
  769MPD2     H11354   2.277   2.959  15.147 -0.8359 -1.3916 -1.6469
  769MPD2    H111355   2.548   3.244  14.985  1.2635  0.5148 -2.0078
  769MPD2    H211356   2.418   2.922  14.748  3.1200 -2.1779  1.3197
  769MPD2    H311357   2.544   3.114  14.771  0.7540  0.0664  0.4094
  769MPD2     N11358   2.419   3.165  15.214  0.2961 -0.1238  0.4206
  769MPD2    H511359   2.370   3.119  15.290 -0.9045  0.2861 -0.1061
  769MPD2    N111360   2.276   2.793  14.941 -0.1286 -0.2857  0.0327
  769MPD2    H711361   2.267   2.754  14.848  0.2347 -1.0458  0.3212
  770MPD2     C11362   1.974   1.750  15.128 -0.1557 -0.0744  0.0966
  770MPD2    C111363   1.903   1.817  15.027 -0.0021  0.5390  0.1079
  770MPD2    C211364   1.919   1.957  15.003  0.1589  0.1349 -0.1739
  770MPD2    C311365   2.012   2.031  15.080  0.0641  0.1454  0.1498
  770MPD2    C411366   2.091   1.953  15.166  0.3681  0.5087 -0.5911
  770MPD2    C511367   2.073   1.821  15.194 -0.0128  0.5753 -0.5455
  770MPD2     H11368   1.861   2.010  14.929 -1.7685 -3.0812 -0.9552
  770MPD2    H111369   2.162   2.010  15.225 -0.4777  0.1881  0.7291
  770MPD2    H211370   1.962   1.647  15.161 -0.2294 -0.9505 -2.6261
  770MPD2    H311371   2.125   1.771  15.275  2.5740  1.9781 -1.3634
  770MPD2     N11372   2.026   2.168  15.063 -0.0739 -0.1911 -0.6108
  770MPD2    H511373   1.960   2.202  14.993  0.2581  1.3113 -0.1803
  770MPD2    N111374   1.805   1.744  14.960 -0.1251  0.4785  0.0296
  770MPD2    H711375   1.812   1.643  14.971  0.0756  0.2814 -1.9320
  771MPD2     C11376   2.571   0.638  13.606  0.6135 -0.5375 -0.0870
  771MPD2    C111377   2.539   0.732  13.511  0.4003  0.6029 -0.1111
  771MPD2    C211378   2.444   0.694  13.413  0.0861 -0.6255  0.2725
  771MPD2    C311379   2.398   0.563  13.409  0.8326 -0.2774 -0.5256
  771MPD2    C411380   2.427   0.467  13.502  0.0785  0.0096 -0.6976
  771MPD2    C511381   2.516   0.509  13.601 -0.3438 -1.2101 -0.4096
  771MPD2     H11382   2.401   0.766  13.344  1.8412 -2.6873 -2.9923
  771MPD2    H111383   2.387   0.366  13.501  1.7460 -0.6358 -0.6296
  771MPD2    H211384   2.638   0.655  13.690 -2.8894 -1.3817  2.8596
  771MPD2    H311385   2.563   0.437  13.667 -0.4933  0.7739  1.8465
  771MPD2     N11386   2.307   0.537  13.305 -0.4680 -0.8790  0.2854
  771MPD2    H511387   2.274   0.610  13.242  0.4476 -1.3760 -0.7699
  771MPD2    N111388   2.587   0.863  13.517 -0.4429 -0.6424 -0.2053
  771MPD2    H711389   2.583   0.915  13.429 -0.1682  0.8062  0.6316
  772MPD2     C11390   2.683   1.564  14.011  0.7610 -0.0644 -0.3278
  772MPD2    C111391   2.599   1.473  13.949  0.3363 -0.3488 -0.0641
  772MPD2    C211392   2.460   1.483  13.985  0.3291 -0.3077  0.4981
  772MPD2    C311393   2.419   1.580  14.076  0.4114 -0.6797  0.1055
  772MPD2    C411394   2.508   1.664  14.140 -0.2362 -0.1880  0.0542
  772MPD2    C511395   2.638   1.658  14.103 -0.3749  0.2529 -0.2749
  772MPD2     H11396   2.389   1.426  13.926  1.4645 -0.2572 -0.9243
  772MPD2    H111397   2.480   1.731  14.221 -1.7008  0.6837 -1.1828
  772MPD2    H211398   2.785   1.582  13.980 -0.1736  3.2049 -1.5681
  772MPD2    H311399   2.711   1.728  14.142 -0.7525  1.5972 -2.0110
  772MPD2     N11400   2.280   1.588  14.124  0.3672 -0.0457 -0.0583
  772MPD2    H511401   2.266   1.650  14.203 -1.2793 -1.5447  0.8134
  772MPD2    N111402   2.631   1.388  13.845 -0.2366 -0.2513 -0.0141
  772MPD2    H711403   2.554   1.333  13.809 -0.3483  1.2828 -2.1684
  773MPD2     C11404   1.719   2.532  17.295 -0.2619 -0.0961 -0.5337
  773MPD2    C111405   1.665   2.461  17.398  0.5988  0.6529  0.0230
  773MPD2    C211406   1.754   2.395  17.484  0.5105  0.2330  0.4321
  773MPD2    C311407   1.885   2.375  17.451  0.2050 -0.4236 -0.1619
  773MPD2    C411408   1.942   2.451  17.347  0.1061  0.4461  0.0778
  773MPD2    C511409   1.862   2.536  17.280 -0.5095  0.4658  0.4975
  773MPD2     H11410   1.704   2.342  17.564  3.6653 -0.3807  1.9824
  773MPD2    H111411   2.045   2.456  17.316  0.1435  0.1403  0.1602
  773MPD2    H211412   1.661   2.590  17.224  0.4386  0.4999 -0.6214
  773MPD2    H311413   1.905   2.603  17.207  2.7014 -1.3009  0.7695
  773MPD2     N11414   1.970   2.297  17.536 -0.0229 -0.3586 -0.5049
  773MPD2    H511415   1.929   2.221  17.589 -0.3852  0.4623  0.3960
  773MPD2    N111416   1.526   2.472  17.436 -0.7525  0.2414  0.5295
  773MPD2    H711417   1.498   2.424  17.521  0.0488  0.6721  1.0309
  774MPD2     C11418   1.509   1.360  13.200 -0.4864  0.1676 -0.9743
  774MPD2    C111419   1.446   1.459  13.278 -0.1683  0.0589  0.1049
  774MPD2    C211420   1.493   1.589  13.271 -0.0299 -0.7191  0.1349
  774MPD2    C311421   1.587   1.619  13.172 -0.1886 -0.3388 -0.6966
  774MPD2    C411422   1.642   1.517  13.091 -0.0839 -0.3710  0.5946
  774MPD2    C511423   1.611   1.390  13.120 -0.9217 -0.0464 -0.2763
  774MPD2     H11424   1.442   1.668  13.324 -0.1716 -0.0061 -1.0688
  774MPD2    H111425   1.722   1.533  13.020 -2.0160 -0.2961 -1.5413
  774MPD2    H211426   1.505   1.253  13.219  0.9388  0.4130  0.6978
  774MPD2    H311427   1.660   1.309  13.067 -1.1213 -0.0268 -0.4918
  774MPD2     N11428   1.602   1.756  13.140  0.1701 -0.2820  0.2029
  774MPD2    H511429   1.536   1.818  13.185  1.0711  1.2018 -0.5188
  774MPD2    N111430   1.342   1.430  13.367 -0.2279  0.2547  0.1721
  774MPD2    H711431   1.322   1.508  13.429  3.7734  2.9782 -2.0028
  775MPD2     C11432   2.621   2.983  15.685  0.4298 -0.2791 -0.3363
  775MPD2    C111433   2.652   3.090  15.774  0.6448 -0.1950 -0.1045
  775MPD2    C211434   2.758   3.170  15.740  0.2516 -0.2351 -0.7605
  775MPD2    C311435   2.839   3.140  15.639 -0.1420 -0.1002  0.3548
  775MPD2    C411436   2.817   3.026  15.569  0.1902  0.0705  0.2323
  775MPD2    C511437   2.708   2.944  15.594  0.7095  0.0949  0.7337
  775MPD2     H11438   2.763   3.260  15.799 -4.3440  0.9271 -2.2259
  775MPD2    H111439   2.877   2.990  15.487  0.2202 -0.5361  0.5230
  775MPD2    H211440   2.534   2.920  15.696 -1.8689  2.8126 -0.9087
  775MPD2    H311441   2.688   2.862  15.526  2.4625  0.2526  0.0232
  775MPD2     N11442   2.947   3.218  15.591 -0.1720 -0.3524  0.4095
  775MPD2    H511443   3.008   3.174  15.524  0.4130 -0.7387  1.1910
  775MPD2    N111444   2.558   3.114  15.876 -0.6657  0.2277  1.0242
  775MPD2    H711445   2.485   3.045  15.889 -1.2992  0.8739  0.8720
  776MPD2     C11446   1.514   3.095  11.139 -0.3172  0.8594  0.4363
  776MPD2    C111447   1.596   3.094  11.251 -0.6920 -0.0111  0.9118
  776MPD2    C211448   1.640   3.215  11.301  0.2244  1.0476 -0.1964
  776MPD2    C311449   1.625   3.328  11.220  0.0748 -0.5296 -0.2843
  776MPD2    C411450   1.535   3.336  11.118 -0.0149 -0.0655  0.7996
  776MPD2    C511451   1.484   3.213  11.072  0.3856  0.2374  0.4020
  776MPD2     H11452   1.698   3.212  11.393  2.8406  2.0164 -1.8222
  776MPD2    H111453   1.506   3.426  11.065  0.8738  0.3556  1.0185
  776MPD2    H211454   1.483   3.001  11.094  3.1571 -0.0282 -0.1008
  776MPD2    H311455   1.412   3.213  10.991 -0.1688  1.6367  0.8928
  776MPD2     N11456   1.689   3.452  11.242 -0.0767  0.2918  0.2886
  776MPD2    H511457   1.688   3.527  11.174  1.0393  0.6176  0.6298
  776MPD2    N111458   1.651   2.973  11.291 -0.2207  0.2927  0.0034
  776MPD2    H711459   1.633   2.893  11.232 -1.5845  1.4388 -1.1394
  777MPD2     C11460   1.514   1.637   0.839 -0.1884  1.0665  0.1074
  777MPD2    C111461   1.633   1.583   0.881  0.9060  0.2707  0.7381
  777MPD2    C211462   1.694   1.474   0.818 -0.6606  0.3019 -0.2342
  777MPD2    C311463   1.623   1.413   0.717  0.7985  0.0143 -0.3622
  777MPD2    C411464   1.502   1.465   0.669 -0.0658 -0.0784 -0.8344
  777MPD2    C511465   1.449   1.582   0.726 -0.8682  0.2104 -0.7527
  777MPD2     H11466   1.792   1.438   0.847 -2.1269 -2.9585  0.6824
  777MPD2    H111467   1.439   1.408   0.602 -0.9668 -0.3491  0.2477
  777MPD2    H211468   1.463   1.716   0.892 -0.6658  1.6046 -1.1668
  777MPD2    H311469   1.348   1.610   0.700 -1.9234 -1.6149  1.3305
  777MPD2     N11470   1.671   1.291   0.663  0.0446  0.4631  0.2831
  777MPD2    H511471   1.731   1.229   0.717  1.5383  0.4920 -1.3661
  777MPD2    N111472   1.684   1.651   0.992  0.1787  0.0065  0.1267
  777MPD2    H711473   1.623   1.721   1.031 -0.1552  0.1150 -0.5865
  778MPD2     C11474   2.517   0.553  15.258  0.0074 -0.3892  0.0111
  778MPD2    C111475   2.509   0.539  15.119  0.8023  0.0007  0.2426
  778MPD2    C211476   2.580   0.625  15.038  0.7833 -0.2482 -0.0329
  778MPD2    C311477   2.646   0.740  15.089  0.6774  0.0230 -0.0440
  778MPD2    C411478   2.643   0.760  15.227  0.5397  0.1059 -0.3383
  778MPD2    C511479   2.564   0.674  15.304  0.0326  1.1152 -0.2423
  778MPD2     H11480   2.585   0.603  14.932 -2.4931 -0.8372 -0.0586
  778MPD2    H111481   2.663   0.851  15.281  0.1491 -0.5870  0.9590
  778MPD2    H211482   2.467   0.489  15.330 -0.6382 -1.1746 -1.1308
  778MPD2    H311483   2.550   0.698  15.409  1.1517  0.0007  0.1646
  778MPD2     N11484   2.725   0.817  15.006 -0.3424 -0.7612  0.2732
  778MPD2    H511485   2.703   0.819  14.907  1.7842 -1.8559 -0.2200
  778MPD2    N111486   2.449   0.424  15.062 -0.5350  0.4953 -0.2644
  778MPD2    H711487   2.452   0.427  14.960 -1.0321 -0.7175 -0.3169
  779MPD2     C11488   2.502   4.615  14.035  0.2382 -0.4097 -0.5806
  779MPD2    C111489   2.549   4.599  14.163 -0.0230  0.2380 -1.1989
  779MPD2    C211490   2.570   4.716  14.237 -0.5931 -0.3365 -0.0007
  779MPD2    C311491   2.536   0.115  14.190 -0.4453 -0.1260  0.7092
  779MPD2    C411492   2.489   0.134  14.065 -0.6877  0.1348 -0.5094
  779MPD2    C511493   2.465   0.019  13.990 -0.1040  0.6104  0.0067
  779MPD2     H11494   2.613   4.709  14.336 -1.5065  1.2599  0.5060
  779MPD2    H111495   2.473   0.229  14.015 -0.3147 -0.4440 -1.7368
  779MPD2    H211496   2.486   4.529  13.971 -1.1553 -1.2808  0.9312
  779MPD2    H311497   2.422   0.030  13.891  2.4157  0.2389 -1.1434
  779MPD2     N11498   2.567   0.223  14.269 -0.0353 -0.4013  0.5204
  779MPD2    H511499   2.645   0.205  14.332 -2.0763 -0.5155  3.0226
  779MPD2    N111500   2.575   4.478  14.223  1.1561  0.0893 -0.2259
  779MPD2    H711501   2.638   4.486  14.303 -0.0998  0.1914  0.7482
  780MPD2     C11502   1.654   4.198   0.703 -0.4813  0.7219  0.1380
  780MPD2    C111503   1.662   4.293   0.604  0.3680 -0.2504  0.2047
  780MPD2    C211504   1.588   4.274   0.483  0.4021  0.2285 -0.5377
  780MPD2    C311505   1.514   4.165   0.461  0.0681 -0.1638 -0.0642
  780MPD2    C411506   1.504   4.075   0.564  0.7142 -1.0000  0.0334
  780MPD2    C511507   1.574   4.089   0.682 -0.3637 -0.1613  0.5912
  780MPD2     H11508   1.581   4.343   0.399 -2.3175  1.5584  0.7623
  780MPD2    H111509   1.454   3.981   0.547 -0.0245 -0.2464 -2.0341
  780MPD2    H211510   1.696   4.205   0.803 -2.2757 -2.4953  1.0799
  780MPD2    H311511   1.565   4.016   0.761 -2.1823  0.0335  0.5751
  780MPD2     N11512   1.467   4.144   0.331 -0.0159 -0.0342  0.0999
  780MPD2    H511513   1.487   4.216   0.262 -0.2183 -0.7669 -0.7217
  780MPD2    N111514   1.718   4.415   0.645  0.0807 -0.4968 -0.2256
  780MPD2    H711515   1.776   4.404   0.728 -0.0824 -1.3982 -0.2334
  781MPD2     C11516   3.928   1.172  11.963  0.7592  0.5149  0.9809
  781MPD2    C111517   4.031   1.256  12.007 -0.2830 -0.2650  1.2013
  781MPD2    C211518   4.146   1.264  11.922 -0.2583  0.3156 -0.0977
  781MPD2    C311519   4.154   1.203  11.801 -0.1089  0.0412  0.9636
  781MPD2    C411520   4.052   1.119  11.761 -0.3679  0.1780 -0.1452
  781MPD2    C511521   3.940   1.107  11.838 -0.8147  0.1775 -0.0560
  781MPD2     H11522   4.228   1.331  11.946  1.7979 -1.4443 -2.1951
  781MPD2    H111523   4.057   1.049  11.678  2.1226  1.7206 -1.2696
  781MPD2    H211524   3.835   1.158  12.015  0.4591 -2.6828 -0.3874
  781MPD2    H311525   3.862   1.038  11.810  0.4638 -1.6127  0.8071
  781MPD2     N11526   4.264   1.210  11.713 -0.0743 -0.2211 -0.5639
  781MPD2    H511527   4.264   1.154  11.628  0.5745  1.1786 -1.4986
  781MPD2    N111528   4.025   1.333  12.127 -0.6142  0.2481 -0.1805
  781MPD2    H711529   4.100   1.395  12.154 -0.1449  0.2620 -1.4890
  782MPD2     C11530   2.190   1.823   9.886  0.5835  0.0144 -0.2826
  782MPD2    C111531   2.317   1.790   9.881  0.5573 -0.0243  0.5431
  782MPD2    C211532   2.407   1.815   9.986  0.1530  0.0405 -0.0170
  782MPD2    C311533   2.362   1.869  10.105 -0.3987  0.6749  0.3143
  782MPD2    C411534   2.226   1.895  10.112 -0.1555 -0.5491  0.7799
  782MPD2    C511535   2.146   1.895   9.995 -0.1953  0.2958  0.5832
  782MPD2     H11536   2.512   1.791   9.976  0.2711  1.2969 -1.9093
  782MPD2    H111537   2.189   1.942  10.202 -0.5789 -0.3247  0.4889
  782MPD2    H211538   2.123   1.799   9.805  0.2243  0.1845 -0.0390
  782MPD2    H311539   2.044   1.931   9.997 -0.0543  0.6309  1.3374
  782MPD2     N11540   2.453   1.876  10.210  0.7471  0.4152  0.1374
  782MPD2    H511541   2.547   1.844  10.189  0.1908 -0.9274 -0.2563
  782MPD2    N111542   2.361   1.708   9.772  0.1110  0.3311 -0.0460
  782MPD2    H711543   2.291   1.684   9.702  1.5097  3.4410 -2.5336
  783MPD2     C11544   1.752   1.428  10.407 -0.0358 -0.2919 -0.3773
  783MPD2    C111545   1.847   1.508  10.461 -0.3802  0.3302 -0.3184
  783MPD2    C211546   1.971   1.513  10.395 -0.7345 -0.1838  0.3314
  783MPD2    C311547   1.991   1.452  10.275 -0.1147  0.5958 -0.1397
  783MPD2    C411548   1.889   1.391  10.208 -0.1979 -0.1727  0.0578
  783MPD2    C511549   1.774   1.376  10.284  0.2635  0.0254 -0.0027
  783MPD2     H11550   2.059   1.560  10.436 -2.6586  1.5496  2.4421
  783MPD2    H111551   1.888   1.363  10.103  0.2685 -1.7193  0.4673
  783MPD2    H211552   1.658   1.408  10.457 -1.7213  1.7854 -2.7037
  783MPD2    H311553   1.688   1.328  10.240 -0.4347 -0.1911  1.5907
  783MPD2     N11554   2.122   1.468  10.221  0.4036 -0.1861 -0.2099
  783MPD2    H511555   2.189   1.511  10.283 -1.4910 -1.3252  2.6181
  783MPD2    N111556   1.827   1.573  10.592 -0.3563  0.1473  0.9425
  783MPD2    H711557   1.740   1.553  10.640 -0.1775 -1.7307  0.4956
  784MPD2     C11558   0.013   3.120   1.016  0.4984  0.2209 -0.0316
  784MPD2    C111559   0.084   3.191   0.917 -0.2906 -1.1669 -0.2134
  784MPD2    C211560   0.009   3.286   0.851 -0.2432  0.1415 -0.0047
  784MPD2    C311561   4.604   3.331   0.885  0.3571 -0.3769 -0.3725
  784MPD2    C411562   4.549   3.274   1.003 -0.3341 -0.5663 -0.1900
  784MPD2    C511563   4.611   3.163   1.053  0.1804  0.2187  0.0862
  784MPD2     H11564   0.051   3.330   0.762 -0.4316 -0.8632 -0.5878
  784MPD2    H111565   4.455   3.309   1.045 -0.7300  1.6945 -2.9661
  784MPD2    H211566   0.056   3.036   1.068  1.9587  0.0479 -1.5358
  784MPD2    H311567   4.580   3.123   1.149  1.9295  0.8943  0.9434
  784MPD2     N11568   4.543   3.441   0.803 -0.0473  0.2801 -0.4030
  784MPD2    H511569   4.586   3.462   0.713  2.1475 -1.4955  0.2397
  784MPD2    N111570   0.216   3.167   0.879 -0.2181  0.2226 -0.7971
  784MPD2    H711571   0.250   3.227   0.805 -0.2452  0.3925 -0.6704
  785MPD2     C11572   4.708   0.773  10.333  0.0960  0.4047  0.6221
  785MPD2    C111573   4.639   0.769  10.457  0.2083  0.0557  0.3266
  785MPD2    C211574   4.534   0.683  10.478 -0.2090  0.7451 -0.1891
  785MPD2    C311575   4.480   0.609  10.377 -0.3945 -0.4058  0.3629
  785MPD2    C411576   4.540   0.615  10.257  0.4095 -0.3987 -0.1299
  785MPD2    C511577   4.659   0.685  10.236  0.6855  0.2127 -0.0757
  785MPD2     H11578   4.475   0.690  10.568  1.1871 -1.4100  0.8907
  785MPD2    H111579   4.501   0.548  10.181  0.0791 -0.6436  0.2518
  785MPD2    H211580   0.080   0.826  10.322  0.5652 -0.6508 -0.3965
  785MPD2    H311581   4.719   0.662  10.149 -0.5201  0.7924 -1.0575
  785MPD2     N11582   4.366   0.529  10.415 -0.1801  0.2005 -0.5986
  785MPD2    H511583   4.338   0.523  10.513  2.4537 -1.7132  0.0252
  785MPD2    N111584   4.681   0.867  10.548 -0.1481 -0.4684  0.2909
  785MPD2    H711585   0.033   0.930  10.519  2.0348 -3.2214 -0.0370
  786MPD2     C11586   2.939   3.886  14.512 -0.1599 -0.8440 -0.6569
  786MPD2    C111587   3.074   3.856  14.489 -0.3277 -0.6256  0.5319
  786MPD2    C211588   3.166   3.893  14.594 -0.7708  0.0452 -0.0448
  786MPD2    C311589   3.131   3.946  14.719  0.6107  0.1749  0.2931
  786MPD2    C411590   2.997   3.967  14.741 -0.2759  0.1478 -0.1182
  786MPD2    C511591   2.906   3.943  14.639  0.0441  0.4860 -0.4657
  786MPD2     H11592   3.269   3.877  14.564 -1.0450  0.5797 -1.2659
  786MPD2    H111593   2.968   4.009  14.836 -1.5829 -0.1699 -0.3768
  786MPD2    H211594   2.863   3.855  14.442 -0.9852 -2.5927  1.0160
  786MPD2    H311595   2.803   3.951  14.673 -0.0652  0.1997 -0.7215
  786MPD2     N11596   3.218   3.979  14.824 -0.5470  0.3343  0.0423
  786MPD2    H511597   3.185   3.993  14.919 -1.5817 -1.1687 -0.0882
  786MPD2    N111598   3.124   3.804  14.370  0.6636 -0.4458  0.0482
  786MPD2    H711599   3.225   3.793  14.375  1.2028  3.0636 -3.6576
  787MPD2     C11600   3.598   3.608  14.616  0.1723 -0.0732  0.0446
  787MPD2    C111601   3.623   3.557  14.488 -0.8177  0.0183  0.0259
  787MPD2    C211602   3.747   3.493  14.465 -0.4461 -0.3461  0.6688
  787MPD2    C311603   3.832   3.460  14.570 -0.2029 -0.1168 -0.0364
  787MPD2    C411604   3.797   3.501  14.696 -0.1676  0.5566 -0.7183
  787MPD2    C511605   3.689   3.585  14.717 -0.1062  0.8970 -0.6184
  787MPD2     H11606   3.772   3.455  14.367  1.7811 -0.2611  1.2095
  787MPD2    H111607   3.855   3.486  14.786 -0.2810  2.8643 -0.2666
  787MPD2    H211608   3.508   3.664  14.639  0.0671 -0.4364  0.5198
  787MPD2    H311609   3.666   3.633  14.812  2.4613 -0.0929  0.5134
  787MPD2     N11610   3.948   3.381  14.542 -0.0108 -0.0002 -0.0243
  787MPD2    H511611   3.971   3.364  14.445 -0.5613 -4.3948  0.6305
  787MPD2    N111612   3.519   3.583  14.398  0.0497 -0.1598 -0.2016
  787MPD2    H711613   3.442   3.641  14.429 -2.2171 -3.3479  0.1632
  788MPD2     C11614   4.304   2.304   1.156  0.1988 -0.8032  0.7688
  788MPD2    C111615   4.411   2.248   1.082  0.1801 -0.5469  0.6588
  788MPD2    C211616   4.516   2.334   1.043 -0.1833 -0.3631  0.1345
  788MPD2    C311617   4.516   2.469   1.070 -0.0731  0.3113 -0.1670
  788MPD2    C411618   4.409   2.510   1.150 -0.3229  0.4114 -0.0775
  788MPD2    C511619   4.309   2.432   1.193 -0.2118 -0.1557  0.3694
  788MPD2     H11620   4.587   2.287   0.977  0.8549 -0.2791  1.1861
  788MPD2    H111621   4.407   2.612   1.185  0.3279  0.0963  0.8801
  788MPD2    H211622   4.220   2.244   1.191  0.1761  0.6288  3.2011
  788MPD2    H311623   4.234   2.476   1.258  0.8862 -1.3591  2.4786
  788MPD2     N11624   4.609   2.564   1.026 -0.9724 -0.4871  0.3085
  788MPD2    H511625   4.586   2.660   1.051  3.0268  0.6395 -0.3911
  788MPD2    N111626   4.412   2.116   1.039  0.4341  0.0432  0.0151
  788MPD2    H711627   4.486   2.092   0.973  1.0551  0.3284  0.6053
  789MPD2     C11628   1.198   2.192  16.843  0.0928 -0.1978 -0.5078
  789MPD2    C111629   1.147   2.120  16.735 -0.8959  0.0915 -0.6778
  789MPD2    C211630   1.020   2.150  16.691  0.2475  0.0613 -0.0296
  789MPD2    C311631   0.945   2.246  16.752 -0.0246 -0.8524  0.1221
  789MPD2    C411632   0.993   2.311  16.861  0.1603  0.1464  0.5637
  789MPD2    C511633   1.118   2.285  16.902 -0.3381 -0.0990 -0.5646
  789MPD2     H11634   0.980   2.098  16.604  0.7592 -1.9751  0.9504
  789MPD2    H111635   0.937   2.388  16.913 -1.0778 -1.7209  1.9899
  789MPD2    H211636   1.297   2.176  16.884  1.0101  1.0962 -2.2313
  789MPD2    H311637   1.155   2.343  16.986 -0.9584 -0.5356  0.0056
  789MPD2     N11638   0.813   2.281  16.715  0.0268  0.0321  0.2683
  789MPD2    H511639   0.757   2.344  16.772  0.6314 -1.6554  2.7515
  789MPD2    N111640   1.228   2.021  16.675  0.9065  0.4264  0.3818
  789MPD2    H711641   1.182   1.959  16.608 -2.0091 -0.6378  3.3703
  790MPD2     C11642   1.629   2.770  14.083  0.4351 -0.1854  0.1782
  790MPD2    C111643   1.753   2.790  14.013  0.6398 -0.0465  0.2116
  790MPD2    C211644   1.753   2.814  13.880  0.3140  0.2445  0.5659
  790MPD2    C311645   1.638   2.805  13.805 -0.5040 -0.7496 -0.1938
  790MPD2    C411646   1.518   2.795  13.866 -0.6966 -0.3112 -0.0508
  790MPD2    C511647   1.523   2.772  14.003  0.1150 -0.5985  0.3952
  790MPD2     H11648   1.843   2.841  13.825  1.5312  0.5239  2.6998
  790MPD2    H111649   1.413   2.793  13.838 -0.9044  1.5148  0.5725
  790MPD2    H211650   1.624   2.767  14.191 -1.4889  1.2203  0.1300
  790MPD2    H311651   1.427   2.765  14.053  0.2286  1.8792  0.9773
  790MPD2     N11652   1.639   2.815  13.666 -0.0046  0.7178  0.1319
  790MPD2    H511653   1.728   2.823  13.617 -0.3227 -0.1825 -0.6058
  790MPD2    N111654   1.870   2.804  14.098 -0.4723 -0.1788 -0.1405
  790MPD2    H711655   1.859   2.768  14.192 -0.7863  1.6625  0.5323
  791MPD2     C11656   1.108   3.154  13.271  0.6963 -0.0582 -0.3618
  791MPD2    C111657   1.179   3.086  13.174  0.2860 -0.1780  0.0779
  791MPD2    C211658   1.118   3.054  13.060  0.5604 -0.1347 -0.1024
  791MPD2    C311659   0.986   3.086  13.027 -0.3810  0.2292 -0.0523
  791MPD2    C411660   0.925   3.161  13.124  0.6841 -0.0253 -0.1702
  791MPD2    C511661   0.982   3.189  13.244 -0.9040 -0.0676 -0.3727
  791MPD2     H11662   1.172   3.016  12.975 -0.4511 -1.3376 -0.2049
  791MPD2    H111663   0.825   3.203  13.110 -0.4768 -2.5484  0.5718
  791MPD2    H211664   1.150   3.192  13.363 -2.5660 -0.0614  1.1434
  791MPD2    H311665   0.932   3.245  13.323 -1.0349 -2.3940  1.2068
  791MPD2     N11666   0.927   3.058  12.895 -0.4142 -0.3542 -0.0447
  791MPD2    H511667   0.970   2.993  12.831  1.4945  0.4940  0.3647
  791MPD2    N111668   1.310   3.045  13.205  0.1075 -0.2382  0.0247
  791MPD2    H711669   1.333   3.078  13.298  1.3037  1.0256 -0.7262
  792MPD2     C11670   2.437   2.759  11.054  0.5305 -0.0008 -1.0890
  792MPD2    C111671   2.325   2.783  10.980  0.2241  0.2100  0.1804
  792MPD2    C211672   2.307   2.715  10.860  0.0637 -0.1825  0.4381
  792MPD2    C311673   2.403   2.623  10.810 -0.1159  0.2857 -0.6278
  792MPD2    C411674   2.512   2.596  10.891  0.0863  0.3475  0.0460
  792MPD2    C511675   2.525   2.673  11.006  0.3882  0.0920  0.5918
  792MPD2     H11676   2.216   2.732  10.804  1.2096 -1.8472 -1.9136
  792MPD2    H111677   2.592   2.540  10.843  0.9977  3.0733 -1.6237
  792MPD2    H211678   2.462   2.806  11.149  0.9548  0.6480 -1.5276
  792MPD2    H311679   2.616   2.650  11.061  0.0742  0.5686  1.3108
  792MPD2     N11680   2.384   2.545  10.698  0.1868 -0.5915  0.1471
  792MPD2    H511681   2.457   2.476  10.680 -0.7178 -1.8880  1.4318
  792MPD2    N111682   2.227   2.867  11.035  0.4439 -0.3048 -0.0838
  792MPD2    H711683   2.263   2.916  11.117 -0.7825 -1.2963  1.0412
  793MPD2     C11684   1.570   2.459  10.130 -0.5481 -1.3335 -0.6678
  793MPD2    C111685   1.632   2.564  10.197  0.2046 -0.4440 -0.3147
  793MPD2    C211686   1.750   2.539  10.265  0.1791  0.2485  0.1106
  793MPD2    C311687   1.805   2.417  10.265 -0.4843 -0.2272 -0.1022
  793MPD2    C411688   1.745   2.312  10.199  0.3975 -0.5764  0.3150
  793MPD2    C511689   1.634   2.340  10.129  0.0782  0.4402  0.2712
  793MPD2     H11690   1.802   2.616  10.320 -0.1964  0.1217  0.6406
  793MPD2    H111691   1.781   2.210  10.203  0.1202 -0.6837  0.0802
  793MPD2    H211692   1.483   2.469  10.066 -1.4547  4.4301  1.4641
  793MPD2    H311693   1.585   2.259  10.075  1.2150 -1.5936  2.2734
  793MPD2     N11694   1.920   2.393  10.346 -0.6555 -0.4223 -0.0345
  793MPD2    H511695   1.949   2.464  10.413  1.1269  0.6027 -1.9132
  793MPD2    N111696   1.598   2.699  10.187  0.3484  0.0921  0.7696
  793MPD2    H711697   1.658   2.761  10.240  3.1413 -2.7558  0.9553
  794MPD2     C11698   0.992   3.018  17.236  0.3371 -0.5014  0.3020
  794MPD2    C111699   1.040   2.906  17.164 -0.0027  0.4120 -0.0154
  794MPD2    C211700   1.053   2.906  17.026 -0.0821 -0.6337 -0.0866
  794MPD2    C311701   1.021   3.019  16.958  0.4127  0.4373  0.0965
  794MPD2    C411702   0.984   3.132  17.024  0.1846 -0.4690 -0.3723
  794MPD2    C511703   0.973   3.131  17.161 -0.0390  0.8687  0.1810
  794MPD2     H11704   1.094   2.816  16.982 -0.7855  1.0478 -4.1360
  794MPD2    H111705   0.957   3.223  16.972 -1.9802 -1.0086 -0.2111
  794MPD2    H211706   0.972   3.020  17.342 -1.9171 -0.5160 -0.1375
  794MPD2    H311707   0.939   3.221  17.213 -0.6620  0.0067  1.2604
  794MPD2     N11708   1.017   3.024  16.825  0.1937  0.2320  0.1413
  794MPD2    H511709   0.980   3.107  16.779  0.1818  0.0771 -0.1293
  794MPD2    N111710   1.063   2.789  17.231  0.2302 -0.3826 -0.1566
  794MPD2    H711711   1.085   2.712  17.168  0.1252 -1.8300  1.5727
  795MPD2     C11712   3.387   0.403  13.500 -0.2421 -0.0397 -0.7681
  795MPD2    C111713   3.365   0.273  13.452  0.2117  0.3957  0.2450
  795MPD2    C211714   3.459   0.183  13.488 -0.0703  0.0106  0.5833
  795MPD2    C311715   3.570   0.210  13.561  0.1940 -0.0865 -0.3591
  795MPD2    C411716   3.584   0.343  13.602 -0.2713 -0.2740 -0.3178
  795MPD2    C511717   3.497   0.441  13.564 -0.0652 -0.0333 -0.6884
  795MPD2     H11718   3.441   0.082  13.455 -1.7245  0.8988 -1.2642
  795MPD2    H111719   3.667   0.363  13.669 -0.4062 -0.0102 -0.2279
  795MPD2    H211720   3.316   0.481  13.473 -0.3992  0.5125  1.2536
  795MPD2    H311721   3.513   0.544  13.595 -2.6744 -0.1115  0.8078
  795MPD2     N11722   3.657   0.107  13.592  0.0063 -0.1971 -0.7540
  795MPD2    H511723   3.622   0.012  13.586 -0.6839  0.0720 -1.0171
  795MPD2    N111724   3.245   0.237  13.382 -0.0228  0.5243 -0.3674
  795MPD2    H711725   3.230   0.138  13.367  0.3727  0.2189  1.2585
  796MPD2     C11726   3.817   1.875  15.854  0.4885  0.9789  0.1252
  796MPD2    C111727   3.936   1.935  15.883  0.2407 -0.1673 -0.1224
  796MPD2    C211728   3.933   2.078  15.897 -0.3269  0.2077 -0.1624
  796MPD2    C311729   3.818   2.147  15.869 -1.1146  0.1003 -0.3601
  796MPD2    C411730   3.706   2.083  15.822 -0.3101 -0.5575 -0.1799
  796MPD2    C511731   3.703   1.949  15.826 -0.1338 -0.2845  0.5936
  796MPD2     H11732   4.023   2.129  15.931  0.4865 -1.0753 -0.3967
  796MPD2    H111733   3.611   2.125  15.790 -0.1840  1.1776  1.7073
  796MPD2    H211734   3.807   1.768  15.840 -1.8946  1.1037  0.8467
  796MPD2    H311735   3.619   1.888  15.795  0.6204 -0.5213 -0.9920
  796MPD2     N11736   3.815   2.288  15.900 -0.2906 -0.0562  0.2094
  796MPD2    H511737   3.898   2.334  15.936  0.8744 -3.0669  1.3906
  796MPD2    N111738   4.048   1.858  15.895 -0.5658 -0.4121 -0.2026
  796MPD2    H711739   4.025   1.764  15.928  0.1165  0.1626  1.9343
  797MPD2     C11740   4.563   1.998  16.705 -0.0577  0.7615  0.0917
  797MPD2    C111741   4.696   2.034  16.744  0.2397  0.2872 -0.0983
  797MPD2    C211742   0.073   2.038  16.648  0.3899 -0.2900  0.4839
  797MPD2    C311743   0.044   1.997  16.515  0.2397 -0.3788  0.0711
  797MPD2    C411744   4.638   1.974  16.481  0.0501  0.2824 -0.0421
  797MPD2    C511745   4.536   1.983  16.574 -0.0495  0.5251  0.0457
  797MPD2     H11746   0.174   2.064  16.678  0.1258  0.5744  0.6295
  797MPD2    H111747   4.611   1.935  16.384 -0.1573  0.7678 -0.1762
  797MPD2    H211748   4.475   1.997  16.768  1.2003  2.5412  1.8884
  797MPD2    H311749   4.438   1.945  16.547 -0.7182  0.4440  2.5159
  797MPD2     N11750   0.140   1.970  16.419  0.4477 -0.2837 -0.0847
  797MPD2    H511751   0.112   1.934  16.328 -0.8305  2.3303 -0.7429
  797MPD2    N111752   0.017   2.062  16.877  0.1320  0.2758 -0.3231
  797MPD2    H711753   0.111   2.093  16.898  0.2969  0.2159 -0.9524
  798MPD2     C11754   0.751   1.936  16.776  0.2093 -1.2425  0.2139
  798MPD2    C111755   0.623   1.944  16.716 -0.4115 -0.5523 -0.3717
  798MPD2    C211756   0.524   1.977  16.805 -0.0749 -0.4873  0.2327
  798MPD2    C311757   0.538   1.984  16.940  0.0641  0.4539  0.3006
  798MPD2    C411758   0.662   1.954  16.995 -0.1591 -0.1564 -0.2134
  798MPD2    C511759   0.771   1.940  16.914 -0.3872 -0.3516  0.7023
  798MPD2     H11760   0.424   1.990  16.764 -0.8416 -1.1455  1.8719
  798MPD2    H111761   0.671   1.964  17.103 -2.0208  0.2106 -0.1000
  798MPD2    H211762   0.836   1.921  16.710  1.4089  3.2559  0.7612
  798MPD2    H311763   0.868   1.932  16.962 -0.0253 -1.9368 -0.2916
  798MPD2     N11764   0.415   2.007  17.015  0.4536  0.3139  0.0745
  798MPD2    H511765   0.340   2.052  16.963 -1.4805 -3.1532 -0.1222
  798MPD2    N111766   0.593   1.932  16.576 -0.2198 -0.3519  0.4162
  798MPD2    H711767   0.495   1.946  16.552 -0.3544 -1.7412  0.1536
  799MPD2     C11768   3.768   2.870  14.785  0.5362 -0.9970 -0.2211
  799MPD2    C111769   3.688   2.801  14.700 -0.0864 -0.1164  0.0275
  799MPD2    C211770   3.617   2.860  14.596  0.2813 -0.1786  0.8117
  799MPD2    C311771   3.624   2.995  14.579 -0.2088  0.0712 -0.6514
  799MPD2    C411772   3.697   3.066  14.671 -0.8458 -0.4616  0.0912
  799MPD2    C511773   3.770   3.005  14.768  0.3145 -0.2583 -1.1152
  799MPD2     H11774   3.578   2.803  14.511 -2.7043  2.9584  0.0934
  799MPD2    H111775   3.718   3.170  14.650 -1.2235 -0.2513  0.7611
  799MPD2    H211776   3.830   2.817  14.857  1.8952 -0.1622 -0.7693
  799MPD2    H311777   3.847   3.057  14.823 -1.1073  0.4695  0.1710
  799MPD2     N11778   3.564   3.065  14.467  0.1062  0.1182 -0.1423
  799MPD2    H511779   3.568   3.166  14.469  0.3522  0.0329  2.8132
  799MPD2    N111780   3.687   2.657  14.696  0.4179 -0.3326 -1.0531
  799MPD2    H711781   3.648   2.609  14.616  0.2933  0.0980 -1.2515
  800MPD2     C11782   3.072   3.927  13.988 -0.3621  0.0646  0.0737
  800MPD2    C111783   3.200   3.912  13.955 -0.5118 -0.2674  0.2889
  800MPD2    C211784   3.236   3.829  13.854  0.5601 -0.0871 -0.1512
  800MPD2    C311785   3.134   3.766  13.781  0.1428 -0.2693 -0.7436
  800MPD2    C411786   3.001   3.775  13.818 -0.4926  0.1910 -1.0914
  800MPD2    C511787   2.969   3.864  13.918 -0.2521  0.5450 -0.5300
  800MPD2     H11788   3.336   3.827  13.813  1.1259 -1.1786  1.2662
  800MPD2    H111789   2.917   3.733  13.766 -0.5169  0.0141 -0.9084
  800MPD2    H211790   3.049   4.010  14.054 -0.2952  3.3290 -4.0354
  800MPD2    H311791   2.867   3.900  13.915 -0.6129 -0.4477 -0.1611
  800MPD2     N11792   3.177   3.709  13.655 -0.0617  0.2697 -0.2442
  800MPD2    H511793   3.277   3.720  13.642  0.1123 -0.3428  0.6404
  800MPD2    N111794   3.280   3.987  14.036  0.4642 -0.3067  0.0710
  800MPD2    H711795   3.235   4.064  14.084  2.0426  1.2367 -0.9182
  801MPD2     C11796   3.517   4.720  14.179  0.1487  0.0913  0.1008
  801MPD2    C111797   3.585   4.636  14.268  0.4824 -0.6468  0.0484
  801MPD2    C211798   3.660   4.697  14.362  0.2143  0.0673  0.4531
  801MPD2    C311799   3.684   0.110  14.376 -0.1383  0.1501  0.0902
  801MPD2    C411800   3.628   0.191  14.277  0.6418 -0.0972  0.1351
  801MPD2    C511801   3.545   0.132  14.185 -0.3303  0.3742 -0.1090
  801MPD2     H11802   3.725   4.633  14.421  0.3345 -1.6414 -1.5217
  801MPD2    H111803   3.644   0.298  14.265 -0.0408 -0.1858 -1.5740
  801MPD2    H211804   3.445   4.684  14.108  0.6343  1.0468 -0.8649
  801MPD2    H311805   3.497   0.204  14.119 -0.9255  0.2072  0.1363
  801MPD2     N11806   3.773   0.163  14.464 -0.8651  0.0041  0.0055
  801MPD2    H511807   3.809   0.255  14.442  0.8717 -1.1321 -1.8139
  801MPD2    N111808   3.565   4.496  14.275  0.1458  0.0985  0.0412
  801MPD2    H711809   3.617   4.444  14.345 -0.0213  0.5709  0.5142
  802MPD2     C11810   2.709   3.806  17.445 -0.0495  0.4097 -0.1015
  802MPD2    C111811   2.740   3.935  17.420  0.6897 -0.0764  0.3175
  802MPD2    C211812   2.867   3.953  17.372  0.4607 -0.1388  0.1343
  802MPD2    C311813   2.955   3.852  17.357  0.5542  0.1899  0.3624
  802MPD2    C411814   2.917   3.727  17.377 -0.3496  0.5167 -0.0635
  802MPD2    C511815   2.792   3.703  17.419  0.3921  1.0728 -0.0720
  802MPD2     H11816   2.896   4.053  17.344 -1.2393  0.2055 -0.3944
  802MPD2    H111817   2.981   3.640  17.363 -1.8885 -0.2652 -2.2526
  802MPD2    H211818   2.609   3.782  17.479  0.4933  0.2037  1.3262
  802MPD2    H311819   2.750   3.604  17.436 -1.1172  1.8929  0.9151
  802MPD2     N11820   3.087   3.882  17.311  0.2941 -0.0115 -0.5784
  802MPD2    H511821   3.119   3.978  17.299  0.9306 -0.3007 -1.1672
  802MPD2    N111822   2.658   4.054  17.426  0.0816 -0.7501  0.5593
  802MPD2    H711823   2.705   4.144  17.418  0.0749 -0.9319 -1.7225
  803MPD2     C11824   4.598   3.283  11.859 -0.0600  0.0312 -0.2471
  803MPD2    C111825   4.660   3.247  11.983 -0.5848  0.1919  0.3473
  803MPD2    C211826   4.594   3.170  12.074  0.4796 -0.2434  0.5057
  803MPD2    C311827   4.484   3.101  12.048 -0.1244  0.0051  0.6235
  803MPD2    C411828   4.427   3.132  11.929  0.4919  0.1507  0.0382
  803MPD2    C511829   4.483   3.217  11.832 -0.1445 -0.2474  0.7361
  803MPD2     H11830   4.638   3.159  12.173  1.2453 -1.9062 -0.0158
  803MPD2    H111831   4.337   3.085  11.890  0.0476  0.8415  0.2288
  803MPD2    H211832   4.624   3.366  11.794  4.1267 -1.1777 -0.0996
  803MPD2    H311833   4.430   3.242  11.741  4.8659  0.2933 -2.0577
  803MPD2     N11834   4.414   3.025  12.146 -0.9990  0.4248 -0.3743
  803MPD2    H511835   4.314   3.011  12.137 -1.0305 -2.0076  3.5455
  803MPD2    N111836   0.053   3.308  12.028 -0.2085 -0.3793 -0.1194
  803MPD2    H711837   0.070   3.300  12.128  0.7772 -0.5787 -0.3120
  804MPD2     C11838   4.306   0.388  16.726 -0.0126  0.0694 -0.2388
  804MPD2    C111839   4.273   0.389  16.860 -0.2966 -0.3126 -1.3168
  804MPD2    C211840   4.310   0.503  16.933 -0.3195  0.0449 -0.3027
  804MPD2    C311841   4.390   0.601  16.879 -0.3147 -0.0278 -0.3102
  804MPD2    C411842   4.414   0.597  16.742 -0.2665 -0.3085  0.2938
  804MPD2    C511843   4.369   0.489  16.670  0.0845  0.2511 -0.7305
  804MPD2     H11844   4.286   0.503  17.039  1.4334  1.9437  0.1042
  804MPD2    H111845   4.454   0.683  16.689  2.2250 -1.7911 -0.2372
  804MPD2    H211846   4.278   0.305  16.663 -1.7231  1.0759 -0.8003
  804MPD2    H311847   4.394   0.479  16.565 -0.4405 -0.4549 -0.7878
  804MPD2     N11848   4.433   0.712  16.960 -0.2100 -0.0843 -0.2120
  804MPD2    H511849   4.397   0.716  17.055  1.5417 -0.3813  0.4660
  804MPD2    N111850   4.201   0.286  16.924 -0.1113 -0.8681  0.2532
  804MPD2    H711851   4.163   0.309  17.015  1.8964 -0.3305  0.9741
  805MPD2     C11852   3.280   2.995  15.690 -0.2711 -0.4558  0.1589
  805MPD2    C111853   3.375   3.048  15.600 -0.0911  0.7686 -0.5335
  805MPD2    C211854   3.497   3.091  15.648  0.6247 -0.4575  0.7656
  805MPD2    C311855   3.534   3.076  15.783 -0.1630  0.2925  0.8818
  805MPD2    C411856   3.441   3.015  15.866 -0.0750 -0.7002 -0.5283
  805MPD2    C511857   3.319   2.969  15.821 -0.1721 -0.0242 -0.6793
  805MPD2     H11858   3.565   3.132  15.574  0.3175  1.0028  1.2951
  805MPD2    H111859   3.456   3.009  15.974 -0.5222  1.3488 -0.3478
  805MPD2    H211860   3.187   2.948  15.661 -0.6622  0.5926 -0.2669
  805MPD2    H311861   3.245   2.929  15.889  1.0853 -0.6978  0.2843
  805MPD2     N11862   3.657   3.118  15.821 -0.2077 -0.3381  0.2408
  805MPD2    H511863   3.702   3.178  15.752  0.0587  1.7318  2.1962
  805MPD2    N111864   3.351   3.066  15.464 -0.1279 -0.3437  0.3112
  805MPD2    H711865   3.435   3.084  15.410 -0.9795 -0.0455 -0.9354
  806MPD2     C11866   4.645   3.277   0.457  0.5934  0.6471  0.6954
  806MPD2    C111867   4.513   3.317   0.475  0.8262  0.3303  0.3536
  806MPD2    C211868   4.452   3.405   0.391 -0.6325  0.6621  0.2594
  806MPD2    C311869   4.525   3.464   0.285 -0.3871 -0.1405  0.4552
  806MPD2    C411870   4.654   3.418   0.261  0.2600 -0.0672 -0.2728
  806MPD2    C511871   4.706   3.321   0.346  0.4579  0.0995  0.7012
  806MPD2     H11872   4.348   3.426   0.411 -1.2003  0.3184 -2.2199
  806MPD2    H111873   4.720   3.456   0.183  0.7854 -2.1533 -0.8528
  806MPD2    H211874   4.690   3.193   0.509 -0.5987 -0.3919  0.0321
  806MPD2    H311875   0.084   3.288   0.323  0.6837  1.0783  0.2918
  806MPD2     N11876   4.468   3.566   0.208  0.7574  0.1232  0.0916
  806MPD2    H511877   4.368   3.576   0.221  0.9535  1.6402  0.4099
  806MPD2    N111878   4.440   3.259   0.581  0.5449 -0.2362  0.4200
  806MPD2    H711879   4.497   3.219   0.655  0.0670 -0.2447  0.7841
  807MPD2     C11880   3.788   3.354   1.173 -0.7521  0.6267 -0.4317
  807MPD2    C111881   3.851   3.234   1.184 -0.5302  0.3361 -0.4067
  807MPD2    C211882   3.815   3.147   1.289 -0.3540  0.2717 -0.2540
  807MPD2    C311883   3.705   3.172   1.370  0.0588  0.0147 -0.0888
  807MPD2    C411884   3.640   3.292   1.352 -0.0846 -0.0138  0.2319
  807MPD2    C511885   3.684   3.381   1.253  0.6036  0.5521  0.0842
  807MPD2     H11886   3.879   3.063   1.312 -1.4528 -0.1914  1.0961
  807MPD2    H111887   3.554   3.320   1.412 -0.8888 -1.2057 -0.3796
  807MPD2    H211888   3.832   3.421   1.099  0.2345  2.2690  1.6346
  807MPD2    H311889   3.640   3.480   1.257  1.4940  0.8161  3.3558
  807MPD2     N11890   3.663   3.075   1.459 -0.0679 -0.5280  0.2486
  807MPD2    H511891   3.712   2.987   1.455  1.0453  0.1668 -1.5398
  807MPD2    N111892   3.974   3.204   1.114 -0.0634  0.5601  0.0970
  807MPD2    H711893   4.017   3.120   1.151  3.1998  1.0393 -2.5994
  808MPD2     C11894   4.051   3.832   9.769  0.8881  0.0359  0.1533
  808MPD2    C111895   3.919   3.837   9.812 -0.0836  1.0487  0.9491
  808MPD2    C211896   3.865   3.969   9.818 -0.1861 -0.2522  0.9846
  808MPD2    C311897   3.938   4.084   9.786 -0.6228  0.1059  0.0553
  808MPD2    C411898   4.067   4.066   9.741  0.2875 -0.0978  0.8545
  808MPD2    C511899   4.122   3.940   9.727  0.2513  0.5600 -0.0138
  808MPD2     H11900   3.760   3.967   9.842 -0.4625  2.3731 -0.0146
  808MPD2    H111901   4.125   4.151   9.706 -1.0423  0.3890 -0.1848
  808MPD2    H211902   4.099   3.736   9.752  0.5399 -0.1933  0.4944
  808MPD2    H311903   4.224   3.933   9.690  0.5661 -0.4693  1.0601
  808MPD2     N11904   3.893   4.216   9.792 -0.1345  1.1336  0.1423
  808MPD2    H511905   3.967   4.285   9.780 -1.6607  2.4142 -1.8866
  808MPD2    N111906   3.842   3.719   9.854 -0.0854  0.1427  0.7602
  808MPD2    H711907   3.751   3.748   9.888 -2.6567 -1.3873 -4.6928
  809MPD2     C11908   4.171   0.380   9.583  0.8622 -0.4527  0.7566
  809MPD2    C111909   4.217   0.255   9.598 -0.4901 -0.2116  0.3165
  809MPD2    C211910   4.124   0.151   9.625 -0.1225  0.1911  0.3229
  809MPD2    C311911   3.991   0.173   9.628  0.2467 -0.0459 -0.0993
  809MPD2    C411912   3.954   0.301   9.586  0.1590  0.0664 -0.0986
  809MPD2    C511913   4.039   0.403   9.571 -1.0544 -0.6016  0.0804
  809MPD2     H11914   4.160   0.055   9.659 -0.5590 -1.2329 -3.2080
  809MPD2    H111915   3.847   0.319   9.583 -0.0142 -0.9249  0.0624
  809MPD2    H211916   4.240   0.463   9.588 -0.2978  0.5533  0.1762
  809MPD2    H311917   4.003   0.503   9.547  0.7112 -0.3610 -1.5157
  809MPD2     N11918   3.888   0.082   9.665 -0.0724  0.0513  0.0399
  809MPD2    H511919   3.794   0.117   9.682 -0.4123 -0.8955  0.1052
  809MPD2    N111920   4.356   0.219   9.584 -0.6408 -0.1995 -0.2714
  809MPD2    H711921   4.379   0.120   9.588  0.1998 -0.0866 -2.7298
  810MPD2     C11922   3.945   3.039   9.884  0.6845  0.3744  0.5266
  810MPD2    C111923   3.833   3.020   9.961  0.4034 -0.1086 -0.1962
  810MPD2    C211924   3.800   3.108  10.063 -0.1786  0.6655  0.4136
  810MPD2    C311925   3.879   3.214  10.100  0.0478  0.6691 -0.2002
  810MPD2    C411926   3.997   3.228  10.023  0.3849 -0.6904  0.0871
  810MPD2    C511927   4.027   3.142   9.922 -0.1580 -0.8734  0.0116
  810MPD2     H11928   3.705   3.089  10.111 -1.6553 -1.5888 -3.4213
  810MPD2    H111929   4.063   3.312  10.041 -0.4061 -0.1191  0.2949
  810MPD2    H211930   3.975   2.973   9.803  1.5624  0.2369  0.9638
  810MPD2    H311931   4.124   3.162   9.878 -0.9642  0.0696 -1.3004
  810MPD2     N11932   3.839   3.305  10.201 -0.2218 -0.3661  0.0202
  810MPD2    H511933   3.902   3.383  10.218 -1.8210  1.3860 -2.0386
  810MPD2    N111934   3.749   2.904   9.936  0.0414 -0.3175  0.2058
  810MPD2    H711935   3.759   2.862   9.844 -1.0837  0.2622 -0.1830
  811MPD2     C11936   2.928   2.890   9.723 -0.3699  0.7383 -0.3639
  811MPD2    C111937   3.030   2.951   9.798  0.4266 -0.9957  0.5740
  811MPD2    C211938   3.030   3.090   9.801  0.1248 -0.0846  0.0432
  811MPD2    C311939   2.942   3.166   9.724  0.5300  0.0272 -0.2235
  811MPD2    C411940   2.842   3.097   9.649  0.4237 -0.5960 -0.1560
  811MPD2    C511941   2.843   2.962   9.636 -0.1443 -0.2072  1.2798
  811MPD2     H11942   3.100   3.143   9.865  0.1440 -0.3817  0.2684
  811MPD2    H111943   2.762   3.149   9.598 -0.3910  0.7758  2.5460
  811MPD2    H211944   2.911   2.783   9.725  0.0694  0.6953  1.1917
  811MPD2    H311945   2.764   2.908   9.586 -0.6025  1.3328  0.3353
  811MPD2     N11946   2.950   3.302   9.733  0.0515  0.2762  0.0734
  811MPD2    H511947   3.024   3.343   9.790 -1.3786  1.9770  0.7244
  811MPD2    N111948   3.128   2.867   9.861  0.1749  0.1492 -0.2067
  811MPD2    H711949   3.113   2.766   9.863 -1.2760  0.4018  1.5803
  812MPD2     C11950   2.251   2.716  12.521 -0.2610  0.0848 -0.3271
  812MPD2    C111951   2.342   2.786  12.450  0.1405  0.6215 -0.4481
  812MPD2    C211952   2.470   2.739  12.425  0.2588 -0.4829  0.6874
  812MPD2    C311953   2.497   2.612  12.467  0.0028  0.0669  0.2521
  812MPD2    C411954   2.411   2.540  12.543  0.3526 -0.0075 -0.0751
  812MPD2    C511955   2.282   2.596  12.577 -0.0319  0.5748  0.0620
  812MPD2     H11956   2.543   2.794  12.367 -1.0088 -1.6307 -1.9828
  812MPD2    H111957   2.419   2.436  12.572 -1.0730  0.5685  2.3891
  812MPD2    H211958   2.147   2.745  12.529  0.4403  2.6587 -0.5980
  812MPD2    H311959   2.211   2.541  12.638  1.6797 -0.1122  1.4512
  812MPD2     N11960   2.634   2.576  12.449 -0.1267 -0.6756  0.3778
  812MPD2    H511961   2.695   2.623  12.383 -1.1673  2.3040  1.5877
  812MPD2    N111962   2.290   2.910  12.405  0.2292 -0.6253  0.2554
  812MPD2    H711963   2.209   2.941  12.457  0.7817 -0.9109  1.3050
  813MPD2     C11964   1.028   0.093  12.862 -0.8902  0.0422  0.1898
  813MPD2    C111965   1.088   0.217  12.892 -0.2215 -0.4033 -0.1900
  813MPD2    C211966   1.121   0.233  13.021  0.1464 -0.5579  0.0822
  813MPD2    C311967   1.097   0.144  13.128  0.3544 -0.7520  0.2802
  813MPD2    C411968   1.036   0.021  13.091  0.2731  0.0577 -0.6979
  813MPD2    C511969   1.008   4.716  12.958  0.7141  0.6161 -0.5453
  813MPD2     H11970   1.169   0.328  13.043 -1.1403  0.0641  0.2170
  813MPD2    H111971   1.007   4.662  13.157  0.4697  1.3917  1.0353
  813MPD2    H211972   1.013   0.063  12.759  0.3365 -0.8507  0.2655
  813MPD2    H311973   0.971   4.616  12.937 -1.3190  1.3202 -0.3700
  813MPD2     N11974   1.115   0.186  13.259 -0.1764  0.1949  0.0270
  813MPD2    H511975   1.137   0.285  13.273 -1.3744  0.3558  0.8504
  813MPD2    N111976   1.115   0.319  12.798 -0.4059  0.0207  0.4259
  813MPD2    H711977   1.182   0.389  12.827  0.6120 -1.6210  2.0764
  814MPD2     C11978   1.948   1.464  12.465 -0.2796 -0.8768  0.3815
  814MPD2    C111979   1.995   1.496  12.340  0.8580  0.3928  0.3632
  814MPD2    C211980   2.090   1.597  12.340 -0.0654  0.3192  0.1519
  814MPD2    C311981   2.136   1.653  12.464 -0.2381 -0.0588 -0.4648
  814MPD2    C411982   2.092   1.602  12.585  0.0379  0.1067 -0.3419
  814MPD2    C511983   1.998   1.507  12.582 -0.0182 -0.4862  0.5602
  814MPD2     H11984   2.133   1.636  12.248 -0.9471  0.6482 -0.1115
  814MPD2    H111985   2.140   1.632  12.678 -3.3414  1.2909  1.0206
  814MPD2    H211986   1.886   1.375  12.474  1.3635 -2.0020  0.6700
  814MPD2    H311987   1.975   1.450  12.672  1.2077 -1.8864 -0.0014
  814MPD2     N11988   2.227   1.762  12.467 -0.1096  0.1514 -0.3524
  814MPD2    H511989   2.265   1.790  12.557 -2.7173  3.5623 -0.3147
  814MPD2    N111990   1.940   1.448  12.220  0.1402 -0.4512 -0.2022
  814MPD2    H711991   1.973   1.488  12.133  0.6927 -1.8618 -0.6485
  815MPD2     C11992   2.140   4.590  11.784 -0.0734  0.1688  0.4263
  815MPD2    C111993   2.206   4.477  11.828 -0.4798 -0.2432  0.3978
  815MPD2    C211994   2.168   4.423  11.953  0.0683  0.2151 -0.1118
  815MPD2    C311995   2.044   4.462  12.012 -0.2050  0.4546 -0.2210
  815MPD2    C411996   1.978   4.565  11.957  0.3185 -0.4739 -0.6707
  815MPD2    C511997   2.027   4.630  11.849  0.7037 -0.1814  0.2241
  815MPD2     H11998   2.206   4.334  12.001  0.8781 -0.0107 -1.1789
  815MPD2    H111999   1.886   4.614  11.986  1.1403  1.3237 -1.1312
  815MPD2    H212000   2.169   4.643  11.694  0.7274 -1.7142 -0.4272
  815MPD2    H312001   1.986   0.002  11.813 -3.2847 -1.5033  1.3401
  815MPD2     N12002   2.000   4.381  12.120 -0.3484  0.7519 -0.7727
  815MPD2    H512003   2.050   4.298  12.149 -0.4676  1.7894  2.3714
  815MPD2    N112004   2.304   4.416  11.746  0.2274 -0.8283 -0.3443
  815MPD2    H712005   2.316   4.454  11.652  1.6933 -0.5290 -0.0421
  816MPD2     C12006   2.194   4.252  17.145  0.4842 -0.6823 -0.6504
  816MPD2    C112007   2.280   4.333  17.076  0.3006 -0.4981  0.4508
  816MPD2    C212008   2.409   4.294  17.032 -0.0390 -0.2926 -0.2440
  816MPD2    C312009   2.454   4.170  17.074  0.0024  0.3280 -0.5983
  816MPD2    C412010   2.364   4.086  17.141 -0.1297 -0.5072  0.2000
  816MPD2    C512011   2.232   4.123  17.171 -0.2176 -0.5234 -0.6482
  816MPD2     H12012   2.478   4.359  16.980  0.9327 -0.4498  0.8531
  816MPD2    H112013   2.393   3.988  17.177 -1.5362 -1.6654 -1.8654
  816MPD2    H212014   2.101   4.290  17.185  1.0294  0.5709 -0.5423
  816MPD2    H312015   2.157   4.057  17.212 -1.9275  0.7120 -1.7579
  816MPD2     N12016   2.584   4.134  17.038 -0.2404 -0.1827 -0.0397
  816MPD2    H512017   2.642   4.204  16.991  2.7125 -2.9099 -0.4431
  816MPD2    N112018   2.231   4.458  17.031 -0.6091  0.0896  0.7080
  816MPD2    H712019   2.143   4.495  17.066 -0.6225  1.9814 -1.3383
  817MPD2     C12020   2.358   0.546  10.570 -0.1824  0.2843 -0.1364
  817MPD2    C112021   2.350   0.529  10.432  0.9346 -0.3264 -0.1635
  817MPD2    C212022   2.429   0.606  10.352 -0.0665  0.2586  0.0623
  817MPD2    C312023   2.518   0.702  10.408 -0.7028 -0.8583  0.2008
  817MPD2    C412024   2.528   0.710  10.543  0.5827  0.1856 -0.2325
  817MPD2    C512025   2.449   0.633  10.619  0.3600 -0.6073  0.2000
  817MPD2     H12026   2.431   0.575  10.248  1.5149  0.0809  0.1478
  817MPD2    H112027   2.596   0.782  10.587 -0.0187  0.3633  0.3962
  817MPD2    H212028   2.301   0.485  10.638  0.1249  1.4462  1.1683
  817MPD2    H312029   2.469   0.638  10.725  2.0797  1.7397 -0.2377
  817MPD2     N12030   2.596   0.786  10.319  0.3544  0.6664 -0.5025
  817MPD2    H512031   2.655   0.857  10.362  0.4465  0.6389 -0.5858
  817MPD2    N112032   2.271   0.424  10.380 -0.3172  0.1696 -0.5818
  817MPD2    H712033   2.262   0.427  10.279  2.9290 -0.3860 -0.8953
  818MPD2     C12034   1.344   0.530  10.085  0.6662  0.0281 -0.7169
  818MPD2    C112035   1.275   0.450  10.174  0.1699  0.5812 -0.1070
  818MPD2    C212036   1.276   0.318  10.161  0.4816  1.1666 -0.0629
  818MPD2    C312037   1.329   0.256  10.049 -0.5683 -0.2642 -0.2404
  818MPD2    C412038   1.395   0.337   9.962 -0.2695  0.2268 -0.2560
  818MPD2    C512039   1.402   0.471   9.982 -0.0518  0.3123 -0.1008
  818MPD2     H12040   1.233   0.257  10.239 -0.7009  2.0737  0.0056
  818MPD2    H112041   1.437   0.299   9.870  0.3418  1.9667 -0.6926
  818MPD2    H212042   1.358   0.637  10.096  0.5392  0.1195 -1.4019
  818MPD2    H312043   1.449   0.534   9.907 -0.6579  2.2585  1.1463
  818MPD2     N12044   1.317   0.116  10.022 -0.4016  0.2450 -0.3784
  818MPD2    H512045   1.350   0.073   9.936 -1.2742  4.4905 -2.8472
  818MPD2    N112046   1.198   0.512  10.276 -0.2057 -0.0233  0.2066
  818MPD2    H712047   1.172   0.459  10.359  0.7881  0.0927  0.5845
  819MPD2     C12048   3.926   2.834  15.668 -0.3867  0.1734  0.1377
  819MPD2    C112049   3.980   2.706  15.665  0.4308  0.0470  0.1382
  819MPD2    C212050   4.113   2.687  15.701 -0.0888 -0.3675  0.7933
  819MPD2    C312051   4.187   2.790  15.751  0.4068 -0.3485  0.1097
  819MPD2    C412052   4.138   2.916  15.757  0.0163  0.4295 -0.4340
  819MPD2    C512053   4.012   2.937  15.710 -0.0261 -0.0464 -0.1023
  819MPD2     H12054   4.147   2.584  15.693  1.5791  0.2904 -0.6000
  819MPD2    H112055   4.197   3.004  15.779 -1.6883  1.1796  1.1237
  819MPD2    H212056   3.821   2.853  15.649 -0.4530 -0.7817 -0.4928
  819MPD2    H312057   3.979   3.039  15.696 -0.9649 -0.4264 -0.6318
  819MPD2     N12058   4.326   2.760  15.768 -0.8322 -0.5975  0.5573
  819MPD2    H512059   4.350   2.665  15.740 -0.1270  0.0309 -0.9658
  819MPD2    N112060   3.892   2.609  15.612  0.1779 -0.1516  0.3666
  819MPD2    H712061   3.815   2.641  15.554  0.9096  1.4111  0.2691
  820MPD2     C12062   3.278   2.570  14.909  0.5865 -0.3842 -0.2067
  820MPD2    C112063   3.373   2.650  14.969  0.0052 -0.2902 -0.8698
  820MPD2    C212064   3.480   2.592  15.041  0.4307 -0.0583 -0.3061
  820MPD2    C312065   3.487   2.451  15.056 -1.2045 -0.8583 -0.4595
  820MPD2    C412066   3.383   2.379  14.998  0.2867  0.1564  0.1508
  820MPD2    C512067   3.279   2.435  14.932  0.2910 -0.5788 -0.1481
  820MPD2     H12068   3.549   2.660  15.091  3.6937 -3.2709 -0.4393
  820MPD2    H112069   3.376   2.272  15.009 -1.5874  0.5456  2.7172
  820MPD2    H212070   3.196   2.612  14.851 -2.1351 -2.2106  2.2958
  820MPD2    H312071   3.203   2.374  14.884 -1.4924 -0.3439  2.4109
  820MPD2     N12072   3.575   2.383  15.146 -0.3104 -0.2141  0.1755
  820MPD2    H512073   3.550   2.291  15.181 -1.5721 -0.0856 -0.4152
  820MPD2    N112074   3.344   2.787  14.957 -0.2012  0.1769 -0.3963
  820MPD2    H712075   3.262   2.818  14.906  1.0576 -1.2557 -3.3026
  821MPD2     C12076   3.161   4.068  12.904 -0.5520 -0.1079 -0.2237
  821MPD2    C112077   3.274   4.079  12.984  0.5380  0.0987 -0.0189
  821MPD2    C212078   3.367   4.174  12.945 -0.1870  0.7172  0.8296
  821MPD2    C312079   3.347   4.257  12.839  0.0782  0.1477  0.1406
  821MPD2    C412080   3.232   4.247  12.766  0.0510 -0.4693 -0.5744
  821MPD2    C512081   3.144   4.143  12.796  0.5490  0.1997  0.4328
  821MPD2     H12082   3.451   4.180  13.014  0.3139  2.7172  0.0488
  821MPD2    H112083   3.224   4.303  12.674 -0.3493  2.0071  0.9772
  821MPD2    H212084   3.092   3.985  12.914  0.6496 -1.1626 -0.6738
  821MPD2    H312085   3.048   4.148  12.745  0.9086  3.1030  0.0323
  821MPD2     N12086   3.438   4.364  12.798 -0.5489  0.0103  0.2298
  821MPD2    H512087   3.408   4.417  12.717  0.5027 -0.1953 -0.2919
  821MPD2    N112088   3.298   4.010  13.108  0.2174  0.3303 -0.0361
  821MPD2    H712089   3.390   4.029  13.147  0.3426  0.6092 -0.4619
  822MPD2     C12090   4.586   3.903  15.833  0.0956 -0.5098  0.1029
  822MPD2    C112091   4.683   3.989  15.884 -1.0271 -0.5546 -0.2275
  822MPD2    C212092   4.643   4.113  15.936  0.4265  0.8414  0.2150
  822MPD2    C312093   4.511   4.151  15.938  0.3277  0.0333 -0.6636
  822MPD2    C412094   4.419   4.071  15.876  0.2725 -0.3350  0.0812
  822MPD2    C512095   4.458   3.947  15.829  0.0413  0.5299  0.0592
  822MPD2     H12096   4.719   4.173  15.985  1.8760 -0.6656 -0.2075
  822MPD2    H112097   4.315   4.101  15.879  1.2200  2.9457 -0.6402
  822MPD2    H212098   4.600   3.800  15.801 -2.7397 -0.5734 -0.9067
  822MPD2    H312099   4.382   3.880  15.791 -0.2189  1.2447 -0.6875
  822MPD2     N12100   4.470   4.270  16.003  0.2204 -0.4835  0.4835
  822MPD2    H512101   4.372   4.269  16.027 -0.2483  1.6170 -1.4192
  822MPD2    N112102   0.097   3.947  15.902  0.1345 -0.3212  0.3709
  822MPD2    H712103   0.161   4.003  15.957  0.7438 -0.7331  0.0892
  823MPD2     C12104   4.365   4.535  16.818  0.1930  0.2408  0.2976
  823MPD2    C112105   4.393   4.442  16.721  0.2244 -0.2402 -0.3245
  823MPD2    C212106   4.408   4.311  16.747  0.3198 -0.9670  0.4383
  823MPD2    C312107   4.391   4.267  16.876  0.1845  0.2596 -0.5470
  823MPD2    C412108   4.352   4.354  16.976 -0.1869 -0.3851 -0.1386
  823MPD2    C512109   4.342   4.486  16.941  0.2351  0.2729 -0.3615
  823MPD2     H12110   4.440   4.234  16.678 -0.1190  0.6459 -1.5439
  823MPD2    H112111   4.345   4.324  17.080  1.4231 -0.5698 -0.0903
  823MPD2    H212112   4.359   4.639  16.788 -0.6776 -0.1970 -1.0338
  823MPD2    H312113   4.327   4.551  17.026 -1.8816 -1.3976  0.5460
  823MPD2     N12114   4.416   4.136  16.921  0.1501  0.1484 -0.1199
  823MPD2    H512115   4.371   4.104  17.006  0.9012  0.0638  0.2477
  823MPD2    N112116   4.406   4.496  16.594  0.2636  0.0725 -0.0177
  823MPD2    H712117   4.381   4.595  16.585 -1.6095 -0.3609  0.2861
  824MPD2     C12118   0.568   3.169  16.124  0.9494  0.4969 -0.6528
  824MPD2    C112119   0.545   3.245  16.015  0.0370 -0.0853 -0.2768
  824MPD2    C212120   0.590   3.206  15.894  0.5636 -0.0584 -0.6477
  824MPD2    C312121   0.675   3.097  15.882 -0.2964 -0.8198  0.8232
  824MPD2    C412122   0.697   3.024  15.995 -0.1578 -0.1592  0.1080
  824MPD2    C512123   0.651   3.060  16.114 -0.1404  0.8206  0.0109
  824MPD2     H12124   0.584   3.274  15.810 -1.4775  0.9806  0.3376
  824MPD2    H112125   0.748   2.929  15.995  0.4813  0.1740  1.4612
  824MPD2    H212126   0.535   3.199  16.223  0.1694 -3.0336  0.1737
  824MPD2    H312127   0.669   3.001  16.203 -0.7899  1.0158  0.2759
  824MPD2     N12128   0.736   3.073  15.759  0.2420 -0.8426 -0.0244
  824MPD2    H512129   0.697   3.124  15.681 -0.7664 -0.1623  0.9203
  824MPD2    N112130   0.472   3.371  16.031 -0.5412  0.6363 -0.5776
  824MPD2    H712131   0.439   3.383  16.126 -1.2370  2.0878 -1.0076
  825MPD2     C12132   1.064   3.170  14.949 -0.0424 -0.2618 -0.3805
  825MPD2    C112133   1.021   3.224  15.068 -0.2759  0.2354  0.0945
  825MPD2    C212134   1.011   3.363  15.078 -0.0376  1.2098 -0.6345
  825MPD2    C312135   1.021   3.447  14.969  0.1203  0.0497  0.0078
  825MPD2    C412136   1.054   3.391  14.846 -0.0798 -0.0778 -0.5232
  825MPD2    C512137   1.083   3.253  14.845 -0.1266  0.8797  0.0056
  825MPD2     H12138   0.976   3.398  15.175 -0.4489 -0.3843 -0.2010
  825MPD2    H112139   1.065   3.449  14.755 -0.6672 -0.6309 -0.9449
  825MPD2    H212140   1.092   3.066  14.939  0.2895 -0.2687  0.5528
  825MPD2    H312141   1.123   3.213  14.753  0.4423 -1.5156  1.2729
  825MPD2     N12142   1.017   3.589  14.976  0.2363  0.2691 -0.3856
  825MPD2    H512143   1.021   3.639  14.887  0.1762  1.0738  0.0695
  825MPD2    N112144   1.002   3.137  15.178 -0.8954  0.2340 -0.1447
  825MPD2    H712145   1.022   3.039  15.163 -1.2297  0.0450  0.6603
  826MPD2     C12146   0.847   3.029  13.734 -0.0890 -0.2686 -0.4101
  826MPD2    C112147   0.793   3.058  13.613  0.1368  0.1116  0.2696
  826MPD2    C212148   0.711   3.167  13.594  0.3682  0.3440  0.0665
  826MPD2    C312149   0.669   3.235  13.704  0.0662  0.0940 -0.7794
  826MPD2    C412150   0.709   3.197  13.826  0.9645  0.4340 -0.5631
  826MPD2    C512151   0.796   3.096  13.839  0.5545  0.1204  0.2189
  826MPD2     H12152   0.667   3.195  13.499  1.0337 -0.9082 -0.6060
  826MPD2    H112153   0.672   3.255  13.910  1.0078 -0.9000  0.3749
  826MPD2    H212154   0.930   2.962  13.751 -0.0866  0.0920  1.0120
  826MPD2    H312155   0.830   3.067  13.938  2.9315  0.1442 -0.5797
  826MPD2     N12156   0.593   3.358  13.708  0.2538 -0.0026  0.1511
  826MPD2    H512157   0.582   3.409  13.796 -3.1095  2.6712 -1.8174
  826MPD2    N112158   0.824   2.970  13.501 -0.0260  0.3715  0.5302
  826MPD2    H712159   0.893   2.897  13.512 -2.1839 -1.7588 -0.0931
  827MPD2     C12160   1.388   4.155   9.988 -0.0299 -1.0238 -0.1051
  827MPD2    C112161   1.310   4.055  10.036  0.5891  0.6444 -0.2115
  827MPD2    C212162   1.193   4.020   9.964  0.3897 -0.0307 -0.1121
  827MPD2    C312163   1.163   4.081   9.846 -0.0551 -0.1571 -0.0731
  827MPD2    C412164   1.241   4.179   9.797 -0.7352  0.1420 -0.2568
  827MPD2    C512165   1.347   4.222   9.874 -0.6918  0.4526 -0.7145
  827MPD2     H12166   1.129   3.940   9.999  0.3952  0.7774  1.7250
  827MPD2    H112167   1.215   4.230   9.704  0.1015  0.6022 -0.2428
  827MPD2    H212168   1.475   4.195  10.039  0.1353 -0.4735 -0.8100
  827MPD2    H312169   1.404   4.308   9.840  1.8610 -0.4674  1.2701
  827MPD2     N12170   1.056   4.023   9.778 -0.2974 -0.4260 -0.0086
  827MPD2    H512171   1.007   3.947   9.823  0.9501 -1.7210 -0.8369
  827MPD2    N112172   1.351   3.987  10.157  0.2154 -0.5770  0.3017
  827MPD2    H712173   1.445   4.001  10.193 -0.5543  1.0273  1.7149
  828MPD2     C12174   4.437   4.220  12.785 -0.1469  0.6519 -0.6357
  828MPD2    C112175   4.453   4.251  12.648  0.1181  0.2380  0.3252
  828MPD2    C212176   4.575   4.233  12.585 -0.1408 -0.0826 -0.0781
  828MPD2    C312177   4.681   4.199  12.663  0.4386  0.3391  0.0171
  828MPD2    C412178   4.661   4.168  12.797 -0.4287  0.3905 -0.3059
  828MPD2    C512179   4.542   4.181  12.862  0.1369 -0.2686 -0.6678
  828MPD2     H12180   4.582   4.253  12.479 -2.6660 -1.0598 -0.4339
  828MPD2    H112181   0.021   4.139  12.861 -0.1868 -2.3233 -1.8449
  828MPD2    H212182   4.342   4.233  12.836 -0.5315 -0.7760 -0.9877
  828MPD2    H312183   4.542   4.161  12.968  0.8858  0.4439 -0.5272
  828MPD2     N12184   0.088   4.167  12.614 -0.3439 -0.5334  0.7708
  828MPD2    H512185   0.153   4.130  12.682 -0.4922  1.2635  1.8788
  828MPD2    N112186   4.346   4.294  12.563  0.0855 -0.1473  0.1785
  828MPD2    H712187   4.375   4.339  12.477  4.3748  0.3552  1.8435
  829MPD2     C12188   4.403   4.287  11.712 -0.4724  0.9752 -0.2139
  829MPD2    C112189   4.278   4.343  11.730  0.0414  0.2429 -0.0383
  829MPD2    C212190   4.227   4.359  11.860 -0.4612 -0.3996 -0.5957
  829MPD2    C312191   4.290   4.306  11.970 -0.3491 -0.5867 -0.3664
  829MPD2    C412192   4.410   4.248  11.954  0.3849 -0.4627 -0.8410
  829MPD2    C512193   4.464   4.248  11.825 -0.3945 -0.4060 -0.5065
  829MPD2     H12194   4.129   4.404  11.871 -0.2911 -0.0835 -0.3732
  829MPD2    H112195   4.478   4.208  12.029  0.9275  0.2518 -0.9426
  829MPD2    H212196   4.452   4.280  11.616 -1.5603 -1.1463 -0.6117
  829MPD2    H312197   4.560   4.198  11.816 -0.3422 -0.2032 -1.0311
  829MPD2     N12198   4.232   4.302  12.102  0.6356  0.2933 -0.0057
  829MPD2    H512199   4.285   4.266  12.181 -1.7053  0.2245  1.5302
  829MPD2    N112200   4.207   4.373  11.617 -0.0797  0.2089  0.5725
  829MPD2    H712201   4.260   4.346  11.535  1.2271 -0.2546  1.5757
  830MPD2     C12202   0.354   2.430  15.491 -0.2174  0.7576 -0.7090
  830MPD2    C112203   0.250   2.515  15.465  0.4404  0.9952  0.3099
  830MPD2    C212204   0.267   2.608  15.368 -0.1064  0.0473 -0.4374
  830MPD2    C312205   0.395   2.638  15.321  0.4907  0.7334 -0.7049
  830MPD2    C412206   0.499   2.552  15.354  0.1041 -0.0956 -0.2450
  830MPD2    C512207   0.476   2.449  15.434  0.3345 -0.2411 -1.0421
  830MPD2     H12208   0.181   2.665  15.335 -0.4227  1.0592  2.1275
  830MPD2    H112209   0.598   2.555  15.310  0.6500 -0.9113  0.9354
  830MPD2    H212210   0.339   2.348  15.560  1.1365  1.6458  0.6638
  830MPD2    H312211   0.552   2.378  15.465 -0.5499 -1.0937 -0.8546
  830MPD2     N12212   0.419   2.749  15.240 -0.1183  0.0845 -0.2792
  830MPD2    H512213   0.350   2.815  15.205 -0.3797 -0.8322 -1.4749
  830MPD2    N112214   0.142   2.509  15.552  0.3390 -0.0499 -0.1372
  830MPD2    H712215   0.137   2.436  15.622  0.8081  1.8488  1.8683
  831MPD2     C12216   0.154   4.436  16.383  0.0336  0.2999 -0.5050
  831MPD2    C112217   0.147   4.335  16.288 -0.1780 -0.1368  0.0517
  831MPD2    C212218   0.074   4.220  16.322  0.0886  0.0363  0.2998
  831MPD2    C312219   0.002   4.204  16.441 -0.0865 -0.3007  0.6337
  831MPD2    C412220   0.003   4.306  16.525 -0.1614 -0.3668 -0.2616
  831MPD2    C512221   0.076   4.430  16.500 -0.6119  0.4051  0.3831
  831MPD2     H12222   0.061   4.144  16.245  1.8511  1.2118 -1.1733
  831MPD2    H112223   4.660   4.306  16.613 -1.5227 -1.1563 -1.2687
  831MPD2    H212224   0.214   4.522  16.354  1.1656  0.0961  1.2718
  831MPD2    H312225   0.068   4.513  16.569  2.1399  1.9306 -1.1422
  831MPD2     N12226   4.642   4.095  16.481 -0.7251  0.8573 -0.3719
  831MPD2    H512227   4.586   4.096  16.565 -0.4615  0.8898 -0.1994
  831MPD2    N112228   0.214   4.358  16.158  0.0500 -0.9230 -0.2916
  831MPD2    H712229   0.249   4.452  16.139 -1.3992 -0.3394 -0.0978
  832MPD2     C12230   3.125   0.631  16.715  0.3682  0.1752  0.0392
  832MPD2    C112231   3.012   0.685  16.767  0.0599 -0.3884  0.5444
  832MPD2    C212232   2.902   0.723  16.696  0.6339  0.1099 -0.6337
  832MPD2    C312233   2.907   0.704  16.556 -0.6015 -0.2202  0.0682
  832MPD2    C412234   3.016   0.639  16.503 -0.0654  0.1787 -0.1812
  832MPD2    C512235   3.121   0.607  16.581  0.2913 -0.2871 -0.3507
  832MPD2     H12236   2.818   0.771  16.744  0.4991 -0.2006 -0.5591
  832MPD2    H112237   3.036   0.628  16.397  0.7506 -0.2664  0.0222
  832MPD2    H212238   3.216   0.603  16.767  1.4854  1.1626 -1.3663
  832MPD2    H312239   3.205   0.559  16.532  1.8292  2.2066 -0.1726
  832MPD2     N12240   2.799   0.737  16.463  0.2621  0.3245  0.2593
  832MPD2    H512241   2.809   0.695  16.371 -2.6205  0.7691 -0.2349
  832MPD2    N112242   3.023   0.698  16.910 -0.8892  0.0033  0.8665
  832MPD2    H712243   3.101   0.650  16.953 -2.3732 -1.3780  2.0189
  833MPD2     C12244   0.408   2.051  12.850 -0.4685  0.3755 -0.2170
  833MPD2    C112245   0.519   2.132  12.831 -1.6924  0.6630  0.3922
  833MPD2    C212246   0.637   2.074  12.799 -0.1110 -0.7202  0.3864
  833MPD2    C312247   0.642   1.939  12.757 -0.0472  0.6781 -0.0088
  833MPD2    C412248   0.538   1.856  12.778 -0.5402 -0.0150  0.7013
  833MPD2    C512249   0.422   1.916  12.821  0.3369  0.2230  0.0085
  833MPD2     H12250   0.719   2.139  12.774  0.8681 -1.9813  0.3128
  833MPD2    H112251   0.534   1.752  12.746 -1.4447  0.3893 -0.4875
  833MPD2    H212252   0.309   2.092  12.870 -0.8438 -1.0671  0.8172
  833MPD2    H312253   0.333   1.855  12.827  2.7302 -3.1299  1.4986
  833MPD2     N12254   0.746   1.882  12.682  0.0911 -0.0217  0.3722
  833MPD2    H512255   0.734   1.791  12.640 -0.6660 -0.6223  1.9042
  833MPD2    N112256   0.497   2.270  12.842 -0.0151 -0.0692 -0.5667
  833MPD2    H712257   0.401   2.303  12.853 -0.5175 -1.0048 -2.1550
  834MPD2     C12258   0.524   1.264  12.065 -0.5543 -0.0955 -0.5166
  834MPD2    C112259   0.618   1.314  11.979  0.3359  0.6523  0.6096
  834MPD2    C212260   0.714   1.404  12.030 -0.4424 -0.0418 -0.0090
  834MPD2    C312261   0.717   1.441  12.168  0.2484 -0.1455 -0.3869
  834MPD2    C412262   0.618   1.387  12.253 -0.3091 -0.2328 -0.5275
  834MPD2    C512263   0.515   1.308  12.194 -0.1637  0.2682 -0.9111
  834MPD2     H12264   0.780   1.455  11.960  0.6095 -1.1581  0.1742
  834MPD2    H112265   0.609   1.419  12.356 -1.0713 -0.5018 -0.5102
  834MPD2    H212266   0.451   1.190  12.033 -1.0862  2.0777 -4.3774
  834MPD2    H312267   0.435   1.272  12.258  1.0924 -0.4843  0.2221
  834MPD2     N12268   0.813   1.545  12.207  0.3359 -0.1375  0.3678
  834MPD2    H512269   0.873   1.595  12.142 -1.3071 -0.2296 -1.2383
  834MPD2    N112270   0.623   1.261  11.845  0.2696 -0.3240 -0.1189
  834MPD2    H712271   0.540   1.207  11.823  0.9892 -2.4197  2.1986
  835MPD2     C12272   0.865   4.141  11.287 -0.5212  0.9715  0.1417
  835MPD2    C112273   0.735   4.094  11.261 -0.0855  0.4529 -0.0916
  835MPD2    C212274   0.630   4.128  11.344  0.8067 -0.0673 -0.5212
  835MPD2    C312275   0.654   4.202  11.460  0.4415 -0.8507  0.5039
  835MPD2    C412276   0.785   4.245  11.483 -0.1502 -0.0299  0.6536
  835MPD2    C512277   0.891   4.215  11.397  0.2991  0.0805 -0.2334
  835MPD2     H12278   0.529   4.096  11.324  0.7151 -1.2665  1.8857
  835MPD2    H112279   0.813   4.305  11.569 -0.8175 -0.2532  1.0249
  835MPD2    H212280   0.951   4.107  11.231 -2.3982  0.7905 -2.6616
  835MPD2    H312281   0.989   4.250  11.428 -0.2193  0.6740  0.7607
  835MPD2     N12282   0.555   4.229  11.555 -0.0913 -0.3499  0.2944
  835MPD2    H512283   0.585   4.279  11.638 -0.1517 -1.1352  0.7889
  835MPD2    N112284   0.705   4.020  11.143 -0.0661  0.6386 -0.1104
  835MPD2    H712285   0.613   3.982  11.122 -1.0764  1.8170  2.1374
  836MPD2     C12286   4.596   4.513  11.322 -0.1232 -0.7403 -0.5299
  836MPD2    C112287   4.596   4.516  11.460 -0.9244 -0.2438  0.0601
  836MPD2    C212288   4.486   4.572  11.525  0.0374  0.1477  0.1718
  836MPD2    C312289   4.389   4.633  11.452 -0.0878  0.3791  0.6724
  836MPD2    C412290   4.390   4.623  11.319 -0.7560 -0.3696  0.4098
  836MPD2    C512291   4.488   4.565  11.256  0.0822 -0.1048 -0.0418
  836MPD2     H12292   4.467   4.557  11.630 -2.2686  2.9794  0.1765
  836MPD2    H112293   4.317   4.669  11.254 -0.2718 -0.6579 -0.3290
  836MPD2    H212294   4.681   4.475  11.267  0.8384  0.0508  0.4081
  836MPD2    H312295   4.482   4.566  11.148  1.2669 -0.9843 -0.1213
  836MPD2     N12296   4.275   4.691  11.514 -0.3043  0.3568  0.5425
  836MPD2    H512297   4.193   4.710  11.457  0.4377  2.6791  0.2340
  836MPD2    N112298   4.705   4.443  11.522 -0.2627 -0.0508 -0.2170
  836MPD2    H712299   0.045   4.407  11.451  0.8767  1.7515 -0.1253
  837MPD2     C12300   2.926   3.931  10.180 -0.0471 -1.0347 -0.4687
  837MPD2    C112301   2.844   3.946  10.069 -0.0552  0.3603  0.4472
  837MPD2    C212302   2.751   4.041  10.054  0.0408 -0.2397 -0.4669
  837MPD2    C312303   2.745   4.150  10.137 -0.3822 -0.2206  0.2027
  837MPD2    C412304   2.837   4.148  10.235 -0.4078 -0.6038  0.6313
  837MPD2    C512305   2.918   4.039  10.263  0.5576  0.7484  0.1567
  837MPD2     H12306   2.681   4.038   9.972  0.8421  0.5392 -1.1853
  837MPD2    H112307   2.849   4.228  10.307 -0.6604 -0.2454  0.2729
  837MPD2    H212308   2.991   3.847  10.200  3.5361  1.9780  0.6526
  837MPD2    H312309   2.972   4.038  10.357  0.7656 -1.6868  0.0083
  837MPD2     N12310   2.649   4.255  10.106 -0.8641 -0.0430  0.3180
  837MPD2    H512311   2.587   4.221  10.034  0.1569  1.7137 -1.3733
  837MPD2    N112312   2.859   3.845   9.973 -0.4981 -0.0777  0.2390
  837MPD2    H712313   2.783   3.836   9.906  1.5168  0.7802 -2.1776
  838MPD2     C12314   1.566   2.426  11.440 -0.8358  0.1284 -0.4016
  838MPD2    C112315   1.578   2.311  11.517 -0.0570  0.1664 -0.9665
  838MPD2    C212316   1.478   2.270  11.608 -0.7706 -1.2353 -0.3595
  838MPD2    C312317   1.372   2.356  11.620 -0.2202  0.7153  0.4306
  838MPD2    C412318   1.356   2.468  11.544  0.5208  0.0532 -0.5144
  838MPD2    C512319   1.455   2.507  11.455 -0.4025  0.1093  0.5498
  838MPD2     H12320   1.495   2.189  11.677 -1.1715  0.5310  1.8222
  838MPD2    H112321   1.273   2.538  11.553  0.6415  0.0584  0.5274
  838MPD2    H212322   1.649   2.459  11.380  0.5611 -1.2316  0.7936
  838MPD2    H312323   1.455   2.607  11.411 -0.2734 -0.0770  0.1256
  838MPD2     N12324   1.286   2.328  11.730  0.4595  0.5593  0.2351
  838MPD2    H512325   1.305   2.242  11.781 -1.5699 -0.5185 -0.7994
  838MPD2    N112326   1.686   2.225  11.521 -0.4886  0.1372 -0.3365
  838MPD2    H712327   1.689   2.155  11.594  0.0835 -1.2735 -1.7128
  839MPD2     C12328   1.495   1.584  11.782 -0.1827  0.8146  0.2443
  839MPD2    C112329   1.507   1.535  11.645  0.3291  0.3799  0.0365
  839MPD2    C212330   1.609   1.585  11.572  0.1236  0.2207 -0.1503
  839MPD2    C312331   1.693   1.681  11.621 -0.5858  0.1141 -0.2484
  839MPD2    C412332   1.698   1.716  11.754  0.0463  0.1554  0.0604
  839MPD2    C512333   1.598   1.666  11.832  0.5606 -0.2499  0.4063
  839MPD2     H12334   1.618   1.549  11.470 -1.6946 -2.6672  0.6956
  839MPD2    H112335   1.770   1.785  11.797 -0.6399  1.5511 -1.0080
  839MPD2    H212336   1.417   1.553  11.851  0.6800  1.6213  1.5678
  839MPD2    H312337   1.599   1.678  11.939 -0.7632  2.0119  0.1578
  839MPD2     N12338   1.771   1.758  11.533  0.7484  0.1618 -0.1093
  839MPD2    H512339   1.818   1.837  11.577  1.2076  1.0610 -2.1960
  839MPD2    N112340   1.421   1.433  11.596  0.3339  0.6260  0.3297
  839MPD2    H712341   1.448   1.393  11.507  2.2434 -1.3870  1.8150
  840MPD2     C12342   1.797   4.235  10.410 -0.9772 -0.2145 -0.0528
  840MPD2    C112343   1.757   4.167  10.522  0.3002 -0.1721 -0.2024
  840MPD2    C212344   1.787   4.218  10.644  0.0872 -0.1657 -0.7849
  840MPD2    C312345   1.884   4.320  10.657 -0.2784  0.3677 -0.5274
  840MPD2    C412346   1.922   4.393  10.545  0.4334  0.1061 -0.6094
  840MPD2    C512347   1.880   4.344  10.429  0.8549 -0.7471 -0.3554
  840MPD2     H12348   1.744   4.172  10.732 -1.5026  1.1565 -0.8659
  840MPD2    H112349   1.988   4.479  10.543 -0.4087  0.7082 -2.3233
  840MPD2    H212350   1.769   4.202  10.311 -1.7134 -1.4703  0.5734
  840MPD2    H312351   1.902   4.404  10.342  1.2589 -0.7766 -0.2742
  840MPD2     N12352   1.925   4.373  10.782 -0.1213  0.5011  0.0379
  840MPD2    H512353   1.988   4.453  10.779  0.0503  0.4344  1.8650
  840MPD2    N112354   1.675   4.054  10.499 -0.6574  0.4762 -0.1020
  840MPD2    H712355   1.650   4.025  10.405 -2.8601  0.4177  0.4904
  841MPD2     C12356   1.189   4.022  14.754  0.2198 -0.3265  0.0585
  841MPD2    C112357   1.273   3.959  14.669  0.0234 -0.5674  0.6498
  841MPD2    C212358   1.336   4.042  14.567 -0.5099  0.2747  0.3279
  841MPD2    C312359   1.325   4.181  14.566  0.1079  0.6096 -0.4814
  841MPD2    C412360   1.232   4.238  14.659 -0.5232 -1.1583  0.3302
  841MPD2    C512361   1.163   4.154  14.744 -0.2698  0.8209  0.7142
  841MPD2     H12362   1.390   3.981  14.495  0.9556 -0.0502  1.7008
  841MPD2    H112363   1.213   4.345  14.656 -0.3521 -1.1686 -1.5230
  841MPD2    H212364   1.133   3.973  14.833 -1.4882  0.9179 -0.3559
  841MPD2    H312365   1.076   4.191  14.796 -0.2489  0.0253  1.3133
  841MPD2     N12366   1.385   4.261  14.466  0.1268  0.2540 -0.3126
  841MPD2    H512367   1.444   4.207  14.403  1.6594  2.0346 -0.4194
  841MPD2    N112368   1.305   3.821  14.671  0.2732 -0.3510  0.9165
  841MPD2    H712369   1.355   3.788  14.590  0.3912 -0.2904  0.9649
  842MPD2     C12370   2.712   1.528  16.735 -0.3442  0.2781 -0.4984
  842MPD2    C112371   2.626   1.418  16.732  0.1203  0.4442  0.2528
  842MPD2    C212372   2.558   1.388  16.856 -0.8125 -0.1993  0.0038
  842MPD2    C312373   2.573   1.456  16.976 -0.5905 -0.2541  0.2876
  842MPD2    C412374   2.655   1.564  16.975 -0.1680  0.4137  0.5609
  842MPD2    C512375   2.728   1.592  16.859 -0.0509  0.0844 -0.2259
  842MPD2     H12376   2.471   1.327  16.837 -1.6809  1.8563 -2.6846
  842MPD2    H112377   2.670   1.626  17.062 -1.0251 -1.8775  2.3646
  842MPD2    H212378   2.766   1.577  16.655  1.4495 -1.0037 -0.0934
  842MPD2    H312379   2.780   1.688  16.863 -0.0510  0.1397 -1.7167
  842MPD2     N12380   2.486   1.439  17.089  0.2161  0.2805 -0.3867
  842MPD2    H512381   2.487   1.506  17.165  0.3230  0.0994 -0.2316
  842MPD2    N112382   2.597   1.362  16.607 -0.2098  0.1227  0.4093
  842MPD2    H712383   2.611   1.421  16.526  1.1250  0.1837  0.6770
  843MPD2     C12384   3.930   1.851  17.214  0.5407  0.0308 -0.0288
  843MPD2    C112385   3.874   1.816  17.333 -0.2551 -1.2150  0.3537
  843MPD2    C212386   3.951   1.843  17.450  0.0148 -0.1569 -0.3388
  843MPD2    C312387   4.054   1.937  17.441 -0.2264  0.2184 -1.3479
  843MPD2    C412388   4.092   1.982  17.317  0.2762 -0.4623 -0.6530
  843MPD2    C512389   4.032   1.933  17.209 -0.9236  0.1067  0.8158
  843MPD2     H12390   3.927   1.813  17.551  0.6454  0.3584 -0.0439
  843MPD2    H112391   4.166   2.059  17.300  0.8991 -1.0578 -0.6123
  843MPD2    H212392   3.876   1.808  17.130 -0.7526  1.6755 -0.0423
  843MPD2    H312393   4.071   1.970  17.115 -1.1555 -1.5054  0.0826
  843MPD2     N12394   4.123   1.988  17.561 -0.6508 -0.6074 -0.6419
  843MPD2    H512395   4.192   2.060  17.543 -1.1759  0.1167  0.2663
  843MPD2    N112396   3.758   1.729  17.350  0.0822 -0.6245  0.0084
  843MPD2    H712397   3.707   1.695  17.269  2.2601 -2.5942 -0.5235
  844MPD2     C12398   2.795   0.321  16.617 -0.1751  0.5382 -0.4384
  844MPD2    C112399   2.889   0.229  16.585 -0.2114  0.0531  0.1972
  844MPD2    C212400   2.997   0.204  16.667  0.5876  0.2228  0.2228
  844MPD2    C312401   3.013   0.275  16.780  0.3445 -0.6902  0.8154
  844MPD2    C412402   2.918   0.361  16.831  0.1450  0.2809  0.2434
  844MPD2    C512403   2.819   0.384  16.741  0.2995  0.4727 -0.4081
  844MPD2     H12404   3.063   0.123  16.636  0.7355  0.4590 -0.0768
  844MPD2    H112405   2.924   0.425  16.918 -2.1776 -0.3793  0.8974
  844MPD2    H212406   2.702   0.340  16.565  0.5613 -2.3473 -2.8187
  844MPD2    H312407   2.750   0.461  16.774 -0.1150 -0.7902  1.6425
  844MPD2     N12408   3.126   0.248  16.860  0.5399 -0.1676 -0.2194
  844MPD2    H512409   3.179   0.164  16.838  1.8520  0.5369  0.2713
  844MPD2    N112410   2.884   0.159  16.465 -0.4122  0.3174  0.2858
  844MPD2    H712411   2.944   0.078  16.460 -1.8912 -0.9334  2.5530
  845MPD2     C12412   3.409   0.994  17.341 -0.6327  0.0217 -0.1373
  845MPD2    C112413   3.327   0.953  17.235  0.9038 -0.4622 -0.2129
  845MPD2    C212414   3.324   0.818  17.201  0.4990 -0.1139  0.6710
  845MPD2    C312415   3.395   0.724  17.277  0.3067 -0.3699 -0.1782
  845MPD2    C412416   3.470   0.766  17.384  0.0146 -0.7995  0.5422
  845MPD2    C512417   3.477   0.900  17.409 -0.2886 -1.1082 -0.0330
  845MPD2     H12418   3.264   0.784  17.117 -1.6534 -1.9193  2.9393
  845MPD2    H112419   3.521   0.699  17.452 -0.0784 -0.7274  0.6846
  845MPD2    H212420   3.426   1.098  17.365  0.4772 -0.0681 -0.5314
  845MPD2    H312421   3.542   0.923  17.494  0.0705 -1.4547 -0.2139
  845MPD2     N12422   3.393   0.590  17.231  0.4552  0.2673 -0.5076
  845MPD2    H512423   3.330   0.565  17.156 -0.8580 -1.0292  1.0215
  845MPD2    N112424   3.258   1.054  17.168  0.4228 -0.0035 -0.1144
  845MPD2    H712425   3.243   1.142  17.216 -2.1878  0.8063 -2.3899
  846MPD2     C12426   4.605   1.450  13.606  0.1287 -0.2247 -0.4669
  846MPD2    C112427   4.592   1.589  13.612  0.1722  0.5441 -0.3311
  846MPD2    C212428   4.574   1.656  13.734 -0.0994 -0.0466  0.1293
  846MPD2    C312429   4.552   1.579  13.853  0.1321 -0.3847 -0.4630
  846MPD2    C412430   4.570   1.441  13.840 -0.3665 -0.2658  0.0977
  846MPD2    C512431   4.591   1.377  13.720 -0.0013  0.2551 -0.5438
  846MPD2     H12432   4.564   1.763  13.724 -2.0394 -0.2881 -0.4811
  846MPD2    H112433   4.580   1.372  13.924 -0.6447  0.0648  0.4036
  846MPD2    H212434   4.635   1.396  13.516  0.8723 -2.2499  1.0013
  846MPD2    H312435   4.617   1.271  13.728 -0.3177  0.2851  0.9348
  846MPD2     N12436   4.529   1.641  13.978 -0.3891 -0.2809  0.3482
  846MPD2    H512437   4.488   1.734  13.978 -0.4042 -0.2852 -0.0036
  846MPD2    N112438   4.619   1.666  13.500  0.3343 -0.6677 -0.6225
  846MPD2    H712439   4.644   1.763  13.519 -0.2160 -0.5407 -0.5564
  847MPD2     C12440   0.095   2.854  14.344 -0.5322 -0.1838 -0.6951
  847MPD2    C112441   0.235   2.832  14.358 -0.5601  0.1502  0.1471
  847MPD2    C212442   0.273   2.710  14.412 -0.2912  0.4294 -0.1619
  847MPD2    C312443   0.184   2.617  14.455 -0.6341 -0.8671  0.6238
  847MPD2    C412444   0.050   2.637  14.441  0.1470  0.1713 -0.6736
  847MPD2    C512445   0.007   2.751  14.382  0.3098 -0.0926 -0.5199
  847MPD2     H12446   0.380   2.692  14.416  0.1266  3.1045  0.8988
  847MPD2    H112447   4.704   2.559  14.473 -1.8472  1.5421 -1.5819
  847MPD2    H212448   0.051   2.934  14.287 -0.2875 -0.5842 -1.4413
  847MPD2    H312449   4.622   2.767  14.375  0.2826 -0.0986 -0.0628
  847MPD2     N12450   0.231   2.507  14.527  0.7222  0.0511 -0.6887
  847MPD2    H512451   0.163   2.440  14.562  1.8776 -1.0917 -0.6202
  847MPD2    N112452   0.336   2.924  14.312  0.7242  0.4167  0.1824
  847MPD2    H712453   0.426   2.891  14.345  1.4952  3.5002  1.1271
  848MPD2     C12454   2.676   0.913  15.768 -0.4240  0.1620 -0.4774
  848MPD2    C112455   2.711   0.968  15.892  0.0978 -0.2548 -0.3212
  848MPD2    C212456   2.803   1.073  15.889 -0.9486 -0.1509  0.2840
  848MPD2    C312457   2.862   1.122  15.767 -0.2083  0.8688  0.2417
  848MPD2    C412458   2.824   1.062  15.653  0.0062  0.6904 -0.3900
  848MPD2    C512459   2.734   0.958  15.655  0.4649 -0.0107 -0.0800
  848MPD2     H12460   2.832   1.116  15.984  1.2308  0.1625 -0.5311
  848MPD2    H112461   2.867   1.084  15.555  1.9077  0.1602  0.3227
  848MPD2    H212462   2.597   0.840  15.752  0.3626 -0.9041  0.5201
  848MPD2    H312463   2.701   0.917  15.560  1.2636 -0.9721  0.0571
  848MPD2     N12464   2.951   1.235  15.764 -0.7514 -0.3177  0.6551
  848MPD2    H512465   2.959   1.289  15.678  0.8949 -2.8385 -0.7790
  848MPD2    N112466   2.655   0.925  16.016  1.1520  0.6626 -0.5762
  848MPD2    H712467   2.697   0.952  16.104 -0.6805  3.2199 -0.4817
  849MPD2     C12468   1.360   0.408  14.131  0.0129 -0.1011 -0.3013
  849MPD2    C112469   1.479   0.411  14.068  0.0941  0.8954  0.1235
  849MPD2    C212470   1.590   0.368  14.132 -0.0780 -0.5792 -0.0833
  849MPD2    C312471   1.590   0.326  14.264  0.3773 -0.4664 -0.4589
  849MPD2    C412472   1.473   0.325  14.333  0.4981 -0.1744 -0.6082
  849MPD2    C512473   1.356   0.360  14.265 -0.4545 -0.4953 -0.0627
  849MPD2     H12474   1.686   0.378  14.081  1.1365 -1.8177  1.9531
  849MPD2    H112475   1.465   0.306  14.440  2.8415  2.2489  0.0178
  849MPD2    H212476   1.277   0.456  14.081  0.3509 -0.0100 -0.7754
  849MPD2    H312477   1.264   0.367  14.321 -1.6157  1.0239 -2.1492
  849MPD2     N12478   1.719   0.281  14.313 -0.0699  0.1700  0.2501
  849MPD2    H512479   1.794   0.279  14.244  3.4293 -0.3414  4.1195
  849MPD2    N112480   1.476   0.451  13.932  0.5413 -0.1857 -0.4819
  849MPD2    H712481   1.390   0.466  13.880 -0.9443 -1.7259  1.5599
  850MPD2     C12482   4.593   3.095  14.666 -0.6917  0.1449 -0.1477
  850MPD2    C112483   4.562   3.195  14.758  0.8614 -1.0137  0.0469
  850MPD2    C212484   4.662   3.289  14.785  0.5434  0.3393 -0.3856
  850MPD2    C312485   0.073   3.272  14.734 -0.6005  0.5197  0.0072
  850MPD2    C412486   0.093   3.178  14.637 -0.5641 -0.3370  0.1696
  850MPD2    C512487   4.717   3.094  14.605 -0.1890  1.0623  0.1759
  850MPD2     H12488   4.658   3.366  14.861  1.1584 -2.2578  2.2601
  850MPD2    H112489   0.192   3.159  14.595  0.1596 -0.1032  1.7715
  850MPD2    H212490   4.512   3.028  14.644  0.3810 -1.3919  0.6036
  850MPD2    H312491   0.023   3.021  14.530 -0.0206  1.6284 -0.3190
  850MPD2     N12492   0.184   3.351  14.784  0.3979 -0.1523  0.0912
  850MPD2    H512493   0.276   3.317  14.757 -0.6529 -1.7357 -1.5152
  850MPD2    N112494   4.438   3.211  14.822 -0.5283 -0.1578  0.0154
  850MPD2    H712495   4.381   3.127  14.831 -1.5014  0.5037 -0.0397
  851MPD2     C12496   0.103   3.355  15.495 -1.0871  0.1605  0.0472
  851MPD2    C112497   0.053   3.316  15.373 -0.9876  0.2998  0.4544
  851MPD2    C212498   0.145   3.285  15.273  0.3840 -0.0572  0.6568
  851MPD2    C312499   0.280   3.275  15.305 -0.1425  0.5501 -0.2586
  851MPD2    C412500   0.332   3.319  15.426 -0.3942  0.3965 -0.3048
  851MPD2    C512501   0.241   3.359  15.519 -0.0005 -0.0556  0.1353
  851MPD2     H12502   0.113   3.254  15.175 -0.8187  1.9845  0.4216
  851MPD2    H112503   0.434   3.352  15.442 -0.3464  0.3655 -0.5453
  851MPD2    H212504   0.036   3.385  15.574 -0.4525 -2.4817  1.5875
  851MPD2    H312505   0.276   3.397  15.614 -3.3189  0.8689  0.9847
  851MPD2     N12506   0.364   3.220  15.207 -0.0019 -0.1145 -0.0485
  851MPD2    H512507   0.317   3.180  15.126  0.5180  1.7197 -1.2452
  851MPD2    N112508   4.638   3.317  15.347 -0.1511  0.7517 -0.2336
  851MPD2    H712509   4.575   3.376  15.400  3.0931  1.3481  2.9778
  852MPD2     C12510   3.767   0.789  10.091 -0.1174 -0.0378  0.1517
  852MPD2    C112511   3.894   0.792  10.148 -0.3006  0.5632 -0.2413
  852MPD2    C212512   3.996   0.866  10.095 -0.5954  0.6849  0.4199
  852MPD2    C312513   3.972   0.951   9.985  0.4156 -0.1100 -0.0581
  852MPD2    C412514   3.843   0.957   9.929  0.4778  0.1239 -0.9470
  852MPD2    C512515   3.746   0.874   9.980  0.1906  0.0619  0.2570
  852MPD2     H12516   4.097   0.857  10.133  0.1745  0.8782 -1.5557
  852MPD2    H112517   3.829   1.023   9.844  0.7660  2.1120  0.5683
  852MPD2    H212518   3.680   0.731  10.119 -1.0837  0.3570 -2.1292
  852MPD2    H312519   3.648   0.872   9.934 -0.3774  0.6299  1.4236
  852MPD2     N12520   4.082   1.028   9.945 -0.3474 -0.4425 -0.0360
  852MPD2    H512521   4.169   1.022   9.996 -2.0092 -0.1700  2.8015
  852MPD2    N112522   3.935   0.697  10.243  0.2616 -0.2043  0.3417
  852MPD2    H712523   4.022   0.712  10.293  1.3087  0.1603 -1.5704
  853MPD2     C12524   0.849   0.579  12.710 -0.0748 -0.2361  0.0448
  853MPD2    C112525   0.906   0.682  12.642  0.5361  0.0132  0.4575
  853MPD2    C212526   0.905   0.682  12.504 -0.1684  0.2086 -0.1191
  853MPD2    C312527   0.852   0.569  12.439 -0.1316  0.0427  0.3310
  853MPD2    C412528   0.785   0.474  12.513  0.5311  0.3891 -0.2368
  853MPD2    C512529   0.790   0.475  12.651  0.3261 -0.2021 -0.5278
  853MPD2     H12530   0.952   0.759  12.445 -0.4532 -0.0629 -0.6976
  853MPD2    H112531   0.729   0.392  12.469 -0.4594  0.8532  0.1494
  853MPD2    H212532   0.852   0.577  12.819  0.6565 -1.4322  0.0016
  853MPD2    H312533   0.750   0.393  12.709 -1.0110  0.9696  0.2030
  853MPD2     N12534   0.861   0.552  12.298  0.0169  0.1827 -0.4684
  853MPD2    H512535   0.822   0.465  12.264  0.4629  0.0507 -0.6474
  853MPD2    N112536   0.970   0.787  12.718  0.3856  0.4941 -0.0413
  853MPD2    H712537   0.979   0.779  12.819  0.5015  1.0352 -0.0076
  854MPD2     C12538   2.845   0.158  12.879  0.1730  0.1094 -0.1805
  854MPD2    C112539   2.864   0.283  12.832 -0.7671  0.2482 -0.6873
  854MPD2    C212540   2.987   0.345  12.834  0.5408  0.1051 -0.7569
  854MPD2    C312541   3.090   0.278  12.903 -0.7336  0.5663  0.0549
  854MPD2    C412542   3.066   0.151  12.959  0.2783 -0.1744  0.5149
  854MPD2    C512543   2.945   0.094  12.947 -0.0028  0.6550 -0.6972
  854MPD2     H12544   2.993   0.448  12.800 -0.3497  0.9600  1.6599
  854MPD2    H112545   3.139   0.094  13.016 -3.0879 -3.5634  1.4141
  854MPD2    H212546   2.761   0.090  12.869 -1.5654  2.2315  0.1890
  854MPD2    H312547   2.931   4.716  12.985 -0.1236  1.0814  0.3555
  854MPD2     N12548   3.216   0.341  12.918  0.6130  0.0220  0.2420
  854MPD2    H512549   3.215   0.436  12.882 -0.2256  0.4348  1.3245
  854MPD2    N112550   2.742   0.333  12.779  0.4532  0.4290 -0.1049
  854MPD2    H712551   2.664   0.268  12.787  1.3827 -0.7159 -0.2558
  855MPD2     C12552   3.780   0.973  13.448 -0.3119 -0.4335  0.8626
  855MPD2    C112553   3.682   0.881  13.466 -0.2320  0.0125  0.7437
  855MPD2    C212554   3.657   0.786  13.366 -0.1021  0.4269 -0.7484
  855MPD2    C312555   3.723   0.785  13.246  0.0122 -0.7604  0.9001
  855MPD2    C412556   3.821   0.882  13.227  0.4354 -0.7601  0.1464
  855MPD2    C512557   3.845   0.975  13.327 -0.0095 -0.1898  0.0066
  855MPD2     H12558   3.585   0.711  13.395  0.6395  0.3016  0.7689
  855MPD2    H112559   3.890   0.881  13.143 -1.4845  0.1251 -1.4267
  855MPD2    H212560   3.809   1.041  13.527 -0.3193 -1.9854  2.1880
  855MPD2    H312561   3.926   1.045  13.308 -0.1104  0.1803  0.9209
  855MPD2     N12562   3.710   0.686  13.146 -0.0409  0.0655 -0.6247
  855MPD2    H512563   3.782   0.676  13.076 -0.0420 -1.0483 -0.4719
  855MPD2    N112564   3.615   0.872  13.598  0.0979 -0.5219 -0.1460
  855MPD2    H712565   3.670   0.906  13.677 -0.7321 -0.5748  0.4477
  856MPD2     C12566   0.941   1.457  13.843  0.2670  0.2782 -0.3384
  856MPD2    C112567   1.014   1.561  13.899 -0.2820 -0.5688  0.0513
  856MPD2    C212568   1.019   1.687  13.847  0.6303  0.2835  0.6957
  856MPD2    C312569   0.938   1.717  13.741  0.0809 -0.9252  0.2497
  856MPD2    C412570   0.864   1.612  13.684  0.2761  0.2776 -0.0407
  856MPD2    C512571   0.869   1.483  13.733 -0.5979  0.6020 -0.3859
  856MPD2     H12572   1.094   1.757  13.881  1.6726 -0.5505  0.1126
  856MPD2    H112573   0.817   1.626  13.588  0.9129  1.6961 -0.1446
  856MPD2    H212574   0.942   1.356  13.883  0.3766  0.0254 -0.9911
  856MPD2    H312575   0.803   1.414  13.681 -0.4011 -0.1494  0.3639
  856MPD2     N12576   0.935   1.842  13.678  0.6832 -0.0615  0.2346
  856MPD2    H512577   0.905   1.848  13.582  0.0098 -2.0066  0.3320
  856MPD2    N112578   1.087   1.547  14.017  0.2464  0.1847 -0.2401
  856MPD2    H712579   1.140   1.628  14.048  1.9385 -0.7695 -0.5893
  857MPD2     C12580   2.025   3.394  12.668 -0.3859 -0.8114 -0.0505
  857MPD2    C112581   2.158   3.411  12.700 -0.2206  0.3348 -0.5900
  857MPD2    C212582   2.206   3.536  12.738  0.4862  0.0052  0.0965
  857MPD2    C312583   2.116   3.640  12.748 -0.3061 -0.3677 -0.7449
  857MPD2    C412584   1.984   3.619  12.711  0.2175 -0.0658 -0.0158
  857MPD2    C512585   1.940   3.496  12.666  0.6259  0.2738  0.1303
  857MPD2     H12586   2.308   3.543  12.773  0.0800  0.5590  1.1598
  857MPD2    H112587   1.908   3.694  12.725  1.2682  1.0507 -0.3279
  857MPD2    H212588   1.992   3.299  12.628  1.4781 -1.1460 -0.7950
  857MPD2    H312589   1.842   3.482  12.622  0.4717  2.8564 -0.3768
  857MPD2     N12590   2.145   3.770  12.800 -0.2160  0.6702 -0.6138
  857MPD2    H512591   2.069   3.837  12.805 -1.2298 -0.4249 -1.3112
  857MPD2    N112592   2.241   3.295  12.682 -0.1854  0.6607 -0.4646
  857MPD2    H712593   2.194   3.205  12.692  0.2727  0.8617  3.7386
  858MPD2     C12594   3.160   3.176  16.701  0.1163 -0.4605  0.2754
  858MPD2    C112595   3.271   3.116  16.765 -0.1205  0.1294 -0.5399
  858MPD2    C212596   3.278   3.112  16.903 -0.5176  0.3819 -0.2201
  858MPD2    C312597   3.175   3.173  16.978 -0.1648  0.8343 -0.5560
  858MPD2    C412598   3.072   3.237  16.905  0.3419 -0.4482 -0.0513
  858MPD2    C512599   3.062   3.243  16.771 -0.5700 -0.1266  0.5345
  858MPD2     H12600   3.351   3.050  16.953  1.5617  3.7752  0.9747
  858MPD2    H112601   2.993   3.288  16.959  1.0599  0.5042  0.1029
  858MPD2    H212602   3.157   3.165  16.593 -1.1346  1.0083  0.1615
  858MPD2    H312603   2.989   3.307  16.722 -1.3363 -0.5529  1.1192
  858MPD2     N12604   3.167   3.157  17.122  0.4463 -0.3755  0.3931
  858MPD2    H512605   3.089   3.207  17.164  0.4181 -0.0323 -0.0695
  858MPD2    N112606   3.371   3.066  16.675 -0.6138 -0.4763 -0.5980
  858MPD2    H712607   3.355   3.045  16.577 -0.1515  0.4106 -0.8634
  859MPD2     C12608   1.369   4.294  14.986 -0.0085 -0.4822 -0.1344
  859MPD2    C112609   1.488   4.293  14.915  0.1969 -0.5419  0.1147
  859MPD2    C212610   1.565   4.173  14.897  0.3006  0.3183  0.8692
  859MPD2    C312611   1.513   4.058  14.952 -0.3870  0.3425  0.3449
  859MPD2    C412612   1.401   4.061  15.030 -0.3447  0.3649 -0.0873
  859MPD2    C512613   1.325   4.179  15.050  0.1834  0.2754  0.3921
  859MPD2     H12614   1.654   4.174  14.836 -0.9652  1.6245 -0.9660
  859MPD2    H112615   1.359   3.971  15.072  1.8329 -0.3049  0.6313
  859MPD2    H212616   1.307   4.382  15.000  1.7201  0.8071 -0.5857
  859MPD2    H312617   1.237   4.189  15.113 -0.1309  1.3372 -0.2008
  859MPD2     N12618   1.553   3.923  14.924  0.0736  0.1964 -0.2000
  859MPD2    H512619   1.503   3.844  14.963 -0.7763  0.2122 -1.2538
  859MPD2    N112620   1.535   4.422  14.875 -0.3630  0.3453 -0.1530
  859MPD2    H712621   1.471   4.497  14.899 -0.0771  0.5600 -0.0643
  860MPD2     C12622   4.304   0.804  11.707 -0.2120 -0.3350 -0.2369
  860MPD2    C112623   4.265   0.808  11.838  0.4130  0.0297 -0.0107
  860MPD2    C212624   4.131   0.797  11.866  0.6184 -0.0249 -0.2589
  860MPD2    C312625   4.037   0.771  11.762 -0.2882  0.1698 -0.2510
  860MPD2    C412626   4.081   0.767  11.632  0.5888  0.2856 -0.3645
  860MPD2    C512627   4.214   0.789  11.602  0.3049  0.1449  0.0853
  860MPD2     H12628   4.099   0.798  11.969  1.9196 -2.6258  0.1536
  860MPD2    H112629   4.012   0.734  11.555  3.5989 -0.7659 -2.5862
  860MPD2    H212630   4.408   0.806  11.675 -0.3995  0.1493 -0.8236
  860MPD2    H312631   4.251   0.767  11.503 -1.7661 -1.0074 -0.4244
  860MPD2     N12632   3.904   0.748  11.803 -0.2528  0.6555 -0.3621
  860MPD2    H512633   3.874   0.765  11.899  0.5028 -0.4125  0.0632
  860MPD2    N112634   4.354   0.776  11.944 -0.5938 -0.0506  0.2221
  860MPD2    H712635   4.316   0.773  12.038 -1.3410 -1.4540 -0.1244
  861MPD2     C12636   3.148   3.354  11.076  0.3796 -0.9229 -0.2973
  861MPD2    C112637   3.041   3.315  11.155 -0.4871 -0.0271  0.0739
  861MPD2    C212638   2.918   3.296  11.098 -0.4583  0.2545  0.0285
  861MPD2    C312639   2.891   3.340  10.964  0.6733  0.4473  0.1210
  861MPD2    C412640   3.000   3.374  10.886 -0.2190 -0.1820  0.4366
  861MPD2    C512641   3.128   3.384  10.942  0.7431 -0.8198 -0.0028
  861MPD2     H12642   2.841   3.256  11.163 -0.5958 -0.8010 -0.7678
  861MPD2    H112643   2.983   3.381  10.779 -1.9431  1.2664  0.8023
  861MPD2    H212644   3.244   3.386  11.114 -0.6748  1.1000  0.6554
  861MPD2    H312645   3.210   3.429  10.887  0.0180  0.1009 -0.3249
  861MPD2     N12646   2.766   3.333  10.901  0.1650 -0.3376  0.1431
  861MPD2    H512647   2.767   3.355  10.802  4.2667 -0.1972  0.2081
  861MPD2    N112648   3.058   3.296  11.293  0.2863 -0.0887 -0.2276
  861MPD2    H712649   2.977   3.269  11.349 -0.5253 -0.1910 -1.4536
  862MPD2     C12650   2.414   3.349  10.260  0.5228 -0.4029 -0.2454
  862MPD2    C112651   2.470   3.279  10.364 -0.2893  0.3638  0.2648
  862MPD2    C212652   2.482   3.142  10.360 -0.2664 -0.7173 -0.6783
  862MPD2    C312653   2.430   3.074  10.257  0.3997  0.0401  0.4773
  862MPD2    C412654   2.368   3.142  10.158 -0.8929 -0.1845  0.0505
  862MPD2    C512655   2.377   3.281  10.148 -0.1225 -0.1377  1.1574
  862MPD2     H12656   2.534   3.085  10.437  0.3848  1.9182  0.8491
  862MPD2    H112657   2.319   3.088  10.078  0.4574 -1.0838 -0.1646
  862MPD2    H212658   2.421   3.458  10.261  0.8320 -0.4166 -0.8877
  862MPD2    H312659   2.344   3.334  10.060 -0.2704  1.6047  2.2794
  862MPD2     N12660   2.438   2.934  10.240  0.5687  0.6301 -0.2781
  862MPD2    H512661   2.408   2.888  10.155  0.8499 -0.6948  0.3323
  862MPD2    N112662   2.511   3.343  10.484  0.4057  0.3620  0.2990
  862MPD2    H712663   2.540   3.277  10.555 -0.1881 -1.0200 -0.7300
  863MPD2     C12664   1.725   2.449  16.499  0.4944  0.3462 -0.3871
  863MPD2    C112665   1.623   2.439  16.591  0.1398 -0.0498 -0.1010
  863MPD2    C212666   1.657   2.404  16.725  0.1479 -0.2482 -1.0311
  863MPD2    C312667   1.793   2.383  16.756  0.2170 -0.3094 -0.2243
  863MPD2    C412668   1.891   2.405  16.661  0.4404  0.4429  0.1198
  863MPD2    C512669   1.857   2.428  16.534  0.1602  1.3897 -0.2390
  863MPD2     H12670   1.584   2.388  16.803 -0.0175 -1.4887 -1.4400
  863MPD2    H112671   1.998   2.395  16.680  0.3238  0.2919  0.6858
  863MPD2    H212672   1.708   2.452  16.392 -1.1548 -1.2176 -0.1541
  863MPD2    H312673   1.932   2.423  16.457 -0.4233  0.3542 -0.7520
  863MPD2     N12674   1.845   2.341  16.883 -0.3537  0.2709  0.2655
  863MPD2    H512675   1.928   2.284  16.891  1.4417  2.8288 -0.4025
  863MPD2    N112676   1.491   2.440  16.544 -0.5592 -0.0936 -0.2703
  863MPD2    H712677   1.477   2.436  16.443 -1.0037 -2.4523 -0.1201
  864MPD2     C12678   1.681   3.587  17.118  0.1522  0.9610  0.0524
  864MPD2    C112679   1.735   3.491  17.038  0.7421  0.0224  0.2924
  864MPD2    C212680   1.837   3.531  16.953 -0.4290  0.0358  0.3321
  864MPD2    C312681   1.877   3.668  16.946 -0.3749 -0.6407  0.0999
  864MPD2    C412682   1.830   3.764  17.032 -0.0218 -0.1328  0.3784
  864MPD2    C512683   1.727   3.718  17.116  0.2134  0.1114 -0.7875
  864MPD2     H12684   1.890   3.455  16.896 -0.7174 -0.1058  0.2527
  864MPD2    H112685   1.869   3.865  17.032 -1.4097  0.3872 -0.8238
  864MPD2    H212686   1.608   3.563  17.194  0.7294 -2.0758 -0.3526
  864MPD2    H312687   1.693   3.793  17.186 -0.7696 -0.6231 -0.4868
  864MPD2     N12688   1.972   3.710  16.850 -0.5253 -0.1121  0.0599
  864MPD2    H512689   1.990   3.807  16.826  0.6341 -0.7099 -1.4987
  864MPD2    N112690   1.683   3.365  17.049 -0.1103 -0.0473  0.9252
  864MPD2    H712691   1.612   3.344  17.117 -0.8163  0.9774  0.5003
  865MPD2     C12692   2.271   3.811  16.017 -0.2649  0.1274  0.8486
  865MPD2    C112693   2.226   3.728  16.119  0.4044 -0.4526 -0.5670
  865MPD2    C212694   2.139   3.786  16.203 -0.6864 -0.3993  0.2682
  865MPD2    C312695   2.107   3.921  16.209 -0.6361  1.0274  0.7318
  865MPD2    C412696   2.169   4.001  16.115 -0.0428  0.1088  1.1973
  865MPD2    C512697   2.248   3.946  16.020  0.0127 -0.0641 -0.2249
  865MPD2     H12698   2.083   3.725  16.273 -0.1298  1.3962  2.2751
  865MPD2    H112699   2.157   4.108  16.116 -3.7495 -0.2992  0.4421
  865MPD2    H212700   2.323   3.763  15.935 -0.2743  2.4948 -0.5220
  865MPD2    H312701   2.274   4.004  15.933 -1.1012  1.6369  0.5759
  865MPD2     N12702   2.037   3.990  16.307 -1.0774 -0.8151 -0.0067
  865MPD2    H512703   2.006   4.086  16.291 -2.1527 -1.0285  0.8244
  865MPD2    N112704   2.282   3.599  16.120  0.2152  0.3529  0.5025
  865MPD2    H712705   2.345   3.579  16.043 -1.6600  1.5498 -1.3552
  866MPD2     C12706   3.455   3.717  11.698  0.2291 -0.0525  1.0006
  866MPD2    C112707   3.480   3.735  11.567  0.3572 -0.2789  0.0633
  866MPD2    C212708   3.376   3.717  11.482 -0.0862 -0.3801  0.1946
  866MPD2    C312709   3.247   3.704  11.525  0.1033  0.0279  0.8952
  866MPD2    C412710   3.223   3.676  11.653 -0.3432  0.4279 -0.3984
  866MPD2    C512711   3.326   3.693  11.738  0.6799  0.2641 -0.5816
  866MPD2     H12712   3.392   3.714  11.375  0.3961  1.5126  0.2127
  866MPD2    H112713   3.126   3.655  11.696 -0.5428  0.8440 -0.6493
  866MPD2    H212714   3.531   3.732  11.774  0.3073  0.4741  0.8133
  866MPD2    H312715   3.313   3.681  11.845 -0.5222 -0.7431 -0.8433
  866MPD2     N12716   3.138   3.699  11.436  0.2346  0.2071 -0.4649
  866MPD2    H512717   3.053   3.671  11.484  0.1881 -0.2264 -0.8008
  866MPD2    N112718   3.617   3.755  11.535  0.0818  0.0991  0.0775
  866MPD2    H712719   3.680   3.754  11.614 -0.7961  0.6658  0.7776
  867MPD2     C12720   0.779   3.495  16.216 -0.3892  0.2492  0.3596
  867MPD2    C112721   0.773   3.433  16.338  0.6203  0.2995  0.5007
  867MPD2    C212722   0.731   3.508  16.447  0.5148  0.6016  0.2671
  867MPD2    C312723   0.713   3.646  16.435 -0.1631  0.2130 -0.2105
  867MPD2    C412724   0.726   3.701  16.314  0.3178  0.2617 -0.2294
  867MPD2    C512725   0.753   3.628  16.204  0.6621  0.1356  0.2191
  867MPD2     H12726   0.723   3.458  16.543 -0.5564  0.2408 -0.0116
  867MPD2    H112727   0.694   3.804  16.302 -0.3302  0.2052  1.0466
  867MPD2    H212728   0.804   3.430  16.133 -1.5235 -0.3268  0.4771
  867MPD2    H312729   0.756   3.675  16.107 -0.3895 -0.2678 -0.0168
  867MPD2     N12730   0.695   3.739  16.544  0.1748  0.1233  0.0329
  867MPD2    H512731   0.699   3.838  16.521 -2.1300 -0.2430 -1.9047
  867MPD2    N112732   0.812   3.299  16.352  0.2082  0.1498  0.2884
  867MPD2    H712733   0.869   3.265  16.275 -0.3167 -0.4783  0.1822
  868MPD2     C12734   3.223   2.589  13.575  0.5730  0.3901  0.0991
  868MPD2    C112735   3.150   2.494  13.520 -0.2824  0.0862 -0.1950
  868MPD2    C212736   3.013   2.507  13.518 -0.0764  0.2332  0.0906
  868MPD2    C312737   2.951   2.617  13.584  0.1282  0.2121  0.0175
  868MPD2    C412738   3.031   2.716  13.644 -0.0859 -0.1718 -0.5271
  868MPD2    C512739   3.166   2.701  13.626 -0.4967  0.7349  0.1423
  868MPD2     H12740   2.956   2.438  13.457 -1.4861  2.0096 -0.6170
  868MPD2    H112741   2.998   2.804  13.698  2.5442 -0.1605  1.0711
  868MPD2    H212742   3.331   2.597  13.569  0.7627 -3.2500 -1.1737
  868MPD2    H312743   3.225   2.781  13.668  1.7702 -0.5191 -0.6921
  868MPD2     N12744   2.816   2.640  13.585 -0.7482  0.0222  0.1363
  868MPD2    H512745   2.786   2.734  13.607  1.9069  0.7044  0.9149
  868MPD2    N112746   3.224   2.386  13.465 -0.1183  0.6537 -0.0610
  868MPD2    H712747   3.322   2.384  13.491 -0.4291 -0.0074  1.0676
  869MPD2     C12748   3.307   1.061   1.235  0.0421  1.5054  0.2718
  869MPD2    C112749   3.337   1.183   1.285  0.1619  0.2034 -0.5964
  869MPD2    C212750   3.307   1.292   1.194 -0.3972 -0.1520  0.6251
  869MPD2    C312751   3.265   1.273   1.063 -0.4351 -0.2604  0.3581
  869MPD2    C412752   3.211   1.150   1.031 -0.1581  0.1894 -0.2965
  869MPD2    C512753   3.239   1.049   1.119 -0.4671 -0.2458  0.5143
  869MPD2     H12754   3.341   1.392   1.220 -1.1948 -0.2319  1.9765
  869MPD2    H112755   3.157   1.134   0.939 -0.2808 -1.0107 -0.0076
  869MPD2    H212756   3.331   0.972   1.291 -1.1772  0.3670 -1.0158
  869MPD2    H312757   3.224   0.945   1.094 -0.7004  0.2845 -1.4947
  869MPD2     N12758   3.255   1.380   0.973 -0.1079 -0.3399  0.4791
  869MPD2    H512759   3.194   1.376   0.891  1.3234 -0.1191 -0.5946
  869MPD2    N112760   3.373   1.200   1.425  0.1391 -0.0208 -0.1965
  869MPD2    H712761   3.396   1.117   1.478 -2.2137  1.2906  2.8747
  870MPD2     C12762   3.250   4.294   1.570 -0.9595  0.0436 -0.4359
  870MPD2    C112763   3.350   4.385   1.546  1.1479  0.6133  0.9398
  870MPD2    C212764   3.326   4.486   1.448 -0.6550  0.3548 -0.2299
  870MPD2    C312765   3.197   4.506   1.399 -0.0713 -0.5669 -0.4703
  870MPD2    C412766   3.102   4.411   1.432 -0.1482 -0.2514 -0.2806
  870MPD2    C512767   3.119   4.305   1.517  0.1970 -0.3119 -0.1921
  870MPD2     H12768   3.408   4.557   1.439  2.5911 -3.4470 -0.6534
  870MPD2    H112769   2.998   4.424   1.404 -0.8232 -2.4501  1.2022
  870MPD2    H212770   3.252   4.223   1.652 -0.7922  1.6479  0.9354
  870MPD2    H312771   3.042   4.234   1.546  0.8367 -0.4620  1.1673
  870MPD2     N12772   3.175   4.627   1.322  0.0997  0.3619 -0.2890
  870MPD2    H512773   3.260   4.681   1.306  1.3092 -1.0755  1.3065
  870MPD2    N112774   3.470   4.372   1.614 -0.3473  0.2079 -0.3865
  870MPD2    H712775   3.484   4.299   1.684 -0.4292 -0.0263 -0.6176
  871MPD2     C12776   0.031   3.497  16.556 -0.3472 -0.1326  0.3125
  871MPD2    C112777   4.721   3.474  16.686 -0.4225  0.4191  0.0172
  871MPD2    C212778   0.013   3.350  16.735 -0.0470  0.7095 -0.4726
  871MPD2    C312779   0.053   3.245  16.655 -0.0221 -0.1284 -0.2387
  871MPD2    C412780   0.072   3.268  16.522 -0.0251  0.5572 -0.1342
  871MPD2    C512781   0.062   3.394  16.472  0.1585 -0.4455 -0.3150
  871MPD2     H12782   4.712   3.320  16.837  2.9069 -1.2899 -0.3883
  871MPD2    H112783   0.105   3.191  16.452 -0.4091 -2.0427  2.5249
  871MPD2    H212784   0.009   3.594  16.514  1.5839 -0.2192 -0.9264
  871MPD2    H312785   0.083   3.419  16.368 -1.1362  2.0398  0.0051
  871MPD2     N12786   0.063   3.118  16.713 -0.1971  0.6559 -0.5179
  871MPD2    H512787   0.049   3.122  16.814 -0.1980  0.9473 -0.5287
  871MPD2    N112788   4.668   3.575  16.767 -0.0314  0.1256  0.3376
  871MPD2    H712789   4.675   3.670  16.732  0.2680  0.1988  0.5920
  872MPD2     C12790   0.600   1.122  13.601 -0.2293 -0.1865  0.5039
  872MPD2    C112791   0.683   1.125  13.712 -0.3911 -0.2911 -0.5433
  872MPD2    C212792   0.624   1.128  13.835 -0.1013  0.1366 -0.0976
  872MPD2    C312793   0.481   1.119  13.848 -0.1637  0.0636 -0.2500
  872MPD2    C412794   0.398   1.108  13.734 -0.0572  0.5526 -0.3685
  872MPD2    C512795   0.462   1.114  13.611 -0.0630 -0.3790 -0.1905
  872MPD2     H12796   0.680   1.154  13.924 -2.5431 -1.1378  1.8235
  872MPD2    H112797   0.290   1.096  13.744  0.2376  0.1566  2.1932
  872MPD2    H212798   0.637   1.128  13.499 -0.2359  0.6735  0.5524
  872MPD2    H312799   0.412   1.097  13.517  1.3059  0.0967 -0.9926
  872MPD2     N12800   0.426   1.107  13.974  0.2014  0.0285  0.1947
  872MPD2    H512801   0.496   1.094  14.046  1.3799  1.3163 -0.7314
  872MPD2    N112802   0.828   1.132  13.709 -0.3905  0.2194 -0.1421
  872MPD2    H712803   0.876   1.135  13.799  0.3083 -1.3815 -0.4672
  873MPD2     C12804   3.097   1.913   1.228  0.4768  0.1799  0.2118
  873MPD2    C112805   2.969   1.863   1.235  0.3731 -0.9651 -0.1827
  873MPD2    C212806   2.958   1.729   1.273  0.0260 -0.2960  0.4172
  873MPD2    C312807   3.069   1.651   1.300 -0.6223  0.1658 -0.0487
  873MPD2    C412808   3.192   1.707   1.295 -0.6843  0.4329  1.1987
  873MPD2    C512809   3.201   1.840   1.267  0.6647 -0.1950  0.5387
  873MPD2     H12810   2.859   1.685   1.270 -1.1533  2.3420  1.1560
  873MPD2    H112811   3.280   1.644   1.304 -0.5146  0.4026 -0.6699
  873MPD2    H212812   3.121   2.012   1.189 -0.2859 -0.7930 -2.7764
  873MPD2    H312813   3.303   1.876   1.262  0.4526  0.2088 -1.0337
  873MPD2     N12814   3.056   1.518   1.333 -0.5596  0.3303 -0.5262
  873MPD2    H512815   3.135   1.465   1.367 -1.7571 -0.2930  1.2746
  873MPD2    N112816   2.860   1.952   1.209  0.4720 -0.1099 -0.2238
  873MPD2    H712817   2.881   2.048   1.184 -2.0688  0.6951  0.6681
  874MPD2     C12818   2.496   1.342  15.776 -0.0987  0.3374 -0.1752
  874MPD2    C112819   2.557   1.375  15.896 -0.0918 -0.4101 -0.8917
  874MPD2    C212820   2.650   1.477  15.899 -0.6792 -0.0175 -0.0800
  874MPD2    C312821   2.688   1.529  15.775 -0.1159 -0.5809 -0.0557
  874MPD2    C412822   2.629   1.495  15.652  0.0890 -1.2495  0.1904
  874MPD2    C512823   2.524   1.409  15.657  0.1931  0.5322  0.5156
  874MPD2     H12824   2.700   1.507  15.991 -0.6751  1.0238 -0.4256
  874MPD2    H112825   2.655   1.543  15.558 -1.4943 -0.3383  0.2037
  874MPD2    H212826   2.424   1.263  15.759  0.5703 -0.8008  2.2807
  874MPD2    H312827   2.472   1.385  15.565  3.2148  0.2459 -1.0999
  874MPD2     N12828   2.798   1.608  15.798  0.0027  0.2269  0.1084
  874MPD2    H512829   2.828   1.607  15.894 -1.5810 -0.7155  0.5964
  874MPD2    N112830   2.508   1.306  16.009  0.2022  0.6826  0.3239
  874MPD2    H712831   2.441   1.233  15.988 -0.0398  0.6621  1.1633
  875MPD2     C12832   3.217   4.240  14.459  0.6027  0.6985  0.3542
  875MPD2    C112833   3.092   4.253  14.507  0.9115 -0.6528  1.0021
  875MPD2    C212834   3.076   4.294  14.635 -0.4485  0.1453  0.7434
  875MPD2    C312835   3.179   4.327  14.718 -0.3712  0.3376  0.5156
  875MPD2    C412836   3.303   4.317  14.665  0.4984  0.2204 -0.7047
  875MPD2    C512837   3.322   4.262  14.541  0.3902 -0.1049 -0.5249
  875MPD2     H12838   2.973   4.299  14.670  0.2182  2.9943  2.3008
  875MPD2    H112839   3.392   4.330  14.726 -1.1069 -1.7062  2.0302
  875MPD2    H212840   3.231   4.201  14.359 -1.4837 -1.2240  0.8175
  875MPD2    H312841   3.423   4.267  14.503 -0.3233 -0.6264 -2.4838
  875MPD2     N12842   3.172   4.367  14.853 -0.0353 -0.3821 -0.1745
  875MPD2    H512843   3.247   4.423  14.891 -0.4427  0.3404 -0.4508
  875MPD2    N112844   2.983   4.221  14.423 -0.2319  0.4399  0.3788
  875MPD2    H712845   2.893   4.222  14.470 -0.1836  0.3039  0.4736
  876MPD2     C12846   1.883   0.750  16.233 -0.5281 -0.1872 -0.8693
  876MPD2    C112847   1.862   0.655  16.135  0.1349 -0.3033 -0.0918
  876MPD2    C212848   1.823   0.529  16.171  0.2568 -0.0089 -0.2177
  876MPD2    C312849   1.816   0.492  16.306 -0.8967 -0.0776 -0.1941
  876MPD2    C412850   1.841   0.585  16.403  0.2528  0.1180  0.1370
  876MPD2    C512851   1.879   0.704  16.362  0.1415 -0.4020  0.1022
  876MPD2     H12852   1.791   0.466  16.089 -0.6587  1.2452 -0.8206
  876MPD2    H112853   1.833   0.565  16.509 -0.7254  1.2047  0.2715
  876MPD2    H212854   1.917   0.848  16.204 -0.3757  0.1708  0.5324
  876MPD2    H312855   1.903   0.778  16.437  0.5963 -0.1068 -0.3349
  876MPD2     N12856   1.789   0.359  16.326  0.2943 -0.3201 -0.2450
  876MPD2    H512857   1.770   0.300  16.246  0.5771 -3.7752  2.2337
  876MPD2    N112858   1.876   0.699  16.005 -0.1015 -0.2503  0.2221
  876MPD2    H712859   1.889   0.798  15.986 -0.1870 -0.2448  0.1916
  877MPD2     C12860   2.347   1.071  15.548 -0.3686 -0.3452  0.3372
  877MPD2    C112861   2.235   1.056  15.475  0.6525  0.1852 -0.0985
  877MPD2    C212862   2.232   1.110  15.343 -0.5952 -0.2432 -0.4505
  877MPD2    C312863   2.347   1.162  15.285 -0.4743  0.3202 -0.0068
  877MPD2    C412864   2.462   1.165  15.364 -0.5999 -0.3215 -0.3039
  877MPD2    C512865   2.465   1.126  15.495 -0.0124  0.5242 -0.3207
  877MPD2     H12866   2.141   1.101  15.284 -0.8870  0.2257 -0.0757
  877MPD2    H112867   2.552   1.203  15.318 -1.8556  1.0838 -1.6100
  877MPD2    H212868   2.336   1.042  15.652 -1.9853 -0.4645  0.1394
  877MPD2    H312869   2.560   1.134  15.547  0.2255  1.0629 -0.8375
  877MPD2     N12870   2.365   1.195  15.152 -0.7088  0.8225 -0.4356
  877MPD2    H512871   2.461   1.217  15.129 -0.6007 -0.8558 -1.5785
  877MPD2    N112872   2.121   0.993  15.517 -0.2656  0.2659  1.0475
  877MPD2    H712873   2.043   1.001  15.453  2.5588 -2.9574 -2.7813
  878MPD2     C12874   1.502   0.043  12.995  0.5130 -0.1971 -0.0797
  878MPD2    C112875   1.506   0.177  12.972 -0.9164  0.8254  0.3501
  878MPD2    C212876   1.508   0.270  13.076  0.7339 -0.4034  0.1538
  878MPD2    C312877   1.503   0.220  13.205 -0.3781  0.3443 -0.2145
  878MPD2    C412878   1.496   0.083  13.225  0.2082 -1.1232  0.6762
  878MPD2    C512879   1.493   4.717  13.119  0.7738  0.1579  0.3228
  878MPD2     H12880   1.511   0.378  13.062  1.1362 -0.3585  0.6061
  878MPD2    H112881   1.489   0.039  13.323  1.6227 -0.4714  1.0776
  878MPD2    H212882   1.502   4.692  12.916 -0.4886 -0.9020  0.5688
  878MPD2    H312883   1.502   4.610  13.135  0.2956 -0.0372 -0.7339
  878MPD2     N12884   1.523   0.317  13.307 -0.7952 -0.1994 -0.1654
  878MPD2    H512885   1.544   0.412  13.279 -0.0457  0.1445  1.5647
  878MPD2    N112886   1.502   0.211  12.837 -0.3035 -0.7417 -0.3420
  878MPD2    H712887   1.490   0.138  12.769  0.6312 -1.1004 -0.1232
  879MPD2     C12888   2.881   2.277  16.460 -0.2032 -0.4786  0.3308
  879MPD2    C112889   2.860   2.200  16.572 -0.6813  0.0714  0.0651
  879MPD2    C212890   2.726   2.171  16.606 -0.9053  0.2722  0.1236
  879MPD2    C312891   2.624   2.220  16.531  0.0291  0.3271 -0.6777
  879MPD2    C412892   2.646   2.303  16.422 -1.0934 -0.9967  0.3125
  879MPD2    C512893   2.779   2.328  16.393  0.4978  0.2271 -0.3845
  879MPD2     H12894   2.697   2.096  16.678 -0.4085  1.6443  1.7344
  879MPD2    H112895   2.562   2.350  16.374  0.4013  0.5754 -0.7555
  879MPD2    H212896   2.975   2.305  16.415  0.6866 -1.9250  1.2942
  879MPD2    H312897   2.798   2.410  16.324 -1.9691  1.1277 -0.0190
  879MPD2     N12898   2.487   2.201  16.565 -0.3531 -0.1482  0.1718
  879MPD2    H512899   2.418   2.241  16.503  1.0394  1.3111 -0.4301
  879MPD2    N112900   2.968   2.168  16.664  0.6680  0.3416 -0.1286
  879MPD2    H712901   3.051   2.226  16.653  1.7712 -1.0477  0.8200
  880MPD2     C12902   3.713   4.116   0.673  0.3415 -0.4972  0.3444
  880MPD2    C112903   3.824   4.152   0.599 -0.1250  0.7749  0.1939
  880MPD2    C212904   3.927   4.066   0.568  0.2301  0.2074 -0.6804
  880MPD2    C312905   3.909   3.932   0.607 -0.4843  0.4842 -0.0868
  880MPD2    C412906   3.790   3.897   0.677  0.4353  0.9664  1.0783
  880MPD2    C512907   3.695   3.985   0.712  0.6212 -0.7784  0.8318
  880MPD2     H12908   4.021   4.105   0.529  1.0210  1.9532  2.9826
  880MPD2    H112909   3.767   3.797   0.710 -0.2309  0.4927 -0.7795
  880MPD2    H212910   3.632   4.185   0.692  1.2517  0.3967  0.9972
  880MPD2    H312911   3.599   3.958   0.755 -0.0086  2.1202  1.2445
  880MPD2     N12912   4.015   3.838   0.596 -0.9650 -0.4400 -0.5040
  880MPD2    H512913   4.097   3.878   0.551 -0.2503 -1.0918  0.2041
  880MPD2    N112914   3.817   4.286   0.542  0.4162  0.2692 -0.0659
  880MPD2    H712915   3.729   4.331   0.565  0.1343  0.2919 -1.2234
  881MPD2     C12916   3.967   0.331  17.471  0.1022 -0.4372 -0.5725
  881MPD2    C112917   3.999   0.199  17.465 -0.3344 -0.1638  0.3548
  881MPD2    C212918   3.970   0.122  17.580  0.8024  0.3395 -1.0035
  881MPD2    C312919   3.918   0.181   0.004  0.5326 -0.3075 -0.3581
  881MPD2    C412920   3.904   0.316   0.003  0.1278  0.5312 -0.4664
  881MPD2    C512921   3.938   0.390  17.586  0.4985  0.6988 -0.0566
  881MPD2     H12922   3.987   0.015  17.577  1.6564  0.3868  3.3678
  881MPD2    H112923   3.884   0.373   0.093 -2.0086 -0.2369 -0.4617
  881MPD2    H212924   3.984   0.397  17.387 -0.6491 -0.2171 -0.5511
  881MPD2    H312925   3.926   0.498  17.591 -0.1379  0.7494 -2.8528
  881MPD2     N12926   3.889   0.118   0.130 -0.0463 -0.1863  0.3996
  881MPD2    H512927   3.859   0.180   0.205  0.0428 -1.7106  1.6930
  881MPD2    N112928   4.026   0.142  17.337 -0.1709  0.1900  0.3398
  881MPD2    H712929   4.021   0.214  17.266 -1.4758 -0.5464 -0.3240
  882MPD2     C12930   2.095   1.132  14.257  0.2574 -0.4833 -0.2927
  882MPD2    C112931   2.051   1.121  14.389 -0.1036  0.0167 -0.5591
  882MPD2    C212932   1.938   1.043  14.407  0.2405 -0.7081  0.4101
  882MPD2    C312933   1.859   1.000  14.306 -0.1886  0.4987  0.1300
  882MPD2    C412934   1.886   1.040  14.178 -0.1020  0.3118  0.0628
  882MPD2    C512935   2.012   1.099  14.156  0.0014 -0.5537  0.7597
  882MPD2     H12936   1.902   1.021  14.507 -2.3806  1.1235 -0.1539
  882MPD2    H112937   1.825   1.016  14.092  1.5883 -1.7120 -0.5792
  882MPD2    H212938   2.196   1.168  14.239  0.2263 -0.0722  0.3305
  882MPD2    H312939   2.039   1.124  14.054  1.5528 -2.5328  0.6799
  882MPD2     N12940   1.755   0.905  14.340  0.5432 -0.4663  0.1994
  882MPD2    H512941   1.757   0.879  14.439  1.0238 -0.2597  0.2454
  882MPD2    N112942   2.130   1.158  14.496 -0.3871 -0.5788 -0.4732
  882MPD2    H712943   2.223   1.196  14.489 -1.0630  1.4963  1.8646
  883MPD2     C12944   4.617   1.545  16.186  0.4412  0.5576 -0.5317
  883MPD2    C112945   4.708   1.440  16.164 -0.5249 -0.3450  0.4384
  883MPD2    C212946   0.087   1.439  16.253  0.5551 -0.4675  0.7212
  883MPD2    C312947   0.114   1.528  16.353  0.3079  0.7276 -0.2903
  883MPD2    C412948   0.024   1.637  16.368 -0.2516  0.1912 -0.1070
  883MPD2    C512949   4.634   1.634  16.289  0.2712  0.7315  0.1751
  883MPD2     H12950   0.161   1.362  16.239 -1.5224 -2.2063 -0.6260
  883MPD2    H112951   0.036   1.716  16.441  0.9457  0.2969 -0.4076
  883MPD2    H212952   4.536   1.551  16.113  1.4056 -2.1252 -1.8158
  883MPD2    H312953   4.570   1.721  16.277 -0.4415  0.1961  0.0789
  883MPD2     N12954   0.236   1.518  16.421 -0.1111 -0.0016  0.3443
  883MPD2    H512955   0.277   1.426  16.410 -0.7085 -0.3643  1.1719
  883MPD2    N112956   4.699   1.335  16.071 -0.0089 -0.2814 -0.0873
  883MPD2    H712957   0.063   1.283  16.061  0.4320 -0.0059  2.2243
  884MPD2     C12958   1.169   1.629  15.304 -0.3731  0.4615 -0.5266
  884MPD2    C112959   1.162   1.684  15.177  0.1246 -1.1368  0.4107
  884MPD2    C212960   1.057   1.771  15.148  0.7831 -0.2771  0.4622
  884MPD2    C312961   0.965   1.802  15.245  0.0447 -0.1308 -0.1664
  884MPD2    C412962   0.964   1.737  15.368 -0.2270  0.6373  0.2157
  884MPD2    C512963   1.063   1.647  15.392  0.2590  0.0716 -0.3500
  884MPD2     H12964   1.049   1.795  15.043  0.6176  0.4226  0.6391
  884MPD2    H112965   0.882   1.759  15.435 -0.9253  2.7888 -1.3143
  884MPD2    H212966   1.249   1.561  15.333 -2.7810 -1.3959  1.7499
  884MPD2    H312967   1.061   1.590  15.485 -0.8573 -0.6193 -0.7906
  884MPD2     N12968   0.855   1.891  15.214  0.3623  0.2637 -0.3049
  884MPD2    H512969   0.857   1.936  15.123  1.3731 -0.0646 -0.4483
  884MPD2    N112970   1.257   1.656  15.077 -0.4113 -0.0642  0.3904
  884MPD2    H712971   1.240   1.713  14.995 -0.5927 -0.0061  0.4665
  885MPD2     C12972   3.882   2.836  17.674  0.3288  0.1115 -0.1398
  885MPD2    C112973   3.914   2.710  17.640 -0.5303 -0.2514 -0.3974
  885MPD2    C212974   3.979   2.702  17.515  0.4062 -0.1071  0.1656
  885MPD2    C312975   3.985   2.802  17.418 -0.2623  0.2984  0.3749
  885MPD2    C412976   3.944   2.924  17.457 -0.9223 -0.7156  0.5172
  885MPD2    C512977   3.893   2.939  17.582 -0.3789 -0.2972  0.4388
  885MPD2     H12978   4.015   2.605  17.484 -1.6314  0.0938 -2.8630
  885MPD2    H112979   3.958   3.012  17.395  2.0160 -1.7085 -0.2350
  885MPD2    H212980   3.843   2.867   0.079  1.1107  0.3500  0.0981
  885MPD2    H312981   3.873   3.041  17.612 -1.5594 -0.3665 -0.1140
  885MPD2     N12982   4.053   2.776  17.302 -0.2061 -0.0386  0.2644
  885MPD2    H512983   4.095   2.685  17.290 -0.0869 -0.3103  2.7645
  885MPD2    N112984   3.881   2.603   0.038  0.2833  0.1893  0.0226
  885MPD2    H712985   3.843   2.629   0.128  2.2409 -1.8014  1.4229
  886MPD2     C12986   0.759   0.511  14.999 -0.7950  0.6401  0.4450
  886MPD2    C112987   0.879   0.529  15.066 -0.4567 -0.2555  0.0212
  886MPD2    C212988   0.893   0.639  15.142 -0.2922 -0.5263 -0.1383
  886MPD2    C312989   0.800   0.734  15.135 -0.5468  0.0453  0.5456
  886MPD2    C412990   0.679   0.709  15.088  0.0251 -0.8650  0.5282
  886MPD2    C512991   0.658   0.602  15.015 -0.1620  0.8438  0.1536
  886MPD2     H12992   0.983   0.661  15.198  0.5157 -0.9651 -1.2611
  886MPD2    H112993   0.609   0.791  15.082  2.3077  0.5976 -6.3946
  886MPD2    H212994   0.757   0.434  14.922 -0.3617 -2.6617  3.7606
  886MPD2    H312995   0.564   0.604  14.961 -0.6303 -0.8012  0.8933
  886MPD2     N12996   0.809   0.859  15.190  0.5130  0.3242  0.7015
  886MPD2    H512997   0.734   0.923  15.166  0.0757 -1.2849 -2.2343
  886MPD2    N112998   0.982   0.428  15.080 -0.2213  1.1095 -0.0064
  886MPD2    H712999   1.063   0.466  15.129  0.5147 -1.7297  0.9881
  887MPD2     C13000   1.607   0.647  15.119 -0.8774  0.2347  0.5866
  887MPD2    C113001   1.502   0.605  15.196 -0.0257  0.1255  0.5726
  887MPD2    C213002   1.451   0.687  15.288 -0.0080 -0.6083  0.7232
  887MPD2    C313003   1.517   0.804  15.316  0.0008  0.2514  1.2141
  887MPD2    C413004   1.632   0.838  15.251  0.1725  0.0801 -0.3240
  887MPD2    C513005   1.675   0.762  15.146 -0.3387  0.0202 -0.1783
  887MPD2     H13006   1.367   0.650  15.345 -0.0430 -0.7219  0.5959
  887MPD2    H113007   1.683   0.933  15.262  1.0221 -0.3027 -0.9649
  887MPD2    H213008   1.649   0.607  15.027 -2.0108 -2.0226  1.0615
  887MPD2    H313009   1.758   0.789  15.082 -0.6288 -1.6816 -1.2744
  887MPD2     N13010   1.468   0.876  15.428  0.3274  0.3319  0.0298
  887MPD2    H513011   1.377   0.843  15.458 -0.5213  2.4460 -0.2193
  887MPD2    N113012   1.431   0.486  15.177 -0.8165  0.2081 -0.0876
  887MPD2    H713013   1.337   0.492  15.215 -1.3133  1.4901 -1.5251
  888MPD2     C13014   3.278   0.816  14.762 -0.6160  0.1052 -0.4070
  888MPD2    C113015   3.262   0.863  14.897  0.7533 -0.2629 -0.0574
  888MPD2    C213016   3.335   0.973  14.936  0.7473  0.7335 -0.2817
  888MPD2    C313017   3.420   1.041  14.846 -0.4512  0.1674 -0.0296
  888MPD2    C413018   3.432   0.994  14.717 -0.2495 -0.1311 -0.4867
  888MPD2    C513019   3.362   0.883  14.675  0.4592  1.0916  0.7712
  888MPD2     H13020   3.305   1.026  15.026  1.6102  0.1922  0.3248
  888MPD2    H113021   3.505   1.032  14.647  2.3668 -2.5654  0.9333
  888MPD2    H213022   3.245   0.716  14.736  0.0835 -0.8193  2.1626
  888MPD2    H313023   3.378   0.841  14.577 -0.7738  0.2303  0.9344
  888MPD2     N13024   3.474   1.160  14.884 -0.4681 -0.1605  0.7718
  888MPD2    H513025   3.460   1.180  14.983 -0.4552  1.7593  0.3834
  888MPD2    N113026   3.180   0.798  14.994 -0.2216  0.5076  0.3574
  888MPD2    H713027   3.188   0.829  15.090 -1.0719 -1.0350  0.9292
  889MPD2     C13028   1.880   4.460  12.832 -1.1974  0.7751  0.5659
  889MPD2    C113029   1.991   4.475  12.914 -0.4304 -0.0833  0.4602
  889MPD2    C213030   2.012   4.595  12.970  0.2755 -0.2713 -0.6812
  889MPD2    C313031   1.943   4.707  12.939  0.2068  0.0620  0.0457
  889MPD2    C413032   1.829   4.696  12.869  0.1131 -0.6795  0.0961
  889MPD2    C513033   1.793   4.568  12.822 -0.1729 -0.7099  0.6839
  889MPD2     H13034   2.104   4.605  13.026 -0.9057  0.4626  1.1387
  889MPD2    H113035   1.762   0.054  12.842  1.7652  1.5815  2.7097
  889MPD2    H213036   1.838   4.362  12.809  1.9780 -0.1594 -1.3238
  889MPD2    H313037   1.698   4.566  12.770  0.3380 -1.1302 -0.2351
  889MPD2     N13038   1.981   0.103  13.009  0.3705 -0.1513 -0.0633
  889MPD2    H513039   2.039   0.096  13.091 -1.3970 -3.6733  0.8921
  889MPD2    N113040   2.073   4.369  12.957 -0.3804  0.8560 -0.1853
  889MPD2    H713041   2.129   4.388  13.040  0.5289  1.3516 -0.9127
  890MPD2     C13042   2.405   1.683  15.059 -0.0661  0.3414 -0.3471
  890MPD2    C113043   2.424   1.800  15.129 -0.6658 -0.3116  0.0015
  890MPD2    C213044   2.411   1.804  15.260 -0.2198 -0.1701  0.0500
  890MPD2    C313045   2.372   1.694  15.336 -0.2628 -0.2962 -0.5160
  890MPD2    C413046   2.348   1.580  15.269 -0.4000  0.3358  0.5287
  890MPD2    C513047   2.371   1.575  15.135 -0.2604  0.6958 -0.0852
  890MPD2     H13048   2.412   1.897  15.316  1.8885 -0.0230 -0.2178
  890MPD2    H113049   2.324   1.487  15.319 -2.1007  0.6961  0.4025
  890MPD2    H213050   2.411   1.669  14.951 -1.2181  1.3736 -0.5360
  890MPD2    H313051   2.347   1.480  15.087  1.4527 -0.3248  1.0641
  890MPD2     N13052   2.342   1.724  15.473 -0.2280  0.7376 -0.1351
  890MPD2    H513053   2.370   1.815  15.509 -0.3822  0.0415  1.7416
  890MPD2    N113054   2.462   1.910  15.048  0.1827  0.0752  0.2791
  890MPD2    H713055   2.470   1.883  14.951 -0.3639  1.0786 -0.0358
  891MPD2     C13056   0.165   0.271  16.627 -1.2227  0.4856 -0.8205
  891MPD2    C113057   0.178   0.412  16.622  0.6590 -0.6825 -0.0072
  891MPD2    C213058   0.298   0.467  16.642 -0.0271  0.5650  0.4046
  891MPD2    C313059   0.407   0.395  16.672 -0.0420  0.0395  0.2335
  891MPD2    C413060   0.395   0.258  16.682  0.5299  0.1702  0.3072
  891MPD2    C513061   0.272   0.201  16.665 -0.0790 -0.4251  0.2317
  891MPD2     H13062   0.301   0.575  16.637 -0.7969  0.5685  0.0127
  891MPD2    H113063   0.479   0.194  16.705  0.9628  0.4554 -0.5128
  891MPD2    H213064   0.076   0.214  16.603  1.4791 -3.6177 -0.9996
  891MPD2    H313065   0.263   0.093  16.665 -0.4979 -0.3900 -0.0721
  891MPD2     N13066   0.532   0.459  16.693  0.1470 -0.3749 -0.2422
  891MPD2    H513067   0.531   0.560  16.687 -3.0645 -0.4624 -1.1822
  891MPD2    N113068   0.070   0.487  16.572  0.6113 -0.6420  0.6008
  891MPD2    H713069   0.006   0.433  16.515  1.2416 -0.3615 -0.3684
  892MPD2     C13070   1.302   1.152  15.025 -0.0293 -0.1128  0.0862
  892MPD2    C113071   1.254   1.189  14.900 -0.2026  0.4945  0.3395
  892MPD2    C213072   1.289   1.108  14.794 -0.9854  0.2253 -0.0725
  892MPD2    C313073   1.381   1.002  14.805 -0.1576  0.2758  0.3522
  892MPD2    C413074   1.420   0.975  14.928  0.2152 -0.6623 -0.3576
  892MPD2    C513075   1.391   1.050  15.040 -0.1989  0.0830  0.8362
  892MPD2     H13076   1.258   1.137  14.694  0.7972 -0.5962 -0.8640
  892MPD2    H113077   1.489   0.895  14.951 -1.3168 -2.5604 -2.4210
  892MPD2    H213078   1.272   1.213  15.110  0.0258 -1.2971  0.9526
  892MPD2    H313079   1.433   1.019  15.135  0.1974  0.0238  0.6396
  892MPD2     N13080   1.407   0.910  14.707  0.4718 -0.0313 -0.8419
  892MPD2    H513081   1.478   0.840  14.724  0.7294  0.5723  0.5146
  892MPD2    N113082   1.151   1.280  14.885 -0.5233 -0.1492 -0.1604
  892MPD2    H713083   1.108   1.296  14.794 -1.0107  1.7164  0.4158
  893MPD2     C13084   3.584   4.687   2.167 -0.3177  0.4590 -0.4127
  893MPD2    C113085   3.548   4.649   2.039  0.1554  0.6571 -0.3116
  893MPD2    C213086   3.523   4.514   2.014 -0.6628 -0.0670  0.1329
  893MPD2    C313087   3.526   4.422   2.119  0.3021  0.1294  0.6071
  893MPD2    C413088   3.569   4.467   2.243  1.4522 -0.1506  0.3555
  893MPD2    C513089   3.600   4.597   2.268 -0.6233 -0.5558  0.2795
  893MPD2     H13090   3.493   4.479   1.916  0.3103 -0.4368 -0.0311
  893MPD2    H113091   3.585   4.390   2.318  1.5768  0.7414  1.2497
  893MPD2    H213092   3.587   0.071   2.188  0.8946  0.1678  0.9356
  893MPD2    H313093   3.627   4.624   2.369  0.9537  0.7869 -0.4979
  893MPD2     N13094   3.491   4.283   2.108  0.6750 -0.5172 -0.1507
  893MPD2    H513095   3.509   4.214   2.181  0.9053  1.2098  1.4244
  893MPD2    N113096   3.536   0.027   1.942  1.0477  0.4526  0.1649
  893MPD2    H713097   3.573   0.119   1.962 -0.2756  0.5010  2.3704
  894MPD2     C13098   1.524   3.031   0.485  0.2598 -0.3099  0.2478
  894MPD2    C113099   1.514   2.974   0.612 -1.0902 -1.1928 -0.3478
  894MPD2    C213100   1.529   3.059   0.719 -0.1097  0.1138  0.3103
  894MPD2    C313101   1.582   3.184   0.709 -0.0198 -1.0238 -0.1727
  894MPD2    C413102   1.589   3.242   0.578  0.0303  0.4256 -1.2963
  894MPD2    C513103   1.559   3.160   0.472 -0.3719  0.8639  0.2765
  894MPD2     H13104   1.507   3.010   0.813 -2.9885  0.5134 -0.1404
  894MPD2    H113105   1.609   3.348   0.564  1.5132 -0.0726 -2.9575
  894MPD2    H213106   1.518   2.975   0.392  0.3513 -0.9501  0.6214
  894MPD2    H313107   1.561   3.211   0.376  2.2368  1.5969  0.7068
  894MPD2     N13108   1.606   3.261   0.831 -0.2981 -0.4613 -0.0802
  894MPD2    H513109   1.571   3.226   0.919 -1.5201 -1.3950 -0.9462
  894MPD2    N113110   1.466   2.841   0.616 -0.0203 -0.2566 -0.0334
  894MPD2    H713111   1.429   2.812   0.706  0.5363 -0.8428  0.0112
  895MPD2     C13112   0.106   0.842  13.807 -0.2198  0.2231 -0.9062
  895MPD2    C113113   0.017   0.783  13.718  0.2802 -0.4796  0.4438
  895MPD2    C213114   0.036   0.651  13.677 -0.2439  0.0335 -1.0593
  895MPD2    C313115   0.138   0.580  13.738 -0.3718  0.2369 -0.2518
  895MPD2    C413116   0.224   0.629  13.832  0.1008  0.7063 -0.3504
  895MPD2    C513117   0.205   0.763  13.865  0.3826 -0.0448  0.5092
  895MPD2     H13118   4.681   0.599  13.622 -1.3014  0.4655  0.0219
  895MPD2    H113119   0.315   0.581  13.867 -0.0958  0.8629  0.3760
  895MPD2    H213120   0.098   0.946  13.837 -0.4861  0.7208 -2.7260
  895MPD2    H313121   0.273   0.802  13.940  1.7949 -0.7396 -0.4041
  895MPD2     N13122   0.141   0.449  13.684 -0.0323  0.6307  0.5246
  895MPD2    H513123   0.069   0.422  13.618  0.0238  1.7659 -0.0013
  895MPD2    N113124   4.633   0.850  13.658  0.1726  0.6008 -0.1535
  895MPD2    H713125   4.570   0.801  13.595  1.7203  1.1172 -2.0699
  896MPD2     C13126   3.126   3.276   2.061  0.1642 -0.1516  0.6661
  896MPD2    C113127   3.077   3.289   1.930 -0.9476  0.0947 -0.2013
  896MPD2    C213128   2.942   3.264   1.911 -0.0843 -0.5964  0.2077
  896MPD2    C313129   2.860   3.219   2.015 -0.7501  0.1814 -0.7247
  896MPD2    C413130   2.913   3.203   2.140  0.1935  0.0910  0.9564
  896MPD2    C513131   3.042   3.237   2.167  0.2240 -1.4208 -0.7225
  896MPD2     H13132   2.891   3.271   1.815 -0.3047  1.6979  0.4988
  896MPD2    H113133   2.864   3.168   2.231 -1.7429  1.8369  0.5907
  896MPD2    H213134   3.229   3.300   2.083  0.1977  0.4175 -0.1203
  896MPD2    H313135   3.081   3.231   2.267  2.0022 -0.3689 -1.3499
  896MPD2     N13136   2.728   3.171   1.978  0.1268 -0.1347 -0.9579
  896MPD2    H513137   2.703   3.171   1.880 -0.9080  2.7165 -0.6841
  896MPD2    N113138   3.152   3.348   1.828  0.2493  0.0944  0.0577
  896MPD2    H713139   3.251   3.350   1.849  0.1685  2.3362  0.2990
  897MPD2     C13140   3.252   4.085  10.402 -0.4423 -0.0497  0.4068
  897MPD2    C113141   3.229   4.206  10.460 -0.7200 -0.4375 -0.1933
  897MPD2    C213142   3.165   4.210  10.581  0.0656 -0.4847  0.0111
  897MPD2    C313143   3.164   4.094  10.655  0.0407  0.0661  0.2773
  897MPD2    C413144   3.204   3.977  10.602  0.2806 -0.2422  0.2493
  897MPD2    C513145   3.228   3.974  10.471 -0.6140 -0.2027  0.0772
  897MPD2     H13146   3.145   4.306  10.627 -0.0116 -0.4500 -0.0960
  897MPD2    H113147   3.197   3.883  10.656  2.9894 -0.4070  0.2980
  897MPD2    H213148   3.308   4.078  10.310  0.1999  2.9431  0.5719
  897MPD2    H313149   3.238   3.881  10.418  2.6262 -0.0015  0.3349
  897MPD2     N13150   3.111   4.110  10.783  0.4638 -0.2031 -0.0544
  897MPD2    H513151   3.074   4.201  10.809  1.6030  0.5637 -1.1238
  897MPD2    N113152   3.260   4.321  10.383  1.1112 -0.1440  0.1525
  897MPD2    H713153   3.309   4.304  10.295 -0.1321  2.3761 -1.0139
  898MPD2     C13154   0.328   1.649   0.686  0.0916  0.7138  0.2373
  898MPD2    C113155   0.461   1.611   0.679 -0.3805  0.0195  0.3758
  898MPD2    C213156   0.550   1.696   0.621 -0.8452  0.3830 -0.9358
  898MPD2    C313157   0.511   1.821   0.571  0.0227 -0.3975  0.4032
  898MPD2    C413158   0.379   1.857   0.578  0.4194  0.0349 -0.5276
  898MPD2    C513159   0.287   1.772   0.633  0.4255  0.2990  0.1744
  898MPD2     H13160   0.651   1.665   0.599 -0.9094 -0.6244  0.1834
  898MPD2    H113161   0.345   1.952   0.540  0.4630 -0.2187 -1.2056
  898MPD2    H213162   0.265   1.572   0.728  0.9848  0.0989  0.4612
  898MPD2    H313163   0.185   1.807   0.640 -0.1602 -0.7090 -3.2031
  898MPD2     N13164   0.615   1.900   0.516 -0.4222 -0.4947  0.3761
  898MPD2    H513165   0.712   1.877   0.536 -0.4741 -0.5308  0.5936
  898MPD2    N113166   0.514   1.504   0.754 -0.5789  0.1091  0.2103
  898MPD2    H713167   0.616   1.505   0.752 -0.6071  0.9761 -0.8743
  899MPD2     C13168   1.416   1.867  17.373  0.7126  0.1460  0.7677
  899MPD2    C113169   1.526   1.919  17.435 -0.9479  0.4799  0.7667
  899MPD2    C213170   1.560   1.881  17.563 -0.6920  0.2804 -0.0581
  899MPD2    C313171   1.476   1.800  17.636  0.0525 -0.2045 -0.1327
  899MPD2    C413172   1.368   1.751  17.565  0.0277 -0.0371  0.1408
  899MPD2    C513173   1.330   1.789  17.435 -0.3596  0.1641 -0.2724
  899MPD2     H13174   1.650   1.926  17.604  1.0798 -4.0296  0.8015
  899MPD2    H113175   1.290   1.701  17.622  1.3388 -1.0640  1.0367
  899MPD2    H213176   1.394   1.898  17.271  0.4449 -0.5116  0.6255
  899MPD2    H313177   1.236   1.762  17.388 -0.6005 -1.3538  1.0918
  899MPD2     N13178   1.493   1.781   0.088 -0.5908 -0.4141 -0.2552
  899MPD2    H513179   1.428   1.718   0.134 -0.9892  0.0228 -0.2224
  899MPD2    N113180   1.605   2.018  17.357 -0.0644  0.3526 -0.0051
  899MPD2    H713181   1.569   2.035  17.263 -2.9391  1.1805  1.2445
  900MPD2     C13182   1.411   3.068  12.701 -0.8455  0.2460  0.5159
  900MPD2    C113183   1.351   3.010  12.586 -0.3231 -0.2875  0.0940
  900MPD2    C213184   1.225   3.058  12.544  0.7297 -0.3917 -0.2540
  900MPD2    C313185   1.169   3.167  12.601 -0.2399 -0.3369 -0.4056
  900MPD2    C413186   1.237   3.230  12.706 -0.1930 -0.0724  0.2210
  900MPD2    C513187   1.357   3.181  12.751 -0.3070  0.5185  0.2663
  900MPD2     H13188   1.171   3.014  12.461  1.5643 -0.8223 -0.5751
  900MPD2    H113189   1.203   3.323  12.749 -3.6603 -0.9683 -0.5948
  900MPD2    H213190   1.510   3.037  12.735 -0.2482  0.5852 -0.9319
  900MPD2    H313191   1.414   3.223  12.833  1.3273  0.0662 -0.6543
  900MPD2     N13192   1.053   3.226  12.537  0.0596 -0.1118 -0.2332
  900MPD2    H513193   0.997   3.172  12.472 -1.1847  0.8001  0.0775
  900MPD2    N113194   1.396   2.889  12.522 -0.5118  0.3440 -0.1597
  900MPD2    H713195   1.330   2.842  12.461  0.5940 -1.5703  0.1225
  901MPD2     C13196   1.315   1.931  12.706  0.1866 -0.1190 -0.0338
  901MPD2    C113197   1.447   1.933  12.663 -0.1038  0.1695 -0.1003
  901MPD2    C213198   1.505   2.051  12.631 -0.1422  0.0743 -0.4576
  901MPD2    C313199   1.423   2.164  12.625 -0.1928 -0.8001 -0.7475
  901MPD2    C413200   1.293   2.160  12.667  0.8436 -0.4905 -0.0612
  901MPD2    C513201   1.240   2.041  12.711  0.3103 -0.2793  0.0406
  901MPD2     H13202   1.605   2.055  12.591  0.7932  0.1539  1.8953
  901MPD2    H113203   1.233   2.249  12.658  3.9406  1.6134 -0.1051
  901MPD2    H213204   1.270   1.841  12.746 -0.5563 -0.3954 -1.4758
  901MPD2    H313205   1.133   2.032  12.725  0.6755 -0.6613  2.5713
  901MPD2     N13206   1.472   2.274  12.560  0.0908 -0.4925  0.6684
  901MPD2    H513207   1.564   2.263  12.520  0.8926  1.1333  2.0764
  901MPD2    N113208   1.510   1.804  12.658 -0.0895 -0.6118 -0.5434
  901MPD2    H713209   1.438   1.733  12.661 -0.5852 -0.1411 -1.1187
  902MPD2     C13210   0.131   1.117  13.359  0.2424 -0.2294 -0.8807
  902MPD2    C113211   0.172   1.128  13.227  0.8972 -0.0355 -0.5381
  902MPD2    C213212   0.226   1.022  13.164 -0.6643  0.3121 -0.0546
  902MPD2    C313213   0.256   0.907  13.231 -0.1376 -0.3057  0.1729
  902MPD2    C413214   0.229   0.901  13.359  0.1542 -0.1113 -0.1504
  902MPD2    C513215   0.159   1.001  13.423 -0.2376  0.1183  0.0195
  902MPD2     H13216   0.255   1.039  13.061  1.2116 -1.3369  0.1916
  902MPD2    H113217   0.259   0.814  13.417 -1.6676 -1.0459 -0.5988
  902MPD2    H213218   0.077   1.200  13.403  1.9016 -0.6088  1.8677
  902MPD2    H313219   0.120   0.989  13.523  4.1371 -2.9783  1.3882
  902MPD2     N13220   0.305   0.790  13.169 -0.5562  0.6097  0.0503
  902MPD2    H513221   0.324   0.710  13.227  0.8338 -0.5788 -2.0724
  902MPD2    N113222   0.154   1.247  13.152 -0.5810  0.5713 -0.4800
  902MPD2    H713223   0.154   1.232  13.052 -1.9813 -0.9532 -0.2519
  903MPD2     C13224   0.522   0.955  12.552 -0.3309 -0.0450  0.0804
  903MPD2    C113225   0.483   0.825  12.570 -0.5146  0.1827 -0.2260
  903MPD2    C213226   0.372   0.787  12.497  0.2999 -0.4711 -0.5622
  903MPD2    C313227   0.312   0.873  12.402  0.3916 -0.0853 -0.5611
  903MPD2    C413228   0.361   1.004  12.377 -0.3099  0.0671  0.1566
  903MPD2    C513229   0.463   1.045  12.464 -0.4144 -0.6002 -0.9702
  903MPD2     H13230   0.337   0.684  12.491  0.2735 -0.4048 -1.5495
  903MPD2    H113231   0.311   1.066  12.305  0.2538  0.4441  0.0852
  903MPD2    H213232   0.605   0.998  12.607 -0.2121 -0.5339  0.2780
  903MPD2    H313233   0.519   1.136  12.449 -1.1712 -0.1629 -1.1770
  903MPD2     N13234   0.196   0.825  12.336 -0.3045 -0.1816 -0.0357
  903MPD2    H513235   0.162   0.733  12.359  0.1599 -0.2550  0.3724
  903MPD2    N113236   0.533   0.746  12.673  0.0206  0.8481  0.0307
  903MPD2    H713237   0.609   0.787  12.725 -1.6435  0.0708  3.0534
  904MPD2     C13238   4.435   0.288  13.899 -1.2386  1.0318 -0.6229
  904MPD2    C113239   4.399   0.239  14.024  0.0981 -0.3963 -0.2693
  904MPD2    C213240   4.504   0.194  14.098 -0.4764 -0.2396 -0.3757
  904MPD2    C313241   4.635   0.209  14.063 -0.2755  0.9478  0.2358
  904MPD2    C413242   4.668   0.278  13.951 -0.3069 -0.1454 -0.4869
  904MPD2    C513243   4.563   0.311  13.866 -0.6300  0.4182 -0.1907
  904MPD2     H13244   4.486   0.131  14.184 -1.6497  2.7615  1.5785
  904MPD2    H113245   0.046   0.306  13.921 -0.8586 -0.2376 -2.3852
  904MPD2    H213246   4.357   0.295  13.824 -0.5039  2.5015 -1.2516
  904MPD2    H313247   4.592   0.345  13.768  0.7114 -1.5967 -0.4840
  904MPD2     N13248   0.008   0.133  14.130  1.0258 -0.1804  0.1643
  904MPD2    H513249   4.694   0.080  14.209  2.2183  0.5322  1.1908
  904MPD2    N113250   4.266   0.208  14.068  0.0437  0.4095 -0.2304
  904MPD2    H713251   4.265   0.148  14.150  0.7565 -1.3728 -1.5386
  905MPD2     C13252   4.146   0.192  13.485 -0.7742  0.0214 -0.6483
  905MPD2    C113253   4.216   0.306  13.519  0.0562  0.0239 -0.2849
  905MPD2    C213254   4.352   0.303  13.491  0.2301  0.1325  0.2506
  905MPD2    C313255   4.409   0.206  13.410  0.1191  0.0954  0.3270
  905MPD2    C413256   4.335   0.103  13.363  0.9237  0.3105 -0.3124
  905MPD2    C513257   4.204   0.096  13.407 -1.0383 -0.4392  0.3681
  905MPD2     H13258   4.408   0.395  13.500  0.1591  0.4554 -2.8960
  905MPD2    H113259   4.379   0.019  13.311  0.2154 -0.6104  0.5585
  905MPD2    H213260   4.040   0.185  13.507 -0.3560 -0.7031  1.1720
  905MPD2    H313261   4.149   0.009  13.373  1.2116 -1.5183 -0.5619
  905MPD2     N13262   4.546   0.185  13.394  0.1158 -0.4038  0.2031
  905MPD2    H513263   4.565   0.098  13.345 -0.5424 -0.2886 -0.2667
  905MPD2    N113264   4.158   0.405  13.602  0.3263  0.2282 -0.2996
  905MPD2    H713265   4.061   0.386  13.628  0.7152 -0.8460  0.3497
  906MPD2     C13266   2.053   4.144  11.622 -0.4780 -0.4574  0.4159
  906MPD2    C113267   1.966   4.144  11.512 -0.3185 -0.8994  0.4189
  906MPD2    C213268   1.872   4.048  11.512 -0.6433  0.3536  0.2120
  906MPD2    C313269   1.854   3.952  11.611  0.5308 -0.3930  0.1256
  906MPD2    C413270   1.930   3.959  11.722 -0.4702 -0.2219  0.1884
  906MPD2    C513271   2.033   4.051  11.723  0.3938 -0.2835  0.8999
  906MPD2     H13272   1.824   4.050  11.415 -1.9720 -1.6203  0.8274
  906MPD2    H113273   1.928   3.889  11.805 -0.6073 -1.5090 -0.8927
  906MPD2    H213274   2.137   4.212  11.624  0.0044 -1.0143 -0.9175
  906MPD2    H313275   2.096   4.042  11.811  2.6318  0.7088 -0.5835
  906MPD2     N13276   1.757   3.853  11.606  0.2748 -0.4851 -0.3660
  906MPD2    H513277   1.774   3.781  11.675 -0.8370  0.2099  0.6435
  906MPD2    N113278   1.964   4.224  11.394  0.2255 -0.0868 -0.1864
  906MPD2    H713279   1.913   4.185  11.315 -0.1400 -0.6887  0.3430
  907MPD2     C13280   0.901   4.199  15.540  0.1640 -0.8405 -0.6584
  907MPD2    C113281   1.010   4.143  15.480  0.2047 -0.2929  0.5160
  907MPD2    C213282   1.128   4.139  15.550 -0.0845 -0.7489 -0.2966
  907MPD2    C313283   1.134   4.185  15.679 -0.2203 -0.4921 -0.9631
  907MPD2    C413284   1.020   4.242  15.739  0.5022 -0.4998 -0.3003
  907MPD2    C513285   0.898   4.245  15.671  0.7969 -0.4190  0.6415
  907MPD2     H13286   1.217   4.100  15.502 -0.3657 -0.6698 -0.8812
  907MPD2    H113287   1.021   4.280  15.841  2.5764 -0.9814 -0.1233
  907MPD2    H213288   0.811   4.213  15.483 -0.4524  0.9189  0.7481
  907MPD2    H313289   0.807   4.274  15.723 -0.3069  0.1708 -1.6315
  907MPD2     N13290   1.259   4.170  15.747  0.0007 -1.3241 -0.1886
  907MPD2    H513291   1.344   4.153  15.694  0.0383 -1.3594 -0.1169
  907MPD2    N113292   1.008   4.099  15.341  0.2646  0.5864 -0.2045
  907MPD2    H713293   1.096   4.057  15.313 -1.0905 -1.7359 -0.9507
  908MPD2     C13294   3.406   4.333   9.536 -0.3976 -0.2760 -0.2592
  908MPD2    C113295   3.419   4.248   9.641  0.5880  0.1544  0.1048
  908MPD2    C213296   3.380   4.298   9.770 -0.5300 -0.2432 -0.6601
  908MPD2    C313297   3.351   4.432   9.788  0.5160  0.3619  0.0520
  908MPD2    C413298   3.361   4.521   9.679  0.8182  0.4669 -0.6204
  908MPD2    C513299   3.383   4.466   9.553  0.5660 -0.6365  0.1512
  908MPD2     H13300   3.391   4.227   9.852  1.4148  0.5487 -0.2312
  908MPD2    H113301   3.352   4.629   9.686 -2.0554  0.2472 -0.7561
  908MPD2    H213302   3.407   4.300   9.433 -0.0050  0.4043 -0.4701
  908MPD2    H313303   3.388   4.529   9.465  1.0606 -0.0031  0.6359
  908MPD2     N13304   3.334   4.479   9.918  0.4340 -0.1993  0.0363
  908MPD2    H513305   3.347   4.407   9.989 -0.4677 -0.4411 -0.0443
  908MPD2    N113306   3.461   4.113   9.628  0.6715 -0.3908 -0.6415
  908MPD2    H713307   3.461   4.055   9.711  0.3893  0.4699 -0.0391
  909MPD2     C13308   4.178   2.147  12.187  1.0165 -0.0546  0.2749
  909MPD2    C113309   4.180   2.256  12.109 -1.0891 -0.4540  0.0518
  909MPD2    C213310   4.108   2.370  12.151 -0.3269 -0.1272 -0.0444
  909MPD2    C313311   4.046   2.378  12.273  0.7764  0.9711  0.2210
  909MPD2    C413312   4.027   2.256  12.338 -0.5267 -0.8878  0.0721
  909MPD2    C513313   4.091   2.140  12.297  0.1896  0.0151 -0.5262
  909MPD2     H13314   4.120   2.450  12.079  0.3387 -1.3074 -1.2587
  909MPD2    H113315   3.964   2.250  12.426  0.6907  1.4481  1.1126
  909MPD2    H213316   4.238   2.057  12.182 -0.9080 -1.4327  1.8553
  909MPD2    H313317   4.077   2.045  12.347 -0.5169  1.6225  2.3214
  909MPD2     N13318   4.000   2.499  12.315  0.0552 -0.0738  0.1377
  909MPD2    H513319   4.039   2.579  12.266 -1.4632  0.5446 -0.0474
  909MPD2    N113320   4.248   2.268  11.984  0.0025  0.5373 -0.0108
  909MPD2    H713321   4.248   2.353  11.928  1.4457  0.4996 -0.0745
  910MPD2     C13322   0.692   4.483  16.104 -0.4307 -0.2097 -0.4350
  910MPD2    C113323   0.715   4.394  15.996 -0.0441 -0.4975 -0.7862
  910MPD2    C213324   0.649   4.426  15.878  0.3180  0.1829  0.5359
  910MPD2    C313325   0.580   4.547  15.866 -0.3005 -0.5498  0.1477
  910MPD2    C413326   0.563   4.633  15.967  0.4481  0.2520 -0.5454
  910MPD2    C513327   0.629   4.608  16.084 -0.1688 -0.6865  0.3197
  910MPD2     H13328   0.648   4.352  15.799 -3.8619  0.0186  0.7545
  910MPD2    H113329   0.507   0.003  15.957  0.1086 -0.3141 -3.7134
  910MPD2    H213330   0.725   4.456  16.204  1.5913  0.9219 -0.8113
  910MPD2    H313331   0.628   4.676  16.168 -0.3697  1.0400 -1.0756
  910MPD2     N13332   0.513   4.587  15.753 -0.6227 -0.5332  0.0455
  910MPD2    H513333   0.460   4.673  15.764  1.5117  0.8092 -0.1639
  910MPD2    N113334   0.767   4.261  16.012  0.3193 -0.1813  0.5941
  910MPD2    H713335   0.785   4.211  15.926 -0.1547 -0.3111  0.5723
  911MPD2     C13336   3.264   1.091  16.460 -0.2411  0.7381  0.4662
  911MPD2    C113337   3.344   1.003  16.405  0.2927 -0.6940 -0.4415
  911MPD2    C213338   3.344   0.989  16.270 -0.0345  0.1360 -0.4982
  911MPD2    C313339   3.250   1.047  16.193  0.7732  0.9814 -0.4106
  911MPD2    C413340   3.155   1.125  16.253  0.2621 -0.9853  0.1155
  911MPD2    C513341   3.165   1.153  16.384  0.6512  0.0865  0.4884
  911MPD2     H13342   3.419   0.923  16.229 -0.6213 -1.0360  0.3046
  911MPD2    H113343   3.080   1.175  16.193  1.5745 -0.9698 -1.4884
  911MPD2    H213344   3.269   1.108  16.567  3.5801  1.6278  0.1353
  911MPD2    H313345   3.098   1.223  16.432 -1.3162 -1.8510  0.5422
  911MPD2     N13346   3.243   1.035  16.056 -0.2058  0.0244  0.2635
  911MPD2    H513347   3.166   1.083  16.011  0.0508 -0.7136 -0.9738
  911MPD2    N113348   3.440   0.935  16.484  0.1274 -0.5673 -0.7930
  911MPD2    H713349   3.447   0.956  16.584  0.6972  0.2103 -0.9973
  912MPD2     C13350   2.795   0.534  15.535 -0.0655 -0.0269 -0.0667
  912MPD2    C113351   2.860   0.572  15.654 -0.2615  0.3839 -0.6193
  912MPD2    C213352   2.826   0.493  15.764 -0.1627  0.3923  0.4585
  912MPD2    C313353   2.765   0.370  15.746 -0.3813 -1.0587 -1.1235
  912MPD2    C413354   2.717   0.326  15.625 -0.3795  0.4359 -0.1665
  912MPD2    C513355   2.724   0.414  15.517  0.2340 -0.2395  0.3883
  912MPD2     H13356   2.863   0.518  15.863 -0.2352 -0.9014  0.8079
  912MPD2    H113357   2.658   0.236  15.615  0.2807  0.0825 -0.9255
  912MPD2    H213358   2.800   0.594  15.445 -1.0203 -0.2635 -0.2863
  912MPD2    H313359   2.683   0.378  15.424  0.4044  0.6268 -0.0205
  912MPD2     N13360   2.766   0.293  15.868  0.6152 -0.2006  0.0419
  912MPD2    H513361   2.797   0.346  15.948  1.2249  0.0716 -0.3787
  912MPD2    N113362   2.943   0.688  15.651  0.5396  0.6391  0.2283
  912MPD2    H713363   2.951   0.740  15.564 -2.4496  0.8583  0.0928
  913MPD2     C13364   3.611   1.609  10.189  0.1345 -0.0238 -0.7921
  913MPD2    C113365   3.739   1.637  10.216 -0.0391 -0.6309 -1.1808
  913MPD2    C213366   3.799   1.740  10.142  0.1259 -0.4962 -0.1843
  913MPD2    C313367   3.737   1.800  10.030 -0.2640 -0.7348 -0.5205
  913MPD2    C413368   3.610   1.759   9.993  0.8462 -1.0742  0.7371
  913MPD2    C513369   3.555   1.665  10.076  0.0694 -1.1402 -0.2227
  913MPD2     H13370   3.898   1.773  10.173 -0.8076  2.7827 -0.6934
  913MPD2    H113371   3.548   1.792   9.910  0.3986  1.9864  2.2726
  913MPD2    H213372   3.539   1.548  10.243 -1.9441  2.4198 -0.7898
  913MPD2    H313373   3.450   1.653  10.050  0.1751 -1.7379 -0.3674
  913MPD2     N13374   3.809   1.886   9.945  0.5789  0.2907  0.1400
  913MPD2    H513375   3.763   1.899   9.856 -0.6613 -0.5870  0.6466
  913MPD2    N113376   3.793   1.574  10.332 -0.1301 -0.0537  0.1182
  913MPD2    H713377   3.730   1.509  10.379 -1.3052  0.6143 -0.5297
  914MPD2     C13378   1.161   1.777  12.005 -0.0562 -0.1415  0.1336
  914MPD2    C113379   1.235   1.864  12.080 -0.2456  0.1472 -0.1480
  914MPD2    C213380   1.332   1.811  12.169  0.5887 -0.2012 -0.4690
  914MPD2    C313381   1.351   1.677  12.183 -0.4125  0.3988 -0.8778
  914MPD2    C413382   1.283   1.590  12.101  0.0643  0.4446  0.0110
  914MPD2    C513383   1.189   1.637  12.016 -0.3897 -0.1206 -0.1268
  914MPD2     H13384   1.372   1.878  12.243 -2.2992  1.1321 -0.1187
  914MPD2    H113385   1.292   1.484  12.117  1.6422  0.5773  0.0513
  914MPD2    H213386   1.091   1.809  11.928  1.6625  1.9095 -0.5657
  914MPD2    H313387   1.128   1.561  11.969 -1.0693 -1.5106  3.0276
  914MPD2     N13388   1.443   1.634  12.283  0.6947  0.6256 -0.7008
  914MPD2    H513389   1.492   1.711  12.327 -0.1668  1.4883 -1.2621
  914MPD2    N113390   1.218   2.003  12.059  0.3999  0.3157 -0.4636
  914MPD2    H713391   1.137   2.028  12.003 -0.1010 -0.5477 -0.1323
  915MPD2     C13392   0.028   2.056  15.315  0.0265  0.0074 -0.2189
  915MPD2    C113393   4.665   1.981  15.392 -0.1819  0.3123 -0.4343
  915MPD2    C213394   4.643   2.008  15.524  0.4703  0.1263 -0.7835
  915MPD2    C313395   4.714   2.100  15.586 -0.6693  0.3737  0.0730
  915MPD2    C413396   0.091   2.162  15.513  0.0228  0.2366  0.5171
  915MPD2    C513397   0.114   2.140  15.379 -0.6170 -0.3088 -0.0553
  915MPD2     H13398   4.570   1.954  15.582  0.0209  1.7637  0.1580
  915MPD2    H113399   0.172   2.211  15.567 -0.0505 -0.1866  1.0156
  915MPD2    H213400   0.052   2.037  15.211 -0.9369 -3.7711  0.2336
  915MPD2    H313401   0.189   2.180  15.313 -1.3385 -0.4579 -0.9769
  915MPD2     N13402   4.683   2.124  15.721 -0.6521 -0.4963  0.0323
  915MPD2    H513403   4.612   2.072  15.772 -0.2306  0.1092  1.2246
  915MPD2    N113404   4.599   1.864  15.334 -0.4145 -0.3028  0.2542
  915MPD2    H713405   4.618   1.847  15.235  0.6092  0.0905  0.3929
  916MPD2     C13406   1.776   0.052  15.833  0.0363 -0.2541 -0.0385
  916MPD2    C113407   1.840   4.688  15.931  0.1644  0.4547  0.5019
  916MPD2    C213408   1.936   4.596  15.880  0.4395  0.0532 -0.4858
  916MPD2    C313409   1.955   4.581  15.747  0.3673 -1.1298  0.8033
  916MPD2    C413410   1.884   4.652  15.655 -0.1241  0.4894 -0.4531
  916MPD2    C513411   1.803   0.031  15.701  1.2407 -0.4650 -0.3821
  916MPD2     H13412   2.007   4.544  15.943 -1.0930 -1.9425 -0.3918
  916MPD2    H113413   1.896   4.655  15.548 -2.6186 -1.2370 -0.7868
  916MPD2    H213414   1.695   0.121  15.858  0.8962  1.0752 -0.9353
  916MPD2    H313415   1.766   0.108  15.634  0.1561  0.0582  0.8274
  916MPD2     N13416   2.058   4.499  15.704  0.1258  0.7850  0.5278
  916MPD2    H513417   2.088   4.427  15.769 -1.5534 -0.5550 -0.1613
  916MPD2    N113418   1.818   4.718  16.066 -0.8250  0.2706 -0.6294
  916MPD2    H713419   1.774   0.085  16.087 -1.2155  0.1293 -0.8357
  917MPD2     C13420   2.723   1.892  11.109 -0.3899  0.2762 -0.4689
  917MPD2    C113421   2.748   1.967  11.222 -0.5188 -0.3306  0.5259
  917MPD2    C213422   2.852   2.054  11.212  0.0509  0.3623 -0.6910
  917MPD2    C313423   2.929   2.057  11.097 -0.6422 -0.0423  0.1003
  917MPD2    C413424   2.903   1.987  10.985  0.3215 -0.0129  0.0354
  917MPD2    C513425   2.800   1.901  10.999 -0.1330  0.2973 -0.0564
  917MPD2     H13426   2.882   2.121  11.292 -0.8561  0.7861 -0.7097
  917MPD2    H113427   2.959   2.005  10.894 -2.1032  0.0008 -1.4646
  917MPD2    H213428   2.637   1.827  11.110  0.1049 -0.3672  0.0763
  917MPD2    H313429   2.762   1.850  10.911  2.5834 -0.7628 -0.6044
  917MPD2     N13430   3.034   2.151  11.093  0.2921 -0.1422 -0.2706
  917MPD2    H513431   3.060   2.177  10.999 -1.6944 -1.4965 -1.1962
  917MPD2    N113432   2.655   1.963  11.329 -0.5524 -0.2697 -0.4323
  917MPD2    H713433   2.576   1.899  11.326 -1.5243  0.9808 -1.5457
  918MPD2     C13434   2.873   1.889  12.289  0.0041  0.0358 -0.1210
  918MPD2    C113435   2.936   1.978  12.200 -0.4689  0.2007 -0.4066
  918MPD2    C213436   2.867   2.041  12.091 -0.1755 -0.5020  0.2634
  918MPD2    C313437   2.734   2.006  12.069  0.4505 -0.5995  0.9430
  918MPD2    C413438   2.665   1.920  12.152  0.5858 -0.9092  0.4103
  918MPD2    C513439   2.738   1.868  12.261 -0.1124 -0.9150  0.7309
  918MPD2     H13440   2.922   2.100  12.018 -0.4085 -0.3293  0.2284
  918MPD2    H113441   2.560   1.899  12.135  0.5064 -2.7157  3.0662
  918MPD2    H213442   2.908   1.845  12.382  0.1238  0.1683 -0.1048
  918MPD2    H313443   2.687   1.805  12.333 -2.5158 -1.8352 -1.7613
  918MPD2     N13444   2.672   2.056  11.951 -0.0345 -0.4629 -0.0261
  918MPD2    H513445   2.734   2.091  11.879 -1.6144  0.2476 -1.0314
  918MPD2    N113446   3.073   2.012  12.209  0.2381 -0.2606 -0.6232
  918MPD2    H713447   3.106   2.081  12.142  0.2733 -1.8044 -2.2084
  919MPD2     C13448   3.269   1.314  11.819  0.3337  0.6074 -0.8419
  919MPD2    C113449   3.253   1.188  11.764  0.5217  0.1396 -0.2838
  919MPD2    C213450   3.271   1.175  11.629 -0.5257  0.5562 -0.8131
  919MPD2    C313451   3.300   1.279  11.539 -0.7150 -0.1768 -0.2172
  919MPD2    C413452   3.302   1.404  11.594 -0.3116  0.9010  0.2897
  919MPD2    C513453   3.293   1.415  11.729 -0.0771  0.4651 -0.3243
  919MPD2     H13454   3.243   1.079  11.586 -0.0659  0.3506 -0.6453
  919MPD2    H113455   3.315   1.492  11.532 -0.9886 -0.1530 -1.3349
  919MPD2    H213456   3.273   1.334  11.925  1.0413 -1.8756 -0.3961
  919MPD2    H313457   3.286   1.518  11.761  1.4780  0.3781  0.3151
  919MPD2     N13458   3.323   1.264  11.396  0.1757 -0.3666  0.5606
  919MPD2    H513459   3.321   1.344  11.333  0.1848 -1.1399 -0.4263
  919MPD2    N113460   3.246   1.067  11.830  0.4729 -0.2939 -0.0692
  919MPD2    H713461   3.235   0.979  11.781 -0.4025  0.8105 -1.8653
  920MPD2     C13462   3.419   1.613  10.466 -0.1648 -0.2084 -0.6210
  920MPD2    C113463   3.310   1.532  10.473  0.2637 -0.2270 -0.2100
  920MPD2    C213464   3.311   1.435  10.574 -0.6290 -0.5630 -0.6020
  920MPD2    C313465   3.397   1.435  10.683  0.0728 -0.0693 -0.2066
  920MPD2    C413466   3.500   1.528  10.680  0.3719 -0.6755  0.0034
  920MPD2    C513467   3.511   1.610  10.571  0.6147  0.2473  0.8605
  920MPD2     H13468   3.239   1.354  10.561 -2.5362  1.6089 -3.3859
  920MPD2    H113469   3.578   1.541  10.754  1.1718 -1.5000 -0.6923
  920MPD2    H213470   3.441   1.681  10.384  2.3718 -0.6703 -0.3427
  920MPD2    H313471   3.595   1.678  10.563 -0.1965  1.3108  1.3882
  920MPD2     N13472   3.384   1.338  10.784  0.5985 -0.6191  0.0821
  920MPD2    H513473   3.317   1.263  10.770 -0.1678 -0.2614  1.8053
  920MPD2    N113474   3.208   1.520  10.373 -0.6097 -0.4599  0.1777
  920MPD2    H713475   3.135   1.450  10.380 -0.4210 -0.8626 -1.7897
  921MPD2     C13476   4.325   1.132  16.727 -0.2935  0.3056  0.0281
  921MPD2    C113477   4.296   1.015  16.650 -0.3877  0.1242 -0.4337
  921MPD2    C213478   4.168   0.964  16.648  0.0488 -0.2903  1.0152
  921MPD2    C313479   4.064   1.020  16.720  0.3910  0.5243  0.3855
  921MPD2    C413480   4.084   1.129  16.795 -0.0303  0.4735  0.0522
  921MPD2    C513481   4.212   1.187  16.792 -0.3143  0.1499 -0.3180
  921MPD2     H13482   4.144   0.887  16.576 -0.7464  2.2928 -1.5129
  921MPD2    H113483   4.009   1.175  16.859  1.1435  1.3868  0.7768
  921MPD2    H213484   4.422   1.180  16.735  0.3358 -1.0412  0.4682
  921MPD2    H313485   4.228   1.284  16.836 -2.2216  0.7836 -1.0208
  921MPD2     N13486   3.931   0.969  16.727  0.4957  0.6066 -0.2423
  921MPD2    H513487   3.857   1.021  16.773  1.6645  1.6480  0.4649
  921MPD2    N113488   4.398   0.952  16.578  0.1113 -0.0973 -0.2140
  921MPD2    H713489   4.487   1.002  16.581 -0.1215  0.2366  1.0062
  922MPD2     C13490   0.247   3.405  17.510  0.3359  0.2579  0.1247
  922MPD2    C113491   0.131   3.480  17.542 -0.0687 -0.1270 -0.2498
  922MPD2    C213492   0.022   3.424  17.607  0.3118 -0.0231  0.0004
  922MPD2    C313493   0.031   3.287  17.638 -0.5667  0.5385 -0.2320
  922MPD2    C413494   0.145   3.214  17.609 -0.5128 -0.5466  0.1076
  922MPD2    C513495   0.248   3.270  17.540 -0.4851 -0.1581  0.5761
  922MPD2     H13496   4.655   3.486  17.614  0.7511  0.7023 -0.6947
  922MPD2    H113497   0.157   3.107  17.623  2.8789 -0.1366  0.4099
  922MPD2    H213498   0.332   3.451  17.460  0.7666  2.1407  2.6028
  922MPD2    H313499   0.330   3.200  17.526 -0.0466  0.0963  1.9150
  922MPD2     N13500   4.638   3.224   0.016  0.0890 -0.0002  0.1793
  922MPD2    H513501   4.559   3.279   0.049 -1.1760 -0.5857 -1.8090
  922MPD2    N113502   0.120   3.619  17.527 -0.1674 -0.6386  0.0207
  922MPD2    H713503   0.034   3.662  17.558 -0.2629 -0.3509 -0.6276
  923MPD2     C13504   1.393   0.100   8.908 -0.0508  0.1613  0.9347
  923MPD2    C113505   1.335   0.160   9.016 -0.9561 -0.5176 -0.1530
  923MPD2    C213506   1.400   0.150   9.144  0.4091 -0.7826 -0.1402
  923MPD2    C313507   1.525   0.092   9.151 -1.4408 -0.3822 -0.4520
  923MPD2    C413508   1.579   0.033   9.043  1.2733 -0.0951  0.5379
  923MPD2    C513509   1.510   0.025   8.925  0.7223 -0.1665 -0.4660
  923MPD2     H13510   1.347   0.186   9.232 -0.9010 -1.1568 -0.7716
  923MPD2    H113511   1.680   4.715   9.042  2.0250  1.7861  0.6583
  923MPD2    H213512   1.363   0.114   8.805  2.6039 -0.0142  0.1279
  923MPD2    H313513   1.562   4.697   8.844 -0.1361 -0.4959 -0.8225
  923MPD2     N13514   1.602   0.096   9.271  0.5212 -0.1531 -0.0829
  923MPD2    H513515   1.691   0.047   9.263 -0.0731 -1.3503  0.6003
  923MPD2    N113516   1.216   0.230   8.992  0.3006  0.6038  0.2797
  923MPD2    H713517   1.164   0.216   8.906  1.3238 -0.8805 -0.0978
  924MPD2     C13518   1.988   4.199  15.422 -0.0290  0.1377 -0.3479
  924MPD2    C113519   2.006   4.112  15.522  1.0349  0.7595  0.1341
  924MPD2    C213520   1.927   4.129  15.634  0.3669  0.4033 -0.1338
  924MPD2    C313521   1.827   4.231  15.636  0.8975  0.2080 -0.1953
  924MPD2    C413522   1.799   4.312  15.524 -0.0227 -0.2069 -0.5941
  924MPD2    C513523   1.887   4.295  15.420 -0.4798  0.9904  0.3256
  924MPD2     H13524   1.944   4.075  15.727 -0.5375 -0.7246 -0.6176
  924MPD2    H113525   1.725   4.391  15.526 -0.3993 -0.5275 -1.5700
  924MPD2    H213526   2.041   4.191  15.328 -0.6908 -1.3857 -0.5872
  924MPD2    H313527   1.876   4.351  15.328 -1.0128  2.7702  1.4522
  924MPD2     N13528   1.729   4.244  15.735  0.2770 -0.5256 -0.0448
  924MPD2    H513529   1.659   4.316  15.719  0.7073  0.1092  0.8971
  924MPD2    N113530   2.118   4.025  15.516  0.1606 -0.0438  0.7668
  924MPD2    H713531   2.184   4.037  15.439 -0.7685  2.3888  0.3480
  925MPD2     C13532   0.505   0.715  14.592  0.3802 -0.1665  1.7970
  925MPD2    C113533   0.397   0.796  14.630  0.3904  0.2992 -0.1299
  925MPD2    C213534   0.315   0.761  14.728 -0.4916 -0.0969 -1.3811
  925MPD2    C313535   0.326   0.642  14.795  0.1082 -0.1625 -0.1808
  925MPD2    C413536   0.421   0.549  14.756  0.2627 -0.3767  0.1666
  925MPD2    C513537   0.506   0.592  14.653 -0.2361  0.0793  0.4215
  925MPD2     H13538   0.241   0.831  14.766 -1.6133 -0.3211 -3.1327
  925MPD2    H113539   0.434   0.457  14.812 -2.4165 -1.1726 -0.5648
  925MPD2    H213540   0.591   0.748  14.534 -0.9189 -0.6968 -0.4513
  925MPD2    H313541   0.590   0.530  14.623  0.8321  0.9830  1.5420
  925MPD2     N13542   0.241   0.597  14.896  0.0500  0.0856  0.0597
  925MPD2    H513543   0.257   0.503  14.931 -0.1943 -0.2846 -0.8252
  925MPD2    N113544   0.366   0.912  14.557 -0.1212  0.0704  0.1250
  925MPD2    H713545   0.292   0.974  14.589  1.0489  2.4933 -1.8469
  926MPD2     C13546   2.919   4.125  13.718  0.4330 -0.8289 -0.3826
  926MPD2    C113547   2.962   4.253  13.670 -0.9260  0.3605  0.1363
  926MPD2    C213548   2.994   4.261  13.535 -0.1053 -0.6347 -0.3057
  926MPD2    C313549   2.967   4.162  13.444  0.4584  0.2449  0.0445
  926MPD2    C413550   2.907   4.045  13.484 -0.0808  0.2293  0.7134
  926MPD2    C513551   2.889   4.024  13.619  0.0571  0.0298 -0.3630
  926MPD2     H13552   3.034   4.355  13.499  0.9151 -0.0089  2.5300
  926MPD2    H113553   2.882   3.968  13.412  1.2080 -0.0333  0.5408
  926MPD2    H213554   2.900   4.107  13.823  0.5631 -0.0347 -0.2240
  926MPD2    H313555   2.849   3.930  13.656 -0.9267  0.5004 -0.2410
  926MPD2     N13556   2.983   4.187  13.307 -0.7520  0.4899  0.4022
  926MPD2    H513557   2.939   4.129  13.237 -2.8896 -0.5456  2.6075
  926MPD2    N113558   2.973   4.366  13.751  0.3691 -0.2087  0.1011
  926MPD2    H713559   2.998   4.451  13.701  0.1524 -1.5576 -2.2762
  927MPD2     C13560   2.463   2.420   0.295 -0.6573 -0.8571  0.5180
  927MPD2    C113561   2.591   2.423   0.239  0.1632  0.5210 -0.0540
  927MPD2    C213562   2.639   2.300   0.188  0.2664 -0.0409  0.0263
  927MPD2    C313563   2.571   2.182   0.186  0.2725  0.1659 -0.0777
  927MPD2    C413564   2.435   2.193   0.229 -0.3830 -0.1146 -0.3302
  927MPD2    C513565   2.388   2.306   0.290 -0.6514 -0.3712 -0.4228
  927MPD2     H13566   2.739   2.295   0.147 -1.0701 -0.3998 -3.2614
  927MPD2    H113567   2.365   2.110   0.232 -1.3051  0.7190  0.7652
  927MPD2    H213568   2.423   2.506   0.348  0.8343 -0.9862  1.8555
  927MPD2    H313569   2.287   2.302   0.330  0.0706 -2.8730  1.1622
  927MPD2     N13570   2.640   2.061   0.143  0.2716 -0.2337 -0.6418
  927MPD2    H513571   2.738   2.062   0.115  0.6324  4.3401  0.8274
  927MPD2    N113572   2.669   2.538   0.250  0.4093 -0.0088 -0.2291
  927MPD2    H713573   2.616   2.620   0.279  0.0929  0.2590 -1.5662
  928MPD2     C13574   1.840   0.769   1.229  0.2612  0.0393  0.1697
  928MPD2    C113575   1.923   0.745   1.126 -0.3251 -0.5292  0.1267
  928MPD2    C213576   1.880   0.751   0.991 -0.3370 -0.8692  0.0267
  928MPD2    C313577   1.754   0.792   0.966  0.9393  0.1598  0.0469
  928MPD2    C413578   1.672   0.816   1.075 -0.1583 -0.1593  0.0258
  928MPD2    C513579   1.710   0.804   1.205 -1.0488  0.1929  0.0968
  928MPD2     H13580   1.949   0.733   0.910 -0.9243 -1.9683 -0.2356
  928MPD2    H113581   1.576   0.863   1.060  0.7036  1.1614 -1.3504
  928MPD2    H213582   1.881   0.741   1.325  1.9371  0.5759 -0.3806
  928MPD2    H313583   1.638   0.833   1.280  0.4836  1.0674  1.2309
  928MPD2     N13584   1.709   0.823   0.844 -0.6377 -0.3383 -0.3509
  928MPD2    H513585   1.627   0.882   0.846  0.9592  1.8735  0.3668
  928MPD2    N113586   2.049   0.698   1.160 -0.6582 -0.1758 -1.0749
  928MPD2    H713587   2.079   0.707   1.257 -1.3444 -1.5384 -0.7494
  929MPD2     C13588   1.384   4.228  10.714 -0.2224  0.2163 -0.0231
  929MPD2    C113589   1.275   4.178  10.643  0.2341 -0.4488  0.6148
  929MPD2    C213590   1.239   4.223  10.514 -0.4717 -0.1470 -0.2794
  929MPD2    C313591   1.326   4.311  10.449  0.3926  0.6220 -0.1943
  929MPD2    C413592   1.427   4.366  10.521  0.0517  0.4297  0.3577
  929MPD2    C513593   1.457   4.328  10.652  0.0534 -0.2105  0.1624
  929MPD2     H13594   1.164   4.168  10.458 -1.4764  1.1481 -0.2014
  929MPD2    H113595   1.493   4.435  10.471  1.3902 -1.4810 -0.4981
  929MPD2    H213596   1.424   4.194  10.809  0.7650 -3.8591 -1.8558
  929MPD2    H313597   1.553   4.365  10.687 -0.3292  1.5091 -0.5957
  929MPD2     N13598   1.316   4.345  10.313 -0.0950 -0.5563 -0.2033
  929MPD2    H513599   1.394   4.401  10.279 -0.6936 -0.3767 -1.2629
  929MPD2    N113600   1.212   4.071  10.712 -0.6340  0.6266  0.5360
  929MPD2    H713601   1.270   4.037  10.788  0.4802  1.0458 -0.1312
  930MPD2     C13602   3.861   2.606  14.275 -0.0581 -0.3344 -0.0727
  930MPD2    C113603   3.782   2.654  14.174  0.2462 -0.3640  0.0758
  930MPD2    C213604   3.673   2.573  14.140  0.1389 -0.3327  0.4564
  930MPD2    C313605   3.643   2.455  14.202 -0.0951 -0.1065  0.4395
  930MPD2    C413606   3.725   2.405  14.290 -0.3362 -0.3168  0.1227
  930MPD2    C513607   3.826   2.489  14.338  0.0738 -0.3616 -0.2570
  930MPD2     H13608   3.608   2.611  14.063 -0.1651 -1.2018  0.2815
  930MPD2    H113609   3.705   2.314  14.345  0.5404 -0.3337  0.4145
  930MPD2    H213610   3.958   2.640  14.310  0.7430 -0.4752 -2.1369
  930MPD2    H313611   3.888   2.451  14.418 -0.4494  0.4781  0.5420
  930MPD2     N13612   3.544   2.372  14.140  0.0157 -0.2960 -0.0731
  930MPD2    H513613   3.490   2.406  14.061 -0.2198  0.8686  0.5903
  930MPD2    N113614   3.823   2.771  14.104 -0.0973 -0.1793 -0.1259
  930MPD2    H713615   3.914   2.804  14.137  1.1139 -1.9085 -1.7256
  931MPD2     C13616   3.311   3.147   0.531 -0.6476 -0.3845 -0.2962
  931MPD2    C113617   3.279   3.010   0.528  0.1448  0.2989 -0.0312
  931MPD2    C213618   3.317   2.942   0.640  0.3658 -0.6057 -0.4249
  931MPD2    C313619   3.405   2.995   0.736 -0.1587 -0.3246  0.1803
  931MPD2    C413620   3.445   3.123   0.730 -0.0193  0.3368  0.2985
  931MPD2    C513621   3.389   3.194   0.633  0.3789  0.0218  0.4675
  931MPD2     H13622   3.282   2.840   0.652 -3.4751  0.7171 -0.4997
  931MPD2    H113623   3.515   3.171   0.798 -1.4333  0.8036  1.4477
  931MPD2    H213624   3.268   3.219   0.462  1.1190 -0.8471 -1.8896
  931MPD2    H313625   3.421   3.297   0.630 -1.6494  0.6563  0.2925
  931MPD2     N13626   3.445   2.898   0.840 -0.0122  0.2683  0.1014
  931MPD2    H513627   3.407   2.804   0.837  0.6501 -0.0065  0.3123
  931MPD2    N113628   3.194   2.960   0.428 -0.3884  0.4889 -1.2087
  931MPD2    H713629   3.143   3.025   0.368  0.4688  1.3155 -1.0375
  932MPD2     C13630   0.198   0.895  11.442 -0.0771 -0.0806  0.4340
  932MPD2    C113631   0.284   0.894  11.550 -0.0076 -0.4089 -0.0378
  932MPD2    C213632   0.269   0.812  11.659  0.0759 -0.2041 -0.1883
  932MPD2    C313633   0.155   0.720  11.659 -0.3995  0.3191  0.6742
  932MPD2    C413634   0.070   0.717  11.546 -1.1617 -0.1679 -0.6984
  932MPD2    C513635   0.087   0.818  11.451  0.1458 -0.0672  0.2564
  932MPD2     H13636   0.326   0.819  11.751  2.6767  0.8408 -1.8958
  932MPD2    H113637   4.712   0.646  11.535 -1.1129  0.2636 -3.8003
  932MPD2    H213638   0.203   0.957  11.352  1.3996  1.1459  1.3665
  932MPD2    H313639   0.013   0.822  11.372  1.6185 -1.0961 -1.1900
  932MPD2     N13640   0.119   0.631  11.763  0.0194  0.3479  0.5098
  932MPD2    H513641   0.026   0.590  11.765  0.4554 -0.7689 -1.7790
  932MPD2    N113642   0.392   0.988  11.553 -0.3065 -0.1329  0.8126
  932MPD2    H713643   0.451   0.982  11.635 -0.1707 -0.5255  0.6845
  933MPD2     C13644   2.684   0.903   1.582  1.1852  0.2110 -0.1639
  933MPD2    C113645   2.599   0.967   1.499  0.2412 -0.4552 -0.0350
  933MPD2    C213646   2.570   1.103   1.524  0.5809 -0.1857 -0.0180
  933MPD2    C313647   2.633   1.166   1.630  0.1306 -0.0064 -0.1460
  933MPD2    C413648   2.731   1.105   1.703 -0.6024  0.3912 -0.1364
  933MPD2    C513649   2.751   0.971   1.681  0.1179  0.7780  0.6490
  933MPD2     H13650   2.485   1.151   1.478  0.3867 -0.9859 -0.4897
  933MPD2    H113651   2.790   1.151   1.782 -0.2720  3.3898 -2.1201
  933MPD2    H213652   2.713   0.799   1.571  0.3228  0.0092 -0.4928
  933MPD2    H313653   2.824   0.916   1.738 -0.5278 -1.9106 -1.1250
  933MPD2     N13654   2.576   1.302   1.656  0.5410  0.6017  0.1521
  933MPD2    H513655   2.491   1.327   1.608 -0.4124 -0.1423  1.4538
  933MPD2    N113656   2.543   0.889   1.396 -0.5005  0.4280 -0.2406
  933MPD2    H713657   2.584   0.797   1.392  1.9067  1.5076 -0.4500
  934MPD2     C13658   2.386   2.866   2.151  0.5662  0.1895 -1.0023
  934MPD2    C113659   2.480   2.801   2.080 -0.6026 -0.2473  0.0105
  934MPD2    C213660   2.454   2.771   1.947 -0.4557 -0.0703 -0.4816
  934MPD2    C313661   2.331   2.805   1.892 -0.0221  0.4876  0.4543
  934MPD2    C413662   2.232   2.867   1.959  0.0570 -0.5487  0.1401
  934MPD2    C513663   2.265   2.892   2.093 -0.3424 -1.3314  0.5896
  934MPD2     H13664   2.525   2.720   1.884  0.4344  0.8222 -0.1868
  934MPD2    H113665   2.133   2.881   1.916  0.4676  0.5970 -0.4092
  934MPD2    H213666   2.411   2.905   2.249 -1.2734 -0.6171 -0.2098
  934MPD2    H313667   2.198   2.955   2.150  1.9149 -0.0947  1.9249
  934MPD2     N13668   2.308   2.797   1.750 -0.3102  0.3672  0.3384
  934MPD2    H513669   2.212   2.821   1.727  0.1467  1.5241 -0.3922
  934MPD2    N113670   2.608   2.773   2.130  0.2839  0.1331  0.5291
  934MPD2    H713671   2.673   2.719   2.074 -0.3366  1.7287 -1.7638
  935MPD2     C13672   2.774   2.352   0.940 -0.3828  0.0969  0.2132
  935MPD2    C113673   2.646   2.306   0.970 -0.0220 -0.9840  0.5801
  935MPD2    C213674   2.563   2.385   1.051 -0.1020 -0.2216 -0.2555
  935MPD2    C313675   2.596   2.505   1.109  0.4809  0.2204  0.0374
  935MPD2    C413676   2.730   2.541   1.092  0.6531 -0.2222  0.5195
  935MPD2    C513677   2.817   2.463   1.010  0.2854  0.0405  0.5550
  935MPD2     H13678   2.464   2.346   1.072 -1.2364  1.9307 -1.7105
  935MPD2    H113679   2.771   2.630   1.139 -0.3563  0.0075  0.9760
  935MPD2    H213680   2.853   2.297   0.889 -1.4792 -0.4849 -0.8439
  935MPD2    H313681   2.922   2.492   1.012  0.0128  0.9435  1.9180
  935MPD2     N13682   2.522   2.580   1.201  0.5775  0.4374  0.1204
  935MPD2    H513683   2.571   2.638   1.268  2.2531  0.3053 -0.9768
  935MPD2    N113684   2.593   2.179   0.935  0.8354 -0.4837 -0.4787
  935MPD2    H713685   2.499   2.158   0.967  1.0896 -0.6312  0.1806
  936MPD2     C13686   0.143   4.679  12.124 -0.3906 -0.7531  0.5903
  936MPD2    C113687   0.194   4.695  12.251  0.7284  0.6906 -0.5987
  936MPD2    C213688   0.325   4.714  12.261 -0.7529  0.2125  0.3241
  936MPD2    C313689   0.417   4.718  12.154 -0.2276 -0.0338  0.5654
  936MPD2    C413690   0.365   4.693  12.026  0.5475  0.0513 -0.2005
  936MPD2    C513691   0.227   4.680  12.011 -0.1865 -0.2098 -0.0253
  936MPD2     H13692   0.358   0.020  12.360  1.2696 -0.0315 -0.2790
  936MPD2    H113693   0.421   4.678  11.935  1.8489 -0.3879  0.6568
  936MPD2    H213694   0.038   4.658  12.105 -1.2603  0.2627  4.4112
  936MPD2    H313695   0.178   4.667  11.915 -0.7571 -0.5392  0.3092
  936MPD2     N13696   0.557   0.013  12.186 -0.0266 -0.4819  0.5170
  936MPD2    H513697   0.581   0.005  12.285 -1.9852  0.1873  1.0449
  936MPD2    N113698   0.119   4.696  12.372 -0.2617  0.2490 -0.0144
  936MPD2    H713699   0.172   4.720  12.456  0.5578 -0.1240 -0.4249
  937MPD2     C13700   3.314   0.346  11.703  0.2154 -0.0823  0.4430
  937MPD2    C113701   3.351   0.477  11.693  0.2126 -0.2308  0.4556
  937MPD2    C213702   3.439   0.511  11.592 -0.1343  0.8271  0.1267
  937MPD2    C313703   3.497   0.419  11.507  0.8233 -0.0769 -0.2992
  937MPD2    C413704   3.473   0.286  11.533 -0.8403 -0.4534 -0.0842
  937MPD2    C513705   3.371   0.254  11.622 -0.0008  0.0195  0.0678
  937MPD2     H13706   3.468   0.616  11.591  2.6064  0.0852  0.4337
  937MPD2    H113707   3.524   0.219  11.465  0.0496 -0.0499  0.1862
  937MPD2    H213708   3.245   0.311  11.779 -0.2463 -0.7139 -0.2584
  937MPD2    H313709   3.352   0.148  11.633  2.4564 -0.4619 -0.3307
  937MPD2     N13710   3.589   0.468  11.410 -0.4381 -0.8839  0.5010
  937MPD2    H513711   3.614   0.566  11.411 -0.6295 -0.8255 -0.6018
  937MPD2    N113712   3.288   0.584  11.754 -0.3064  0.0981 -0.5170
  937MPD2    H713713   3.317   0.672  11.714  2.3999  0.2632  1.7857
  938MPD2     C13714   1.828   2.521   0.790  0.1745 -0.0817 -0.5014
  938MPD2    C113715   1.781   2.655   0.810  0.4246  0.0434  0.3635
  938MPD2    C213716   1.649   2.681   0.843  0.1346  0.1600 -0.3501
  938MPD2    C313717   1.565   2.569   0.872 -1.4624 -0.4810 -0.1314
  938MPD2    C413718   1.615   2.437   0.859 -0.1487  0.4033 -0.5810
  938MPD2    C513719   1.744   2.412   0.815 -0.6948 -0.2687  0.7861
  938MPD2     H13720   1.619   2.783   0.861  1.0158  0.6934 -1.9924
  938MPD2    H113721   1.559   2.346   0.880 -0.7461  0.8939 -0.0491
  938MPD2    H213722   1.924   2.498   0.746 -0.1981 -0.7052 -0.9855
  938MPD2    H313723   1.777   2.312   0.790 -1.0536 -0.9076  2.9152
  938MPD2     N13724   1.440   2.585   0.938 -0.0724  0.3476  0.0207
  938MPD2    H513725   1.405   2.497   0.974  0.1523  0.8241  1.4192
  938MPD2    N113726   1.862   2.770   0.811 -0.2644  0.0966  0.3074
  938MPD2    H713727   1.817   2.860   0.825 -0.7146 -0.2430  1.0219
  939MPD2     C13728   2.907   0.039  17.305 -0.4761  0.2722  0.5784
  939MPD2    C113729   2.876   0.026  17.439 -0.8571 -0.0014 -0.4304
  939MPD2    C213730   2.927   4.652  17.518 -0.0389 -0.0760  0.1988
  939MPD2    C313731   3.016   4.566  17.457  0.0542  0.1427 -0.8588
  939MPD2    C413732   3.052   4.572  17.317 -0.1795 -0.2343  0.4712
  939MPD2    C513733   2.996   4.671  17.247  0.1226 -0.0885 -0.1650
  939MPD2     H13734   2.908   4.646  17.625 -0.3644 -4.5221 -0.1272
  939MPD2    H113735   3.132   4.512  17.275 -1.3878 -0.0552 -2.0789
  939MPD2    H213736   2.871   0.120  17.243 -1.1150 -1.1614 -0.9063
  939MPD2    H313737   3.016   4.688  17.142 -2.8867 -0.3785 -0.7674
  939MPD2     N13738   3.073   4.479  17.552  0.0023  0.2707 -0.1843
  939MPD2    H513739   3.062   4.494  17.652  0.8957  0.6419 -0.1384
  939MPD2    N113740   2.790   0.126  17.486  0.3590 -0.0488 -0.1850
  939MPD2    H713741   2.762   0.198  17.420 -1.0466  0.1677  0.6388
  940MPD2     C13742   1.025   3.568  13.178  0.0711 -0.2490 -0.2090
  940MPD2    C113743   1.110   3.522  13.282  0.1322  0.1673 -0.7623
  940MPD2    C213744   1.240   3.491  13.249  0.2153  0.8239  0.1021
  940MPD2    C313745   1.286   3.495  13.117  0.8836 -0.4453  0.2480
  940MPD2    C413746   1.200   3.547  13.025 -0.1735 -0.3966 -0.0928
  940MPD2    C513747   1.072   3.568  13.054 -0.5078 -0.1912  0.5168
  940MPD2     H13748   1.312   3.467  13.327  2.7399  1.0153 -2.1688
  940MPD2    H113749   1.234   3.552  12.922  1.6476  0.8725  0.5574
  940MPD2    H213750   0.927   3.609  13.199 -0.6527 -1.4460 -1.2856
  940MPD2    H313751   1.018   3.608  12.968  0.0863  0.4001  0.4228
  940MPD2     N13752   1.420   3.471  13.087  0.7932 -0.2850  0.5562
  940MPD2    H513753   1.454   3.499  12.995 -0.2002 -1.0673 -0.0507
  940MPD2    N113754   1.067   3.505  13.414  0.1757  0.2814 -1.0052
  940MPD2    H713755   1.134   3.472  13.482 -1.8682 -1.5139  0.1570
  941MPD2     C13756   0.856   3.417   9.909 -0.7605  0.0291 -0.5397
  941MPD2    C113757   0.981   3.374   9.920 -0.0224 -0.0634 -0.5524
  941MPD2    C213758   1.001   3.238   9.945  0.3387  0.1889  0.2805
  941MPD2    C313759   0.893   3.148   9.944 -0.5671  0.5931 -0.5362
  941MPD2    C413760   0.766   3.194   9.917 -0.0035  0.8389 -0.3351
  941MPD2    C513761   0.750   3.326   9.890 -0.4177  0.2198 -0.1679
  941MPD2     H13762   1.104   3.203   9.946  0.3089  0.1262  1.2533
  941MPD2    H113763   0.678   3.133   9.924  0.1555  0.7109  0.5017
  941MPD2    H213764   0.820   3.519   9.893 -1.8622 -0.6561 -2.5164
  941MPD2    H313765   0.652   3.370   9.878 -1.9500 -3.0907  0.1663
  941MPD2     N13766   0.905   3.004   9.959 -0.1784 -0.1643 -0.0613
  941MPD2    H513767   0.816   2.956   9.962 -0.9776  1.4505  2.0031
  941MPD2    N113768   1.090   3.459   9.898 -0.1450  0.1167 -0.9232
  941MPD2    H713769   1.184   3.430   9.924 -0.3973  0.3467  0.2348
  942MPD2     C13770   4.254   4.644  10.092 -1.2043  0.2341  0.3814
  942MPD2    C113771   4.310   0.020  10.016  0.6473 -0.0998 -0.1228
  942MPD2    C213772   4.445   0.018  10.004  0.0267 -0.6291 -0.0293
  942MPD2    C313773   4.517   4.627  10.029  0.2013  0.1132  0.2879
  942MPD2    C413774   4.457   4.517  10.096  0.2710 -0.4617  0.2227
  942MPD2    C513775   4.325   4.527  10.125  0.5896  0.4219 -0.3536
  942MPD2     H13776   4.487   0.094   9.940  2.9105  0.6617  3.4277
  942MPD2    H113777   4.506   4.434  10.147  0.4322  0.8202  2.1638
  942MPD2    H213778   4.148   4.652  10.115 -1.1280  0.3588  0.6879
  942MPD2    H313779   4.271   4.450  10.180 -2.2974  2.7082  0.0366
  942MPD2     N13780   4.657   4.620  10.017  0.6424 -0.2166 -0.5335
  942MPD2    H513781   4.694   4.535  10.059  0.3806 -0.0627  0.0107
  942MPD2    N113782   4.248   0.137   9.995 -0.3231 -0.6472 -0.4193
  942MPD2    H713783   4.318   0.209   9.977 -0.7205  0.6718  3.3821
  943MPD2     C13784   0.407   3.018   9.770  0.0518  0.2924  0.6280
  943MPD2    C113785   0.337   2.924   9.692 -0.4535 -0.1590 -0.7113
  943MPD2    C213786   0.264   2.978   9.588  0.4162 -0.0438 -0.9655
  943MPD2    C313787   0.291   3.104   9.544 -0.3231 -0.4931  0.6666
  943MPD2    C413788   0.382   3.182   9.608 -0.2927 -0.1199  0.6251
  943MPD2    C513789   0.425   3.143   9.728  0.1921  0.0208  0.1773
  943MPD2     H13790   0.188   2.921   9.534  0.2765 -1.0989  0.3455
  943MPD2    H113791   0.398   3.285   9.576  2.5435 -0.4753  0.9232
  943MPD2    H213792   0.458   2.998   9.864 -0.1365  1.9847  1.0852
  943MPD2    H313793   0.472   3.215   9.794 -0.8949  2.0355 -1.2682
  943MPD2     N13794   0.213   3.161   9.444  0.1442 -0.5123  0.2325
  943MPD2    H513795   0.255   3.247   9.410  2.9036 -2.1442 -0.4986
  943MPD2    N113796   0.337   2.787   9.740  0.5549  0.3986 -0.1863
  943MPD2    H713797   0.406   2.769   9.812  0.5079 -0.3499 -0.3242
  944MPD2     C13798   3.861   1.673  10.972  0.0784  0.1109  1.0341
  944MPD2    C113799   3.957   1.711  11.061  0.1900  0.1039 -0.0212
  944MPD2    C213800   3.969   1.642  11.184 -0.4004 -0.2245  0.0247
  944MPD2    C313801   3.884   1.535  11.205 -0.1201 -0.3784 -0.0395
  944MPD2    C413802   3.788   1.504  11.110  0.2628  0.5163 -0.6558
  944MPD2    C513803   3.773   1.572  11.000  0.0605 -0.7766 -0.5909
  944MPD2     H13804   4.050   1.662  11.253 -1.4667 -1.1737  1.5448
  944MPD2    H113805   3.716   1.424  11.124  0.7121  0.2482  0.1044
  944MPD2    H213806   3.847   1.712  10.872 -0.1621 -0.4213  0.8609
  944MPD2    H313807   3.699   1.545  10.926 -0.3871  0.8066 -0.7144
  944MPD2     N13808   3.894   1.468  11.332 -0.1094 -0.1916 -0.3346
  944MPD2    H513809   3.962   1.500  11.400  1.2585  0.1245 -1.8488
  944MPD2    N113810   4.041   1.813  11.017 -0.3660 -0.5147  0.4756
  944MPD2    H713811   4.020   1.854  10.926  0.0104  2.3213  1.6562
    1TCq1    O113812   2.808   2.359  14.165 -0.0924 -0.1641  0.3271
    1TCq1    C113813   2.724   2.457  14.196  0.7452  0.2818 -0.1884
    1TCq1    O213814   2.678   2.543  14.117 -0.2803  0.3289 -0.1735
    1TCq1    C213815   2.702   2.456  14.342  0.3669  0.7693 -0.5416
    1TCq1    C313816   2.732   2.341  14.404  1.1206 -0.5990 -0.5599
    1TCq1    C413817   2.730   2.339  14.543 -0.0738  0.6283 -0.1493
    1TCq1    C513818   2.717   2.462  14.607 -0.2377  0.7641 -0.0757
    1TCq1    C613819   2.701   2.578  14.538  0.1290 -0.1866  0.5914
    1TCq1    C713820   2.693   2.572  14.403 -0.8047 -0.5113  0.0917
    1TCq1    C813821   2.711   2.701  14.617  0.0407 -0.1352  0.6476
    1TCq1    O413822   2.746   2.687  14.731 -0.3429  0.2349 -0.3259
    1TCq1    C913823   2.756   2.216  14.615 -0.1930  0.5226 -0.4337
    1TCq1    O513824   2.775   2.229  14.742  0.0125  0.1120  0.6005
    1TCq1    O613825   2.758   2.111  14.545  0.1496 -0.0704 -0.6341
    1TCq1    H113826   2.841   2.311  14.244 -1.1304 -0.4037  0.6076
    1TCq1    H213827   2.737   2.246  14.353  1.3785 -0.1811 -1.3235
    1TCq1    H313828   2.720   2.458  14.715 -0.2043 -0.5200 -0.1185
    1TCq1    H413829   2.686   2.660  14.341  0.9037 -0.3238  0.1609
    2MPD2     C13830   2.761   3.202  14.637 -0.2256 -0.1938  0.3625
    2MPD2    C113831   2.664   3.169  14.547  0.3198  0.2051  0.0791
    2MPD2    C213832   2.631   3.034  14.525  0.1934 -0.3041  0.0427
    2MPD2    C313833   2.709   2.940  14.585  0.6955  0.8482 -0.6156
    2MPD2    C413834   2.807   2.966  14.677  0.6180 -0.1773  0.4985
    2MPD2    C513835   2.828   3.098  14.706 -0.5363  0.4091 -0.0144
    2MPD2     H13836   2.571   2.988  14.448 -0.4211 -1.5769  1.2761
    2MPD2    H113837   2.870   2.895  14.728  2.0643  0.4029 -0.4936
    2MPD2    H213838   2.783   3.302  14.673  1.0002  0.0288 -0.9933
    2MPD2    H313839   2.900   3.123  14.783  0.6293  0.3918 -1.1035
    2MPD2     N13840   2.681   2.812  14.544 -0.1696  0.2091  0.0189
    2MPD2    H513841   2.643   2.799  14.451  2.5166  0.6485 -1.1298
    2MPD2    N113842   2.608   3.279  14.481 -0.1362  0.5116  0.1389
    2MPD2    H713843   2.643   3.372  14.499 -0.9696  0.4788  1.9200
    3TMC2    C113844   2.455   3.388  14.327  0.0929 -0.4137  0.1167
    3TMC2    C213845   2.466   3.511  14.396 -0.0996 -0.0925  0.2607
    3TMC2    C313846   2.430   3.628  14.335  0.4947  0.6828  0.3465
    3TMC2    C413847   2.397   3.389  14.200  0.5067  0.6187  0.0345
    3TMC2    C513848   2.348   3.506  14.147  0.1841  0.2467  0.0115
    3TMC2    C613849   2.358   3.627  14.214  0.1683 -0.0447 -0.0436
    3TMC2     C13850   2.505   3.265  14.382  0.1560  0.2642 -0.3097
    3TMC2     O13851   2.436   3.170  14.347 -0.0909 -0.1378 -0.5289
    3TMC2     H13852   2.503   3.516  14.497 -1.1277 -1.2667  0.6982
    3TMC2    H113853   2.406   3.294  14.149  0.9126  0.0300  1.2046
    3TMC2    H213854   2.338   3.721  14.164 -1.7025 -0.3319  0.1849
    3TMC2    C713855   2.272   3.474  14.028 -0.8060 -0.0342 -0.1073
    3TMC2    C813856   2.453   3.750  14.407  0.5573 -0.2756 -0.4775
    3TMC2    O113857   2.250   3.358  14.003 -0.3064  0.0749 -0.5008
    3TMC2    O213858   2.388   3.852  14.386 -0.2439 -0.5720  0.2132
    3TMC2    O513859   2.586   3.745  14.438 -0.2412 -0.1342 -0.2684
    3TMC2    H513860   2.628   3.657  14.438  0.1561  0.0599  0.4908
    4MPD2     C13861   1.059   4.382  13.892 -0.4958 -0.2614 -0.0781
    4MPD2    C113862   1.045   4.312  13.773  0.1424 -0.0522  0.0772
    4MPD2    C213863   1.159   4.265  13.713 -0.7228  0.3706 -0.0386
    4MPD2    C313864   1.279   4.276  13.779  0.5932 -0.3819 -0.9910
    4MPD2    C413865   1.287   4.342  13.898 -0.6028  0.1254  1.1962
    4MPD2    C513866   1.178   4.401  13.954  0.0482  0.0787 -0.7917
    4MPD2     H13867   1.162   4.214  13.618  0.1645  1.4651 -0.5971
    4MPD2    H113868   1.382   4.357  13.948 -0.1676 -1.0523  0.7145
    4MPD2    H213869   0.981   4.445  13.933  0.8817  0.1888  1.8502
    4MPD2    H313870   1.180   4.464  14.043 -0.1798 -0.5725 -0.3217
    4MPD2     N13871   1.398   4.223  13.722 -0.3203 -0.8745 -0.5056
    4MPD2    H513872   1.384   4.182  13.631 -1.2639 -2.2427  0.2576
    4MPD2    N113873   0.913   4.303  13.727 -0.4624 -0.1162 -0.6080
    4MPD2    H713874   0.839   4.328  13.792  1.5364 -0.7397  1.8937
    5TCq2    C113875   1.530   4.222  13.777 -0.8334  0.2993  0.2095
    5TCq2    O213876   1.572   4.277  13.875  0.7948  0.2940  0.7746
    5TCq2    C213877   1.628   4.166  13.684  0.6902  0.4852 -0.0840
    5TCq2    C313878   1.588   4.148  13.554  0.6554  0.8967  0.2795
    5TCq2    C413879   1.660   4.060  13.481 -0.3304 -0.2704  0.1608
    5TCq2    C513880   1.768   3.999  13.530 -0.0892  0.5237 -0.1864
    5TCq2    C613881   1.816   4.033  13.663 -0.0656  0.0106 -0.6311
    5TCq2    C713882   1.741   4.108  13.741  0.3135  0.1873  0.7500
    5TCq2    C813883   1.920   3.952  13.721 -0.3025  0.4789  0.0880
    5TCq2    O413884   1.977   3.982  13.826 -0.4529 -0.3564  0.0131
    5TCq2    C913885   1.616   4.013  13.356  0.5526  0.0994 -0.3935
    5TCq2    O513886   1.518   4.078  13.313 -0.2361  0.5406  0.2377
    5TCq2    O613887   1.671   3.917  13.295  0.1685  0.2647  0.0373
    5TCq2    H213888   1.502   4.198  13.510  0.0495 -2.0246 -1.8333
    5TCq2    H313889   1.825   3.926  13.474  2.2008  1.7293  0.5938
    5TCq2    H413890   1.773   4.145  13.838 -0.7522  0.7681  0.8830
    6MPD1     C13891   0.653   1.166  13.060  0.7202 -0.5532 -0.7489
    6MPD1    C113892   0.717   1.086  12.976 -0.5267 -0.5106 -0.4295
    6MPD1    C213893   0.739   0.953  13.014  0.0666 -0.3148 -0.1866
    6MPD1    C313894   0.720   0.901  13.139  0.1460  0.1866 -0.1603
    6MPD1    C413895   0.653   0.990  13.225 -0.1534 -0.3888  0.7306
    6MPD1    C513896   0.624   1.117  13.187  0.1971  0.0695  0.6638
    6MPD1     H13897   0.791   0.890  12.942 -0.7321  1.3390 -2.2360
    6MPD1    H113898   0.651   0.965  13.331  1.9328  0.4446  0.9632
    6MPD1    H213899   0.635   1.273  13.049  2.8534  0.1563  2.4352
    6MPD1    H313900   0.578   1.179  13.262  0.1207 -0.9519  1.4621
    6MPD1     N13901   0.759   0.773  13.187 -0.0810  0.0757  0.2120
    6MPD1    H513902   0.732   0.746  13.281 -0.1620  0.4693  0.3042
    6MPD1    N113903   0.749   1.137  12.849 -0.8587  0.2190 -0.2718
    6MPD1    H613904   0.765   1.238  12.853  2.4789 -0.2318 -2.2985
    6MPD1    H713905   0.826   1.090  12.801 -0.2827 -1.1668  2.0071
    7MPD2     C13906   0.511   0.287  13.440 -0.0837  0.1942  0.1493
    7MPD2    C113907   0.601   0.225  13.520  0.8946 -0.9184  0.5465
    7MPD2    C213908   0.585   0.093  13.555 -0.0351  0.1698  0.7266
    7MPD2    C313909   0.489   0.017  13.491  0.8005  0.6716  0.4848
    7MPD2    C413910   0.415   0.079  13.394  0.0496  0.2419 -0.5230
    7MPD2    C513911   0.425   0.215  13.364 -0.0032  0.8002 -0.1785
    7MPD2     H13912   0.649   0.049  13.631  0.3192  0.8732  0.8330
    7MPD2    H113913   0.345   0.024  13.332 -0.4785 -2.8511  2.8620
    7MPD2    H213914   0.534   0.387  13.405  0.4084  1.1785  3.2537
    7MPD2    H313915   0.373   0.267  13.284  0.0785  0.0186 -0.7396
    7MPD2     N13916   0.456   4.603  13.516  0.4609 -0.5323  0.5977
    7MPD2    H513917   0.386   4.564  13.454 -1.1599 -0.3113  2.3078
    7MPD2    N113918   0.709   0.293  13.570  0.5418  0.8447  0.2287
    7MPD2    H713919   0.736   0.249  13.657 -1.2932  2.4566  1.6191
    8TMC3    C113920   0.530   4.387  13.584  0.6465  0.0259 -0.0906
    8TMC3    C213921   0.650   4.343  13.638  0.0789  0.4393 -0.0979
    8TMC3    C313922   0.740   4.283  13.554  0.2422  0.9828  0.0664
    8TMC3    C413923   0.503   4.363  13.452 -0.2654 -0.0673  0.4480
    8TMC3    C513924   0.594   4.291  13.378  0.6706 -0.1273  0.0044
    8TMC3    C613925   0.710   4.252  13.430 -0.5629 -0.9498  0.5066
    8TMC3     C13926   0.502   4.528  13.625  0.8622 -0.0184 -0.2657
    8TMC3     O13927   0.557   4.579  13.721  0.2712 -0.3575  0.0200
    8TMC3     H13928   0.677   4.378  13.737  0.2922 -0.6246  0.2187
    8TMC3    H113929   0.403   4.386  13.417  0.8924  4.3028 -0.0114
    8TMC3    H213930   0.779   4.201  13.365 -0.7669 -0.8379  0.1991
    8TMC3    C713931   0.620   4.376  13.264  0.4172  0.1129 -0.0796
    8TMC3    C813932   0.876   4.247  13.605 -0.1061  0.6297  0.2221
    8TMC3    O113933   0.739   4.378  13.231 -0.3419  0.3940  0.0683
    8TMC3    O213934   0.949   4.190  13.529 -0.5239 -0.1617  0.3248
    9TMC3    C113935   0.854   0.568  13.205 -0.2372 -0.2630  0.1119
    9TMC3    C213936   0.847   0.460  13.120  0.3997  0.0727 -0.0159
    9TMC3    C313937   0.824   0.339  13.176  0.0804 -0.1852  1.1161
    9TMC3    C413938   0.817   0.558  13.335  0.2853 -0.5656 -0.0212
    9TMC3    C513939   0.783   0.432  13.385 -0.2964 -0.3228 -0.5459
    9TMC3    C613940   0.792   0.320  13.305  0.0106  0.1498  0.2421
    9TMC3     C13941   0.847   0.682  13.129 -0.4469  0.3749 -0.8881
    9TMC3     O13942   0.913   0.689  13.025  0.2947  0.3785  0.4660
    9TMC3     H13943   0.867   0.462  13.013 -1.6355 -0.0894 -0.3865
    9TMC3    H113944   0.828   0.634  13.412  0.3244  0.7215 -1.2937
    9TMC3    H213945   0.775   0.221  13.346 -2.9146  0.9339  0.9960
    9TMC3    C713946   0.762   0.411  13.533 -0.7936  0.5560 -0.2144
    9TMC3    C813947   0.760   0.244  13.076  0.8850  0.4096 -0.3897
    9TMC3    O113948   0.841   0.488  13.596 -0.2278 -0.9228  0.2836
    9TMC3    O213949   0.719   0.285  12.970  0.4350 -0.0687 -0.0867
   10MPD2     C13950   0.396   4.599  13.084  0.3031 -0.1361  0.2183
   10MPD2    C113951   0.508   4.557  13.151  0.1274  0.7973 -0.0485
   10MPD2    C213952   0.618   4.639  13.163 -0.2765  0.4732  0.3738
   10MPD2    C313953   0.622   0.044  13.106 -0.9596 -0.2305  0.6705
   10MPD2    C413954   0.518   0.082  13.028 -0.0440 -0.3405  0.0773
   10MPD2    C513955   0.404   4.722  13.023  0.3978 -0.4662 -0.3909
   10MPD2     H13956   0.702   4.610  13.224 -1.3457 -0.7256  1.2620
   10MPD2    H113957   0.530   0.173  12.970  0.8003  0.2464  1.1634
   10MPD2    H213958   0.308   4.539  13.064 -1.1542  1.7861  0.8622
   10MPD2    H313959   0.325   0.014  12.950  0.3844  1.4534 -0.0040
   10MPD2     N13960   0.732   0.127  13.138 -0.2458  0.3666 -0.1467
   10MPD2    H513961   0.789   0.101  13.218 -2.4966  0.9901  1.6584
   10MPD2    N113962   0.509   4.433  13.208  0.0323 -0.4430 -0.4353
   10MPD2    H713963   0.418   4.394  13.233 -0.0544 -0.8771 -1.4564
   11MPD2     C13964   2.075   3.470  13.810  0.1580 -0.4632  0.2055
   11MPD2    C113965   2.113   3.587  13.871  0.3306  0.1161  0.4585
   11MPD2    C213966   2.073   3.710  13.819  0.7936 -0.0590  0.6244
   11MPD2    C313967   1.979   3.708  13.717  0.5375  0.5326 -0.6265
   11MPD2    C413968   1.938   3.586  13.658  0.4356  0.0445 -0.5013
   11MPD2    C513969   1.995   3.468  13.695  0.7173  0.5336 -0.4328
   11MPD2     H13970   2.105   3.807  13.855 -0.9616  0.2938  1.2153
   11MPD2    H113971   1.870   3.578  13.575  0.4957 -1.8091 -0.3763
   11MPD2    H213972   2.117   3.374  13.838 -0.3341 -0.5794  0.5420
   11MPD2    H313973   1.974   3.377  13.640  1.1960  0.2782 -0.1926
   11MPD2     N13974   1.909   3.823  13.671 -0.0728  0.0823 -0.2480
   11MPD2    H513975   1.849   3.812  13.591  1.2094  0.0301 -1.2102
   11MPD2    N113976   2.201   3.589  13.980 -0.3460 -0.0891  1.0390
   11MPD2    H713977   2.219   3.683  14.013  1.3908  0.5075 -1.6828
    1MPD1     C13978   3.695   1.797  16.747 -0.3771 -0.3281 -0.4312
    1MPD1    C113979   3.771   1.888  16.813  0.1557 -0.0509 -0.1239
    1MPD1    C213980   3.907   1.876  16.811 -0.3684 -0.1773 -0.6939
    1MPD1    C313981   3.975   1.783  16.728  0.0133 -0.5862 -0.2175
    1MPD1    C413982   3.893   1.698  16.651 -0.3498 -0.1088  0.1166
    1MPD1    C513983   3.758   1.705  16.662  0.5141 -0.8812 -0.4565
    1MPD1     H13984   3.964   1.950  16.866 -3.5209  0.2160  2.1068
    1MPD1    H113985   3.939   1.617  16.595  0.5701 -0.4807  1.4065
    1MPD1    H213986   3.590   1.782  16.768  0.0315  1.1313  2.6036
    1MPD1    H313987   3.694   1.639  16.606 -1.3868 -1.1455  2.0241
    1MPD1     N13988   4.114   1.755  16.734  0.4829 -0.6038  0.0995
    1MPD1    H513989   4.144   1.665  16.699  0.4261 -0.7678  0.4706
    1MPD1    N113990   3.717   1.973  16.910  0.7731 -0.2505 -0.0358
    1MPD1    H613991   3.773   2.057  16.911  0.0296  0.2370  1.0277
    1MPD1    H713992   3.622   1.995  16.880  0.8115  0.6848  0.5325
    2MPD1     C13993   0.255   1.658  17.399  0.5965 -0.2189  0.4870
    2MPD1    C113994   0.296   1.623  17.276  0.6330 -0.0029 -0.3819
    2MPD1    C213995   0.206   1.628  17.172  0.6559 -0.1624  1.0072
    2MPD1    C313996   0.078   1.678  17.190  0.1754  0.0928  0.5052
    2MPD1    C413997   0.037   1.716  17.316  0.4129 -0.1008 -0.4557
    2MPD1    C513998   0.129   1.713  17.417 -0.6598  0.3886  0.5106
    2MPD1     H13999   0.243   1.596  17.075 -2.2353  0.3639 -0.2632
    2MPD1    H114000   4.667   1.766  17.343  1.5429  1.1945  0.9940
    2MPD1    H214001   0.325   1.657  17.481  0.9415 -2.0009  0.1823
    2MPD1    H314002   0.102   1.747  17.516  0.2299  0.2775  0.7877
    2MPD1     N14003   4.715   1.674  17.077 -0.0973  0.3424 -0.3636
    2MPD1    H514004   0.029   1.660  16.984 -1.0989 -0.0032 -0.7001
    2MPD1    N114005   0.420   1.553  17.268  0.1352 -0.0561  0.5295
    2MPD1    H614006   0.491   1.578  17.336 -1.3852 -1.0718  2.4808
    2MPD1    H714007   0.463   1.563  17.177  0.7274  0.6803  0.8871
    3TMC3    C114008   4.520   1.708  16.942  0.2585  0.4199 -0.3151
    3TMC3    C214009   4.554   1.607  16.857  0.0970 -0.1810  0.2699
    3TMC3    C314010   4.481   1.587  16.747  0.1164  0.2294  0.8201
    3TMC3    C414011   4.402   1.774  16.924 -0.8847 -0.3500  0.1611
    3TMC3    C514012   4.337   1.758  16.808  0.8449  0.0480  1.1324
    3TMC3    C614013   4.364   1.652  16.725  0.1300 -0.4049  0.1410
    3TMC3     C14014   4.580   1.712  17.073  0.5606  0.0358 -0.0135
    3TMC3     O14015   4.509   1.759  17.165  0.2609 -0.3690  0.3444
    3TMC3     H14016   4.622   1.532  16.897 -1.4445 -2.8314 -2.0224
    3TMC3    H114017   4.363   1.845  16.996  0.3373 -1.4119  1.8431
    3TMC3    H214018   4.314   1.646  16.630 -2.1686 -3.2666  1.5389
    3TMC3    C714019   4.205   1.830  16.803  0.2487 -0.7503  0.0905
    3TMC3    C814020   4.512   1.466  16.669 -0.5256 -0.2651 -0.1778
    3TMC3    O114021   4.194   1.934  16.867 -0.1678 -0.1763 -0.0042
    3TMC3    O214022   4.616   1.411  16.702  0.1196 -0.4832  0.0464
    4MPD1     C14023   4.437   1.138  16.279  0.1564 -0.1234  0.3898
    4MPD1    C114024   4.315   1.184  16.319  0.1538 -0.5575 -0.4872
    4MPD1    C214025   4.311   1.290  16.410  0.1808  0.0434 -0.0661
    4MPD1    C314026   4.425   1.329  16.481 -0.5182 -1.2876 -0.1438
    4MPD1    C414027   4.545   1.285  16.435  0.3256  0.2891  0.0022
    4MPD1    C514028   4.552   1.184  16.343 -0.6446  0.3250 -0.6635
    4MPD1     H14029   4.210   1.318  16.438 -0.9062 -1.4678 -2.4259
    4MPD1    H114030   4.637   1.318  16.483  0.3238 -0.1532  0.3104
    4MPD1    H214031   4.445   1.058  16.206  0.7205  1.3556 -1.1806
    4MPD1    H314032   4.645   1.133  16.317  0.1895  0.9439  1.1249
    4MPD1     N14033   4.415   1.425  16.586  0.0852 -0.5095 -0.2437
    4MPD1    H514034   4.323   1.467  16.592  0.9598  1.2845  0.7353
    4MPD1    N114035   4.205   1.140  16.237 -0.4859  0.0121  0.3224
    4MPD1    H614036   4.109   1.147  16.270 -0.5927  3.2623 -0.7564
    4MPD1    H714037   4.216   1.048  16.194  0.3355 -0.4380  1.4810
    1TCq1    O114038   0.603   2.718  12.255 -0.2685  0.3005 -0.0950
    1TCq1    C114039   0.480   2.710  12.197 -0.0057 -0.4586 -0.2277
    1TCq1    O214040   0.395   2.629  12.227  0.6950 -0.1686  0.1678
    1TCq1    C214041   0.505   2.734  12.055 -0.0937  0.1396 -0.7228
    1TCq1    C314042   0.588   2.831  12.015  0.3186 -0.0090 -0.0903
    1TCq1    C414043   0.649   2.826  11.893  0.0283  0.2193  0.2093
    1TCq1    C514044   0.638   2.720  11.817  0.4254  0.1136  0.0033
    1TCq1    C614045   0.544   2.628  11.853 -0.2730 -0.8672  0.2420
    1TCq1    C714046   0.472   2.634  11.970  0.0774 -0.0942 -0.3572
    1TCq1    C814047   0.541   2.498  11.788 -0.6890 -0.5685 -1.1068
    1TCq1    O414048   0.437   2.432  11.798 -0.0083  0.2625  0.4097
    1TCq1    C914049   0.770   2.903  11.887 -0.0899  0.2057 -0.0737
    1TCq1    O514050   0.800   2.977  11.988 -0.0670  0.0409  0.1458
    1TCq1    O614051   0.848   2.881  11.787 -0.0805 -0.7861 -0.0412
    1TCq1    H114052   0.651   2.802  12.241 -0.1699  0.4169  0.9547
    1TCq1    H214053   0.626   2.899  12.090 -0.5351  0.4604 -0.0782
    1TCq1    H314054   0.682   2.713  11.718 -0.4134  0.6756 -0.4176
    1TCq1    H414055   0.405   2.555  12.001  0.0568  0.5238  1.1636
    2MPD1     C14056   0.790   2.059  11.661  0.3508  0.0080 -0.6448
    2MPD1    C114057   0.881   2.165  11.660  0.0973  0.2922 -0.1574
    2MPD1    C214058   0.837   2.295  11.698 -0.2408  0.0344  0.3160
    2MPD1    C314059   0.702   2.315  11.733  0.0956 -0.9652 -0.3623
    2MPD1    C414060   0.613   2.208  11.718 -0.4264  0.3346 -0.3044
    2MPD1    C514061   0.653   2.088  11.680 -0.5486  0.0836  0.0225
    2MPD1     H14062   0.908   2.376  11.706 -0.2820 -0.0419  1.5007
    2MPD1    H114063   0.506   2.221  11.734 -0.7424 -1.6687 -0.7895
    2MPD1    H214064   0.825   1.962  11.629 -1.0499 -0.4971 -0.6675
    2MPD1    H314065   0.582   2.008  11.664 -0.4897  0.3208 -1.4256
    2MPD1     N14066   0.664   2.454  11.751 -0.0832 -0.2692 -0.2010
    2MPD1    H514067   0.744   2.513  11.772  0.3622 -1.8066  2.4985
    2MPD1    N114068   1.016   2.132  11.644  0.1780 -0.0341 -0.2240
    2MPD1    H614069   1.064   2.211  11.602 -0.1697 -0.6025 -1.6942
    2MPD1    H714070   1.034   2.049  11.587 -1.3930 -0.8859  0.5148
    1TCq1    O114071   2.264   1.922   0.332 -0.6113  0.1509 -0.3280
    1TCq1    C114072   2.270   1.959   0.465  0.0030 -0.3106 -0.1049
    1TCq1    O214073   2.190   2.036   0.516 -0.8789 -0.5165  0.6674
    1TCq1    C214074   2.398   1.921   0.513 -0.8169  0.4511 -0.7942
    1TCq1    C314075   2.440   1.791   0.489 -1.6040  0.7644 -0.1909
    1TCq1    C414076   2.570   1.756   0.523 -0.1702  0.8617 -0.0676
    1TCq1    C514077   2.661   1.862   0.533 -0.5483 -0.3373 -0.0222
    1TCq1    C614078   2.618   1.992   0.525 -0.0136  0.6709  0.5336
    1TCq1    C714079   2.490   2.020   0.520  0.3316 -0.0115  0.1372
    1TCq1    C814080   2.719   2.100   0.520 -0.1957 -0.1902  0.7536
    1TCq1    O414081   2.828   2.069   0.470 -0.1907 -0.0238  0.1981
    1TCq1    C914082   2.621   1.624   0.496 -1.2686  0.7723  0.6624
    1TCq1    O514083   2.743   1.609   0.505 -0.6787  0.5004  0.4741
    1TCq1    O614084   2.534   1.535   0.477  0.3914  0.6515 -0.1719
    1TCq1    H114085   2.348   1.881   0.303 -0.0358 -0.2836  1.8930
    1TCq1    H214086   2.362   1.716   0.478 -0.7553 -0.3797  1.5942
    1TCq1    H314087   2.765   1.845   0.561 -1.1677 -3.6686  0.1806
    1TCq1    H414088   2.447   2.118   0.538 -0.3747 -0.9026  3.1995
    2MPD1     C14089   2.884   2.572   0.618  0.0812 -0.3759 -0.0486
    2MPD1    C114090   2.758   2.566   0.670  0.3200 -0.6170  0.3910
    2MPD1    C214091   2.689   2.450   0.641  0.0256 -0.5876  0.4323
    2MPD1    C314092   2.753   2.339   0.578 -0.0942  0.3270  0.2264
    2MPD1    C414093   2.883   2.349   0.543 -0.8823 -0.0569 -0.5200
    2MPD1    C514094   2.942   2.476   0.556  1.7918 -0.2268  0.5629
    2MPD1     H14095   2.587   2.434   0.674  0.2377 -0.4896  1.1321
    2MPD1    H114096   2.941   2.277   0.486 -2.0104 -2.4650  1.3593
    2MPD1    H214097   2.936   2.664   0.645  1.3877 -1.1221 -0.0286
    2MPD1    H314098   3.046   2.486   0.524  1.9269  1.3634  1.4867
    2MPD1     N14099   2.677   2.221   0.566  0.5144 -0.1818 -0.3071
    2MPD1    H514100   2.580   2.227   0.598  1.1316  0.1157  1.5128
    2MPD1    N114101   2.693   2.679   0.729  0.6454 -0.3207 -0.5066
    2MPD1    H614102   2.618   2.648   0.791  0.4036 -1.4398 -1.3482
    2MPD1    H714103   2.759   2.745   0.769  0.7936  0.7794 -2.5792
    1MPD1     C14104   2.690   0.963  11.280 -0.2094 -0.0070  0.8509
    1MPD1    C114105   2.659   0.851  11.350  0.3079 -0.0945 -0.5579
    1MPD1    C214106   2.610   0.872  11.482  0.3407  0.2355  1.0908
    1MPD1    C314107   2.587   0.995  11.531  0.2458 -0.6515 -0.2712
    1MPD1    C414108   2.609   1.106  11.452  0.1116  0.2038  0.1572
    1MPD1    C514109   2.662   1.083  11.325  0.6742  0.5923  0.1482
    1MPD1     H14110   2.602   0.780  11.540  0.4663 -0.7665 -0.4680
    1MPD1    H114111   2.599   1.206  11.493 -1.2552 -0.1363  0.6476
    1MPD1    H214112   2.737   0.956  11.182 -3.1617 -3.0218 -0.3311
    1MPD1    H314113   2.690   1.168  11.263 -0.5381  0.9112  0.0370
    1MPD1     N14114   2.536   1.008  11.667  0.2557 -0.3776  0.3556
    1MPD1    H514115   2.534   0.920  11.719  1.8178 -0.5216  0.1758
    1MPD1    N114116   2.703   0.724  11.310 -0.1689 -0.0134  0.4528
    1MPD1    H614117   2.709   0.723  11.208 -1.9534  0.4990  0.3384
    1MPD1    H714118   2.648   0.642  11.336 -0.2216  0.2925  1.2835
    2MPD1     C14119   1.521   0.802  11.713 -0.1910  0.1969  0.1398
    2MPD1    C114120   1.616   0.878  11.650 -0.3770  0.5887  0.7664
    2MPD1    C214121   1.704   0.821  11.565 -0.5458  0.1917 -0.2141
    2MPD1    C314122   1.707   0.687  11.544 -0.2835 -0.2177  0.4645
    2MPD1    C414123   1.609   0.611  11.609  0.7302 -0.2475  0.3600
    2MPD1    C514124   1.522   0.667  11.694 -0.7527  0.2143  0.7156
    2MPD1     H14125   1.780   0.882  11.518  0.1265 -1.1145 -0.8122
    2MPD1    H114126   1.602   0.504  11.593  1.0673 -0.3758  1.0767
    2MPD1    H214127   1.452   0.850  11.781  2.7078  4.2955  0.1879
    2MPD1    H314128   1.442   0.608  11.737  0.1135 -1.8637 -0.5056
    2MPD1     N14129   1.786   0.615  11.454 -0.0302 -0.3431  0.4588
    2MPD1    H514130   1.770   0.515  11.450  4.8070 -1.0841  0.5776
    2MPD1    N114131   1.632   1.011  11.692  0.5659 -0.4095 -0.1756
    2MPD1    H614132   1.553   1.056  11.738 -0.1758 -1.7514 -0.1508
    2MPD1    H714133   1.672   1.073  11.621  0.8121 -1.1914 -0.7200
    3MPD1     C14134   1.739   4.662  10.721  0.6184 -1.2227 -0.3024
    3MPD1    C114135   1.813   0.041  10.664  0.1213 -0.1029 -0.2404
    3MPD1    C214136   1.857   0.134  10.758 -0.0201  0.3920 -0.0458
    3MPD1    C314137   1.822   0.139  10.890 -0.0075 -0.4488  0.1898
    3MPD1    C414138   1.735   0.041  10.935  0.1551  0.6924  0.3155
    3MPD1    C514139   1.693   4.672  10.848 -0.4372 -0.7392 -0.0029
    3MPD1     H14140   1.922   0.213  10.724  0.7751  0.5473  1.8264
    3MPD1    H114141   1.687   0.032  11.031  2.1974 -1.1026  1.1814
    3MPD1    H214142   1.710   4.573  10.666  1.0794 -1.2224 -0.5451
    3MPD1    H314143   1.627   4.593  10.883  0.2108 -1.0720  0.4664
    3MPD1     N14144   1.888   0.228  10.979  0.4685 -0.2507 -0.9053
    3MPD1    H514145   1.968   0.271  10.935  0.0358 -0.4450 -1.8821
    3MPD1    N114146   1.871   0.029  10.540 -0.2888 -0.7828 -0.9448
    3MPD1    H614147   1.816   4.694  10.476 -1.1814 -0.2402 -0.6632
    3MPD1    H714148   1.887   0.120  10.497  1.2335 -1.3380 -1.5307
    4MPD2     C14149   2.947   1.284  11.469  0.5256 -0.1738 -0.1679
    4MPD2    C114150   2.939   1.166  11.543 -0.3670 -0.5376  0.2731
    4MPD2    C214151   2.955   1.042  11.479  0.3587  0.6566 -0.3074
    4MPD2    C314152   2.985   1.045  11.342 -0.0551 -0.2222 -0.4360
    4MPD2    C414153   2.988   1.162  11.271 -0.1621 -0.4545 -0.6479
    4MPD2    C514154   2.967   1.278  11.335 -0.1593 -0.0537  0.0480
    4MPD2     H14155   2.938   0.951  11.536  1.2277 -0.0290 -1.1486
    4MPD2    H114156   3.003   1.162  11.163 -1.1274 -1.4616 -0.7873
    4MPD2    H214157   2.951   1.382  11.514  0.4363 -0.6271  0.8555
    4MPD2    H314158   2.970   1.371  11.279  2.8310  0.2116  0.6590
    4MPD2     N14159   3.016   0.920  11.278 -0.4114 -0.5363  0.2535
    4MPD2    H514160   3.025   0.920  11.177 -0.0821  0.5843  0.2823
    4MPD2    N114161   2.911   1.163  11.684 -0.6334 -0.2440 -0.0213
    4MPD2    H714162   2.920   1.069  11.720 -0.0578  0.0333  0.5455
    5TMC3    C114163   2.809   1.207  11.879 -0.3531 -0.0313 -0.1644
    5TMC3    C214164   2.672   1.223  11.878  0.3865  0.3177  0.4891
    5TMC3    C314165   2.593   1.112  11.860 -0.0128 -0.3453  0.4739
    5TMC3    C414166   2.865   1.090  11.904 -0.7697 -0.0473  0.4524
    5TMC3    C514167   2.783   0.981  11.917 -0.2695  0.1547 -0.3461
    5TMC3    C614168   2.653   0.988  11.879  0.1668 -0.4086  0.2662
    5TMC3     C14169   2.851   1.260  11.754  0.8976 -0.6723  0.9462
    5TMC3     O14170   2.818   1.372  11.714  0.2232 -0.0277  0.4965
    5TMC3     H14171   2.648   1.324  11.846 -1.4884 -0.7311 -1.3527
    5TMC3    H114172   2.974   1.092  11.905 -0.7788  0.6662 -0.5495
    5TMC3    H214173   2.585   0.904  11.880 -2.2074  1.4836 -1.2212
    5TMC3    C714174   2.848   0.866  11.849  0.7437 -0.7757  0.4934
    5TMC3    C814175   2.516   1.126  11.731 -0.7319  0.1543  0.1131
    5TMC3    O114176   2.946   0.887  11.785 -0.3245  0.2637  0.1691
    5TMC3    O214177   2.488   1.234  11.684 -0.2749  0.4799  0.1653
    6TMC3    C114178   1.942   0.558  11.295  0.7470  0.5887 -0.2340
    6TMC3    C214179   1.869   0.452  11.242  0.9587  0.3028  0.3369
    6TMC3    C314180   1.937   0.354  11.177  0.7473 -0.1753 -0.4295
    6TMC3    C414181   2.070   0.572  11.262 -0.4234 -0.3856  0.0770
    6TMC3    C514182   2.131   0.484  11.175 -0.2404 -0.0381  0.6046
    6TMC3    C614183   2.065   0.366  11.139 -0.5660  0.4999  0.0646
    6TMC3     C14184   1.878   0.663  11.364 -0.2267 -0.6118 -0.0300
    6TMC3     O14185   1.928   0.777  11.367  0.1846  0.6722 -0.1218
    6TMC3     H14186   1.764   0.441  11.266  0.2983  1.2106 -2.2316
    6TMC3    H114187   2.125   0.657  11.303  1.2059 -1.5704  0.3800
    6TMC3    H214188   2.114   0.291  11.079 -0.0999  0.8158  0.0477
    6TMC3    C714189   2.263   0.510  11.137 -0.1517  0.1169 -0.0881
    6TMC3    C814190   1.847   0.263  11.106  0.3498  0.4545 -0.0676
    6TMC3    O114191   2.340   0.422  11.107 -0.3250 -0.2189  0.6218
    6TMC3    O214192   1.738   0.234  11.153  0.1223 -0.2363  0.0632
    7MPD2     C14193   2.829   0.380  11.679 -0.2743  0.4208 -0.6173
    7MPD2    C114194   2.895   0.493  11.628  0.0299 -0.0648  0.1804
    7MPD2    C214195   2.873   0.614  11.696  0.1224 -0.4690 -0.5735
    7MPD2    C314196   2.790   0.627  11.799 -0.2484  0.2555 -0.6562
    7MPD2    C414197   2.718   0.517  11.834  0.5274 -0.3848 -0.5537
    7MPD2    C514198   2.743   0.393  11.784 -0.3348 -0.0170 -0.2007
    7MPD2     H14199   2.936   0.695  11.662  0.3902  0.1756  1.5080
    7MPD2    H114200   2.644   0.513  11.913  1.3042  0.5546  0.2247
    7MPD2    H214201   2.846   0.283  11.635 -3.7960 -0.3066 -0.3606
    7MPD2    H314202   2.698   0.302  11.823  2.0425 -1.8516 -1.7298
    7MPD2     N14203   2.770   0.751  11.871 -0.4841  0.1954 -0.2240
    7MPD2    H514204   2.694   0.749  11.938  1.0016 -0.0574  1.4531
    7MPD2    N114205   2.976   0.501  11.513  0.7540 -0.6594  0.1582
    7MPD2    H714206   3.012   0.596  11.506 -0.8277  0.0642  1.9143
    8TMC3    C114207   3.072   0.459  11.309  0.4496 -0.4444 -0.5801
    8TMC3    C214208   2.996   0.442  11.193  0.7769  0.1309 -0.4246
    8TMC3    C314209   2.944   0.545  11.122  0.1455 -0.4806 -0.0822
    8TMC3    C414210   3.119   0.586  11.340  0.0864  0.1565  0.4139
    8TMC3    C514211   3.065   0.689  11.268  0.3318 -1.0407  0.7273
    8TMC3    C614212   2.980   0.678  11.161  0.5678  0.2233 -0.0719
    8TMC3     C14213   3.010   0.401  11.425 -0.2029  0.4514 -0.5133
    8TMC3     O14214   2.974   0.283  11.415  0.2119  0.5886 -0.3243
    8TMC3     H14215   2.950   0.344  11.183 -0.7058  0.5768  1.8899
    8TMC3    H114216   3.185   0.609  11.422 -0.9686  1.3062  0.9357
    8TMC3    H214217   2.934   0.765  11.116 -0.6885 -1.0244 -1.2119
    8TMC3    C714218   3.048   0.805  11.349 -0.0354 -0.0413 -0.7486
    8TMC3    C814219   2.807   0.533  11.083 -0.1752 -0.1600 -0.1323
    8TMC3    O114220   3.065   0.784  11.466 -0.8820  0.2850 -0.4754
    8TMC3    O214221   2.741   0.447  11.142 -0.4224  0.3681  0.5787
    9MPD2     C14222   2.615   0.810  10.918 -0.6340 -0.0788  0.1300
    9MPD2    C114223   2.627   0.689  10.983 -0.0564  0.2214 -0.7916
    9MPD2    C214224   2.518   0.628  11.039  0.6635 -0.0529  0.2743
    9MPD2    C314225   2.391   0.686  11.032  0.3100 -0.6516  0.2273
    9MPD2    C414226   2.381   0.809  10.967  0.9767 -0.6424  0.4231
    9MPD2    C514227   2.487   0.869  10.907 -0.2204 -0.7712 -0.8969
    9MPD2     H14228   2.533   0.547  11.109  1.7104 -1.9946 -2.2078
    9MPD2    H114229   2.288   0.861  10.948  1.8601  0.5619 -0.6360
    9MPD2    H214230   2.698   0.857  10.867 -1.6835  0.2718 -1.2595
    9MPD2    H314231   2.480   0.961  10.851  0.9885  1.9435  3.3889
    9MPD2     N14232   2.273   0.637  11.086  0.0628  0.0849 -0.3736
    9MPD2    H514233   2.195   0.701  11.102  1.5058  1.7823 -0.1198
    9MPD2    N114234   2.762   0.640  10.998  0.5499 -0.0261  0.5843
    9MPD2    H714235   2.840   0.694  10.963 -0.9701  1.4709 -0.4928
    1MPD1     C14236   1.648   4.335  16.911 -0.7774  0.3968  0.5902
    1MPD1    C114237   1.672   4.203  16.879 -0.1362 -0.0168  0.6524
    1MPD1    C214238   1.804   4.173  16.856 -0.8590 -0.1181  0.7827
    1MPD1    C314239   1.900   4.271  16.832 -0.3360  0.1141  0.1048
    1MPD1    C414240   1.857   4.401  16.830 -0.4239  0.5451 -0.4356
    1MPD1    C514241   1.732   4.428  16.869 -0.0893 -0.0276 -0.1771
    1MPD1     H14242   1.837   4.072  16.832 -3.3053 -0.9196  0.7809
    1MPD1    H114243   1.932   4.479  16.817 -2.5033  2.3978 -1.3465
    1MPD1    H214244   1.550   4.365  16.947 -1.3107 -1.8951  1.0628
    1MPD1    H314245   1.707   4.532  16.881 -2.0999 -0.5522  0.2149
    1MPD1     N14246   2.040   4.254  16.800  0.0886  0.5404  0.5417
    1MPD1    H514247   2.093   4.335  16.770 -0.3077 -0.7101 -3.6394
    1MPD1    N114248   1.580   4.100  16.913 -0.2827 -0.6189 -0.4630
    1MPD1    H614249   1.606   4.015  16.863 -1.9692 -0.3090 -1.8768
    1MPD1    H714250   1.481   4.122  16.899 -0.4558 -1.8801 -1.2382
    2MPD1     C14251   2.922   3.622  16.681 -0.1132  0.2154  0.1848
    2MPD1    C114252   2.902   3.705  16.572  0.5497 -0.1689  0.1913
    2MPD1    C214253   2.807   3.803  16.580 -1.2894  0.6604  0.3206
    2MPD1    C314254   2.718   3.800  16.683 -0.6241  0.2938 -0.1010
    2MPD1    C414255   2.731   3.706  16.787 -0.4696 -0.7354  0.7391
    2MPD1    C514256   2.836   3.623  16.781 -0.2094  0.6299 -0.4116
    2MPD1     H14257   2.788   3.877  16.503 -0.8527 -0.8514 -1.2361
    2MPD1    H114258   2.669   3.686  16.873 -3.0514 -1.0972 -1.2277
    2MPD1    H214259   3.003   3.551  16.684 -0.0901  0.1606 -1.4347
    2MPD1    H314260   2.854   3.550  16.859 -3.0696  0.8911  0.5071
    2MPD1     N14261   2.617   3.897  16.673  0.2611 -0.3518 -1.0182
    2MPD1    H514262   2.619   3.962  16.595  0.0369  1.4385  0.4875
    2MPD1    N114263   2.987   3.703  16.456  0.3220 -0.3580 -0.0727
    2MPD1    H614264   2.994   3.604  16.434  0.1177 -0.6379  1.1440
    2MPD1    H714265   2.954   3.753  16.374 -1.5534  0.3080  1.1068
    3TCq2    C114266   2.514   3.912  16.766 -0.0726 -0.2414  0.5283
    3TCq2    O214267   2.473   3.838  16.855  0.5228  0.0726 -0.7792
    3TCq2    C214268   2.440   4.036  16.726  0.2408  0.9218 -0.6354
    3TCq2    C314269   2.480   4.113  16.626  0.4208  0.1814  0.9548
    3TCq2    C414270   2.381   4.200  16.584 -0.6316 -0.0016  0.1109
    3TCq2    C514271   2.255   4.200  16.629  0.1179 -0.0672 -0.1228
    3TCq2    C614272   2.227   4.125  16.743 -0.4787  0.3338 -0.4467
    3TCq2    C714273   2.312   4.035  16.781  0.8755  0.2035  0.0377
    3TCq2    C814274   2.094   4.127  16.797 -0.0964  0.0403  0.5598
    3TCq2    O414275   2.053   4.016  16.828 -0.3318 -0.0403  0.0298
    3TCq2    C914276   2.409   4.292  16.479  0.8750  0.9951 -0.4020
    3TCq2    O514277   2.324   4.385  16.457 -0.5022 -0.4431  0.2886
    3TCq2    O614278   2.514   4.268  16.412  0.7482  0.9295  0.5084
    3TCq2    H214279   2.580   4.114  16.584 -1.7637  0.9249 -4.2446
    3TCq2    H314280   2.183   4.269  16.586  2.3653  2.7172  0.5761
    3TCq2    H414281   2.279   3.961  16.853 -0.3022 -0.1386 -0.8583
    1TCq1    O114282   4.567   2.096  14.386 -0.1197 -0.5124  0.1583
    1TCq1    C114283   4.682   2.038  14.359 -0.3551  0.0396  0.3670
    1TCq1    O214284   4.712   1.921  14.378 -0.7077 -0.1148 -0.4123
    1TCq1    C214285   0.058   2.141  14.330  0.3208 -0.3058 -0.1992
    1TCq1    C314286   0.187   2.109  14.355  0.1614  0.2266 -0.6753
    1TCq1    C414287   0.275   2.197  14.303  0.3294  0.9958  0.3097
    1TCq1    C514288   0.236   2.307  14.225 -0.2916  0.1520  0.1831
    1TCq1    C614289   0.107   2.342  14.206  0.0032 -0.2261  0.3760
    1TCq1    C714290   0.013   2.256  14.261 -0.2483  0.6311  0.6408
    1TCq1    C814291   0.078   2.434  14.103 -0.6064  0.6171 -0.0655
    1TCq1    O414292   4.689   2.430  14.050 -0.2560 -0.0809  0.3816
    1TCq1    C914293   0.415   2.184  14.336 -0.2227  0.0005  0.2784
    1TCq1    O514294   0.502   2.254  14.280  0.1321  0.2449 -0.4059
    1TCq1    O614295   0.444   2.096  14.423 -0.2614 -0.1366 -0.0351
    1TCq1    H114296   4.586   2.191  14.400  1.5563 -0.7190 -0.6988
    1TCq1    H214297   0.219   2.028  14.420 -4.1622  0.2624  1.4700
    1TCq1    H314298   0.313   2.375  14.190  2.7355 -1.8856  2.9545
    1TCq1    H414299   4.634   2.270  14.224 -0.7515 -2.8357  0.7015
    2MPD2     C14300   0.223   2.767  14.047  0.2899 -0.1686 -0.0472
    2MPD2    C114301   0.147   2.655  14.021  0.0516 -0.5516 -0.4457
    2MPD2    C214302   0.052   2.677  13.920  0.2636 -0.4696  0.2855
    2MPD2    C314303   0.040   2.787  13.845 -0.6216 -0.4577  1.1161
    2MPD2    C414304   0.116   2.895  13.876  0.2396  0.4607  0.4582
    2MPD2    C514305   0.205   2.883  13.975 -0.8819 -0.5702  0.5253
    2MPD2     H14306   4.694   2.608  13.895  0.8405 -0.4643 -1.5074
    2MPD2    H114307   0.115   2.990  13.824  0.0107  1.6893  2.6898
    2MPD2    H214308   0.303   2.757  14.120  0.8994  0.0680 -0.6766
    2MPD2    H314309   0.275   2.965  13.987 -0.6417 -0.6119 -0.5408
    2MPD2     N14310   4.664   2.783  13.750 -0.4971  0.1393  0.2648
    2MPD2    H514311   4.616   2.695  13.735 -0.1110  0.1831 -1.2222
    2MPD2    N114312   0.164   2.541  14.100 -0.8427  0.4044 -0.6869
    2MPD2    H714313   0.243   2.546  14.164 -2.0318 -0.0124  0.8088
    3TCq1    O114314   4.154   2.944  13.432  0.0142  0.5210  0.4500
    3TCq1    C114315   4.263   3.001  13.383  0.0879  0.2069  0.7293
    3TCq1    O214316   4.281   3.123  13.368 -0.0666  0.5904  0.2616
    3TCq1    C214317   4.366   2.905  13.417 -0.4061  0.2992 -0.4029
    3TCq1    C314318   4.342   2.768  13.384  0.5031 -0.5269  0.4288
    3TCq1    C414319   4.419   2.674  13.450  0.2008 -0.3223 -0.7410
    3TCq1    C514320   4.514   2.716  13.537  0.2110 -0.0291  0.3680
    3TCq1    C614321   4.525   2.851  13.576 -0.3441 -0.1903  0.4550
    3TCq1    C714322   4.455   2.950  13.510 -0.7905 -0.4093  0.7849
    3TCq1    C814323   4.616   2.892  13.680  0.2784 -0.1940 -0.1742
    3TCq1    O414324   4.628   3.010  13.702  0.0150 -0.1197  0.3784
    3TCq1    C914325   4.401   2.537  13.420  0.0917  0.3819  0.4180
    3TCq1    O514326   4.307   2.506  13.343 -0.1922  0.0098 -0.5091
    3TCq1    O614327   4.478   2.452  13.465  0.0398 -0.3039  0.3994
    3TCq1    H114328   4.175   2.851  13.457 -0.2839  0.4533  0.4420
    3TCq1    H214329   4.275   2.738  13.304  0.4466  2.7488 -0.7567
    3TCq1    H314330   4.572   2.638  13.584 -0.8592 -0.7959  0.4036
    3TCq1    H414331   4.461   3.056  13.530 -0.8004 -0.1417 -0.6384
    1MPD2     C14332   4.640   4.493  14.927  0.5886 -0.1693  0.3622
    1MPD2    C114333   4.547   4.389  14.910  0.1422  0.1420 -0.1505
    1MPD2    C214334   4.583   4.259  14.934  0.2887  0.2737 -0.1177
    1MPD2    C314335   4.713   4.233  14.973 -0.9127 -0.4643  0.4958
    1MPD2    C414336   0.089   4.333  14.980  0.3201 -0.1909  0.3204
    1MPD2    C514337   0.048   4.461  14.957  0.7924 -0.1233 -0.3511
    1MPD2     H14338   4.514   4.176  14.929 -1.6420  1.8605  0.2669
    1MPD2    H114339   0.194   4.309  14.992  0.8206  0.8307 -1.8878
    1MPD2    H214340   4.616   4.595  14.898  1.3800  0.5311  2.1683
    1MPD2    H314341   0.113   4.547  14.951  0.3065  0.1482 -1.9291
    1MPD2     N14342   0.008   4.094  14.998  0.2948 -0.1296  0.0912
    1MPD2    H514343   4.652   4.036  14.970  0.0249 -0.0415  0.6528
    1MPD2    N114344   4.405   4.416  14.878 -0.8053 -0.0171 -0.3052
    1MPD2    H714345   4.392   4.497  14.819  1.0583  0.9218  0.5877
    2TMC3    C114346   4.173   4.369  14.827 -0.3075  0.0989  0.1873
    2TMC3    C214347   4.071   4.286  14.857 -0.2509  0.1373  0.7748
    2TMC3    C314348   3.986   4.241  14.763 -0.5075  0.4057  0.4710
    2TMC3    C414349   4.186   4.422  14.705  0.5600  0.4089  1.0169
    2TMC3    C514350   4.095   4.384  14.607 -0.4505  0.6804 -0.0843
    2TMC3    C614351   3.992   4.296  14.636 -0.7123 -0.4732  0.8618
    2TMC3     C14352   4.297   4.322  14.888  0.1596 -0.2712 -0.4396
    2TMC3     O14353   4.299   4.222  14.953 -0.3331 -0.2482  0.8168
    2TMC3     H14354   4.064   4.237  14.953  0.0751 -2.5572 -0.6053
    2TMC3    H114355   4.251   4.508  14.693 -1.1457  1.5181 -0.1182
    2TMC3    H214356   3.927   4.264  14.555 -0.5292 -1.5554  1.1387
    2TMC3    C714357   4.057   4.487  14.507 -0.3579 -0.6342  0.0185
    2TMC3    C814358   3.982   4.101  14.747 -0.0671  0.0792 -0.1946
    2TMC3    O114359   3.943   4.483  14.465 -0.4729 -0.2002 -0.0048
    2TMC3    O214360   3.904   4.051  14.667  0.4024 -0.2629  0.2428
    3TCq1    O114361   0.007   0.828  14.615  0.1027  0.8526  0.4421
    3TCq1    C114362   4.658   0.776  14.510  0.0964  0.2924  0.4095
    3TCq1    O214363   4.589   0.843  14.437 -0.0094  0.2439  0.2355
    3TCq1    C214364   4.606   0.651  14.566  0.1342  0.0781  0.0835
    3TCq1    C314365   4.687   0.567  14.635  1.2884  0.0458 -0.0253
    3TCq1    C414366   4.644   0.440  14.666  0.7896 -0.3592 -0.1209
    3TCq1    C514367   4.516   0.404  14.631 -0.0400 -0.1915  0.2739
    3TCq1    C614368   4.444   0.491  14.554 -1.0673  0.9361 -0.0787
    3TCq1    C714369   4.478   0.621  14.525  0.1692  0.3913  0.7595
    3TCq1    C814370   4.343   0.438  14.466  0.0876 -0.4934 -0.8201
    3TCq1    O414371   4.288   0.513  14.388 -0.2642 -0.0781  0.3021
    3TCq1    C914372   4.722   0.330  14.735  0.4116 -0.2922  0.5913
    3TCq1    O514373   4.669   0.219  14.743 -0.1528 -0.2430  0.5386
    3TCq1    O614374   0.122   0.358  14.764  1.0042 -0.7143 -0.4247
    3TCq1    H114375   0.019   0.767  14.691 -1.1737 -1.6613 -1.3758
    3TCq1    H214376   0.068   0.591  14.659  1.5176 -1.9569  0.9981
    3TCq1    H314377   4.474   0.309  14.662 -0.8348  0.2725  0.6137
    3TCq1    H414378   4.411   0.686  14.471 -1.5038 -0.1728  2.1510
    4MPD2     C14379   4.130   0.244  14.355  0.1472 -0.1356  0.4951
    4MPD2    C114380   4.238   0.212  14.426  0.5802 -1.0930 -0.2136
    4MPD2    C214381   4.255   0.074  14.454 -0.1032 -0.4506  0.6527
    4MPD2    C314382   4.154   4.709  14.421  0.4861  0.3756 -0.1647
    4MPD2    C414383   4.054   0.025  14.339  0.0876  0.8853 -0.9966
    4MPD2    C514384   4.042   0.158  14.306 -0.5980  0.7710  0.2460
    4MPD2     H14385   4.338   0.037  14.513 -0.8304 -1.9735  0.7355
    4MPD2    H114386   3.967   4.683  14.325  0.5123  0.2933 -0.9172
    4MPD2    H214387   4.122   0.349  14.328  3.2151 -0.1872 -0.6028
    4MPD2    H314388   3.965   0.199  14.242  0.7915  2.4166 -0.3856
    4MPD2     N14389   4.156   4.585  14.492 -0.4337 -0.1365  0.8470
    4MPD2    H514390   4.243   4.552  14.533 -0.8591 -2.0956  0.1458
    4MPD2    N114391   4.337   0.303  14.470 -0.4384 -0.6324  0.1776
    4MPD2    H714392   4.420   0.268  14.518  0.1158 -0.1149 -0.4148
    5TMC2    C114393   4.646   3.761  14.989 -0.6051 -0.1861 -0.2314
    5TMC2    C214394   4.645   3.695  15.112 -0.1199 -0.6564  0.1408
    5TMC2    C314395   0.013   3.736  15.200 -0.5256 -0.2179 -0.7040
    5TMC2    C414396   0.023   3.852  14.955 -0.3582 -0.1639  0.3360
    5TMC2    C514397   0.103   3.895  15.059  0.1742  0.4187 -0.7190
    5TMC2    C614398   0.097   3.843  15.183  0.1714 -0.6472  0.0793
    5TMC2     C14399   4.520   3.804  14.936 -0.4796  0.1255  0.3422
    5TMC2     O14400   4.523   3.921  14.901  0.0759  0.1642  0.5471
    5TMC2     H14401   4.582   3.610  15.136  0.6010 -1.3917 -0.5739
    5TMC2    H114402   0.019   3.903  14.859 -0.9426  2.1780  1.6032
    5TMC2    H214403   0.148   3.891  15.265 -1.9064  0.0457  0.9595
    5TMC2    C714404   0.122   4.035  15.050  0.2600 -0.0258 -0.2112
    5TMC2    C814405   4.716   3.702  15.338 -0.4435 -0.3982  0.5639
    5TMC2    O114406   0.209   4.098  15.116 -0.6354 -0.2090 -0.7227
    5TMC2    O214407   4.605   3.688  15.386  0.3229  0.4163  0.4863
    5TMC2    O514408   0.110   3.694  15.411  0.3165  0.6215  0.3147
    5TMC2    H514409   0.188   3.694  15.352 -0.8115  0.9188 -1.1530
    6MPD2     C14410   4.049   3.809  14.753 -0.1785  0.1680  0.7065
    6MPD2    C114411   4.131   3.910  14.796  0.1358  0.1380  0.3206
    6MPD2    C214412   4.250   3.877  14.855  0.9669 -0.7215 -0.4125
    6MPD2    C314413   4.304   3.745  14.853  0.0065 -0.5777 -0.5442
    6MPD2    C414414   4.223   3.646  14.800 -0.4450 -0.3299 -0.6693
    6MPD2    C514415   4.096   3.679  14.759  0.5729  0.6531 -0.0671
    6MPD2     H14416   4.294   3.959  14.910 -0.8588 -1.6034  2.3544
    6MPD2    H114417   4.241   3.541  14.816 -0.7839 -0.2546  0.2064
    6MPD2    H214418   3.946   3.831  14.728  0.3002  0.2728 -1.2321
    6MPD2    H314419   4.029   3.597  14.736 -1.1398  2.0341  0.0121
    6MPD2     N14420   4.428   3.710  14.910  0.1881  0.2507  0.5066
    6MPD2    H514421   4.449   3.612  14.896 -0.0486  0.5359 -1.8669
    6MPD2    N114422   4.093   4.043  14.800  0.1676  0.2019  0.5261
    6MPD2    H714423   4.154   4.104  14.853 -1.4784  2.4317 -0.1716
  945NH3     N114424   3.655   3.774   0.980 -0.4754  0.7405  0.0374
  945NH3     H214425   3.718   3.702   1.011 -0.5899  1.4533  1.9311
  945NH3     H314426   3.640   3.752   0.882 -2.2746  0.7050  0.3197
  945NH3     H414427   3.703   3.863   0.989  0.0287  0.4047  0.5878
  946SOD     NA14428   3.415   1.755   3.388 -0.1022 -0.3188  0.4556
  947SOD     NA14429   1.676   3.152  14.960  0.2409  0.4962  0.3164
  948SOD     NA14430   3.307   0.480  10.137  0.1260  0.0102 -0.2545
  949SOD     NA14431   2.790   2.200  13.442 -0.2104 -0.5222  0.0983
  950SOD     NA14432   2.981   0.928   0.534 -0.2463  0.0219 -0.1433
  951SOD     NA14433   2.493   2.253   2.201  0.2420  0.1629 -0.1004
  952SOD     NA14434   0.486   1.427  10.496 -0.1074 -0.2594  0.8205
  953SOD     NA14435   3.661   2.946  11.315 -0.0185  0.2812 -0.3469
  954SOD     NA14436   0.981   2.685  11.710 -0.1343  0.3002  0.1044
  955SOD     NA14437   1.163   3.372  15.694  0.0608 -0.1256  0.4588
  956SOD     NA14438   4.366   2.233   3.574 -0.2139 -0.3547 -0.4811
  957SOD     NA14439   1.150   4.245  13.079  0.2092  0.2899  0.1140
  958SOD     NA14440   1.092   0.764  17.388  0.2901 -0.1440 -0.4359
  959SOD     NA14441   1.926   3.301  14.381  0.2105  0.7266  0.2849
  960SOD     NA14442   2.830   2.216  13.952 -0.4738 -0.0571 -0.1433
  961SOD     NA14443   4.678   2.385  11.084 -0.6313 -0.1210  0.4156
  962SOD     NA14444   4.063   4.017  10.643 -0.1448 -0.5903  0.2828
  963SOD     NA14445   3.341   1.820   0.240  0.0496 -0.0405  0.2045
  964SOD     NA14446   3.428   1.763   1.744 -0.6113 -0.4583  0.1337
  965SOD     NA14447   1.740   2.785   0.287  0.2445  0.1934 -0.1648
  966SOD     NA14448   1.924   3.620  15.180 -0.0546 -0.1957 -0.1582
  967SOD     NA14449   0.817   3.599  11.948  0.1532  0.3008 -0.2897
  968SOD     NA14450   2.417   1.447   0.315  0.4679 -0.0695 -0.5352
  969SOD     NA14451   1.086   2.279  10.946 -0.1118  0.0915  0.4059
  970SOD     NA14452   4.496   2.489  10.473  0.0420  0.0993  0.2373
  971SOD     NA14453   3.906   2.675  15.072  0.2884 -0.1230 -0.0851
  972SOD     NA14454   4.633   3.988  14.167 -0.1721  0.0752 -0.3102
  973SOD     NA14455   0.266   2.638  10.212 -0.4069  0.0125 -0.3790
  974SOD     NA14456   1.280   4.419  12.462  0.2204 -0.0592  0.3370
  975SOD     NA14457   4.511   3.629   9.597  0.4350 -0.1011 -0.0752
  976SOD     NA14458   0.626   2.412  14.360  0.0791  0.1018 -0.1678
  977SOD     NA14459   1.634   4.067  11.228  0.6399 -0.5419 -0.1795
  978SOD     NA14460   4.221   0.912   1.077 -0.2374 -0.8361 -0.0877
  979SOD     NA14461   0.578   3.522  13.037 -0.4368  0.4293 -0.1470
  980SOD     NA14462   0.147   0.135  14.789 -0.3658  0.2759  0.5102
  981SOD     NA14463   2.101   0.688  16.682 -0.0924  0.2794  0.6961
  982SOD     NA14464   2.461   4.379  16.027 -0.2856  0.3045  0.2331
  983SOD     NA14465   1.620   4.151  17.147 -0.1321 -0.0774 -0.3222
  984SOD     NA14466   2.115   0.281   2.293  0.1436 -0.3457 -0.0539
  985SOD     NA14467   0.624   4.183  10.198 -0.3669  0.1035 -0.0266
  986SOD     NA14468   1.483   4.717   4.005 -0.1137 -0.1084  0.4329
  987SOD     NA14469   0.039   3.928   2.403 -0.2161  0.1086  0.0834
  988SOD     NA14470   3.260   2.151   7.507 -0.6685  0.1369 -0.0644
  989SOD     NA14471   3.021   0.904   9.453  0.4363  0.8548  0.6480
  990SOD     NA14472   2.297   4.357   1.770 -0.3012  0.3155  0.0432
  991SOD     NA14473   3.574   4.474  15.642  0.1686  0.1596  0.1958
  992SOD     NA14474   3.162   2.112  15.433 -0.4588 -0.3133  0.4610
  993SOD     NA14475   4.564   4.680  11.845 -0.5298  0.3579 -0.0887
  994SOD     NA14476   0.723   3.881  12.029  0.0197  0.6871 -0.2942
  995SOD     NA14477   2.527   3.656  12.273  0.4933  0.0920  0.1791
  996SOD     NA14478   3.662   2.507  11.503 -0.4807  0.1919  0.1319
  997SOD     NA14479   2.905   3.780   2.165 -0.7898 -0.0239  0.3689
  998SOD     NA14480   2.273   1.827  17.122  0.0487 -0.3427  0.4685
  999SOD     NA14481   0.661   1.866  10.845  0.0956 -0.0327 -0.0641
 1000SOD     NA14482   2.467   1.401   0.634  0.5945  0.2431 -0.5893
 1001SOD     NA14483   0.190   2.326   4.298  0.2905 -0.0321  0.0204
 1002SOD     NA14484   3.778   4.178  12.843 -0.1528 -0.4436  0.2396
 1003SOD     NA14485   0.533   2.440  10.272 -0.2774  0.8848  0.2012
 1004SOD     NA14486   3.406   2.322  11.591 -0.3155  0.1182  0.2050
 1005SOD     NA14487   3.938   2.589  13.574  0.4708 -0.9683 -0.1974
 1006SOD     NA14488   1.896   3.457   0.592 -0.1407  0.1612  0.1197
 1007SOD     NA14489   0.915   0.121  10.583 -0.2461 -0.2365  0.0490
 1008SOD     NA14490   0.017   4.359  15.344  0.6721 -0.3460 -0.5152
 1009SOD     NA14491   1.941   2.723   5.582  0.6328  0.1891  0.3171
 1010SOD     NA14492   0.932   2.080  10.736 -0.1553  0.7067 -0.0075
 1011SOD     NA14493   0.918   3.047  12.163 -0.3237 -0.5012 -0.6175
 1012SOL     OW14494   4.396   1.359   2.489 -0.1795  0.3038 -0.3256
 1012SOL    HW114495   4.401   1.384   2.397 -0.4466 -0.9814 -0.6868
 1012SOL    HW214496   4.410   1.264   2.484  2.2461  0.5643  1.0365
 1013SOL     OW14497   4.421   4.617   6.258 -0.0498  0.7175 -0.5285
 1013SOL    HW114498   4.408   4.648   6.347  2.1838  1.3059 -0.4059
 1013SOL    HW214499   4.347   4.557   6.252 -0.5201  1.2405  0.0850
 1014SOL     OW14500   2.942   3.974  16.001 -0.3885  0.2393 -0.3285
 1014SOL    HW114501   2.911   4.064  16.010 -0.7456  0.2072 -1.2079
 1014SOL    HW214502   2.873   3.934  15.948 -1.6178  1.9298 -0.0164
 1015SOL     OW14503   1.243   4.514   5.229  0.1576 -0.5731 -0.3399
 1015SOL    HW114504   1.199   4.557   5.156 -1.7446  0.1097  1.2086
 1015SOL    HW214505   1.268   4.436   5.179 -1.9066 -2.2210  1.1464
 1016SOL     OW14506   3.196   0.660   6.706 -0.3622  0.8965  0.0390
 1016SOL    HW114507   3.261   0.609   6.659 -0.2085  1.4178 -0.3061
 1016SOL    HW214508   3.170   0.731   6.647 -1.9291  0.7723  0.5688
 1017SOL     OW14509   1.421   4.244   1.951  1.0822 -0.2192  0.3900
 1017SOL    HW114510   1.467   4.322   1.983 -1.0103  0.3754  1.9601
 1017SOL    HW214511   1.338   4.255   1.998  1.1121 -0.2472  0.4484
 1018SOL     OW14512   0.883   3.274   2.281  0.1200  0.3031  0.0472
 1018SOL    HW114513   0.920   3.362   2.277  0.9995 -0.0497  0.5562
 1018SOL    HW214514   0.964   3.229   2.254 -0.5060 -1.1288  0.5319
 1019SOL     OW14515   3.981   2.521   4.540 -0.2134 -0.2480  0.0484
 1019SOL    HW114516   3.937   2.536   4.624  0.8772  1.3488  0.3306
 1019SOL    HW214517   3.912   2.561   4.486 -0.9476 -0.9381  0.4682
 1020SOL     OW14518   2.872   2.743   3.300  0.1529  0.3375 -0.3023
 1020SOL    HW114519   2.908   2.694   3.226 -0.3622 -0.2930 -0.1353
 1020SOL    HW214520   2.850   2.667   3.353 -0.9330 -0.2003 -1.5115
 1021SOL     OW14521   2.386   2.990   4.928 -0.0190 -0.0322 -0.1169
 1021SOL    HW114522   2.343   3.026   5.005 -1.2114 -0.7673 -0.4489
 1021SOL    HW214523   2.410   3.069   4.879 -1.0404  2.0715  2.7878
 1022SOL     OW14524   3.757   3.890   2.971  0.4128  0.1989  0.0030
 1022SOL    HW114525   3.784   3.807   2.933  0.1965  1.7141 -3.4580
 1022SOL    HW214526   3.709   3.853   3.045 -1.1593 -0.1666 -1.2103
 1023SOL     OW14527   2.902   2.998   5.219  0.2453 -0.5370 -0.1381
 1023SOL    HW114528   2.828   2.976   5.275  0.0504 -2.7082 -1.2311
 1023SOL    HW214529   2.966   3.025   5.284 -1.1002  0.2818  0.8377
 1024SOL     OW14530   0.395   0.063   8.181 -0.3319  0.1171 -0.0782
 1024SOL    HW114531   0.381   0.116   8.102  1.7238  0.9871  0.1294
 1024SOL    HW214532   0.309   0.025   8.198 -0.2342 -0.2376 -0.3695
 1025SOL     OW14533   1.843   3.892   2.266  0.0533  0.1835  0.2443
 1025SOL    HW114534   1.787   3.944   2.323  0.0563  1.0470 -0.5453
 1025SOL    HW214535   1.790   3.812   2.263  0.3933  0.0559 -2.9739
 1026SOL     OW14536   1.523   1.852   2.399 -0.5268 -0.7299 -0.0094
 1026SOL    HW114537   1.541   1.788   2.329  0.3943  0.2036 -0.6302
 1026SOL    HW214538   1.591   1.918   2.389 -0.2209 -0.8716  1.1735
 1027SOL     OW14539   0.584   3.743   2.911 -0.1709 -0.0684 -0.4551
 1027SOL    HW114540   0.609   3.655   2.939  0.6162 -0.0180 -0.9994
 1027SOL    HW214541   0.590   3.791   2.993 -1.2646  1.2533 -1.1651
 1028SOL     OW14542   1.818   4.379   1.933 -0.0675  0.0478  0.6521
 1028SOL    HW114543   1.870   4.406   2.009 -1.1884 -0.6942  1.7003
 1028SOL    HW214544   1.786   4.295   1.967 -1.4932 -0.2266 -1.3884
 1029SOL     OW14545   4.216   4.175   1.932  0.5660 -0.2614  0.2979
 1029SOL    HW114546   4.167   4.136   1.859 -1.1606  0.9045  0.8074
 1029SOL    HW214547   4.259   4.253   1.897  1.7131 -0.0757  2.1254
 1030SOL     OW14548   1.407   4.024   5.994 -0.2867 -0.4124  0.4702
 1030SOL    HW114549   1.432   3.934   6.013 -2.4346 -0.5573  2.5752
 1030SOL    HW214550   1.439   4.071   6.071 -1.6894 -1.7980  1.8946
 1031SOL     OW14551   3.359   4.241   6.934 -0.0878 -0.3271 -0.3218
 1031SOL    HW114552   3.434   4.288   6.971  1.0798  0.5091 -3.7047
 1031SOL    HW214553   3.280   4.277   6.974 -0.0949  2.4734 -2.8622
 1032SOL     OW14554   0.864   3.147   6.931 -0.2479 -0.0355 -0.3173
 1032SOL    HW114555   0.934   3.110   6.985  1.3263  1.1931 -1.5238
 1032SOL    HW214556   0.873   3.239   6.957 -1.1623  0.1506 -0.6750
 1033SOL     OW14557   3.906   4.216  10.626 -0.0662 -0.3344 -0.1223
 1033SOL    HW114558   3.841   4.213  10.696 -0.4768  1.6420 -0.3971
 1033SOL    HW214559   3.860   4.268  10.560 -0.6917 -1.1014 -0.2798
 1034SOL     OW14560   4.336   4.191  15.213  0.1209 -0.2554 -0.0212
 1034SOL    HW114561   4.324   4.211  15.120  0.1831  0.0651  0.0365
 1034SOL    HW214562   4.292   4.106  15.219 -0.6325  0.0990 -0.4416
 1035SOL     OW14563   0.254   4.289  15.295 -0.0143 -0.8982 -0.3370
 1035SOL    HW114564   0.247   4.214  15.236 -1.2724 -0.5372 -0.6562
 1035SOL    HW214565   0.347   4.290  15.316 -0.1023 -0.7878  0.0334
 1036SOL     OW14566   3.978   2.779  15.298  0.1218 -0.3304 -0.4787
 1036SOL    HW114567   4.006   2.864  15.333  0.5612 -0.7796  0.2402
 1036SOL    HW214568   3.884   2.790  15.284 -0.0106 -1.9758 -0.8748
 1037SOL     OW14569   0.074   4.462   7.235  0.3048 -0.3041 -0.4092
 1037SOL    HW114570   0.029   4.377   7.231 -1.5960  0.5568  1.9948
 1037SOL    HW214571   0.060   4.490   7.145 -2.6936  1.2414  0.5038
 1038SOL     OW14572   0.582   1.488   4.880 -0.0558 -0.5373  0.1949
 1038SOL    HW114573   0.667   1.446   4.870  0.5990  1.3522 -2.1405
 1038SOL    HW214574   0.578   1.529   4.793  0.7709 -0.0310  0.3958
 1039SOL     OW14575   1.873   2.572   9.956 -0.2065  0.5714 -0.4124
 1039SOL    HW114576   1.892   2.548  10.047 -1.0485  0.3453 -0.3004
 1039SOL    HW214577   1.785   2.534   9.958  0.7195 -1.5563  0.2464
 1040SOL     OW14578   4.646   1.051   2.565 -0.3742 -0.4874 -0.4198
 1040SOL    HW114579   4.656   0.958   2.547  1.0311 -0.5236  0.5154
 1040SOL    HW214580   4.551   1.054   2.569 -0.4244 -2.3498 -0.2989
 1041SOL     OW14581   2.329   0.288   8.057 -0.0862 -0.1037 -0.3791
 1041SOL    HW114582   2.324   0.195   8.080 -2.0148 -0.1460 -0.9557
 1041SOL    HW214583   2.409   0.310   8.104  1.2396  0.3437 -2.8495
 1042SOL     OW14584   3.445   2.056   4.774 -0.1013  0.0947  0.2017
 1042SOL    HW114585   3.492   1.986   4.728  1.0760 -0.6877  2.5701
 1042SOL    HW214586   3.524   2.100   4.807  0.9841 -1.2505 -0.5996
 1043SOL     OW14587   2.777   3.545   3.204 -0.5648 -0.2230  0.4018
 1043SOL    HW114588   2.763   3.456   3.173  0.8302 -1.9445  4.7036
 1043SOL    HW214589   2.784   3.598   3.125 -0.9698 -0.4746  0.1969
 1044SOL     OW14590   0.091   0.574   0.177  0.1673 -0.0065  0.4201
 1044SOL    HW114591   0.163   0.541   0.231 -0.9413 -0.5212  1.5846
 1044SOL    HW214592   0.116   0.535   0.093 -1.4272 -1.1388  0.4899
 1045SOL     OW14593   1.270   1.302   2.220 -0.1436 -0.0087  0.2410
 1045SOL    HW114594   1.262   1.391   2.184  0.6417 -0.7944 -1.9082
 1045SOL    HW214595   1.360   1.318   2.247  0.0927  0.8334 -1.0126
 1046SOL     OW14596   4.374   4.185   7.681  0.9031 -0.0290 -0.2473
 1046SOL    HW114597   4.350   4.233   7.760 -0.3487 -1.0299 -0.0175
 1046SOL    HW214598   4.445   4.242   7.654  0.2439  1.1706  0.5700
 1047SOL     OW14599   3.558   0.808   6.976 -0.3429  0.1876  0.4193
 1047SOL    HW114600   3.534   0.894   7.011 -1.4992  1.3142 -3.1901
 1047SOL    HW214601   3.653   0.809   6.987 -0.3207  3.6030 -0.0034
 1048SOL     OW14602   2.636   4.640  11.715 -0.2333  0.8915 -0.1250
 1048SOL    HW114603   2.599   0.006  11.710 -0.7398  0.6207 -1.0901
 1048SOL    HW214604   2.573   4.591  11.662  0.1648  0.5485 -0.2867
 1049SOL     OW14605   1.960   4.143   2.989 -0.0176 -0.4159  0.0578
 1049SOL    HW114606   2.026   4.177   2.929 -1.5166  1.0308 -0.7659
 1049SOL    HW214607   2.003   4.068   3.029  4.4513  1.5705 -1.0478
 1050SOL     OW14608   1.641   3.996  10.180 -0.2724 -0.1256 -0.1668
 1050SOL    HW114609   1.734   4.009  10.165 -0.3917  1.2540  0.3009
 1050SOL    HW214610   1.629   3.905  10.152 -1.2975  0.9652 -3.2655
 1051SOL     OW14611   1.794   0.328  11.554 -0.2497  0.0534 -0.0364
 1051SOL    HW114612   1.710   0.306  11.594  0.0593 -1.3308 -0.1564
 1051SOL    HW214613   1.850   0.356  11.626  0.8199 -1.1883 -0.3831
 1052SOL     OW14614   1.590   1.272   3.556 -0.4218 -0.1933  0.3644
 1052SOL    HW114615   1.566   1.364   3.563 -2.3049 -0.9238  3.5480
 1052SOL    HW214616   1.506   1.232   3.534 -0.9881  1.5310 -0.5896
 1053SOL     OW14617   0.416   0.703   9.748  0.1221 -0.1193 -0.0262
 1053SOL    HW114618   0.454   0.639   9.687  1.3473 -0.2462  0.8642
 1053SOL    HW214619   0.469   0.779   9.725  0.6305 -1.4065 -3.0624
 1054SOL     OW14620   0.033   4.303   4.388  0.0689  0.0968  0.0357
 1054SOL    HW114621   0.088   4.381   4.383 -2.8588  2.2522  1.8687
 1054SOL    HW214622   0.070   4.253   4.315  1.4549 -0.8700  1.4064
 1055SOL     OW14623   4.090   2.464  11.825 -0.2098 -0.6214 -0.4850
 1055SOL    HW114624   4.050   2.377  11.828 -0.9093 -0.3092 -0.9384
 1055SOL    HW214625   4.020   2.517  11.863  0.4353 -0.8177  0.9732
 1056SOL     OW14626   0.628   0.966   7.603 -0.1970 -0.1451 -0.2323
 1056SOL    HW114627   0.634   0.955   7.698  0.2837 -0.1781 -0.2625
 1056SOL    HW214628   0.718   0.969   7.570  0.0006 -2.6183  0.1103
 1057SOL     OW14629   4.110   1.530  11.643 -0.6572 -0.1168 -0.2083
 1057SOL    HW114630   4.155   1.496  11.566  0.6384 -1.1983  1.0248
 1057SOL    HW214631   4.147   1.474  11.711 -0.6427 -1.3540 -1.2414
 1058SOL     OW14632   2.231   0.822   4.298  0.3643  0.3849  0.0495
 1058SOL    HW114633   2.274   0.864   4.224 -1.1059  2.6060  0.4657
 1058SOL    HW214634   2.138   0.830   4.275 -0.4013  0.1774  3.0630
 1059SOL     OW14635   4.331   0.950   6.976  0.0274 -0.0630  0.0312
 1059SOL    HW114636   4.349   1.000   6.896  0.8577 -0.4796 -0.0376
 1059SOL    HW214637   4.358   0.860   6.959 -1.0621 -0.2057 -0.9506
 1060SOL     OW14638   3.304   2.221   3.066  0.2029 -0.0428 -0.4478
 1060SOL    HW114639   3.381   2.262   3.103 -1.1889  0.7111  1.6437
 1060SOL    HW214640   3.282   2.175   3.147  1.9937  2.8617  1.6654
 1061SOL     OW14641   1.123   0.715   0.213  0.3149 -0.3344  0.0446
 1061SOL    HW114642   1.169   0.724   0.296 -0.4596  1.0792  0.3212
 1061SOL    HW214643   1.132   0.620   0.209 -0.5405 -0.4467  0.8253
 1062SOL     OW14644   2.812   3.959   5.302 -0.0271 -0.7996  0.0356
 1062SOL    HW114645   2.747   4.029   5.307  1.8097  0.8426  0.5360
 1062SOL    HW214646   2.893   4.007   5.317  0.2085 -0.5378 -2.0637
 1063SOL     OW14647   1.608   1.497   4.892 -0.0526  0.0215 -0.4900
 1063SOL    HW114648   1.618   1.510   4.986  1.0472 -0.2366 -0.5827
 1063SOL    HW214649   1.588   1.403   4.890  0.3922 -0.0895  0.2900
 1064SOL     OW14650   4.212   1.967   8.306  0.3859  0.1772  0.1037
 1064SOL    HW114651   4.173   1.896   8.359  3.0684  0.0898  1.9602
 1064SOL    HW214652   4.222   2.038   8.370  0.7524  0.5658 -0.3869
 1065SOL     OW14653   3.729   4.331   9.422  0.6027  0.3666 -0.1622
 1065SOL    HW114654   3.661   4.265   9.433  2.3563 -1.4883 -0.4896
 1065SOL    HW214655   3.689   4.393   9.362  1.1938  0.6894 -0.2234
 1066SOL     OW14656   0.541   0.273   4.552 -0.1603  0.0065 -0.3188
 1066SOL    HW114657   0.491   0.193   4.540  2.8735 -2.1053  1.0856
 1066SOL    HW214658   0.535   0.291   4.646 -0.8109 -1.3271 -0.1117
 1067SOL     OW14659   2.302   1.740  13.091  0.0013 -0.3092  0.6240
 1067SOL    HW114660   2.240   1.706  13.156  1.0029 -3.6374 -0.2002
 1067SOL    HW214661   2.370   1.674  13.099 -0.5177 -0.9750 -0.5764
 1068SOL     OW14662   3.501   2.959   7.794  0.1142  0.0692  0.1304
 1068SOL    HW114663   3.416   2.951   7.749 -1.1490 -1.7592  2.7652
 1068SOL    HW214664   3.541   3.041   7.765  0.9521 -0.1769  0.5947
 1069SOL     OW14665   2.926   4.184   2.877 -0.6591 -0.0953  0.2175
 1069SOL    HW114666   2.979   4.105   2.889 -1.9230 -1.1562 -1.2710
 1069SOL    HW214667   2.839   4.144   2.880 -0.3486 -1.0836 -3.5066
 1070SOL     OW14668   2.316   3.785  17.354  1.2824 -0.0126 -0.1735
 1070SOL    HW114669   2.379   3.851  17.384  1.7317 -0.3795 -0.3146
 1070SOL    HW214670   2.275   3.760  17.437  0.5874 -0.9668 -0.8158
 1071SOL     OW14671   0.747   3.075   2.966  0.4114  0.0638 -0.5372
 1071SOL    HW114672   0.781   3.075   3.056 -1.6489 -1.2083  0.2421
 1071SOL    HW214673   0.758   2.985   2.935 -1.8574 -0.7613  1.0369
 1072SOL     OW14674   0.962   3.522   4.921 -0.1311 -0.1161  0.2101
 1072SOL    HW114675   0.945   3.615   4.935 -0.8948  0.0094 -1.6322
 1072SOL    HW214676   0.887   3.505   4.865 -2.0285  1.6160  2.2251
 1073SOL     OW14677   3.733   1.757   1.438  0.4812 -0.0362 -0.5941
 1073SOL    HW114678   3.739   1.852   1.437 -0.5582  0.0355 -0.4010
 1073SOL    HW214679   3.692   1.731   1.356 -4.2330 -1.9850  2.3491
 1074SOL     OW14680   3.253   1.187   3.489 -0.0367  0.0100  0.2427
 1074SOL    HW114681   3.225   1.231   3.409  0.7078  1.2871  0.6909
 1074SOL    HW214682   3.181   1.207   3.548 -0.1791 -1.5345  0.6040
 1075SOL     OW14683   3.876   3.210  16.892  0.0007 -0.1519  0.1277
 1075SOL    HW114684   3.896   3.117  16.895 -0.1976 -0.1392  1.5601
 1075SOL    HW214685   3.831   3.211  16.976 -1.9379 -1.2102 -0.9195
 1076SOL     OW14686   3.441   3.653   8.694  0.0418 -0.0023 -0.3056
 1076SOL    HW114687   3.464   3.573   8.740 -0.1346  0.8928  1.3473
 1076SOL    HW214688   3.383   3.698   8.755  0.6976  1.2652 -0.6150
 1077SOL     OW14689   1.831   1.577   4.128 -0.0203 -0.3378  0.1687
 1077SOL    HW114690   1.805   1.632   4.201  0.8995  0.2294  0.0800
 1077SOL    HW214691   1.920   1.553   4.156  0.5259  0.7963 -0.5785
 1078SOL     OW14692   0.880   0.137   2.906 -0.4914  0.3181 -0.5993
 1078SOL    HW114693   0.874   0.044   2.885 -1.8963  0.1714  0.4745
 1078SOL    HW214694   0.956   0.165   2.854  1.0605  0.2894  1.6511
 1079SOL     OW14695   0.343   4.087   7.589 -0.6513 -0.6162 -0.0075
 1079SOL    HW114696   0.283   4.160   7.601  1.9154  1.1975  1.6701
 1079SOL    HW214697   0.337   4.046   7.675 -1.3144  0.6566  0.5521
 1080SOL     OW14698   1.101   4.202   0.349  0.7734 -0.2437  0.1986
 1080SOL    HW114699   1.118   4.251   0.268 -0.7457 -0.3730 -0.2012
 1080SOL    HW214700   1.161   4.235   0.416  1.3492 -0.3734 -0.2610
 1081SOL     OW14701   1.327   2.598   4.432  0.3489  0.0917  0.5727
 1081SOL    HW114702   1.236   2.600   4.402  0.7616  0.1348 -0.6711
 1081SOL    HW214703   1.316   2.542   4.510  0.0293 -0.9027 -0.1795
 1082SOL     OW14704   0.446   0.057   2.522  0.0199 -0.1860 -0.5507
 1082SOL    HW114705   0.499   0.136   2.536  0.3860 -0.6020  0.4026
 1082SOL    HW214706   0.361   0.101   2.513 -0.0779 -0.3952 -0.6648
 1083SOL     OW14707   3.693   0.949   5.787  0.2990 -0.1997 -0.3216
 1083SOL    HW114708   3.658   1.038   5.789 -0.9475 -0.6365 -2.4749
 1083SOL    HW214709   3.735   0.954   5.872 -0.9825 -1.5889  0.3994
 1084SOL     OW14710   2.732   4.201  14.568 -0.1636  0.0190  0.0961
 1084SOL    HW114711   2.729   4.184  14.662 -0.9030 -0.8003 -0.0756
 1084SOL    HW214712   2.637   4.198  14.555 -0.3042 -0.9963  1.3887
 1085SOL     OW14713   0.638   2.772   2.553  0.0516 -0.0256  0.2636
 1085SOL    HW114714   0.660   2.694   2.604  2.1505  0.1388 -0.3663
 1085SOL    HW214715   0.708   2.831   2.580  1.5855 -1.1316 -1.2779
 1086SOL     OW14716   2.648   4.348   3.098 -0.2815  0.0128  0.1382
 1086SOL    HW114717   2.683   4.429   3.135 -0.2392  0.6364 -1.2772
 1086SOL    HW214718   2.572   4.387   3.055  1.2623  1.4267 -1.3074
 1087SOL     OW14719   1.668   3.032   7.429  0.0332 -0.7983  0.1589
 1087SOL    HW114720   1.685   3.100   7.495  0.2851 -0.1682 -0.5562
 1087SOL    HW214721   1.577   3.016   7.455  0.4710  0.6044  2.5973
 1088SOL     OW14722   2.875   3.864   7.584 -0.0781  0.5003 -0.2479
 1088SOL    HW114723   2.937   3.898   7.649 -0.8226 -0.2451  0.8465
 1088SOL    HW214724   2.854   3.951   7.548  0.6061  0.4258 -0.8221
 1089SOL     OW14725   2.945   3.487   8.953 -0.4138 -0.1234 -0.6608
 1089SOL    HW114726   3.034   3.494   8.986 -0.2314  0.5280 -1.2856
 1089SOL    HW214727   2.918   3.403   8.990  1.0903  0.2614  1.2711
 1090SOL     OW14728   4.471   4.610   5.283 -0.2332  0.0041 -0.2724
 1090SOL    HW114729   4.418   4.531   5.288 -0.0675 -0.1536 -0.8769
 1090SOL    HW214730   4.556   4.582   5.318 -0.4748  2.9430  2.6730
 1091SOL     OW14731   0.039   0.654   5.436  0.3292  0.3722 -0.0930
 1091SOL    HW114732   4.694   0.619   5.377  1.2591  1.2968 -1.7117
 1091SOL    HW214733   0.013   0.611   5.517  0.9980 -0.9134 -0.5488
 1092SOL     OW14734   3.812   1.175   0.496  0.4678 -0.1034 -0.8320
 1092SOL    HW114735   3.878   1.180   0.428 -0.4247 -0.9541 -1.7619
 1092SOL    HW214736   3.737   1.144   0.445 -1.2915  0.1260  1.5612
 1093SOL     OW14737   1.472   3.163  13.474 -0.1339  0.2952 -0.2613
 1093SOL    HW114738   1.473   3.240  13.416  0.6174  0.0096 -0.6171
 1093SOL    HW214739   1.563   3.164  13.501  0.0928 -0.8170 -1.0093
 1094SOL     OW14740   0.358   3.227   5.267 -0.0027  0.3852 -0.3981
 1094SOL    HW114741   0.401   3.267   5.191  0.2173 -3.9470 -2.5677
 1094SOL    HW214742   0.386   3.279   5.342 -0.1572 -0.5176  0.2824
 1095SOL     OW14743   0.040   1.607   0.060 -0.3698 -0.1731  0.1401
 1095SOL    HW114744   0.074   1.560  17.675 -0.8798 -0.7300  0.2561
 1095SOL    HW214745   4.697   1.548   0.097 -0.1112  0.9368  2.3433
 1096SOL     OW14746   0.459   3.801   3.567 -0.1340  0.1769  0.5651
 1096SOL    HW114747   0.413   3.813   3.650  0.6306  0.0158  1.0195
 1096SOL    HW214748   0.453   3.882   3.517 -0.1396  0.2041  0.6095
 1097SOL     OW14749   0.799   1.270  12.525  0.5925 -0.1808 -0.4861
 1097SOL    HW114750   0.886   1.303  12.501  1.1182 -1.1082  0.1846
 1097SOL    HW214751   0.750   1.352  12.514 -1.6278 -1.1791  2.0675
 1098SOL     OW14752   0.248   1.113   1.082 -0.8639  0.8072  0.0212
 1098SOL    HW114753   0.169   1.089   1.129 -0.1468  1.1128  1.3678
 1098SOL    HW214754   0.309   1.066   1.139 -2.3727 -3.1859 -1.7083
 1099SOL     OW14755   3.524   1.929  10.523 -0.0861  0.4305  0.4220
 1099SOL    HW114756   3.441   1.977  10.523 -1.9814 -2.8686 -1.8760
 1099SOL    HW214757   3.569   1.973  10.452 -1.2597 -0.5127 -0.9069
 1100SOL     OW14758   0.075   2.136   6.248 -0.5043  0.3663 -0.3553
 1100SOL    HW114759   0.039   2.053   6.218 -0.9154 -0.1266  1.4763
 1100SOL    HW214760   0.085   2.190   6.170 -1.8952 -0.3232 -1.0196
 1101SOL     OW14761   3.063   0.360   5.921 -0.0998 -0.2084 -0.2838
 1101SOL    HW114762   3.009   0.408   5.858  1.0131  0.7481 -0.5287
 1101SOL    HW214763   3.006   0.289   5.950  1.1579 -0.5791  1.2682
 1102SOL     OW14764   3.611   3.348  16.602  0.2275  0.2396 -0.2561
 1102SOL    HW114765   3.647   3.402  16.672  0.6664 -0.1119 -0.2078
 1102SOL    HW214766   3.689   3.336  16.548  1.2050  0.4702  1.0953
 1103SOL     OW14767   1.860   2.109   1.890 -0.0321  0.1450 -0.1553
 1103SOL    HW114768   1.887   2.132   1.801  1.0685 -1.3659 -0.2105
 1103SOL    HW214769   1.817   2.188   1.923 -1.7110 -0.4833 -0.8406
 1104SOL     OW14770   0.108   3.323   9.720  0.5133 -0.2264 -0.2287
 1104SOL    HW114771   0.126   3.314   9.813 -0.4987 -0.5795 -0.0731
 1104SOL    HW214772   0.192   3.362   9.697  0.3823  0.0324 -0.2726
 1105SOL     OW14773   0.924   0.752  14.536 -0.2028  0.1061  0.7811
 1105SOL    HW114774   0.874   0.765  14.456 -1.5600 -1.0146  1.4679
 1105SOL    HW214775   0.861   0.753  14.608 -0.9155 -0.7277  0.1584
 1106SOL     OW14776   1.620   0.737   5.886 -0.4547 -0.5915  0.3675
 1106SOL    HW114777   1.694   0.677   5.897  1.4909  1.6468 -0.5010
 1106SOL    HW214778   1.585   0.717   5.799  3.4356 -0.5896 -1.2217
 1107SOL     OW14779   3.346   0.856   9.855  0.2841 -0.9673 -0.1066
 1107SOL    HW114780   3.410   0.806   9.804  2.2194  0.6698  0.7126
 1107SOL    HW214781   3.352   0.943   9.815 -1.3437 -0.9805 -0.4186
 1108SOL     OW14782   1.325   0.091  11.672  0.0602  0.3455 -0.6090
 1108SOL    HW114783   1.339   4.719  11.658 -2.6577  0.2179 -2.5389
 1108SOL    HW214784   1.243   0.111  11.716  2.0632  0.1663  3.2161
 1109SOL     OW14785   1.771   2.714   8.048 -0.4339  0.3358 -0.3464
 1109SOL    HW114786   1.677   2.711   8.030 -0.3770  0.3281 -0.6411
 1109SOL    HW214787   1.801   2.757   7.968  0.4943 -1.5774 -1.0344
 1110SOL     OW14788   3.454   3.767   9.212  0.3192 -0.3053 -0.7142
 1110SOL    HW114789   3.386   3.820   9.254 -0.4621 -1.6842 -0.2747
 1110SOL    HW214790   3.419   3.767   9.123  0.7215 -1.5750 -0.8658
 1111SOL     OW14791   2.811   1.582   5.821  0.6324  0.5889  0.2619
 1111SOL    HW114792   2.862   1.505   5.796 -1.9694 -1.7595  2.1352
 1111SOL    HW214793   2.733   1.566   5.768  1.9683 -1.0416 -1.2189
 1112SOL     OW14794   0.715   0.239   0.738  0.6135 -0.0458 -0.0169
 1112SOL    HW114795   0.789   0.299   0.725  0.5420  0.3733  1.5000
 1112SOL    HW214796   0.734   0.184   0.814 -0.2204  0.1086  0.3056
 1113SOL     OW14797   2.152   0.707   8.961  0.1197  0.3375 -0.4201
 1113SOL    HW114798   2.137   0.712   8.867  0.2601  0.7582 -0.4190
 1113SOL    HW214799   2.064   0.736   8.987 -1.2526 -2.7773 -1.5695
 1114SOL     OW14800   1.460   1.579   8.488 -0.8801 -0.0713  0.0536
 1114SOL    HW114801   1.511   1.591   8.408 -0.9143 -0.9748 -0.1049
 1114SOL    HW214802   1.388   1.641   8.471  1.3862  2.2433 -1.1034
 1115SOL     OW14803   4.196   1.611   9.077 -0.1652 -0.2834  0.1498
 1115SOL    HW114804   4.123   1.670   9.095 -2.0121 -3.0149  1.7442
 1115SOL    HW214805   4.147   1.547   9.025  1.1113 -0.5106 -0.7646
 1116SOL     OW14806   2.776   2.571   9.194  0.4234 -0.1228 -0.0266
 1116SOL    HW114807   2.741   2.634   9.131  2.3101  1.0601  0.1094
 1116SOL    HW214808   2.701   2.512   9.203  0.3879 -0.5661 -3.2970
 1117SOL     OW14809   3.721   2.652   4.184  0.2249 -0.3202 -0.1883
 1117SOL    HW114810   3.759   2.574   4.144 -1.5773 -1.0663 -0.4144
 1117SOL    HW214811   3.740   2.727   4.126 -0.1808  2.9649  3.9183
 1118SOL     OW14812   0.895   3.996   0.015  0.0693  0.1430  0.2651
 1118SOL    HW114813   0.866   4.057   0.084  0.4494 -0.2220  0.7494
 1118SOL    HW214814   0.934   4.060  17.648  1.0107 -2.2713 -1.7710
 1119SOL     OW14815   0.312   1.334   5.315 -0.1717 -0.0868  0.7880
 1119SOL    HW114816   0.246   1.392   5.353 -0.4012 -0.0787  0.3830
 1119SOL    HW214817   0.341   1.291   5.395  0.0757  0.0457  0.7695
 1120SOL     OW14818   0.005   0.648   6.574 -0.1735 -0.4336  0.2391
 1120SOL    HW114819   0.055   0.639   6.655  1.5235  0.3067 -0.7268
 1120SOL    HW214820   4.712   0.741   6.588  0.8796 -0.7050  3.1914
 1121SOL     OW14821   2.912   0.729   3.578  0.5737 -0.2201 -0.3097
 1121SOL    HW114822   2.954   0.759   3.497  1.1202  0.9819  0.4167
 1121SOL    HW214823   2.837   0.788   3.571  0.3149 -0.4394  0.6480
 1122SOL     OW14824   3.060   1.787   3.110 -0.4662  0.3168 -0.2032
 1122SOL    HW114825   3.146   1.778   3.069 -0.7458 -1.2518 -0.4594
 1122SOL    HW214826   3.057   1.710   3.166 -1.5493  0.3809 -0.1782
 1123SOL     OW14827   0.804   4.398   2.923 -0.5457 -0.1121  0.1320
 1123SOL    HW114828   0.710   4.403   2.904 -1.1386 -1.2822  2.7071
 1123SOL    HW214829   0.805   4.306   2.949 -1.0687 -0.2637 -0.3671
 1124SOL     OW14830   4.450   3.236   6.133 -0.8714 -0.0219  0.1603
 1124SOL    HW114831   4.358   3.211   6.140 -1.2641  1.4066  0.1281
 1124SOL    HW214832   4.432   3.320   6.089  1.1046  1.6278  2.4959
 1125SOL     OW14833   4.417   1.651   8.948  0.0424  0.2404 -0.2923
 1125SOL    HW114834   4.344   1.636   9.008 -0.6977 -1.2224 -1.5541
 1125SOL    HW214835   4.460   1.566   8.955  1.1345  0.9241  1.1348
 1126SOL     OW14836   2.338   2.665  14.662 -0.6338 -0.6345 -1.1590
 1126SOL    HW114837   2.265   2.627  14.614 -3.8242  1.5142  2.0500
 1126SOL    HW214838   2.332   2.755  14.631 -0.3881 -0.5188 -0.8701
 1127SOL     OW14839   1.703   3.009   4.074  0.5970  0.0685  0.3047
 1127SOL    HW114840   1.708   3.103   4.059 -1.0367  0.1924  0.6051
 1127SOL    HW214841   1.614   2.992   4.043  1.6233 -1.3217 -1.8955
 1128SOL     OW14842   0.044   2.101   3.787 -0.1754 -0.1395 -0.3473
 1128SOL    HW114843   4.708   2.047   3.841  1.9244 -0.8831  1.1924
 1128SOL    HW214844   0.094   2.029   3.749 -0.7636 -1.8340  2.0222
 1129SOL     OW14845   2.216   4.613   9.506  0.3282  0.6640  0.1836
 1129SOL    HW114846   2.286   4.604   9.441  0.8576  0.1049  0.8414
 1129SOL    HW214847   2.270   4.592   9.582 -1.3931  1.7041  1.6842
 1130SOL     OW14848   1.162   1.922   3.114  0.3666  0.0905 -0.2729
 1130SOL    HW114849   1.195   2.010   3.093  0.0636  0.0052 -1.1076
 1130SOL    HW214850   1.128   1.893   3.029  1.2713 -0.3365 -0.4782
 1131SOL     OW14851   1.421   1.247   8.899 -0.0218  0.1847  0.1077
 1131SOL    HW114852   1.421   1.258   8.804  1.4784 -0.6564  0.0142
 1131SOL    HW214853   1.457   1.332   8.924  0.0499  0.1400  0.1566
 1132SOL     OW14854   3.476   1.518   8.216 -0.4749  0.1092 -0.3025
 1132SOL    HW114855   3.510   1.447   8.270 -3.5589 -0.0990  1.3920
 1132SOL    HW214856   3.530   1.586   8.256 -2.4741  1.1675  0.5883
 1133SOL     OW14857   0.468   1.822   8.174  0.0718 -0.4812 -0.4897
 1133SOL    HW114858   0.478   1.734   8.139 -0.3970 -0.2303 -1.2476
 1133SOL    HW214859   0.395   1.859   8.123 -0.0859  1.2159  0.9589
 1134SOL     OW14860   2.015   3.380  12.974 -0.2194 -0.3068  0.4020
 1134SOL    HW114861   2.094   3.427  12.950 -0.3439  0.3987  1.3742
 1134SOL    HW214862   1.961   3.455  13.001 -1.6338 -1.6896  1.3928
 1135SOL     OW14863   1.859   0.659   2.068 -0.2990 -0.7500  0.2795
 1135SOL    HW114864   1.920   0.610   2.014  0.9501  0.2116  0.8258
 1135SOL    HW214865   1.915   0.690   2.139 -3.1512  1.8887  1.4169
 1136SOL     OW14866   2.965   3.961   7.064 -0.2108  0.2785 -0.1872
 1136SOL    HW114867   3.055   3.979   7.087 -0.9322  1.1552  1.9330
 1136SOL    HW214868   2.947   4.054   7.051 -0.3918  0.1928 -0.5610
 1137SOL     OW14869   1.081   1.663   0.779 -0.3858  0.7189 -0.2223
 1137SOL    HW114870   1.094   1.701   0.866 -0.5546 -0.1167  0.1661
 1137SOL    HW214871   1.129   1.581   0.789 -1.4124  0.1845  0.3603
 1138SOL     OW14872   2.534   3.994  13.791  0.2737  0.2339 -0.2081
 1138SOL    HW114873   2.529   3.973  13.884  2.0935 -0.6514 -0.3010
 1138SOL    HW214874   2.578   4.079  13.785  0.8222 -0.0159  0.2216
 1139SOL     OW14875   3.652   3.568   7.842  0.0531  0.2740  0.2108
 1139SOL    HW114876   3.633   3.475   7.834 -1.3549  0.6769 -1.2475
 1139SOL    HW214877   3.718   3.568   7.911 -0.2532  2.0625  0.5003
 1140SOL     OW14878   1.662   1.883   9.471 -0.2030  0.9265 -0.2667
 1140SOL    HW114879   1.582   1.852   9.514 -0.2166  0.1022 -0.8880
 1140SOL    HW214880   1.709   1.909   9.550 -1.2512 -0.8779  0.9559
 1141SOL     OW14881   1.419   3.105  11.508  0.1509  0.0898 -0.3427
 1141SOL    HW114882   1.499   3.086  11.458  0.4502  1.8108 -0.5114
 1141SOL    HW214883   1.451   3.176  11.564 -2.2418 -1.1474  2.5689
 1142SOL     OW14884   2.629   2.080   4.859 -0.2598  0.0788  0.1828
 1142SOL    HW114885   2.537   2.090   4.836 -0.4662  0.7824  1.3161
 1142SOL    HW214886   2.679   2.118   4.786  0.1737  1.2249  1.0686
 1143SOL     OW14887   0.257   1.846   4.427 -0.6022  0.3195  0.3762
 1143SOL    HW114888   0.276   1.843   4.520  1.9846 -2.6613 -0.2508
 1143SOL    HW214889   0.341   1.813   4.395  0.4441  1.8565  1.5601
 1144SOL     OW14890   0.818   1.148   8.328 -0.5350 -0.1208  0.2877
 1144SOL    HW114891   0.882   1.210   8.293  0.6024 -0.5633  1.5256
 1144SOL    HW214892   0.789   1.194   8.407 -1.0156  1.0651 -0.6027
 1145SOL     OW14893   2.619   3.844   3.568 -0.2089 -0.3343  0.6584
 1145SOL    HW114894   2.558   3.775   3.542 -0.1575  0.1527 -0.7553
 1145SOL    HW214895   2.685   3.830   3.501 -0.1327  3.7060 -0.1224
 1146SOL     OW14896   1.900   3.295   4.002 -0.1240 -0.3347  0.0336
 1146SOL    HW114897   1.851   3.359   3.950 -0.1972  1.0043  1.7433
 1146SOL    HW214898   1.937   3.353   4.068  1.3686 -0.5264 -0.6266
 1147SOL     OW14899   0.172   0.706  12.790 -0.2998 -0.4665 -0.7373
 1147SOL    HW114900   0.237   0.696  12.720  0.5199 -1.6149  0.2037
 1147SOL    HW214901   0.089   0.677  12.750 -1.4878  0.1172  1.3391
 1148SOL     OW14902   3.802   3.715  12.756  0.2842  0.3034 -0.0981
 1148SOL    HW114903   3.851   3.690  12.835 -2.6291 -1.1334  1.2131
 1148SOL    HW214904   3.786   3.808  12.772  0.4053  0.4464 -0.7974
 1149SOL     OW14905   2.556   1.366   2.994 -0.2053 -0.4470  0.3336
 1149SOL    HW114906   2.569   1.390   2.902  1.0397 -0.8370  0.3990
 1149SOL    HW214907   2.487   1.301   3.007 -2.0952  1.3290 -0.8321
 1150SOL     OW14908   0.239   4.489   4.372  0.1918 -0.6047  0.1417
 1150SOL    HW114909   0.195   4.557   4.321  0.2909 -0.2877  0.4779
 1150SOL    HW214910   0.234   4.518   4.463  3.2634 -1.2425  0.5085
 1151SOL     OW14911   1.785   2.572   5.516  0.1755 -0.4503  0.0186
 1151SOL    HW114912   1.746   2.486   5.503 -0.9504  0.3244 -1.8264
 1151SOL    HW214913   1.724   2.634   5.476  2.3258  0.4897 -1.8565
 1152SOL     OW14914   2.729   2.054   8.110 -0.2392 -0.2374  0.7450
 1152SOL    HW114915   2.747   2.144   8.139 -0.4911  0.7498 -2.2067
 1152SOL    HW214916   2.706   2.014   8.193  4.0186 -1.7406  1.2156
 1153SOL     OW14917   1.866   2.359   2.954  0.3207  0.3558 -0.2688
 1153SOL    HW114918   1.930   2.380   3.022 -0.1663  2.0091 -0.3116
 1153SOL    HW214919   1.843   2.271   2.986  1.7747  0.7493  1.8605
 1154SOL     OW14920   4.467   1.981   7.608 -0.6623 -0.1997 -0.2475
 1154SOL    HW114921   4.374   1.961   7.597 -0.9042 -0.5239  2.4502
 1154SOL    HW214922   4.475   2.075   7.623  0.1334 -0.4661  1.0308
 1155SOL     OW14923   4.424   0.813   4.648 -0.5420 -0.4402 -0.0240
 1155SOL    HW114924   4.396   0.729   4.611 -0.9740  0.1094 -0.9323
 1155SOL    HW214925   4.509   0.787   4.683 -0.5942 -0.3503  0.1741
 1156SOL     OW14926   4.403   0.448  11.952 -0.3627  0.5565 -0.7141
 1156SOL    HW114927   4.382   0.416  12.039 -1.8491  1.0535 -0.8989
 1156SOL    HW214928   4.350   0.399  11.889  2.7265 -3.0285 -0.5849
 1157SOL     OW14929   2.975   0.813   2.468  0.0619 -0.0934 -0.3109
 1157SOL    HW114930   2.962   0.891   2.414  0.3196  0.9840  1.1714
 1157SOL    HW214931   3.063   0.835   2.499  0.9090 -2.0498 -1.3142
 1158SOL     OW14932   1.798   4.051   9.579  0.2543  0.6302  0.2538
 1158SOL    HW114933   1.750   3.968   9.588  0.4860  0.4750  0.0634
 1158SOL    HW214934   1.792   4.086   9.668 -3.7547 -0.8149  0.5569
 1159SOL     OW14935   0.901   4.122   0.521  0.7675  0.1656 -0.3371
 1159SOL    HW114936   0.864   4.202   0.559 -1.4600 -0.8474 -0.3871
 1159SOL    HW214937   0.965   4.163   0.462 -1.0907  1.1099 -1.7221
 1160SOL     OW14938   2.167   1.577   3.787 -0.1296  0.2036 -0.1811
 1160SOL    HW114939   2.086   1.549   3.829  0.4850 -1.5334 -0.1797
 1160SOL    HW214940   2.194   1.496   3.745  0.5765  1.7574 -2.7280
 1161SOL     OW14941   2.228   2.065   6.229  0.3945 -0.7006 -0.2824
 1161SOL    HW114942   2.140   2.078   6.194  0.2511 -2.8529 -0.7434
 1161SOL    HW214943   2.219   2.125   6.302 -1.8546  2.4994 -3.1635
 1162SOL     OW14944   1.232   2.034   4.473  0.4377 -0.2296 -0.1138
 1162SOL    HW114945   1.237   2.119   4.429 -2.2462 -1.2534 -2.4223
 1162SOL    HW214946   1.272   1.972   4.412 -1.5941 -1.9044  0.2874
 1163SOL     OW14947   4.610   0.039   1.867 -0.3621  0.0366  0.4378
 1163SOL    HW114948   4.588   0.111   1.927  1.0200  1.7308 -1.0761
 1163SOL    HW214949   4.578   0.075   1.785 -1.8750  2.0899  1.9070
 1164SOL     OW14950   3.425   0.306  16.697  0.0720  0.0438 -0.1084
 1164SOL    HW114951   3.498   0.344  16.746  0.5791 -2.0430  0.7635
 1164SOL    HW214952   3.414   0.228  16.751 -1.2149  0.5830  0.3867
 1165SOL     OW14953   1.322   2.679   7.591  0.6806 -0.3971  0.5009
 1165SOL    HW114954   1.370   2.744   7.539  3.2580 -0.9679  2.1307
 1165SOL    HW214955   1.271   2.632   7.526 -0.4362 -1.0718  1.8755
 1166SOL     OW14956   4.025   1.520   8.813  0.1659 -0.3888  0.0646
 1166SOL    HW114957   3.940   1.500   8.772 -0.0341  0.4518  0.0819
 1166SOL    HW214958   4.004   1.605   8.850  3.1821 -0.1668  1.1974
 1167SOL     OW14959   0.323   0.105   7.729 -0.2774 -0.5052  0.4947
 1167SOL    HW114960   0.228   0.109   7.728 -0.2708 -0.2988  1.0435
 1167SOL    HW214961   0.342   0.143   7.815  1.1764  3.1580 -1.4380
 1168SOL     OW14962   0.788   1.732   9.958  0.3310  0.2485  0.4493
 1168SOL    HW114963   0.716   1.717  10.019 -0.8467  0.3470 -0.9272
 1168SOL    HW214964   0.855   1.727  10.027 -0.2785 -1.2405  0.9302
 1169SOL     OW14965   2.663   1.013   8.755  0.0261  0.3723  0.1332
 1169SOL    HW114966   2.647   1.014   8.849 -2.8175 -2.2705 -0.3442
 1169SOL    HW214967   2.749   0.971   8.748  0.2854  0.7494  1.0506
 1170SOL     OW14968   3.305   1.337   9.237 -0.1647 -0.0766 -0.1066
 1170SOL    HW114969   3.293   1.361   9.328  0.0759 -1.1994  0.2242
 1170SOL    HW214970   3.387   1.379   9.212 -0.4005  0.1505 -0.5022
 1171SOL     OW14971   4.071   0.292   3.398 -0.8123 -0.0121 -0.2220
 1171SOL    HW114972   4.034   0.227   3.457 -2.0291 -1.1814 -2.2633
 1171SOL    HW214973   4.149   0.243   3.374 -1.2023 -1.4407  1.4917
 1172SOL     OW14974   3.549   4.303   2.719  0.6034  0.2414 -0.1421
 1172SOL    HW114975   3.454   4.310   2.714  0.6224  0.0155 -0.9192
 1172SOL    HW214976   3.577   4.390   2.746  1.6981  0.3632 -1.6389
 1173SOL     OW14977   1.414   1.231   1.545  0.7278 -0.3178  0.3609
 1173SOL    HW114978   1.403   1.322   1.572  1.3103  0.1997 -1.1301
 1173SOL    HW214979   1.335   1.216   1.493  0.4689  0.3653  0.5606
 1174SOL     OW14980   1.321   2.167  11.176  0.4789  0.1121  0.3812
 1174SOL    HW114981   1.227   2.176  11.162  0.3963 -0.1719  0.7793
 1174SOL    HW214982   1.360   2.253  11.160 -2.3696  1.3022 -0.2038
 1175SOL     OW14983   3.850   0.618   0.403  0.7317  0.4200 -0.0459
 1175SOL    HW114984   3.806   0.694   0.441 -0.2612 -0.1064 -0.1306
 1175SOL    HW214985   3.891   0.580   0.481  2.2466  0.2560 -0.9276
 1176SOL     OW14986   3.927   0.543   6.885 -0.5702 -0.0638 -0.0438
 1176SOL    HW114987   3.850   0.496   6.917  1.0637 -2.1071  0.9442
 1176SOL    HW214988   3.960   0.584   6.965 -0.0404  1.5589 -1.0935
 1177SOL     OW14989   1.495   4.400   2.785 -0.1252 -0.2098 -0.2631
 1177SOL    HW114990   1.467   4.334   2.722  0.1303 -1.8573  1.3145
 1177SOL    HW214991   1.482   4.344   2.862  1.1241 -0.4468 -0.2212
 1178SOL     OW14992   3.569   2.456   7.557 -0.3715  0.7031  0.5202
 1178SOL    HW114993   3.640   2.468   7.494  1.4598  0.8936  2.5870
 1178SOL    HW214994   3.601   2.377   7.603 -0.7560 -0.7171 -1.6565
 1179SOL     OW14995   3.870   2.305   2.839  0.3964  0.2421 -0.1207
 1179SOL    HW114996   3.863   2.285   2.933  1.8884  0.5360  0.0484
 1179SOL    HW214997   3.955   2.348   2.840 -0.4322  1.8845 -1.7300
 1180SOL     OW14998   4.459   3.035   1.374 -0.3465 -0.1772 -0.0645
 1180SOL    HW114999   4.491   3.081   1.452 -1.4208  2.5991 -1.2351
 1180SOL    HW215000   4.505   2.952   1.373 -0.1100 -0.0393 -0.4035
 1181SOL     OW15001   3.749   2.919   8.094  0.3028 -0.7909  0.0030
 1181SOL    HW115002   3.781   2.998   8.137 -1.7472  0.8050 -1.4181
 1181SOL    HW215003   3.654   2.931   8.103  0.2425 -2.3916  1.4870
 1182SOL     OW15004   0.093   1.846   2.704  0.1691 -0.0760 -0.4272
 1182SOL    HW115005   0.091   1.850   2.608 -0.0614  0.3695 -0.4065
 1182SOL    HW215006   0.079   1.937   2.729  1.6907  1.2619 -4.3937
 1183SOL     OW15007   1.838   2.913   6.676  0.5082  0.3028  0.1348
 1183SOL    HW115008   1.812   2.824   6.698  1.3181  0.1722  0.5334
 1183SOL    HW215009   1.928   2.904   6.706  0.5389 -0.6593 -0.2740
 1184SOL     OW15010   0.966   2.576   2.406  0.0225  0.1954 -0.3219
 1184SOL    HW115011   0.898   2.528   2.358 -2.4587  1.8991  1.5042
 1184SOL    HW215012   0.915   2.655   2.423 -0.1917  0.2292 -1.1089
 1185SOL     OW15013   3.223   3.406   2.453  0.5397  0.5396  0.5263
 1185SOL    HW115014   3.266   3.354   2.521  1.7086  0.9703  0.1165
 1185SOL    HW215015   3.263   3.382   2.369  2.3612  0.5346  1.4058
 1186SOL     OW15016   3.045   4.544   3.309  0.0703  0.4738  0.1295
 1186SOL    HW115017   2.967   4.511   3.354 -0.3417  2.2729  0.7197
 1186SOL    HW215018   2.997   4.579   3.233 -2.2717 -0.1331  1.3175
 1187SOL     OW15019   2.768   1.192   2.814  1.0669  0.0001  0.2171
 1187SOL    HW115020   2.768   1.288   2.822 -1.5475 -0.0821  0.9855
 1187SOL    HW215021   2.863   1.177   2.807  0.9955 -0.2207 -0.2646
 1188SOL     OW15022   1.140   1.489  12.433  0.1054  0.2408 -0.1112
 1188SOL    HW115023   1.218   1.463  12.384  0.6520 -0.8576  1.3540
 1188SOL    HW215024   1.088   1.410  12.439  0.7006 -0.1582 -0.1700
 1189SOL     OW15025   0.207   1.930  10.167  0.5326  0.0392  0.1579
 1189SOL    HW115026   0.221   2.025  10.165  0.5319  0.0512  0.8709
 1189SOL    HW215027   0.139   1.922  10.100  1.8064  1.1135 -1.2628
 1190SOL     OW15028   3.856   2.974  16.323 -0.3938 -0.9591 -0.7198
 1190SOL    HW115029   3.921   3.013  16.381 -0.0503 -2.6976  0.0396
 1190SOL    HW215030   3.805   3.054  16.308  1.6291  0.4490 -0.0898
 1191SOL     OW15031   1.891   4.146   5.108 -0.0361 -0.1365  0.3503
 1191SOL    HW115032   1.983   4.134   5.129 -0.3414 -3.5471 -0.3302
 1191SOL    HW215033   1.900   4.235   5.073 -0.0080 -0.5509 -0.6849
 1192SOL     OW15034   3.842   0.302   0.970  0.3759  0.1104 -0.5006
 1192SOL    HW115035   3.788   0.373   0.936  2.4621  1.0006 -1.9568
 1192SOL    HW215036   3.773   0.235   0.978  1.3380 -0.9753 -1.2565
 1193SOL     OW15037   2.680   0.790   9.664 -0.5232  0.3899 -0.6291
 1193SOL    HW115038   2.698   0.870   9.614  0.0818  1.0417  0.6433
 1193SOL    HW215039   2.747   0.736   9.621  1.7475  1.1181  1.9648
 1194SOL     OW15040   0.574   1.509   8.921 -0.5172  0.1259 -0.2093
 1194SOL    HW115041   0.576   1.416   8.942  1.9604  0.6107  1.7554
 1194SOL    HW215042   0.620   1.559   8.989 -1.9659  1.2398 -0.0443
 1195SOL     OW15043   0.176   0.375   4.604 -0.2788 -0.3617 -0.2054
 1195SOL    HW115044   0.219   0.291   4.591  0.5154 -0.4750  3.1685
 1195SOL    HW215045   0.221   0.401   4.685  1.0824 -1.4741 -0.6072
 1196SOL     OW15046   2.185   4.479   5.242  0.2483 -0.0069 -0.4940
 1196SOL    HW115047   2.098   4.484   5.282  0.1146  0.0449 -0.7954
 1196SOL    HW215048   2.231   4.513   5.319  0.9187  0.4337 -1.0865
 1197SOL     OW15049   0.316   0.474   0.301 -0.2794  0.0064  0.0772
 1197SOL    HW115050   0.382   0.408   0.323 -1.2018 -1.0246 -0.2448
 1197SOL    HW215051   0.305   0.521   0.383 -2.1941 -0.5090  0.1033
 1198SOL     OW15052   3.137   1.191   2.187  0.2125 -0.3793  0.0781
 1198SOL    HW115053   3.101   1.237   2.110  1.5042 -0.1451 -0.3866
 1198SOL    HW215054   3.215   1.241   2.212  0.4014 -0.4927 -0.2902
 1199SOL     OW15055   2.039   0.637   7.680  0.4045  0.3375 -0.6716
 1199SOL    HW115056   1.953   0.601   7.658 -0.3603  0.9099  1.3709
 1199SOL    HW215057   2.095   0.562   7.662  2.2979  1.5065  0.3642
 1200SOL     OW15058   2.371   4.124   7.586  0.2763  0.1017 -0.9047
 1200SOL    HW115059   2.450   4.178   7.576  0.5235 -0.1729 -0.4032
 1200SOL    HW215060   2.366   4.123   7.681  0.5433 -1.0594 -0.8989
 1201SOL     OW15061   3.094   4.265   2.511 -0.1393  1.0892  0.0045
 1201SOL    HW115062   3.108   4.353   2.477  1.1780  1.0577  0.4716
 1201SOL    HW215063   3.009   4.276   2.555  1.1411  1.1464  2.4403
 1202SOL     OW15064   3.059   1.265   8.834 -0.6333 -0.1996 -0.5624
 1202SOL    HW115065   3.066   1.270   8.929 -0.3125  1.2622 -0.6490
 1202SOL    HW215066   2.964   1.280   8.834 -0.3305  1.8396  0.3863
 1203SOL     OW15067   2.328   4.287   2.196  0.6534  0.2830  0.3795
 1203SOL    HW115068   2.268   4.220   2.228 -0.1424  1.4705  1.3615
 1203SOL    HW215069   2.408   4.238   2.214  1.4637  0.8677 -1.6622
 1204SOL     OW15070   1.628   0.878   6.919  0.2211  0.5824  0.1628
 1204SOL    HW115071   1.693   0.864   6.850  1.3956  0.3899  1.2973
 1204SOL    HW215072   1.548   0.903   6.872  0.0310 -0.1156  0.1136
 1205SOL     OW15073   4.546   0.782   9.824 -0.9264  0.1965 -0.0316
 1205SOL    HW115074   4.587   0.709   9.870  0.0347 -0.2031 -1.4874
 1205SOL    HW215075   4.458   0.752   9.804 -1.3506 -0.5876  3.0913
 1206SOL     OW15076   2.814   3.682   2.351 -0.1291  0.1147  0.2792
 1206SOL    HW115077   2.877   3.618   2.383  0.4776  1.0507  0.9696
 1206SOL    HW215078   2.730   3.665   2.394 -0.4676 -0.0799 -0.4581
 1207SOL     OW15079   4.123   2.524   4.990 -0.1867 -0.2202  0.5315
 1207SOL    HW115080   4.087   2.588   4.929  0.0253 -3.1555 -2.6999
 1207SOL    HW215081   4.112   2.578   5.068 -2.2006  2.1026 -1.3729
 1208SOL     OW15082   2.159   3.960  14.358 -0.2355  0.0588 -0.3374
 1208SOL    HW115083   2.171   3.953  14.264  0.9805 -0.3373 -0.1453
 1208SOL    HW215084   2.244   3.928  14.388 -0.3137 -0.5913 -0.8213
 1209SOL     OW15085   1.715   0.774   4.298  0.6108  0.1398  0.0823
 1209SOL    HW115086   1.785   0.838   4.288 -0.5078  1.3780  0.1987
 1209SOL    HW215087   1.665   0.822   4.364  1.6705  2.9798 -1.2206
 1210SOL     OW15088   0.122   1.269  16.641  0.3278  0.1196  0.3511
 1210SOL    HW115089   0.111   1.194  16.700  2.1792 -0.6842 -0.3259
 1210SOL    HW215090   0.041   1.313  16.667  0.8917  0.8132  0.9510
 1211SOL     OW15091   1.798   3.218   8.439 -0.0640  0.1944  0.3691
 1211SOL    HW115092   1.796   3.286   8.507  0.3073 -0.1198  0.6938
 1211SOL    HW215093   1.718   3.174   8.470 -0.2828 -0.2672 -0.8430
 1212SOL     OW15094   2.482   3.597   8.762 -0.3557  0.2734 -0.6612
 1212SOL    HW115095   2.477   3.587   8.667 -1.1808  1.1714 -0.7173
 1212SOL    HW215096   2.577   3.602   8.773 -0.2782  0.1805 -1.2709
 1213SOL     OW15097   2.249   4.102   1.742 -0.3485 -0.4318  0.2470
 1213SOL    HW115098   2.292   4.018   1.758  2.6035  1.1941  0.7465
 1213SOL    HW215099   2.171   4.089   1.796 -0.2836 -2.6889 -0.2245
 1214SOL     OW15100   0.376   1.603   1.588  0.1492  0.4102  0.0401
 1214SOL    HW115101   0.378   1.524   1.642  0.4037 -0.8606 -1.8411
 1214SOL    HW215102   0.429   1.573   1.514 -0.7403  1.8219 -1.1828
 1215SOL     OW15103   0.279   4.537   2.399  0.2763  0.2922  0.3100
 1215SOL    HW115104   0.307   4.626   2.418 -0.3086  0.3069  1.0947
 1215SOL    HW215105   0.279   4.533   2.303 -0.0349  0.1683  0.3139
 1216SOL     OW15106   0.773   0.173   5.373  0.1150 -0.5760 -0.0250
 1216SOL    HW115107   0.709   0.168   5.444  0.3642  0.7430  0.2866
 1216SOL    HW215108   0.849   0.155   5.428  0.6705 -1.6584 -1.1433
 1217SOL     OW15109   4.275   0.760   7.327  0.0946 -0.1702  0.2614
 1217SOL    HW115110   4.215   0.821   7.284  0.8018  0.5235  0.2458
 1217SOL    HW215111   4.350   0.819   7.340  0.7018 -1.0573  0.7973
 1218SOL     OW15112   3.817   2.753   6.098 -0.3704  0.3944  0.0549
 1218SOL    HW115113   3.811   2.825   6.162 -1.7071 -1.6479  2.2270
 1218SOL    HW215114   3.763   2.689   6.144  1.0682  0.8207  2.2965
 1219SOL     OW15115   2.051   1.161   7.932  0.1054  0.3394 -0.0615
 1219SOL    HW115116   2.087   1.079   7.966  1.5395  2.0681  2.6029
 1219SOL    HW215117   2.034   1.214   8.009  0.5305 -0.0300  0.2882
 1220SOL     OW15118   1.974   1.864   2.356 -0.0851 -0.0908 -0.0975
 1220SOL    HW115119   2.017   1.948   2.369  0.3492 -0.4586  0.8080
 1220SOL    HW215120   1.969   1.862   2.260 -1.2965  1.8564 -0.0626
 1221SOL     OW15121   1.642   0.520  17.533  0.4772 -0.3957  0.6224
 1221SOL    HW115122   1.591   0.600  17.543 -2.1006 -1.6253 -2.6011
 1221SOL    HW215123   1.579   0.449  17.545  0.9692 -0.2919  3.8485
 1222SOL     OW15124   4.489   2.303   6.353  0.0322 -0.4708  0.2099
 1222SOL    HW115125   4.465   2.270   6.440  0.3521 -0.9813  0.1083
 1222SOL    HW215126   4.460   2.222   6.309 -1.0738  0.5002 -0.8516
 1223SOL     OW15127   2.067   2.167   8.836  0.2300 -0.0559 -0.1888
 1223SOL    HW115128   1.999   2.103   8.857 -0.6816  0.8922 -0.2801
 1223SOL    HW215129   2.060   2.174   8.740 -2.2588  1.7931  0.1505
 1224SOL     OW15130   1.515   1.928   4.529 -0.4239 -0.0302  0.0150
 1224SOL    HW115131   1.501   1.867   4.602 -1.2186 -0.2008 -0.2747
 1224SOL    HW215132   1.473   1.886   4.454 -0.0255 -1.1084  0.3882
 1225SOL     OW15133   4.230   3.141   8.483  0.4211  0.0479  0.2661
 1225SOL    HW115134   4.289   3.190   8.426  0.0655 -1.9049 -1.7985
 1225SOL    HW215135   4.263   3.169   8.568  1.8278  0.1892 -0.3253
 1226SOL     OW15136   2.806   4.312  10.546 -1.0211  0.0956  0.1263
 1226SOL    HW115137   2.788   4.223  10.573 -1.1135  0.2122  0.4416
 1226SOL    HW215138   2.755   4.335  10.468  1.2390 -1.0580 -1.6732
 1227SOL     OW15139   0.366   1.092   1.884  0.2372  0.0524 -0.0087
 1227SOL    HW115140   0.420   1.015   1.904 -1.3818 -0.9662  0.3748
 1227SOL    HW215141   0.390   1.161   1.946 -1.3242 -1.4644  2.2827
 1228SOL     OW15142   3.359   3.644   2.792 -0.1032  0.1023  0.3457
 1228SOL    HW115143   3.341   3.550   2.797  1.1192 -0.0519  1.6705
 1228SOL    HW215144   3.350   3.659   2.698 -0.6862 -0.6689  0.2732
 1229SOL     OW15145   2.824   2.846   9.293 -0.2150  0.5478  0.3674
 1229SOL    HW115146   2.787   2.765   9.326  1.5894  0.4764  2.2171
 1229SOL    HW215147   2.786   2.918   9.344 -1.3124 -1.0788  1.8289
 1230SOL     OW15148   2.678   3.442   3.631 -0.4107  0.6838  0.6655
 1230SOL    HW115149   2.591   3.410   3.656 -0.3091 -0.8747 -0.9873
 1230SOL    HW215150   2.724   3.465   3.712 -0.7214  1.7186  0.5531
 1231SOL     OW15151   2.735   0.595   9.836  0.5833  0.0472 -0.1248
 1231SOL    HW115152   2.658   0.539   9.847  1.1546 -0.3029  2.2585
 1231SOL    HW215153   2.708   0.645   9.760  1.7441 -0.1153 -0.6316
 1232SOL     OW15154   0.703   0.706  17.429 -0.7940 -0.1723 -0.6553
 1232SOL    HW115155   0.618   0.747  17.411 -0.6265  1.4143  2.1490
 1232SOL    HW215156   0.740   0.772  17.487 -1.6852  1.4907 -2.0091
 1233SOL     OW15157   2.659   3.433   4.237  0.0018 -0.3640 -0.2853
 1233SOL    HW115158   2.628   3.344   4.259  2.7870 -0.8447  1.6594
 1233SOL    HW215159   2.584   3.492   4.241 -0.5976 -1.2074  1.0968
 1234SOL     OW15160   0.314   1.703   3.816 -0.6046 -0.1086  0.5330
 1234SOL    HW115161   0.331   1.637   3.749 -2.7978 -0.1179 -0.0093
 1234SOL    HW215162   0.288   1.780   3.765  0.5219  1.4461  2.2783
 1235SOL     OW15163   4.437   3.975   3.208 -0.2221  0.1903  0.0024
 1235SOL    HW115164   4.419   4.000   3.118 -0.5674 -1.7772 -0.4693
 1235SOL    HW215165   4.352   3.956   3.249  0.3340 -0.5381  0.8218
 1236SOL     OW15166   1.406   0.250  11.449  1.0894  0.1831 -0.1570
 1236SOL    HW115167   1.367   0.221  11.532  2.6391 -0.3721  0.3732
 1236SOL    HW215168   1.379   0.342  11.451  1.0548  0.1651  0.4552
 1237SOL     OW15169   1.246   3.444   0.435 -0.4109  0.1287 -0.0091
 1237SOL    HW115170   1.151   3.443   0.422 -0.6061 -1.7050  1.6576
 1237SOL    HW215171   1.247   3.499   0.513 -1.9352  0.2125 -0.0454
 1238SOL     OW15172   3.104   2.183   5.952 -0.1653 -0.2012 -0.4422
 1238SOL    HW115173   3.110   2.136   6.035 -0.9089  0.3574 -0.0647
 1238SOL    HW215174   3.112   2.103   5.900  0.3099 -0.8645  0.6687
 1239SOL     OW15175   0.826   4.013   8.467  0.2230 -0.5540  0.5719
 1239SOL    HW115176   0.743   3.981   8.501 -0.9640  0.9649 -0.8932
 1239SOL    HW215177   0.846   4.091   8.520 -0.6789  1.3262 -1.8766
 1240SOL     OW15178   0.437   0.483  12.373  0.1932  0.0740  0.2812
 1240SOL    HW115179   0.345   0.498  12.354  0.6273  1.6169 -0.6296
 1240SOL    HW215180   0.441   0.464  12.467  0.8708 -1.5586 -0.0864
 1241SOL     OW15181   2.558   2.397  13.084  0.4822 -0.5139  0.4084
 1241SOL    HW115182   2.637   2.452  13.082  0.6172 -0.6663  1.2556
 1241SOL    HW215183   2.538   2.408  12.991 -0.3601  0.6041  0.7180
 1242SOL     OW15184   4.166   1.960   9.111 -0.3398  0.2290  0.2581
 1242SOL    HW115185   4.079   1.982   9.079  0.7382  2.0928 -1.3457
 1242SOL    HW215186   4.136   1.896   9.176  0.3114  0.7076  1.0364
 1243SOL     OW15187   1.611   0.714   2.926 -0.5760 -0.0345  0.3377
 1243SOL    HW115188   1.676   0.645   2.935  0.7788  1.0118 -1.3019
 1243SOL    HW215189   1.647   0.773   2.859  0.3564 -0.7269  0.2352
 1244SOL     OW15190   3.509   2.159   2.210  0.0215  0.8904 -0.3509
 1244SOL    HW115191   3.527   2.067   2.193  0.2145  1.2637 -2.1563
 1244SOL    HW215192   3.416   2.158   2.232  0.0673  0.6296 -0.1692
 1245SOL     OW15193   3.864   1.921   8.697 -0.0431 -0.2248  0.0782
 1245SOL    HW115194   3.785   1.904   8.645  0.2529 -0.3212 -0.3353
 1245SOL    HW215195   3.876   2.015   8.689 -1.9689 -0.3784 -4.6090
 1246SOL     OW15196   3.061   1.518  13.622 -0.1114  0.4086  0.1660
 1246SOL    HW115197   3.075   1.509  13.716 -1.1950 -2.0695  0.1008
 1246SOL    HW215198   3.120   1.447  13.597  0.9456  2.0300 -1.9379
 1247SOL     OW15199   2.247   1.989   6.953  0.1794 -0.1187 -0.0793
 1247SOL    HW115200   2.291   1.987   7.038  1.3491  1.5575 -0.6274
 1247SOL    HW215201   2.187   1.914   6.952 -1.8562  1.4609  1.8137
 1248SOL     OW15202   0.482   1.103   6.558 -0.3875  0.0069 -0.1096
 1248SOL    HW115203   0.521   1.072   6.639 -0.0334 -2.6846 -1.3135
 1248SOL    HW215204   0.390   1.080   6.569 -0.1790 -0.5438  0.4697
 1249SOL     OW15205   0.717   1.137  17.458 -0.5680 -0.2404  0.4098
 1249SOL    HW115206   0.719   1.105  17.548  0.8645  1.0403  0.8447
 1249SOL    HW215207   0.705   1.231  17.475 -0.9823  0.0749 -1.6213
 1250SOL     OW15208   4.228   4.107   4.591  0.2574 -0.0268  0.1391
 1250SOL    HW115209   4.252   4.200   4.592 -0.4257  0.1532 -0.2668
 1250SOL    HW215210   4.225   4.085   4.498  1.0468  0.4023  0.0072
 1251SOL     OW15211   3.438   2.702  15.385 -0.3765 -0.8083 -0.1430
 1251SOL    HW115212   3.367   2.678  15.445  0.5877  0.7256  1.6368
 1251SOL    HW215213   3.410   2.641  15.317 -0.1086 -3.7971  2.4330
 1252SOL     OW15214   4.068   2.609  12.885 -0.1750 -0.7618  0.2603
 1252SOL    HW115215   4.022   2.689  12.910  0.7426  0.7886 -3.0799
 1252SOL    HW215216   4.113   2.588  12.967  2.2242  0.5673 -0.7262
 1253SOL     OW15217   2.872   3.556   3.458  0.0993 -0.3329 -0.2312
 1253SOL    HW115218   2.838   3.557   3.368  1.1056 -2.2344 -0.6378
 1253SOL    HW215219   2.794   3.537   3.510 -0.9270 -0.3815 -1.7556
 1254SOL     OW15220   4.442   1.115  12.489 -0.3992  0.2729  0.0712
 1254SOL    HW115221   4.483   1.032  12.514 -0.1600  0.3164 -0.1684
 1254SOL    HW215222   4.438   1.171  12.567  0.6721  0.6030 -0.1074
 1255SOL     OW15223   4.057   3.702   4.530  0.3722 -0.3157  0.1373
 1255SOL    HW115224   4.068   3.706   4.625  0.4734 -1.3380  0.1641
 1255SOL    HW215225   3.994   3.631   4.516  0.6133 -0.7979  1.5088
 1256SOL     OW15226   4.697   1.250   0.170 -0.1047 -0.0117 -0.0748
 1256SOL    HW115227   4.651   1.332   0.151 -0.6336  0.2529  2.4608
 1256SOL    HW215228   4.667   1.235   0.259  0.5703 -2.6062 -0.2845
 1257SOL     OW15229   4.721   0.113   6.624 -0.2389 -0.5995  0.3116
 1257SOL    HW115230   4.670   0.181   6.581  1.6353  0.5127 -0.1781
 1257SOL    HW215231   0.082   0.123   6.578  0.3806 -1.6846  1.1738
 1258SOL     OW15232   3.956   0.473   4.469 -0.0109  0.8897 -0.1771
 1258SOL    HW115233   4.031   0.413   4.476 -0.3658  0.1755 -2.2833
 1258SOL    HW215234   3.982   0.519   4.389 -0.7960 -0.8253 -1.4092
 1259SOL     OW15235   4.219   3.479  10.839 -0.1208 -0.5817  0.2410
 1259SOL    HW115236   4.246   3.388  10.825  0.1599 -0.1232 -2.2094
 1259SOL    HW215237   4.179   3.502  10.756  1.4404  0.3108 -0.2573
 1260SOL     OW15238   1.819   3.097   5.643  0.6825 -0.1924  0.4448
 1260SOL    HW115239   1.836   3.112   5.736  1.3392 -1.2948  0.4993
 1260SOL    HW215240   1.891   3.148   5.607  0.9692 -1.0118 -0.1440
 1261SOL     OW15241   4.276   0.550   6.451 -0.0407  0.2037  0.0179
 1261SOL    HW115242   4.337   0.524   6.521 -3.5302 -0.1243  2.9447
 1261SOL    HW215243   4.236   0.468   6.423  0.4000 -0.3507  0.9868
 1262SOL     OW15244   4.395   4.476   8.327  0.4514 -0.6251 -0.4970
 1262SOL    HW115245   4.342   4.403   8.360 -0.4615 -0.3392 -1.3236
 1262SOL    HW215246   4.331   4.508   8.263  0.7329  0.5888 -0.1631
 1263SOL     OW15247   0.984   0.557   5.907 -0.0216 -0.6251 -0.2498
 1263SOL    HW115248   1.057   0.527   5.853  1.1246  2.6145 -0.5073
 1263SOL    HW215249   1.021   0.524   5.989  0.9327 -0.0782 -0.4575
 1264SOL     OW15250   0.027   3.456   6.642  0.3540 -0.1817 -0.3699
 1264SOL    HW115251   0.005   3.382   6.586  1.0879 -2.0205  1.7466
 1264SOL    HW215252   0.022   3.404   6.723 -0.0198  0.6178  0.1224
 1265SOL     OW15253   1.708   4.180   6.386 -0.2823  0.6305  0.1580
 1265SOL    HW115254   1.771   4.252   6.379  1.2489 -0.7323 -0.0211
 1265SOL    HW215255   1.677   4.199   6.474 -3.0964  0.7887 -0.8593
 1266SOL     OW15256   3.311   3.927   6.319  0.2018  0.0458  0.2437
 1266SOL    HW115257   3.238   3.893   6.371 -0.0288 -0.2884 -0.2954
 1266SOL    HW215258   3.277   3.915   6.230  1.7590 -0.2049 -0.3198
 1267SOL     OW15259   4.356   1.343   4.408 -0.1428 -0.1815  0.4714
 1267SOL    HW115260   4.291   1.281   4.439  0.9666 -1.5794 -0.0088
 1267SOL    HW215261   4.430   1.283   4.415 -0.8439 -1.0403  0.4375
 1268SOL     OW15262   3.893   4.139   9.075  0.2570  0.7576 -0.0527
 1268SOL    HW115263   3.837   4.114   9.149 -1.6070  1.4205 -1.2381
 1268SOL    HW215264   3.921   4.052   9.047 -1.9335  0.4176 -1.2288
 1269SOL     OW15265   3.079   3.435   5.908 -0.0297  0.1230 -0.3088
 1269SOL    HW115266   3.167   3.404   5.889  1.0986  2.1162  1.6485
 1269SOL    HW215267   3.107   3.502   5.970 -1.0518 -0.6897  1.0414
 1270SOL     OW15268   0.557   1.282  14.957  0.2938  0.1112 -0.6971
 1270SOL    HW115269   0.545   1.324  14.872 -0.9894 -0.5909 -0.8689
 1270SOL    HW215270   0.627   1.228  14.921 -0.3365  0.2814 -2.1799
 1271SOL     OW15271   3.978   2.481   6.157 -0.2969  0.0906  0.1234
 1271SOL    HW115272   3.942   2.395   6.177 -0.1996 -0.2686 -1.2811
 1271SOL    HW215273   3.973   2.476   6.062 -1.7441 -1.8732  0.3195
 1272SOL     OW15274   0.313   3.946   8.324 -0.0272 -0.1025 -0.3803
 1272SOL    HW115275   0.386   3.996   8.288  1.4766 -0.9116  1.5285
 1272SOL    HW215276   0.306   3.975   8.415 -0.2663 -1.1934 -0.0574
 1273SOL     OW15277   1.806   0.476   7.633  0.7056  0.6668 -0.2432
 1273SOL    HW115278   1.712   0.471   7.617  0.4785  1.0339  1.0058
 1273SOL    HW215279   1.835   0.432   7.553 -0.7881 -1.9332  0.6550
 1274SOL     OW15280   0.638   1.041  17.687  0.6103 -0.3130 -0.3099
 1274SOL    HW115281   0.547   1.062   0.015  0.0372 -3.6707  0.7588
 1274SOL    HW215282   0.651   0.951   0.026 -0.6944 -0.2648  0.4121
 1275SOL     OW15283   0.435   3.249  12.729 -0.4835 -0.1822 -0.2320
 1275SOL    HW115284   0.449   3.292  12.645  1.5097 -2.5821 -1.1268
 1275SOL    HW215285   0.344   3.219  12.717  0.9371 -2.9121 -4.3731
 1276SOL     OW15286   2.646   3.480   2.149 -0.0037 -0.0641 -0.0944
 1276SOL    HW115287   2.683   3.392   2.144 -1.0980 -0.5063 -0.4979
 1276SOL    HW215288   2.626   3.488   2.243 -1.0360 -1.1244 -0.2260
 1277SOL     OW15289   3.669   2.411   8.057  0.8331 -0.2030 -0.2303
 1277SOL    HW115290   3.718   2.341   8.014  2.3891  0.3907  0.5739
 1277SOL    HW215291   3.728   2.487   8.053 -0.3106  0.6702 -0.4553
 1278SOL     OW15292   3.683   3.225   2.004  0.4257 -0.0248  0.6002
 1278SOL    HW115293   3.742   3.279   2.057  0.3238 -0.0834  0.7714
 1278SOL    HW215294   3.675   3.140   2.047 -1.1134  0.0520  0.4541
 1279SOL     OW15295   4.303   2.162  16.997  0.5102  0.0368 -0.5439
 1279SOL    HW115296   4.389   2.123  16.982  1.7680  1.7474  2.1337
 1279SOL    HW215297   4.242   2.099  16.960 -0.1001  0.7962 -0.8308
 1280SOL     OW15298   0.594   1.933   4.470 -0.3383 -0.3883  0.1887
 1280SOL    HW115299   0.670   1.936   4.411  1.9110  0.0377  3.1244
 1280SOL    HW215300   0.568   1.847   4.435 -2.5690  0.7872 -1.0153
 1281SOL     OW15301   2.445   0.934   5.082 -0.1137  0.5179 -0.0217
 1281SOL    HW115302   2.405   1.020   5.067 -0.8151  0.2627  0.3893
 1281SOL    HW215303   2.424   0.917   5.174 -0.6966  0.7236 -0.1128
 1282SOL     OW15304   2.866   4.708   2.243  0.1490 -0.5179 -0.8785
 1282SOL    HW115305   2.798   0.044   2.209  0.4182 -0.8561 -1.9648
 1282SOL    HW215306   2.907   4.670   2.167 -0.0518 -0.9574 -0.7663
 1283SOL     OW15307   2.429   4.050  12.294  0.2949  0.4358  0.5695
 1283SOL    HW115308   2.486   3.973  12.294 -0.5406 -0.1813  0.0584
 1283SOL    HW215309   2.492   4.108  12.338 -0.1080  0.2870  1.3409
 1284SOL     OW15310   3.475   2.088   7.419 -0.3234  0.1918  0.8673
 1284SOL    HW115311   3.522   2.014   7.456  1.8554  1.7939  1.3255
 1284SOL    HW215312   3.532   2.159   7.451 -0.7913  0.4773  1.0749
 1285SOL     OW15313   3.161   3.148   5.346  0.2271  0.2796  0.2988
 1285SOL    HW115314   3.142   3.235   5.312  1.9842  1.5428  2.5711
 1285SOL    HW215315   3.149   3.155   5.441 -3.0705  0.3858 -0.1128
 1286SOL     OW15316   2.674   3.458  14.874 -0.1963  0.9984 -0.4530
 1286SOL    HW115317   2.610   3.514  14.918 -0.3701 -1.2600  2.1567
 1286SOL    HW215318   2.717   3.529  14.826 -0.1671  0.4917 -1.1765
 1287SOL     OW15319   4.502   4.052   6.246  0.6951  0.0304  0.1429
 1287SOL    HW115320   4.586   4.049   6.291  0.5944 -0.6628  0.2860
 1287SOL    HW215321   4.487   3.957   6.247  1.9055 -0.1393  3.2805
 1288SOL     OW15322   2.331   2.793   7.990 -0.3588  0.2603  0.0742
 1288SOL    HW115323   2.247   2.750   7.973 -0.4380 -0.0548  1.2654
 1288SOL    HW215324   2.383   2.757   7.919  1.2024 -1.1359  1.9403
 1289SOL     OW15325   2.156   4.543   5.939 -0.2136 -0.0394 -0.2402
 1289SOL    HW115326   2.225   4.560   5.875 -1.0541 -3.7437 -2.1168
 1289SOL    HW215327   2.206   4.520   6.018  1.7739  0.3999 -1.3748
 1290SOL     OW15328   2.301   0.634   3.407 -0.1736  0.6187 -0.3536
 1290SOL    HW115329   2.341   0.549   3.425 -0.3962  0.6963  0.5275
 1290SOL    HW215330   2.379   0.688   3.391  1.0280 -1.5581 -1.7144
 1291SOL     OW15331   0.502   3.484   3.677 -1.0742  0.3098 -0.1454
 1291SOL    HW115332   0.544   3.402   3.649 -0.3728  0.7200 -0.2842
 1291SOL    HW215333   0.487   3.525   3.592  0.2759 -0.0064 -0.5427
 1292SOL     OW15334   0.903   1.854  10.683  0.6887 -0.8946  0.0050
 1292SOL    HW115335   0.984   1.822  10.642  1.0518 -0.0041  0.0259
 1292SOL    HW215336   0.847   1.777  10.689 -0.9856  0.4887  2.3763
 1293SOL     OW15337   0.593   3.732   6.049  0.0910 -0.1973 -0.4351
 1293SOL    HW115338   0.601   3.748   6.143  0.7673 -0.7217 -0.4098
 1293SOL    HW215339   0.685   3.730   6.023 -0.7344 -3.2655 -3.1542
 1294SOL     OW15340   3.151   3.832   0.286  0.4486  0.1385  0.1503
 1294SOL    HW115341   3.239   3.833   0.325  1.3743  0.0410 -1.9084
 1294SOL    HW215342   3.126   3.923   0.304 -0.6000  0.0707 -0.9871
 1295SOL     OW15343   0.323   1.069   1.613 -0.3538  0.0552  0.0895
 1295SOL    HW115344   0.245   1.015   1.606  0.8725 -1.4445 -1.7840
 1295SOL    HW215345   0.333   1.061   1.708  0.6380  1.2545  0.0929
 1296SOL     OW15346   3.434   3.892   3.975  0.3293 -0.4260  0.1230
 1296SOL    HW115347   3.433   3.807   4.020 -2.4868 -0.6357 -0.3372
 1296SOL    HW215348   3.518   3.872   3.934  0.9661  0.0688  1.1925
 1297SOL     OW15349   0.325   0.436   1.892  0.5337 -0.7525  0.0033
 1297SOL    HW115350   0.309   0.384   1.970  1.0895  0.1293  0.7080
 1297SOL    HW215351   0.410   0.480   1.897  0.7859 -1.5255  2.2333
 1298SOL     OW15352   3.934   3.116  10.794 -0.0462  0.0082  0.5703
 1298SOL    HW115353   3.977   3.158  10.719 -1.4946  1.8952  0.7801
 1298SOL    HW215354   3.917   3.196  10.844 -3.3988  0.0993 -0.6886
 1299SOL     OW15355   3.842   1.389   2.790  0.1490 -0.2508  0.0614
 1299SOL    HW115356   3.818   1.478   2.764  2.5210 -0.1786 -1.9046
 1299SOL    HW215357   3.900   1.400   2.866 -0.6716  1.1090  0.4905
 1300SOL     OW15358   0.933   3.891   6.435  0.0394  0.2614  0.3788
 1300SOL    HW115359   0.976   3.896   6.350 -3.0021 -0.3955 -1.2130
 1300SOL    HW215360   0.876   3.815   6.426  1.3464 -0.9619  2.4044
 1301SOL     OW15361   0.893   3.930  11.655 -0.5925  0.0297 -0.2741
 1301SOL    HW115362   0.871   3.840  11.680  1.3790 -0.9241 -2.0127
 1301SOL    HW215363   0.956   3.919  11.584  1.2021 -0.4242  1.3870
 1302SOL     OW15364   0.818   2.205   3.083  0.4116 -0.1185  0.1029
 1302SOL    HW115365   0.892   2.202   3.024  0.4818  0.8994  0.1382
 1302SOL    HW215366   0.852   2.147   3.151  2.4182 -1.4668 -2.0554
 1303SOL     OW15367   0.064   0.045  11.436 -0.2133 -0.1770 -0.2173
 1303SOL    HW115368   4.693   0.066  11.435 -0.1204  0.2433  0.0858
 1303SOL    HW215369   0.097   0.070  11.523  2.7950 -2.7967 -0.6143
 1304SOL     OW15370   0.355   2.487   4.200  0.6265 -0.2347  0.2053
 1304SOL    HW115371   0.343   2.577   4.168 -1.5189 -0.7482 -0.4596
 1304SOL    HW215372   0.443   2.474   4.165  0.5340  0.3119 -0.2436
 1305SOL     OW15373   2.412   0.536   7.541  0.1091 -0.6771 -0.1657
 1305SOL    HW115374   2.333   0.481   7.537 -0.2214 -0.2228  0.1099
 1305SOL    HW215375   2.451   0.480   7.608  2.8528 -0.4682 -1.5873
 1306SOL     OW15376   1.966   0.471  16.711  0.0922  0.5546 -0.0257
 1306SOL    HW115377   1.928   0.465  16.798 -0.8052 -0.4968 -0.4853
 1306SOL    HW215378   1.899   0.430  16.656 -0.5511 -1.7619  2.5126
 1307SOL     OW15379   3.642   3.189   6.391  0.0328  0.1084  0.1956
 1307SOL    HW115380   3.553   3.223   6.391 -0.1499 -0.3681  0.2504
 1307SOL    HW215381   3.665   3.197   6.483  1.2766 -1.4633  0.0340
 1308SOL     OW15382   4.522   3.791   2.062  0.2942 -0.5740  0.1352
 1308SOL    HW115383   4.464   3.776   1.988  0.6527 -3.6721  0.4824
 1308SOL    HW215384   4.487   3.872   2.100 -0.7468 -1.0663  0.2155
 1309SOL     OW15385   2.107   4.471   8.163  0.3900 -0.3247 -0.6913
 1309SOL    HW115386   2.082   4.429   8.080 -2.1363 -0.8778  0.3598
 1309SOL    HW215387   2.031   4.524   8.187 -0.3622  0.2603 -4.3316
 1310SOL     OW15388   2.168   4.137   7.153 -0.3910 -0.2520 -0.1076
 1310SOL    HW115389   2.228   4.195   7.199 -1.2028 -0.6069  1.4064
 1310SOL    HW215390   2.081   4.166   7.182  0.1418  1.4576 -0.1769
 1311SOL     OW15391   2.596   2.459   2.303  0.1699  0.2181  0.4368
 1311SOL    HW115392   2.579   2.490   2.392 -0.0354 -3.9123  1.8245
 1311SOL    HW215393   2.690   2.476   2.296  0.4442 -1.2331  0.5616
 1312SOL     OW15394   3.943   2.051  10.338  0.6057  0.5286 -0.1023
 1312SOL    HW115395   3.976   2.079  10.252  2.2039  2.7804  1.2267
 1312SOL    HW215396   3.953   1.956  10.344 -1.8783  0.3310  0.7320
 1313SOL     OW15397   3.249   2.346  14.391 -0.2377 -0.3112 -0.2419
 1313SOL    HW115398   3.242   2.441  14.384 -1.5215 -0.3851  0.0513
 1313SOL    HW215399   3.327   2.333  14.445  0.1793 -0.7236 -0.9362
 1314SOL     OW15400   2.292   0.599   3.794 -0.4501 -0.4357 -0.4990
 1314SOL    HW115401   2.387   0.607   3.786 -0.3259 -0.3857  0.9673
 1314SOL    HW215402   2.265   0.681   3.752 -0.6150 -0.2528 -0.0318
 1315SOL     OW15403   0.495   1.678   4.332 -0.2749 -0.3702 -0.0558
 1315SOL    HW115404   0.523   1.589   4.352  0.9357  0.2708  1.1109
 1315SOL    HW215405   0.495   1.671   4.236 -0.8022  1.1602 -0.1795
 1316SOL     OW15406   3.568   2.870   8.988  0.2616  0.5840  0.2477
 1316SOL    HW115407   3.567   2.964   9.009  0.7379  0.0889  2.4926
 1316SOL    HW215408   3.659   2.856   8.961 -0.1083 -1.3788  0.0320
 1317SOL     OW15409   2.379   1.035   7.393 -0.2313  0.1775  0.2741
 1317SOL    HW115410   2.328   0.968   7.438 -1.5585 -0.5279 -2.2759
 1317SOL    HW215411   2.343   1.109   7.441 -1.8161 -1.6145  1.8457
 1318SOL     OW15412   4.089   1.181   5.212  0.3580  0.1876  0.6600
 1318SOL    HW115413   4.165   1.192   5.155  0.9901 -0.4232  1.3843
 1318SOL    HW215414   4.025   1.160   5.144 -0.0397  0.3216  0.9923
 1319SOL     OW15415   4.361   1.034   2.493  0.6153  0.2879  0.1039
 1319SOL    HW115416   4.355   0.958   2.551  0.8568  0.9941  1.0466
 1319SOL    HW215417   4.329   1.005   2.407  0.5975 -0.4919  0.3727
 1320SOL     OW15418   4.105   0.953   1.634 -0.2384 -0.2998 -0.2152
 1320SOL    HW115419   4.066   1.039   1.628  0.8123  0.1631 -0.4394
 1320SOL    HW215420   4.151   0.935   1.552 -1.0179 -2.4795 -0.1830
 1321SOL     OW15421   0.498   3.372  14.015  0.8836 -0.2645 -0.1434
 1321SOL    HW115422   0.422   3.390  14.071 -1.1774 -3.1531 -1.9443
 1321SOL    HW215423   0.475   3.287  13.978  0.7602  0.1034 -0.9142
 1322SOL     OW15424   3.366   2.283   2.594 -0.3573 -0.3252 -0.1206
 1322SOL    HW115425   3.320   2.233   2.526  1.2892 -1.9957 -0.0156
 1322SOL    HW215426   3.292   2.325   2.637 -0.2910  0.8899 -1.1829
 1323SOL     OW15427   1.943   2.534   2.386  0.0384  0.1383 -0.2217
 1323SOL    HW115428   2.031   2.523   2.423 -0.3251 -0.3836  0.4803
 1323SOL    HW215429   1.964   2.572   2.300 -0.4621  2.1550  0.5425
 1324SOL     OW15430   2.505   1.052   7.967  0.2729 -0.0656 -0.0184
 1324SOL    HW115431   2.592   1.092   7.969 -0.1626  0.8424  0.6466
 1324SOL    HW215432   2.489   1.043   8.061 -1.3653 -2.7521 -0.5518
 1325SOL     OW15433   0.824   4.326   2.087 -0.0130 -0.2738 -0.0531
 1325SOL    HW115434   0.839   4.392   2.020 -1.3930 -1.4203 -1.5024
 1325SOL    HW215435   0.912   4.289   2.098 -0.5567 -1.8053 -0.8285
 1326SOL     OW15436   2.297   2.265   4.998 -0.2928  0.2794 -0.5169
 1326SOL    HW115437   2.365   2.328   4.975 -0.9929  1.1701 -0.1558
 1326SOL    HW215438   2.219   2.321   4.999 -0.0964  0.5433  1.0700
 1327SOL     OW15439   1.588   4.223   4.222 -0.3687  0.2283 -0.1499
 1327SOL    HW115440   1.511   4.181   4.185 -0.8404  3.2459 -2.6183
 1327SOL    HW215441   1.568   4.306   4.179 -0.0379  1.1754  1.5469
 1328SOL     OW15442   1.933   2.613   3.831  0.4138 -0.9688  0.4030
 1328SOL    HW115443   1.883   2.582   3.907 -1.4077 -0.8722 -0.7784
 1328SOL    HW215444   1.951   2.704   3.856 -0.9248 -0.7260  0.4890
 1329SOL     OW15445   0.012   0.548   3.281  0.0862  0.4766 -0.1971
 1329SOL    HW115446   0.104   0.533   3.259  0.4882 -0.5392  2.1774
 1329SOL    HW215447   4.703   0.584   3.198 -2.0150 -3.0022 -0.9401
 1330SOL     OW15448   0.477   3.526   4.953  0.5719  0.1797  0.6098
 1330SOL    HW115449   0.394   3.480   4.960 -0.2441  1.6705  0.7979
 1330SOL    HW215450   0.454   3.618   4.936  0.9156 -0.0305 -0.9585
 1331SOL     OW15451   4.119   2.013   1.673 -0.4414  0.3968 -0.0290
 1331SOL    HW115452   4.086   1.930   1.637  0.8974  0.4453 -1.3746
 1331SOL    HW215453   4.184   2.046   1.611 -0.4207 -1.2119 -0.8651
 1332SOL     OW15454   2.458   0.973   3.631 -0.0142  0.8689 -0.1605
 1332SOL    HW115455   2.498   0.994   3.715 -1.6147 -0.8980  1.0504
 1332SOL    HW215456   2.391   0.913   3.664  0.9167  0.4337  0.9330
 1333SOL     OW15457   2.291   0.057   3.001  0.1919 -0.3118 -0.1818
 1333SOL    HW115458   2.237   4.704   3.024 -0.0838 -0.4795 -1.4036
 1333SOL    HW215459   2.277   0.052   2.907 -0.4000 -0.4978 -0.0793
 1334SOL     OW15460   1.265   2.046  11.442  0.6953  0.6360  0.4370
 1334SOL    HW115461   1.263   2.101  11.364  0.1589 -0.2341 -0.1587
 1334SOL    HW215462   1.357   2.052  11.466  0.4517 -1.3193  1.8583
 1335SOL     OW15463   3.118   0.372  12.532 -0.3482  0.3284 -0.1785
 1335SOL    HW115464   3.058   0.298  12.534  0.1455 -0.1536 -2.5836
 1335SOL    HW215465   3.050   0.440  12.530 -0.4754  0.1793 -1.0496
 1336SOL     OW15466   4.280   1.811   5.004 -0.2034 -0.3213  0.1371
 1336SOL    HW115467   4.214   1.781   5.067 -2.0496  1.6793 -0.8478
 1336SOL    HW215468   4.250   1.902   4.998  0.9955 -0.0103 -1.1876
 1337SOL     OW15469   0.278   1.130   2.235 -0.0333 -0.0402  0.1756
 1337SOL    HW115470   0.315   1.173   2.312  0.5786  0.3712 -0.3421
 1337SOL    HW215471   0.248   1.210   2.192 -0.8297  1.6011  3.7339
 1338SOL     OW15472   3.453   3.391   8.798  0.2522  0.3720 -0.3613
 1338SOL    HW115473   3.496   3.372   8.882  0.2011 -0.6967 -0.5841
 1338SOL    HW215474   3.393   3.318   8.782  0.1483  0.3815 -0.0221
 1339SOL     OW15475   1.048   1.820  10.214 -0.6188  0.5092  0.0473
 1339SOL    HW115476   1.062   1.914  10.197 -1.5090  0.4594 -0.9670
 1339SOL    HW215477   1.139   1.793  10.229 -1.0856 -1.5116 -0.7638
 1340SOL     OW15478   3.534   0.858   5.241 -0.5586 -0.4697  0.1980
 1340SOL    HW115479   3.609   0.818   5.287  0.7160  1.8320  0.1383
 1340SOL    HW215480   3.553   0.952   5.245  0.2643 -0.5262 -2.0740
 1341SOL     OW15481   4.629   1.738   6.877 -0.2656 -0.3863 -0.0372
 1341SOL    HW115482   4.700   1.791   6.841  1.2291 -0.1020  3.3340
 1341SOL    HW215483   4.577   1.811   6.908  0.2075 -0.4675  0.9413
 1342SOL     OW15484   3.905   2.004   7.577 -0.0046  0.0938 -0.1541
 1342SOL    HW115485   3.834   1.947   7.606  1.5714 -2.5718 -1.5302
 1342SOL    HW215486   3.852   2.074   7.539 -1.6776 -1.4797 -0.7555
 1343SOL     OW15487   3.259   3.997   3.471 -0.2697 -0.0345 -0.0774
 1343SOL    HW115488   3.221   4.083   3.486  1.1931  0.4574  0.8323
 1343SOL    HW215489   3.184   3.946   3.441 -0.1493  0.7192 -1.6262
 1344SOL     OW15490   1.012   1.276   7.393 -0.2277 -0.1075 -0.1112
 1344SOL    HW115491   0.986   1.288   7.302  1.0939 -1.3198 -0.6526
 1344SOL    HW215492   1.015   1.364   7.429  0.7976  0.2451 -1.0840
 1345SOL     OW15493   4.129   2.228  10.474  0.8733 -0.1930 -0.0104
 1345SOL    HW115494   4.052   2.284  10.486  0.7818 -0.3627  0.2000
 1345SOL    HW215495   4.097   2.155  10.421  0.8551 -0.0871 -0.1427
 1346SOL     OW15496   0.137   1.729   5.332  0.2237 -0.3212  0.0649
 1346SOL    HW115497   0.115   1.686   5.249 -0.2803 -0.0796  0.0690
 1346SOL    HW215498   0.151   1.649   5.381 -0.2968 -0.7480 -0.4826
 1347SOL     OW15499   3.315   1.380   2.249 -0.5223 -0.4763 -0.7806
 1347SOL    HW115500   3.309   1.449   2.183 -1.3530 -0.1446 -0.3461
 1347SOL    HW215501   3.409   1.376   2.271  0.3818  0.3053 -4.4603
 1348SOL     OW15502   3.918   2.391  10.555 -0.0320  0.1586  0.1250
 1348SOL    HW115503   3.917   2.433  10.641 -2.0730 -1.0929  0.7056
 1348SOL    HW215504   3.900   2.466  10.499 -0.9933 -1.0856 -1.2389
 1349SOL     OW15505   4.139   1.191   9.071  0.9150 -0.3231  0.5803
 1349SOL    HW115506   4.188   1.265   9.105  0.9719 -0.5526  0.9925
 1349SOL    HW215507   4.217   1.137   9.066  0.8819 -0.4357  1.2970
 1350SOL     OW15508   0.450   2.594   7.689 -0.6000  0.7182  0.8795
 1350SOL    HW115509   0.397   2.665   7.726  0.3645  0.3474  2.9861
 1350SOL    HW215510   0.389   2.534   7.646 -1.3836  2.1211  0.0660
 1351SOL     OW15511   0.669   1.563   3.621  0.4174 -0.1094 -0.3360
 1351SOL    HW115512   0.666   1.479   3.665 -1.5286 -0.4576 -1.1640
 1351SOL    HW215513   0.764   1.573   3.613  0.4934 -0.9666 -0.5279
 1352SOL     OW15514   1.019   3.545   8.416 -0.2192  0.2516 -0.7125
 1352SOL    HW115515   1.090   3.483   8.401 -0.4685 -0.6614  1.9837
 1352SOL    HW215516   1.049   3.584   8.498  1.4156 -2.2510 -0.1175
 1353SOL     OW15517   3.785   0.277   4.127  1.0127  0.2142 -0.0129
 1353SOL    HW115518   3.762   0.197   4.080 -1.3688  0.4828  0.6886
 1353SOL    HW215519   3.749   0.260   4.214 -1.5789  0.5231 -1.0215
 1354SOL     OW15520   4.373   1.794   5.770  0.6008  0.0715  0.3225
 1354SOL    HW115521   4.443   1.759   5.715 -0.8491 -2.2983 -0.0442
 1354SOL    HW215522   4.419   1.806   5.852 -1.8009 -0.8622  1.8129
 1355SOL     OW15523   2.686   4.224   5.293 -0.5727  0.1101 -0.2791
 1355SOL    HW115524   2.706   4.258   5.206 -1.1085  0.0954 -0.4143
 1355SOL    HW215525   2.728   4.284   5.355  1.4812  1.4850 -3.0411
 1356SOL     OW15526   3.952   4.454   5.057  0.4205  0.3729 -0.0253
 1356SOL    HW115527   3.893   4.529   5.055 -0.0304 -0.0567 -2.6081
 1356SOL    HW215528   3.923   4.405   4.980  2.3355  1.9618 -1.7554
 1357SOL     OW15529   2.892   1.364   4.349 -0.1939  0.1555 -0.2689
 1357SOL    HW115530   2.921   1.395   4.435  1.4394  0.3422 -0.8994
 1357SOL    HW215531   2.797   1.375   4.358  0.0415  0.8464  1.4230
 1358SOL     OW15532   0.039   1.503   0.489 -0.0587 -0.1515 -0.5066
 1358SOL    HW115533   4.675   1.494   0.529  0.4153 -1.2424  0.2886
 1358SOL    HW215534   0.093   1.467   0.560  0.4078  1.0769 -0.2411
 1359SOL     OW15535   0.429   2.370  10.455  0.2795  0.2671 -0.2618
 1359SOL    HW115536   0.468   2.293  10.497 -1.2198 -0.8786 -0.9861
 1359SOL    HW215537   0.348   2.393  10.500  2.0238  2.6194  1.7494
 1360SOL     OW15538   2.036   4.238   0.633  0.6456 -0.0477  0.0328
 1360SOL    HW115539   1.994   4.152   0.634 -1.7691  1.1000 -0.9690
 1360SOL    HW215540   2.120   4.203   0.606  1.0739 -0.5252  1.9951
 1361SOL     OW15541   1.229   2.762   5.794 -0.2998 -0.6598 -0.2269
 1361SOL    HW115542   1.316   2.789   5.824 -0.0969 -0.1869 -1.2356
 1361SOL    HW215543   1.178   2.842   5.805 -0.0549 -0.4890 -0.3266
 1362SOL     OW15544   0.426   0.532  10.041 -0.3312  0.0837 -0.3782
 1362SOL    HW115545   0.427   0.439  10.064  0.0928  0.2843  0.3918
 1362SOL    HW215546   0.331   0.541  10.030 -0.3835 -0.4310 -0.3868
 1363SOL     OW15547   1.145   0.220   7.813 -0.5162  0.0157  0.4639
 1363SOL    HW115548   1.110   0.133   7.795  0.5317 -0.1735 -0.6533
 1363SOL    HW215549   1.067   0.275   7.823 -1.1759 -0.3637 -2.5620
 1364SOL     OW15550   1.921   3.296  15.738  0.0869  0.1091  0.7568
 1364SOL    HW115551   1.912   3.258  15.825 -0.9554  0.8282  0.9589
 1364SOL    HW215552   1.991   3.358  15.762 -1.3846  1.8831  0.4668
 1365SOL     OW15553   1.715   0.995   9.002  0.3232 -0.0524 -0.3858
 1365SOL    HW115554   1.621   1.004   8.988  0.0567  0.1791  1.5829
 1365SOL    HW215555   1.742   1.084   9.022  1.1153 -0.2958 -0.3446
 1366SOL     OW15556   2.701   0.214   5.195 -0.0886  0.2789  0.4812
 1366SOL    HW115557   2.615   0.172   5.192 -0.1343  0.0710  4.7273
 1366SOL    HW215558   2.685   0.297   5.150 -1.0221  0.2402  0.7577
 1367SOL     OW15559   2.878   3.899   3.769  0.1517 -0.0762  0.8247
 1367SOL    HW115560   2.871   3.946   3.687 -1.0283  0.6258  1.3271
 1367SOL    HW215561   2.784   3.901   3.789  0.5372  1.6079  2.4379
 1368SOL     OW15562   4.132   0.180   2.961  0.2132 -0.4917 -0.3511
 1368SOL    HW115563   4.042   0.189   2.930 -0.1922 -2.5560  0.1793
 1368SOL    HW215564   4.165   0.108   2.907  0.2729 -1.4900  1.0051
 1369SOL     OW15565   3.242   3.398   3.113 -0.3994 -0.1512  0.0091
 1369SOL    HW115566   3.319   3.341   3.118 -0.0402  0.4098  0.9580
 1369SOL    HW215567   3.244   3.435   3.202  1.3614  1.1690 -0.5625
 1370SOL     OW15568   1.908   0.265   2.167  0.0855 -0.4176  0.2345
 1370SOL    HW115569   1.844   0.336   2.166  1.3277  0.7055  0.8091
 1370SOL    HW215570   1.938   0.269   2.076 -1.6438  0.7489 -0.2941
 1371SOL     OW15571   0.746   1.940   2.796  0.1858 -0.4932  0.2396
 1371SOL    HW115572   0.820   1.971   2.744 -0.2915 -0.0690 -0.1885
 1371SOL    HW215573   0.786   1.918   2.880  1.8765 -0.1237 -0.4653
 1372SOL     OW15574   0.466   4.551   3.001 -0.1617 -0.1802  0.0416
 1372SOL    HW115575   0.496   4.487   3.066 -1.1589 -0.3459  0.3413
 1372SOL    HW215576   0.399   4.595   3.053  0.8411  1.9461 -0.4342
 1373SOL     OW15577   0.126   4.232   7.755  0.2169  0.6728  0.5120
 1373SOL    HW115578   0.141   4.326   7.749  0.6121  0.5998  0.3888
 1373SOL    HW215579   0.165   4.210   7.840  1.2353 -2.0897 -0.6798
 1374SOL     OW15580   1.625   2.960  15.939 -1.0275  0.4413 -0.6404
 1374SOL    HW115581   1.542   2.930  15.974 -0.6520 -0.6451 -0.6694
 1374SOL    HW215582   1.596   3.051  15.932  2.8544  1.6924 -0.9103
 1375SOL     OW15583   1.013   0.560   4.224 -0.1208  0.1891  0.2039
 1375SOL    HW115584   1.055   0.475   4.214  0.3773  0.5161 -0.4654
 1375SOL    HW215585   1.051   0.591   4.306 -0.2139  0.0448  0.3025
 1376SOL     OW15586   4.372   3.597   3.373  0.1582  0.2775 -0.0934
 1376SOL    HW115587   4.350   3.679   3.418 -0.5965  0.8676 -1.5465
 1376SOL    HW215588   4.342   3.528   3.432 -1.0780  0.3718 -0.6076
 1377SOL     OW15589   2.002   0.269   9.247 -0.2182  0.1827 -0.1384
 1377SOL    HW115590   2.067   0.336   9.226 -1.6923  1.3728 -0.8979
 1377SOL    HW215591   1.975   0.235   9.162 -2.4484 -0.6838  0.9102
 1378SOL     OW15592   2.338   1.178   2.980 -0.2462 -0.6176  0.4548
 1378SOL    HW115593   2.286   1.110   2.936  1.0480 -0.5971 -1.1299
 1378SOL    HW215594   2.280   1.254   2.986  2.9859  1.8253  0.4696
 1379SOL     OW15595   0.595   0.686   9.056  0.2309  0.0932 -0.2944
 1379SOL    HW115596   0.534   0.614   9.041  0.0461  0.3837 -0.9503
 1379SOL    HW215597   0.596   0.728   8.969 -1.5964  0.5181 -0.1082
 1380SOL     OW15598   3.166   2.964   7.019 -0.3589 -0.0290  0.0207
 1380SOL    HW115599   3.109   2.899   7.060  0.3455  0.9774  2.5678
 1380SOL    HW215600   3.098   3.008   6.968  1.8755  1.3147 -1.7973
 1381SOL     OW15601   3.533   3.143   6.928  0.0667  0.0043 -0.0541
 1381SOL    HW115602   3.626   3.159   6.916  0.0268 -0.6540 -1.2083
 1381SOL    HW215603   3.542   3.127   7.022  1.8785 -1.7469 -0.5417
 1382SOL     OW15604   0.731   2.334   1.805 -0.3168  0.0333  0.6797
 1382SOL    HW115605   0.725   2.428   1.817 -0.6446  0.1216 -0.2166
 1382SOL    HW215606   0.637   2.315   1.807 -0.2419 -0.6778 -2.3109
 1383SOL     OW15607   4.607   4.379   5.055  0.1545 -0.1221 -0.2261
 1383SOL    HW115608   4.530   4.321   5.064  1.6546 -2.1192 -0.2994
 1383SOL    HW215609   4.675   4.316   5.077  0.0940  0.0420  0.4413
 1384SOL     OW15610   1.576   3.973   6.752  0.3427 -0.2347 -0.1142
 1384SOL    HW115611   1.605   4.031   6.823 -0.6459  0.4406 -0.2574
 1384SOL    HW215612   1.657   3.926   6.733 -0.9936 -2.4598 -0.3166
 1385SOL     OW15613   2.150   0.034  13.224 -0.2857 -0.0131  0.3566
 1385SOL    HW115614   2.090   4.705  13.279  1.2283 -1.3830  0.7419
 1385SOL    HW215615   2.226   0.062  13.275  0.0578  0.3904 -0.3755
 1386SOL     OW15616   2.456   4.466  14.667  0.5096 -0.0838 -0.0626
 1386SOL    HW115617   2.380   4.453  14.724  0.4063  0.1951 -0.1357
 1386SOL    HW215618   2.460   4.386  14.615  0.9389 -1.1716  1.6310
 1387SOL     OW15619   1.882   3.474   0.024 -0.0864  0.2118 -0.0454
 1387SOL    HW115620   1.882   3.378   0.032 -1.2628  0.3827  1.8661
 1387SOL    HW215621   1.794   3.497   0.055 -0.6187  0.4808 -1.7402
 1388SOL     OW15622   3.875   3.899  10.576  0.1080  0.0502 -0.0692
 1388SOL    HW115623   3.891   3.840  10.502  0.4966 -0.9305  0.8059
 1388SOL    HW215624   3.832   3.849  10.645 -0.4358 -0.3525 -0.6984
 1389SOL     OW15625   4.328   0.091  12.032 -0.2984 -0.2025 -0.3813
 1389SOL    HW115626   4.418   0.103  12.062 -0.4941 -0.8335  0.4435
 1389SOL    HW215627   4.331   0.102  11.937 -2.9182  0.7334 -0.3694
 1390SOL     OW15628   3.750   4.161   1.399  0.0861 -0.1073  0.1230
 1390SOL    HW115629   3.740   4.111   1.318 -2.9606 -1.0847  1.0927
 1390SOL    HW215630   3.680   4.225   1.390 -1.2084 -1.3611  1.2862
 1391SOL     OW15631   1.012   1.199   9.518 -0.4072  0.6007  0.2843
 1391SOL    HW115632   0.933   1.242   9.552 -0.2507 -0.4445  1.9635
 1391SOL    HW215633   0.960   1.126   9.485 -0.6585  0.6913  0.4715
 1392SOL     OW15634   4.150   3.890   7.235  0.0287  0.1992  0.5791
 1392SOL    HW115635   4.170   3.812   7.183 -0.8255  1.0079 -0.9600
 1392SOL    HW215636   4.176   3.959   7.173  1.4188  0.3739  1.3619
 1393SOL     OW15637   3.446   1.654  11.120  0.0841 -0.0356 -0.1670
 1393SOL    HW115638   3.461   1.737  11.075  0.8501 -0.4415 -0.6700
 1393SOL    HW215639   3.492   1.584  11.075 -1.7479 -0.2379 -1.7023
 1394SOL     OW15640   1.923   1.483   5.891  0.7040  0.2478 -0.2711
 1394SOL    HW115641   1.906   1.531   5.810  0.0187  0.6790  0.1290
 1394SOL    HW215642   2.018   1.473   5.891  0.4811 -1.8858  0.5384
 1395SOL     OW15643   0.671   0.911   8.515  0.3897 -0.0654 -0.5316
 1395SOL    HW115644   0.611   0.966   8.466  0.2789  1.5750  1.4402
 1395SOL    HW215645   0.615   0.835   8.529 -1.5488  0.8396 -3.6060
 1396SOL     OW15646   4.654   1.712   8.837 -0.1225 -0.2839 -0.8510
 1396SOL    HW115647   4.674   1.783   8.898 -1.5255 -0.9881  0.4246
 1396SOL    HW215648   4.565   1.695   8.869 -0.3476  4.0918  0.8700
 1397SOL     OW15649   3.597   3.519   2.431 -0.3254  0.2253  0.4123
 1397SOL    HW115650   3.572   3.603   2.470 -1.9976  0.3597 -0.9029
 1397SOL    HW215651   3.689   3.537   2.413 -1.3206  1.8079 -3.1818
 1398SOL     OW15652   0.541   0.917   2.003 -0.1313  0.2270  0.0004
 1398SOL    HW115653   0.615   0.859   2.021 -0.4658 -0.0488  0.4714
 1398SOL    HW215654   0.546   0.979   2.076  3.6763  0.9638 -0.8513
 1399SOL     OW15655   1.042   3.984   3.001  0.4231 -0.0217  0.6578
 1399SOL    HW115656   0.955   4.010   3.030  0.8447  1.3633  0.6664
 1399SOL    HW215657   1.078   4.068   2.973 -2.7655  0.1313 -2.9849
 1400SOL     OW15658   1.696   0.248   4.479  0.0799 -0.1473  0.0825
 1400SOL    HW115659   1.656   0.225   4.563  0.5436 -0.5655  0.1895
 1400SOL    HW215660   1.701   0.344   4.488  0.8181 -0.1309 -0.4834
 1401SOL     OW15661   0.273   2.032   0.958  0.2082 -0.2449 -0.0946
 1401SOL    HW115662   0.350   2.044   0.901 -1.0748  0.1574 -1.7484
 1401SOL    HW215663   0.302   2.091   1.028 -2.1594  0.6685  0.1269
 1402SOL     OW15664   1.791   2.854   7.279  0.4557 -0.4098  0.1988
 1402SOL    HW115665   1.742   2.901   7.346 -0.0427  2.0496 -1.8529
 1402SOL    HW215666   1.876   2.899   7.273 -0.4810  1.5368  1.3593
 1403SOL     OW15667   2.078   0.544  10.858 -0.1411 -0.7026  0.1480
 1403SOL    HW115668   2.097   0.451  10.846  1.6742 -0.0904 -1.7761
 1403SOL    HW215669   2.167   0.579  10.848  0.0170 -1.8701 -2.5999
 1404SOL     OW15670   0.179   3.452  10.466 -0.1264 -0.2964  0.0585
 1404SOL    HW115671   0.097   3.442  10.513 -1.3114  0.2624 -1.9036
 1404SOL    HW215672   0.207   3.534  10.506  1.1307  0.5541 -2.5117
 1405SOL     OW15673   3.949   1.601   2.250 -0.1292  0.2165 -0.2032
 1405SOL    HW115674   3.997   1.531   2.293  0.8537 -0.7761 -2.9479
 1405SOL    HW215675   3.968   1.598   2.156  3.1978  0.6548  0.4427
 1406SOL     OW15676   3.874   2.712   4.913  0.4753  0.2923 -0.4656
 1406SOL    HW115677   3.896   2.803   4.933 -1.8772  0.3713  1.7363
 1406SOL    HW215678   3.785   2.714   4.947  0.8339  2.6082  0.3469
 1407SOL     OW15679   2.000   1.174   3.869  0.0595  0.7779  0.5030
 1407SOL    HW115680   2.088   1.203   3.843  1.0739 -1.8302  1.0304
 1407SOL    HW215681   1.949   1.250   3.842 -1.3078 -0.8856 -1.5209
 1408SOL     OW15682   3.801   3.035   7.325 -0.0861 -0.6102  0.1631
 1408SOL    HW115683   3.845   3.077   7.399 -0.9138  0.2932  0.1460
 1408SOL    HW215684   3.867   2.970   7.301 -2.5117 -2.4839 -1.3857
 1409SOL     OW15685   1.844   2.994   6.989 -0.3704  0.0971  0.0821
 1409SOL    HW115686   1.854   2.900   6.973 -1.5631  0.2569 -1.6054
 1409SOL    HW215687   1.934   3.016   7.015 -1.4093  1.6667  2.3192
 1410SOL     OW15688   1.467   1.615   6.115  0.5215  0.1250 -0.2715
 1410SOL    HW115689   1.476   1.527   6.080  3.9087  0.2635  0.2747
 1410SOL    HW215690   1.433   1.596   6.203  2.8001 -1.0175  0.3557
 1411SOL     OW15691   2.232   1.183   5.796 -0.3402  0.1798  0.4094
 1411SOL    HW115692   2.183   1.258   5.830  0.3050  1.3401 -1.2261
 1411SOL    HW215693   2.198   1.107   5.845 -0.2230  1.0937  1.8966
 1412SOL     OW15694   3.475   3.387   1.948  0.7858 -0.2362 -0.0457
 1412SOL    HW115695   3.439   3.385   2.037 -0.8489  1.6941 -0.6675
 1412SOL    HW215696   3.541   3.318   1.952 -0.4118 -1.5537 -2.7659
 1413SOL     OW15697   0.010   3.081  10.486 -0.2332 -0.2255  0.3097
 1413SOL    HW115698   0.021   3.033  10.404  0.4556 -0.0944  0.3231
 1413SOL    HW215699   0.019   3.168  10.446  0.1774 -0.6314 -0.4637
 1414SOL     OW15700   3.633   1.054  17.091  0.0351 -0.9124 -0.1617
 1414SOL    HW115701   3.653   1.102  17.171  0.4868 -0.3558 -0.6076
 1414SOL    HW215702   3.602   0.967  17.116 -1.8250 -0.8493 -2.1978
 1415SOL     OW15703   4.330   0.228   8.957  0.3362  0.4947 -0.1166
 1415SOL    HW115704   4.357   0.215   9.048 -0.2036  0.4563  0.0368
 1415SOL    HW215705   4.351   0.320   8.946  3.0198 -0.3217 -1.9204
 1416SOL     OW15706   0.426   1.000  15.363  0.9510 -0.0628  0.7083
 1416SOL    HW115707   0.395   1.070  15.421  1.3422 -1.2365  2.3469
 1416SOL    HW215708   0.385   0.920  15.396  0.5694  0.9801  2.7783
 1417SOL     OW15709   4.535   3.670   4.869 -0.1987 -0.0355 -0.0839
 1417SOL    HW115710   4.536   3.763   4.892  1.0413  0.2700 -1.4202
 1417SOL    HW215711   4.536   3.667   4.774  1.1228  0.1123 -0.0770
 1418SOL     OW15712   2.666   2.387   2.807 -0.2892  0.5017  0.5256
 1418SOL    HW115713   2.643   2.354   2.894 -0.5112  1.9530  1.0217
 1418SOL    HW215714   2.704   2.306   2.773 -0.8536  1.7715 -3.1264
 1419SOL     OW15715   1.254   0.919  17.341  0.2813 -0.1203 -0.2398
 1419SOL    HW115716   1.276   0.873  17.260 -0.3705  1.9637 -1.5684
 1419SOL    HW215717   1.239   1.009  17.315  0.3277 -0.6912 -2.2338
 1420SOL     OW15718   1.134   2.326   8.830 -0.0679 -0.0590  0.2550
 1420SOL    HW115719   1.132   2.231   8.816  0.4639 -0.4639  2.9094
 1420SOL    HW215720   1.229   2.336   8.823  0.0541 -2.1868 -1.1900
 1421SOL     OW15721   4.189   2.834  10.454  0.3568  0.1065  0.2720
 1421SOL    HW115722   4.155   2.824  10.365 -0.8220 -0.5909  0.8108
 1421SOL    HW215723   4.119   2.894  10.480 -2.3699 -2.5299 -0.9561
 1422SOL     OW15724   1.483   0.459  12.306 -0.2736  0.0991 -0.2009
 1422SOL    HW115725   1.571   0.455  12.344  0.2817 -1.1209 -1.6218
 1422SOL    HW215726   1.494   0.520  12.233 -1.4765  0.6234  0.0701
 1423SOL     OW15727   0.644   3.151   7.209 -0.5109 -0.2545  0.3665
 1423SOL    HW115728   0.592   3.210   7.154  0.3505  0.9287  0.8144
 1423SOL    HW215729   0.623   3.191   7.294  2.1876  1.3380  0.2709
 1424SOL     OW15730   4.376   0.187   9.235  0.1532  0.0055 -0.4207
 1424SOL    HW115731   4.294   0.158   9.275 -0.0597  0.3865 -0.5821
 1424SOL    HW215732   4.430   0.108   9.240  1.2964  0.9778  2.7542
 1425SOL     OW15733   4.274   2.640   8.951 -0.7671 -0.4855  0.1117
 1425SOL    HW115734   4.286   2.579   9.024 -1.7013 -0.5446  0.2149
 1425SOL    HW215735   4.285   2.724   8.996 -2.0605  0.3985 -1.2285
 1426SOL     OW15736   3.084   0.859   9.660 -0.2236  0.2433  0.2471
 1426SOL    HW115737   3.041   0.796   9.717  2.3299 -0.5073  1.3386
 1426SOL    HW215738   3.166   0.810   9.655 -1.0598 -1.1733  0.4555
 1427SOL     OW15739   2.035   2.847   5.982 -0.5653  0.9084 -1.0491
 1427SOL    HW115740   2.013   2.937   6.008 -1.8706 -0.1345  1.3844
 1427SOL    HW215741   1.969   2.800   6.033 -1.1695 -0.5051 -3.1801
 1428SOL     OW15742   0.306   1.322   9.147  0.1497 -0.3613  0.2519
 1428SOL    HW115743   0.385   1.281   9.111  0.2121 -1.5540  1.7530
 1428SOL    HW215744   0.293   1.283   9.233 -1.7403 -2.9778 -1.2018
 1429SOL     OW15745   3.687   2.543   8.792 -0.5234 -1.2828 -0.2141
 1429SOL    HW115746   3.710   2.585   8.709  0.7738 -0.8950  0.3441
 1429SOL    HW215747   3.594   2.522   8.783 -0.6992 -1.0572  1.2377
 1430SOL     OW15748   2.462   4.408   0.769 -0.2509  1.0506  0.5316
 1430SOL    HW115749   2.485   4.501   0.760  2.7297 -0.0896 -4.0029
 1430SOL    HW215750   2.481   4.371   0.682 -0.6076 -0.7148  1.2039
 1431SOL     OW15751   2.258   0.214   8.950  0.8633  0.1967  0.2232
 1431SOL    HW115752   2.270   0.305   8.979  0.1338  1.2397 -2.7582
 1431SOL    HW215753   2.163   0.208   8.954  0.7991  1.0041 -0.1792
 1432SOL     OW15754   2.628   3.778   5.574  0.2442 -0.4797 -0.2488
 1432SOL    HW115755   2.706   3.726   5.590  1.1571  1.6383  2.1827
 1432SOL    HW215756   2.652   3.823   5.493  1.8355  1.6009  1.3725
 1433SOL     OW15757   3.906   2.386   8.922 -0.3811  0.0624  0.1389
 1433SOL    HW115758   3.820   2.427   8.918 -0.0897  0.9485  3.3059
 1433SOL    HW215759   3.961   2.444   8.868 -0.2616  0.6096  0.8511
 1434SOL     OW15760   3.630   3.157  15.303 -0.1414 -0.2668 -0.0620
 1434SOL    HW115761   3.725   3.143  15.303 -0.2340 -0.9034  3.7177
 1434SOL    HW215762   3.632   3.237  15.251 -1.6312 -0.2831 -0.1505
 1435SOL     OW15763   2.624   4.220  12.387  0.2645 -0.3965  0.1410
 1435SOL    HW115764   2.700   4.177  12.427 -0.2502 -1.2676  0.1860
 1435SOL    HW215765   2.639   4.310  12.418 -1.1810 -0.7779  1.9467
 1436SOL     OW15766   4.058   2.688   2.252 -0.6106 -0.1558 -0.0348
 1436SOL    HW115767   4.140   2.653   2.215 -0.8167 -3.0059  2.2096
 1436SOL    HW215768   3.999   2.613   2.250 -0.1841 -0.4832 -0.4660
 1437SOL     OW15769   2.717   3.856   3.302 -0.4258 -0.5652  0.0656
 1437SOL    HW115770   2.722   3.848   3.207 -1.4920  0.8636 -0.1238
 1437SOL    HW215771   2.629   3.892   3.315 -0.2462 -0.2206  0.3644
 1438SOL     OW15772   1.996   3.559   7.036  0.5403  0.0054  0.2194
 1438SOL    HW115773   1.970   3.472   7.065 -3.1212  1.1914  0.4641
 1438SOL    HW215774   2.000   3.596   7.124 -1.5342 -1.5346  0.9802
 1439SOL     OW15775   1.185   2.685   1.730  0.0287  0.7650  0.4863
 1439SOL    HW115776   1.183   2.655   1.639  2.1881  0.2432  0.6255
 1439SOL    HW215777   1.275   2.682   1.760  0.1402 -0.3116  0.0463
 1440SOL     OW15778   1.610   4.448   3.113  0.5013 -0.6528  0.1902
 1440SOL    HW115779   1.619   4.503   3.035 -1.4921  0.1645  0.5318
 1440SOL    HW215780   1.572   4.372   3.068 -0.7077 -0.8173  1.5117
 1441SOL     OW15781   0.661   4.080   8.849  0.4368 -0.1637  0.3599
 1441SOL    HW115782   0.604   4.128   8.909 -0.1650  0.7128 -0.9039
 1441SOL    HW215783   0.745   4.127   8.859  2.4620 -3.4625 -1.1229
 1442SOL     OW15784   4.131   4.671  11.059  0.3430  0.6223 -0.2144
 1442SOL    HW115785   4.110   4.695  10.969  1.9071 -1.7740 -1.2391
 1442SOL    HW215786   4.125   4.576  11.051 -1.8010  0.9251 -1.9647
 1443SOL     OW15787   4.518   3.676   8.509  0.7578  0.0127 -0.2137
 1443SOL    HW115788   4.557   3.597   8.472  1.7604  0.6442 -0.5148
 1443SOL    HW215789   4.484   3.631   8.586  2.5806 -0.7461  0.1387
 1444SOL     OW15790   2.001   2.164   8.575 -0.7580 -0.0447  0.1264
 1444SOL    HW115791   2.068   2.210   8.524  1.7790 -0.3721  3.1583
 1444SOL    HW215792   1.961   2.111   8.505  2.4896 -0.5807 -1.3496
 1445SOL     OW15793   2.919   1.509   0.648  0.2969 -0.3900 -0.4756
 1445SOL    HW115794   2.858   1.523   0.720 -0.8705  1.0044 -1.7250
 1445SOL    HW215795   2.863   1.549   0.581  1.0495 -1.7456 -1.9116
 1446SOL     OW15796   1.899   3.436   8.582  0.4388 -0.5422 -0.1885
 1446SOL    HW115797   1.926   3.451   8.673 -0.1433 -0.2482 -0.0592
 1446SOL    HW215798   1.886   3.522   8.543 -1.2534 -0.4825  0.4885
 1447SOL     OW15799   2.390   0.117   7.541  0.0034 -0.4203 -0.6203
 1447SOL    HW115800   2.463   0.157   7.494  1.4473 -1.3534  0.8092
 1447SOL    HW215801   2.432   0.039   7.579  0.3083 -0.0251 -0.1474
 1448SOL     OW15802   4.022   0.061   4.782 -0.3791  0.0299  0.0782
 1448SOL    HW115803   4.074   0.101   4.712 -0.0493 -0.8882 -0.1891
 1448SOL    HW215804   4.088   0.050   4.851  0.3337 -0.5982 -0.7075
 1449SOL     OW15805   2.632   2.670   6.478  0.1361 -0.6238  0.9434
 1449SOL    HW115806   2.554   2.657   6.531 -0.5050 -1.0412 -0.0999
 1449SOL    HW215807   2.699   2.687   6.545  0.6057  0.2244  0.2592
 1450SOL     OW15808   3.092   4.537  11.748  0.0992  0.2856 -0.1374
 1450SOL    HW115809   3.085   4.490  11.664 -1.1057 -0.5091  0.4028
 1450SOL    HW215810   2.999   4.545  11.769  0.2961  0.3477  0.6921
 1451SOL     OW15811   3.880   0.110  10.937 -0.1217 -0.2148  0.0737
 1451SOL    HW115812   3.895   0.143  11.025  1.5966 -0.4537 -0.1336
 1451SOL    HW215813   3.785   0.119  10.931 -0.2440 -0.3560  1.8193
 1452SOL     OW15814   3.662   0.573   4.379 -0.8056 -0.3385  0.1864
 1452SOL    HW115815   3.582   0.537   4.418 -0.7355  0.8726  1.4396
 1452SOL    HW215816   3.731   0.527   4.427  1.1675  2.5710  0.1328
 1453SOL     OW15817   4.096   1.626  13.469 -0.9571  0.2287  0.5377
 1453SOL    HW115818   4.095   1.616  13.374  0.4616 -0.0311  0.5428
 1453SOL    HW215819   4.155   1.553  13.490  0.0253  0.2281 -2.2302
 1454SOL     OW15820   3.247   4.321  11.001 -0.0511  1.0571  0.2531
 1454SOL    HW115821   3.329   4.278  11.026 -0.4983  0.7972  1.2553
 1454SOL    HW215822   3.283   4.358  10.920 -0.5561 -0.6759 -0.7659
 1455SOL     OW15823   0.931   1.764   9.695 -0.6802  0.3274  0.1654
 1455SOL    HW115824   0.914   1.742   9.786 -0.7717 -0.8065 -0.1128
 1455SOL    HW215825   0.846   1.773   9.653 -0.2518 -0.4755 -0.8800
 1456SOL     OW15826   2.258   2.861   8.258 -0.3371 -0.1391  0.0403
 1456SOL    HW115827   2.162   2.853   8.255 -0.2853 -0.6920 -0.0616
 1456SOL    HW215828   2.280   2.815   8.177 -0.4464 -0.1340  0.0078
 1457SOL     OW15829   4.715   2.378  13.379  0.1213 -0.0271 -0.1976
 1457SOL    HW115830   4.623   2.401  13.393 -0.5302 -2.4117 -0.4434
 1457SOL    HW215831   0.027   2.376  13.468  1.6433  1.9816 -0.7528
 1458SOL     OW15832   3.001   2.217  14.372  0.2084 -0.4571 -0.5411
 1458SOL    HW115833   3.088   2.257  14.378  0.1286 -0.3401 -0.1845
 1458SOL    HW215834   2.997   2.158  14.447  2.2370 -0.7872 -0.6839
 1459SOL     OW15835   3.309   0.263  16.447  0.0288  0.6342  0.1962
 1459SOL    HW115836   3.337   0.311  16.525 -0.2531  0.1424  0.6004
 1459SOL    HW215837   3.383   0.275  16.387 -1.4188  2.5174 -1.2214
 1460SOL     OW15838   0.693   0.926   7.879  0.2776 -0.3827  0.3552
 1460SOL    HW115839   0.751   0.901   7.951  1.2402  0.3776 -0.1515
 1460SOL    HW215840   0.632   0.980   7.929 -2.0518 -1.5683 -1.2163
 1461SOL     OW15841   1.679   1.451   4.485  0.2814  0.0180  0.3366
 1461SOL    HW115842   1.689   1.534   4.437  2.5433 -0.4228  0.0427
 1461SOL    HW215843   1.615   1.476   4.551  1.0492 -0.7775  1.3767
 1462SOL     OW15844   0.526   3.126   2.555  0.5259 -0.2205  0.1074
 1462SOL    HW115845   0.569   3.104   2.637  0.6041  0.5947  0.2914
 1462SOL    HW215846   0.483   3.041   2.549 -3.6380  1.7318  1.3323
 1463SOL     OW15847   2.034   3.743  14.997  0.2621 -0.7947 -0.3850
 1463SOL    HW115848   2.005   3.771  14.910 -0.9757 -1.1438 -0.0745
 1463SOL    HW215849   2.128   3.755  14.979 -0.0763  2.2679 -0.1045
 1464SOL     OW15850   4.560   1.233   7.419  0.1373  0.4675  0.2622
 1464SOL    HW115851   4.616   1.183   7.478 -0.6205 -0.3638  0.2748
 1464SOL    HW215852   4.585   1.318   7.454  2.1328 -0.0779  0.1777
 1465SOL     OW15853   2.176   2.943  11.662 -0.0855 -0.1867 -0.4641
 1465SOL    HW115854   2.121   2.990  11.598  4.3554  4.1865 -1.0612
 1465SOL    HW215855   2.115   2.940  11.736 -1.0909 -0.1845 -1.2899
 1466SOL     OW15856   1.745   1.457  13.517 -0.4007  0.5245 -0.5159
 1466SOL    HW115857   1.723   1.462  13.610 -0.6413 -0.5879 -0.5140
 1466SOL    HW215858   1.681   1.390  13.493  0.7868 -0.6863 -0.3154
 1467SOL     OW15859   0.252   1.271  11.741  0.7403  0.1047 -0.2545
 1467SOL    HW115860   0.220   1.181  11.737  0.7189  0.0603  0.9014
 1467SOL    HW215861   0.235   1.293  11.832 -0.0252 -0.3612 -0.2851
 1468SOL     OW15862   0.792   2.085   8.506  0.0035 -0.2053 -0.0591
 1468SOL    HW115863   0.833   1.998   8.500 -0.4713 -0.4712  0.5071
 1468SOL    HW215864   0.714   2.080   8.451  1.3487 -0.0999 -1.9630
 1469SOL     OW15865   1.540   2.717   9.119  0.1888  0.0181  0.3821
 1469SOL    HW115866   1.468   2.660   9.146  0.0111 -0.4749 -1.1855
 1469SOL    HW215867   1.505   2.726   9.031  0.8347 -0.6616  0.0604
 1470SOL     OW15868   2.582   4.532   5.216 -0.0257 -0.1881  0.4509
 1470SOL    HW115869   2.545   4.499   5.298 -0.2183  0.6441  0.7009
 1470SOL    HW215870   2.672   4.540   5.249  0.0544 -0.2675  0.2505
 1471SOL     OW15871   3.227   0.232   6.890 -0.5941  0.3147 -0.4192
 1471SOL    HW115872   3.201   0.147   6.925  2.0780  0.0061  0.8062
 1471SOL    HW215873   3.263   0.269   6.971  0.5724  0.7455 -1.1443
 1472SOL     OW15874   3.084   2.383   3.068 -0.2308 -0.4819  0.2354
 1472SOL    HW115875   3.167   2.337   3.057 -0.3104 -0.2588 -1.2628
 1472SOL    HW215876   3.019   2.321   3.034 -0.7324 -1.0763  2.2744
 1473SOL     OW15877   0.526   0.511   2.492  0.0123  0.5226  0.3573
 1473SOL    HW115878   0.473   0.557   2.427  0.8189 -0.7428 -1.2052
 1473SOL    HW215879   0.587   0.576   2.528  0.2062  2.0250 -2.6799
 1474SOL     OW15880   1.453   1.970  11.049  0.0611 -0.5443  0.1055
 1474SOL    HW115881   1.402   2.030  11.103 -2.5709 -0.5882 -2.3507
 1474SOL    HW215882   1.478   2.028  10.977 -0.4655  1.4852  1.5615
 1475SOL     OW15883   1.668   0.577  16.832 -0.1145 -0.2586  0.3345
 1475SOL    HW115884   1.664   0.485  16.857 -1.8299 -0.4856 -0.7344
 1475SOL    HW215885   1.688   0.616  16.918 -0.1702  1.6286 -0.5036
 1476SOL     OW15886   2.624   4.252   7.473 -0.7755 -0.3796  0.2835
 1476SOL    HW115887   2.676   4.261   7.553  0.7683  0.8791 -0.8605
 1476SOL    HW215888   2.664   4.173   7.436  2.3636  1.2257  0.2586
 1477SOL     OW15889   1.955   2.999   6.395 -0.5349 -0.1095  0.2884
 1477SOL    HW115890   1.989   2.966   6.477  1.3823 -1.8446 -1.2187
 1477SOL    HW215891   1.868   2.959   6.395 -0.4177 -0.3645  0.1293
 1478SOL     OW15892   2.384   1.127   7.095 -0.6457  0.0964 -0.0971
 1478SOL    HW115893   2.352   1.042   7.066  1.2117 -0.6769  0.1262
 1478SOL    HW215894   2.352   1.120   7.185  3.0584 -0.0895  1.2049
 1479SOL     OW15895   3.831   2.061   6.872 -0.3579 -0.0368 -0.3323
 1479SOL    HW115896   3.761   1.995   6.874 -1.4097  1.1325  1.3170
 1479SOL    HW215897   3.793   2.128   6.816 -0.9214 -0.3507 -0.3222
 1480SOL     OW15898   0.071   2.578  16.604  0.0036  0.3731  0.2990
 1480SOL    HW115899   4.714   2.612  16.562 -1.1524  0.3956  2.5002
 1480SOL    HW215900   0.124   2.657  16.618  1.0067 -0.7969  3.1409
 1481SOL     OW15901   4.321   2.436   3.721  0.2204 -0.6514  0.5270
 1481SOL    HW115902   4.272   2.517   3.733 -0.7094 -1.0593 -0.5654
 1481SOL    HW215903   4.305   2.399   3.808 -1.2992  2.9267  1.7789
 1482SOL     OW15904   2.100   2.720   4.646 -0.5014  0.1586  0.2069
 1482SOL    HW115905   2.088   2.738   4.553 -1.7024  0.6095  0.4470
 1482SOL    HW215906   2.154   2.642   4.635  0.9642  1.2350 -0.2388
 1483SOL     OW15907   3.191   1.479   7.137 -0.5339  0.2134 -0.1234
 1483SOL    HW115908   3.235   1.479   7.222 -1.9530  1.5962  0.6061
 1483SOL    HW215909   3.144   1.396   7.132  0.6496 -0.5754  1.8035
 1484SOL     OW15910   0.631   2.787   7.629  0.1229  0.6375  0.0229
 1484SOL    HW115911   0.716   2.773   7.671 -0.8023 -1.8620  1.0408
 1484SOL    HW215912   0.614   2.697   7.602 -1.1815  0.7976  0.3000
 1485SOL     OW15913   3.382   3.343   5.893 -0.1851 -0.2909  0.1862
 1485SOL    HW115914   3.444   3.338   5.821 -0.2831 -0.1540  0.0934
 1485SOL    HW215915   3.434   3.397   5.952 -0.9369  1.1487 -0.4769
 1486SOL     OW15916   0.699   2.456   8.863 -0.3558 -0.3221  0.2146
 1486SOL    HW115917   0.640   2.418   8.797 -0.4495  0.9019 -0.4119
 1486SOL    HW215918   0.665   2.542   8.885 -0.2767 -0.3384  0.3995
 1487SOL     OW15919   2.711   0.446   1.768 -0.2792 -0.1812  0.0201
 1487SOL    HW115920   2.725   0.491   1.685  0.3557  2.9661  1.8286
 1487SOL    HW215921   2.746   0.506   1.834  0.7074 -0.8707  0.1123
 1488SOL     OW15922   3.852   0.014   9.294  1.3654 -0.0425  0.1310
 1488SOL    HW115923   3.820   4.671   9.233 -1.3463  0.6628  0.8290
 1488SOL    HW215924   3.767   0.038   9.331  0.8064  1.1246 -1.8765
 1489SOL     OW15925   3.425   3.848  15.228 -0.2029 -0.1990  0.4808
 1489SOL    HW115926   3.494   3.787  15.204 -0.4653  0.4791 -1.9989
 1489SOL    HW215927   3.360   3.824  15.162 -0.4083  1.0217  0.2385
 1490SOL     OW15928   1.489   0.019   7.813  0.2980  0.6927  0.0438
 1490SOL    HW115929   1.546   4.715   7.886 -0.2251 -0.3815  0.0674
 1490SOL    HW215930   1.476   0.111   7.833  0.2030  0.4517  1.0824
 1491SOL     OW15931   3.940   1.110  16.029 -0.4772  0.7922 -0.2179
 1491SOL    HW115932   4.010   1.083  15.970  0.0429  0.3884  0.5884
 1491SOL    HW215933   3.870   1.056  15.992  1.0270 -0.6443 -0.9732
 1492SOL     OW15934   3.860   0.157   5.350  0.0061  0.0847  0.2921
 1492SOL    HW115935   3.936   0.114   5.310  0.0648 -1.1306  1.7223
 1492SOL    HW215936   3.834   0.222   5.284 -1.5015 -1.8406 -1.0340
 1493SOL     OW15937   3.877   3.802  15.819 -0.5725 -0.8228  0.2297
 1493SOL    HW115938   3.921   3.736  15.873 -0.5538 -0.6913  0.3742
 1493SOL    HW215939   3.948   3.823  15.759 -0.8572 -2.3008 -0.6205
 1494SOL     OW15940   3.438   0.974   9.053 -0.1590  0.1535  0.6686
 1494SOL    HW115941   3.516   0.928   9.021 -1.2456 -0.5750 -0.9772
 1494SOL    HW215942   3.477   0.997   9.137  0.3587  0.8865  0.2331
 1495SOL     OW15943   4.127   0.667   7.533  0.1336  0.6575  0.7832
 1495SOL    HW115944   4.165   0.720   7.603  0.5756  2.5959 -0.9282
 1495SOL    HW215945   4.182   0.697   7.461  0.7288 -1.7412  0.2449
 1496SOL     OW15946   0.803   0.715   4.405  0.2957 -0.4371 -0.1657
 1496SOL    HW115947   0.850   0.656   4.346 -0.0922 -0.0687 -0.8415
 1496SOL    HW215948   0.835   0.802   4.381  2.0322 -0.9771  0.2150
 1497SOL     OW15949   1.275   4.009   3.808  0.1877  0.0038  0.2905
 1497SOL    HW115950   1.259   3.916   3.794  0.3668 -0.0995  0.7553
 1497SOL    HW215951   1.353   4.013   3.753 -1.1190 -0.9642 -1.6317
 1498SOL     OW15952   0.101   2.994   2.393 -0.0018 -0.1393  0.0455
 1498SOL    HW115953   0.188   2.953   2.383  0.6816  0.7491  2.2464
 1498SOL    HW215954   0.090   2.986   2.488 -1.0839  1.7220  0.0628
 1499SOL     OW15955   0.260   2.739   6.398 -0.4458 -0.0508  0.5510
 1499SOL    HW115956   0.285   2.753   6.489 -1.2108  1.1891  0.5698
 1499SOL    HW215957   0.165   2.751   6.401 -0.2332  1.4576  1.7123
 1500SOL     OW15958   2.361   0.184  11.243  0.1357 -0.4053  0.3360
 1500SOL    HW115959   2.413   0.139  11.176 -1.1133  0.1076 -0.9908
 1500SOL    HW215960   2.365   0.269  11.199 -2.0575  0.4583  1.8056
 1501SOL     OW15961   3.972   2.383  13.198  0.9110 -0.1252 -0.2984
 1501SOL    HW115962   4.053   2.411  13.155  1.8595 -1.4988  0.5725
 1501SOL    HW215963   4.011   2.317  13.256 -1.4423 -1.1130  0.1588
 1502SOL     OW15964   2.092   3.627   2.356  0.3584  0.0375  0.3553
 1502SOL    HW115965   2.110   3.679   2.435  2.6308  0.1495 -0.2447
 1502SOL    HW215966   1.997   3.620   2.365  0.6819 -1.3468  2.7548
 1503SOL     OW15967   0.230   0.411   4.899  0.5679 -0.0569 -0.0518
 1503SOL    HW115968   0.243   0.506   4.901  2.8499 -0.3412 -1.4446
 1503SOL    HW215969   0.318   0.386   4.926  0.5725  1.2290  1.0925
 1504SOL     OW15970   3.030   1.825   7.151  0.0830 -0.2810 -0.2494
 1504SOL    HW115971   3.123   1.801   7.155 -0.3353 -2.0355 -0.9884
 1504SOL    HW215972   2.996   1.775   7.076  2.1847 -1.4332 -0.4312
 1505SOL     OW15973   4.592   0.607   3.068 -0.0052 -0.1738  0.2920
 1505SOL    HW115974   4.572   0.529   3.016  1.5656  0.3525 -1.1152
 1505SOL    HW215975   4.587   0.674   3.000  1.5902  0.5801  0.9460
 1506SOL     OW15976   3.809   4.499  16.426  0.1962  0.4988 -0.5878
 1506SOL    HW115977   3.796   4.410  16.395 -1.7210 -0.1365  2.0331
 1506SOL    HW215978   3.749   4.514  16.500 -1.1753  0.8347 -1.7694
 1507SOL     OW15979   0.898   2.604  14.056  0.2933  0.0342  0.1168
 1507SOL    HW115980   0.873   2.523  14.013 -1.0150  0.0896  0.7651
 1507SOL    HW215981   0.811   2.630  14.088  0.2390  1.7956 -1.4078
 1508SOL     OW15982   1.301   0.441   2.023 -0.4497  0.4104 -0.2042
 1508SOL    HW115983   1.300   0.388   2.103 -0.5842 -1.0600 -1.1833
 1508SOL    HW215984   1.286   0.369   1.961 -2.6022  0.2387  0.4976
 1509SOL     OW15985   0.120   3.306   7.904 -0.2257 -0.6515 -0.2097
 1509SOL    HW115986   0.163   3.390   7.888 -0.6051 -0.7451 -1.7593
 1509SOL    HW215987   0.176   3.276   7.975  0.7042  2.8079  0.5119
 1510SOL     OW15988   1.900   3.073   5.090 -0.1213 -0.2782  0.1884
 1510SOL    HW115989   1.947   2.994   5.117 -0.0422 -0.8999 -1.7861
 1510SOL    HW215990   1.816   3.030   5.070  0.3997 -2.1803  2.0623
 1511SOL     OW15991   2.610   4.117   0.936  0.4086 -0.5917  0.1403
 1511SOL    HW115992   2.539   4.057   0.913  0.0399 -0.6475  1.4248
 1511SOL    HW215993   2.680   4.055   0.955 -0.0715 -1.5528 -1.2589
 1512SOL     OW15994   0.251   3.500  14.078 -0.2229  0.5780 -0.4090
 1512SOL    HW115995   0.169   3.503  14.028 -0.1663  1.1491 -0.4722
 1512SOL    HW215996   0.285   3.583  14.043 -0.5162  1.4063  1.2612
 1513SOL     OW15997   2.609   4.255  11.967  0.4535 -0.2232  0.4875
 1513SOL    HW115998   2.515   4.268  11.972  0.4598 -0.0277  0.0677
 1513SOL    HW215999   2.647   4.342  11.960 -1.2779  0.4377 -0.5989
 1514SOL     OW16000   0.880   4.252   8.635  0.2531 -0.0873 -0.0880
 1514SOL    HW116001   0.889   4.219   8.725  2.2143  0.2036 -0.1779
 1514SOL    HW216002   0.974   4.268   8.629  0.4500 -1.2908 -0.3637
 1515SOL     OW16003   2.395   4.356   8.053 -0.4218  0.6112  0.3932
 1515SOL    HW116004   2.430   4.395   8.133  2.1634 -0.8687 -0.0115
 1515SOL    HW216005   2.318   4.307   8.084 -0.4417  0.7139  0.5061
 1516SOL     OW16006   1.504   3.999   1.985  0.1936  0.2113 -0.8478
 1516SOL    HW116007   1.476   4.086   1.957 -0.6961  0.6587  1.4495
 1516SOL    HW216008   1.417   3.963   1.966 -0.4447  0.9944  0.5697
 1517SOL     OW16009   1.082   3.203   5.731  0.9233 -0.5448  0.1595
 1517SOL    HW116010   1.075   3.296   5.706 -1.1614 -0.1147  2.2546
 1517SOL    HW216011   1.015   3.161   5.677 -0.3182  0.3363  0.9842
 1518SOL     OW16012   0.983   0.560   3.001 -0.0208  0.0759  0.5113
 1518SOL    HW116013   0.902   0.585   3.045 -1.6071 -1.1275 -1.7539
 1518SOL    HW216014   1.000   0.471   3.033  1.0796  0.3332  0.6274
 1519SOL     OW16015   2.314   1.315   4.733  0.0581 -0.0957 -0.4115
 1519SOL    HW116016   2.317   1.372   4.656 -0.4152  0.6482  0.1264
 1519SOL    HW216017   2.345   1.379   4.796  0.6970 -1.6273  0.8152
 1520SOL     OW16018   2.125   1.553   6.744  0.1170 -0.2816 -0.0637
 1520SOL    HW116019   2.035   1.531   6.721 -0.0183  1.1194 -0.9050
 1520SOL    HW216020   2.166   1.475   6.780  4.1317  1.3126 -1.1501
 1521SOL     OW16021   2.625   2.403   9.666  0.2537  0.2792  0.1478
 1521SOL    HW116022   2.610   2.308   9.658  2.1808 -0.2356  2.5301
 1521SOL    HW216023   2.579   2.409   9.750  0.8129 -1.5974  0.6017
 1522SOL     OW16024   0.109   2.159   3.136 -0.0200 -0.1157  0.1837
 1522SOL    HW116025   0.096   2.186   3.227  2.4862 -1.3723  0.9050
 1522SOL    HW216026   0.016   2.158   3.113  0.2427 -0.3864 -0.8757
 1523SOL     OW16027   0.436   1.280  16.205  0.1171 -0.2950  0.1806
 1523SOL    HW116028   0.529   1.296  16.221  0.0595  0.2911 -0.0653
 1523SOL    HW216029   0.403   1.251  16.290 -1.1693 -0.3220 -0.3202
 1524SOL     OW16030   3.045   3.075   7.407 -0.0643  0.5681  0.1737
 1524SOL    HW116031   3.085   3.077   7.320  1.1084 -1.0492  0.6696
 1524SOL    HW216032   2.966   3.120   7.378 -0.6072 -1.9883 -2.2706
 1525SOL     OW16033   1.098   0.894   2.421 -0.0242  0.5086 -0.1919
 1525SOL    HW116034   1.017   0.910   2.371 -0.0343  0.4729 -0.1874
 1525SOL    HW216035   1.173   0.872   2.366 -0.3042 -1.8273  0.3501
 1526SOL     OW16036   1.663   1.731   7.691  0.2960  0.0928  0.2359
 1526SOL    HW116037   1.682   1.710   7.782 -2.3085 -0.1383  0.7313
 1526SOL    HW216038   1.635   1.822   7.686  0.1550  0.2043  2.8430
 1527SOL     OW16039   1.721   2.953   1.987  0.3477 -0.0889  0.0869
 1527SOL    HW116040   1.733   3.044   1.963 -0.1921  0.1955  0.8929
 1527SOL    HW216041   1.630   2.954   2.019  0.4207  0.2170  0.2783
 1528SOL     OW16042   2.420   3.940   0.862 -0.6832 -0.0694 -0.2346
 1528SOL    HW116043   2.474   3.899   0.794 -1.6348  0.7538 -1.4785
 1528SOL    HW216044   2.384   3.866   0.911 -0.1022 -0.2456 -0.0808
 1529SOL     OW16045   0.103   0.945   8.778 -0.3113 -0.2015  0.2489
 1529SOL    HW116046   0.172   0.905   8.831  1.4765 -0.3117 -2.1369
 1529SOL    HW216047   0.149   1.019   8.739 -0.8822  1.2874  2.4550
 1530SOL     OW16048   0.284   2.807   3.252 -0.1485 -0.2650 -0.2108
 1530SOL    HW116049   0.372   2.777   3.230  0.2302  0.2904  0.5309
 1530SOL    HW216050   0.291   2.892   3.208  0.9287  0.3278  1.1240
 1531SOL     OW16051   4.081   2.897   6.076 -0.1193 -0.1257  0.0877
 1531SOL    HW116052   4.023   2.821   6.073  1.3837 -1.3520  2.3670
 1531SOL    HW216053   4.026   2.974   6.083 -0.5061 -0.4485  0.6372
 1532SOL     OW16054   3.369   1.063   8.587  0.2247 -0.8502  0.1437
 1532SOL    HW116055   3.397   1.098   8.671  1.2185  0.0701 -0.5838
 1532SOL    HW216056   3.275   1.081   8.597  0.8323  0.7377  2.8226
 1533SOL     OW16057   1.327   1.737   4.977 -0.5729  0.2410  0.1737
 1533SOL    HW116058   1.396   1.798   5.002  0.8290  0.3841 -4.0601
 1533SOL    HW216059   1.315   1.666   5.041  3.5566 -1.7024 -1.2395
 1534SOL     OW16060   2.903   4.684  11.086 -0.7117  0.3009 -0.4031
 1534SOL    HW116061   2.984   0.010  11.072 -0.2444 -0.3786 -0.0203
 1534SOL    HW216062   2.927   4.593  11.105 -1.9739  0.1893  0.6227
 1535SOL     OW16063   4.033   0.538   0.604 -0.8292 -0.0240  0.3288
 1535SOL    HW116064   4.086   0.618   0.612 -2.1803  0.9284 -0.1732
 1535SOL    HW216065   4.099   0.472   0.587 -1.6434 -0.9239  0.6353
 1536SOL     OW16066   1.422   1.409   6.823  0.4799  0.2590 -0.1946
 1536SOL    HW116067   1.459   1.474   6.762 -0.3504  0.3423 -0.6038
 1536SOL    HW216068   1.386   1.347   6.760 -0.6216  0.4604  0.2448
 1537SOL     OW16069   1.449   3.468   8.207  0.1402  0.3372  0.0448
 1537SOL    HW116070   1.497   3.488   8.127  1.2505 -1.5490  0.2379
 1537SOL    HW216071   1.435   3.559   8.235  0.8571  0.2036  0.8400
 1538SOL     OW16072   4.435   2.146   4.682  0.3457 -0.1000  0.2344
 1538SOL    HW116073   4.409   2.055   4.695 -0.3522 -0.1664 -1.5917
 1538SOL    HW216074   4.406   2.185   4.765 -0.1534 -0.1947  0.1064
 1539SOL     OW16075   3.222   3.362   6.259 -0.1046 -0.3774  0.7302
 1539SOL    HW116076   3.300   3.332   6.306  0.9092  0.4893 -0.4152
 1539SOL    HW216077   3.252   3.418   6.188  1.4269 -0.9304  0.9364
 1540SOL     OW16078   1.720   0.263   0.294  0.5222 -0.2243  0.7232
 1540SOL    HW116079   1.742   0.350   0.262 -0.4382  0.2410  1.3422
 1540SOL    HW216080   1.804   0.222   0.315 -0.7943 -2.6484  1.3535
 1541SOL     OW16081   4.176   4.603   0.527  0.3473 -0.1445  0.7056
 1541SOL    HW116082   4.196   4.514   0.498 -2.1356  0.1587 -1.9979
 1541SOL    HW216083   4.217   4.649   0.453  2.2632 -2.5451  0.2771
 1542SOL     OW16084   3.623   4.162  14.661  0.0192  0.3024  0.2807
 1542SOL    HW116085   3.702   4.110  14.646  0.5418  0.5820  2.1111
 1542SOL    HW216086   3.556   4.093  14.654 -0.7847  1.1468 -0.3317
 1543SOL     OW16087   0.173   2.745  12.399 -0.0101  0.2053  0.4504
 1543SOL    HW116088   0.229   2.779  12.468 -0.1329 -2.6857  1.9333
 1543SOL    HW216089   0.211   2.782  12.319  0.3038 -1.1648 -0.0239
 1544SOL     OW16090   0.952   3.506   7.724  0.3217  0.2657  0.4563
 1544SOL    HW116091   0.988   3.582   7.771  1.5213 -0.0399  0.0225
 1544SOL    HW216092   0.859   3.510   7.745  0.5943 -0.3809  1.7855
 1545SOL     OW16093   1.702   4.014   2.998 -0.4328  0.0122 -0.3326
 1545SOL    HW116094   1.792   4.046   2.990  0.3488 -1.3750  2.9225
 1545SOL    HW216095   1.721   3.922   2.985 -1.2485 -0.2676  0.4163
 1546SOL     OW16096   3.424   3.044   5.556  0.5364  0.6072 -0.2148
 1546SOL    HW116097   3.347   3.095   5.582  0.4912 -0.1233  1.0755
 1546SOL    HW216098   3.394   3.009   5.473 -0.5752  2.3692 -0.5661
 1547SOL     OW16099   3.792   4.537  15.533 -0.2133 -0.1381 -0.2365
 1547SOL    HW116100   3.771   4.608  15.472 -0.1514  0.5797  0.5658
 1547SOL    HW216101   3.880   4.568  15.551  0.1321 -2.5765  2.3744
 1548SOL     OW16102   0.154   1.413   6.097 -0.0248  0.2361 -0.2035
 1548SOL    HW116103   0.195   1.394   6.182 -0.1574  1.1645  0.0609
 1548SOL    HW216104   0.221   1.470   6.059 -1.3862  2.3011  0.5414
 1549SOL     OW16105   2.638   2.213   4.317  0.1108  0.0286 -0.3120
 1549SOL    HW116106   2.632   2.309   4.320 -0.8724 -0.1263  2.0808
 1549SOL    HW216107   2.653   2.182   4.406 -2.7030 -1.4018 -0.3334
 1550SOL     OW16108   1.210   3.053   3.646 -0.5048 -0.1359 -0.2283
 1550SOL    HW116109   1.261   3.107   3.706  0.2671 -0.5469 -0.5000
 1550SOL    HW216110   1.130   3.105   3.643 -0.8303 -0.6490 -0.4602
 1551SOL     OW16111   0.034   2.802  16.392  0.2511  0.8367  0.5331
 1551SOL    HW116112   0.082   2.874  16.434  2.3768  0.1684 -0.7462
 1551SOL    HW216113   0.045   2.818  16.299 -1.2120  1.9856  0.5526
 1552SOL     OW16114   2.818   2.648  10.506  0.0390 -0.2401  0.1095
 1552SOL    HW116115   2.753   2.669  10.573 -0.1605  1.4377 -0.6029
 1552SOL    HW216116   2.899   2.626  10.552 -0.9265  1.1879  2.5247
 1553SOL     OW16117   3.387   4.565  13.845  0.5105  0.1475  0.1759
 1553SOL    HW116118   3.442   4.643  13.844  1.1514 -0.3122 -0.2539
 1553SOL    HW216119   3.402   4.520  13.928  0.6448 -1.2373 -0.6079
 1554SOL     OW16120   4.678   1.443   9.792 -0.1762 -0.1625  0.3518
 1554SOL    HW116121   0.041   1.486   9.793 -0.8473  1.1869 -0.2337
 1554SOL    HW216122   4.699   1.356   9.759  0.4099  0.1539 -0.1071
 1555SOL     OW16123   1.615   0.710  14.774  0.0308  0.0464  0.2002
 1555SOL    HW116124   1.667   0.685  14.851  1.2320  0.1910 -0.5730
 1555SOL    HW216125   1.593   0.618  14.756 -0.8299  0.3115 -0.1130
 1556SOL     OW16126   0.928   1.408   5.600  0.1356  0.2503  0.0396
 1556SOL    HW116127   0.886   1.407   5.686  2.2591  1.4871  1.0922
 1556SOL    HW216128   0.999   1.463   5.633  1.7744 -1.6986 -0.1811
 1557SOL     OW16129   3.688   3.376  12.183 -0.5648  0.1867  0.2934
 1557SOL    HW116130   3.620   3.308  12.182 -0.8435  0.4669  0.1278
 1557SOL    HW216131   3.756   3.318  12.217 -1.6429  0.0441  2.1842
 1558SOL     OW16132   1.869   3.571   9.536  0.0347  0.2049  0.5854
 1558SOL    HW116133   1.955   3.546   9.571  0.2992  1.7264  1.0060
 1558SOL    HW216134   1.813   3.512   9.586 -2.3577  1.0265 -1.1638
 1559SOL     OW16135   4.208   1.914   7.551 -0.0725 -0.3706 -0.2579
 1559SOL    HW116136   4.159   1.883   7.627  0.6597  1.8022  1.0917
 1559SOL    HW216137   4.138   1.961   7.506  0.3712  0.2988 -0.2412
 1560SOL     OW16138   2.606   3.912   4.867 -0.0774 -0.2006  0.5054
 1560SOL    HW116139   2.585   3.823   4.838  1.2594 -0.3713  0.0466
 1560SOL    HW216140   2.697   3.902   4.895  0.1518  2.2693  0.6860
 1561SOL     OW16141   4.040   3.244  10.583 -0.3760 -0.1213  0.7475
 1561SOL    HW116142   4.051   3.254  10.488  1.3199 -2.9378  0.6511
 1561SOL    HW216143   4.053   3.335  10.608  1.9553 -0.3974  0.5135
 1562SOL     OW16144   0.382   3.545   5.973 -0.1140 -0.5652  0.6110
 1562SOL    HW116145   0.413   3.466   6.017  2.4880  0.0469 -0.1508
 1562SOL    HW216146   0.457   3.602   5.989  1.0079 -2.3705  1.7519
 1563SOL     OW16147   1.887   1.673   5.671 -0.1796 -0.2137  0.1427
 1563SOL    HW116148   1.873   1.630   5.586 -0.4976  1.3913 -0.6223
 1563SOL    HW216149   1.967   1.723   5.653 -0.2549 -1.0000 -2.3529
 1564SOL     OW16150   1.175   4.249   8.613 -0.3434 -0.1647  0.6323
 1564SOL    HW116151   1.206   4.238   8.703 -0.9042 -1.0275  0.7222
 1564SOL    HW216152   1.256   4.258   8.563 -0.1582  0.0286  0.9740
 1565SOL     OW16153   0.625   0.850   8.815  0.0728 -0.5845 -0.6136
 1565SOL    HW116154   0.713   0.867   8.780 -0.0169  0.6141 -0.2562
 1565SOL    HW216155   0.567   0.885   8.747 -1.0591  0.0378  0.6601
 1566SOL     OW16156   1.428   0.098   1.352  0.5464 -0.1620  0.4199
 1566SOL    HW116157   1.432   0.005   1.331 -1.9332 -0.6480  2.0034
 1566SOL    HW216158   1.483   0.100   1.431 -0.1694  2.1442  0.8793
 1567SOL     OW16159   4.181   0.838   7.757 -0.1925  0.4145 -0.0310
 1567SOL    HW116160   4.143   0.782   7.824 -1.5530 -1.8043 -2.6249
 1567SOL    HW216161   4.247   0.892   7.800  0.5955 -0.2443 -0.4072
 1568SOL     OW16162   1.211   2.477  10.957 -0.1693 -0.0029  0.4496
 1568SOL    HW116163   1.262   2.480  11.039  2.1546  0.1741 -1.0089
 1568SOL    HW216164   1.236   2.562  10.920 -0.1665 -0.1289  0.1649
 1569SOL     OW16165   1.543   1.842   6.027  0.1469  0.2362 -0.1502
 1569SOL    HW116166   1.522   1.780   6.097  1.1633  0.9848  0.8328
 1569SOL    HW216167   1.509   1.793   5.953  1.0598  1.0366 -1.0934
 1570SOL     OW16168   2.299   1.378  14.518  0.0033 -0.3010  0.0645
 1570SOL    HW116169   2.374   1.436  14.503  1.1999 -2.0624 -0.8443
 1570SOL    HW216170   2.219   1.430  14.526 -0.4904 -0.9037 -0.9386
 1571SOL     OW16171   1.067   3.935   8.962 -0.9544  0.0629  0.7744
 1571SOL    HW116172   1.040   3.875   9.031 -1.5923 -1.5829 -0.8909
 1571SOL    HW216173   1.065   3.881   8.883 -0.1172  0.3681  0.5423
 1572SOL     OW16174   2.161   2.241   6.902  0.5292 -0.5040 -0.0200
 1572SOL    HW116175   2.182   2.148   6.913  0.2026 -0.5305  0.3703
 1572SOL    HW216176   2.235   2.272   6.954 -0.2016  0.8460  0.2069
 1573SOL     OW16177   2.013   4.130  14.645 -0.2294  0.4623  0.6007
 1573SOL    HW116178   1.971   4.158  14.564  0.0807  1.0261  0.6334
 1573SOL    HW216179   1.974   4.186  14.712 -1.6001 -0.5184  0.6160
 1574SOL     OW16180   2.343   0.811  14.034 -0.1964  0.1028  0.3538
 1574SOL    HW116181   2.369   0.817  14.126 -1.0631  0.8168  0.5507
 1574SOL    HW216182   2.425   0.767  14.009 -0.5969  0.6974 -2.0015
 1575SOL     OW16183   4.608   1.624   3.825  0.7617 -0.3028 -0.1352
 1575SOL    HW116184   4.591   1.560   3.756  2.3639 -0.0047 -0.8168
 1575SOL    HW216185   4.568   1.575   3.897  1.0781 -0.4100 -0.0312
 1576SOL     OW16186   2.964   4.066   6.168  0.4702 -0.0719 -0.3180
 1576SOL    HW116187   2.955   4.064   6.263  0.7832 -0.0633 -0.2889
 1576SOL    HW216188   2.870   4.065   6.150  0.8802  0.6174 -2.4250
 1577SOL     OW16189   4.271   0.509   2.525 -0.0227 -0.0239 -0.4489
 1577SOL    HW116190   4.189   0.544   2.561  1.7968  3.2453  0.5372
 1577SOL    HW216191   4.281   0.459   2.606 -0.8959 -0.4233 -0.5779
 1578SOL     OW16192   1.785   0.717   1.772 -0.5331 -0.3476 -0.2244
 1578SOL    HW116193   1.719   0.672   1.826 -1.2852  0.8200 -0.1831
 1578SOL    HW216194   1.725   0.756   1.709 -1.1643  1.3997  1.4732
 1579SOL     OW16195   3.293   2.910   4.738 -0.0509 -0.3335 -0.1962
 1579SOL    HW116196   3.208   2.907   4.693  1.0823 -0.4905 -2.3086
 1579SOL    HW216197   3.347   2.844   4.695  0.6043  0.1616 -0.1288
 1580SOL     OW16198   0.289   3.934   5.103  0.1748 -1.0431  0.0523
 1580SOL    HW116199   0.312   3.841   5.099 -0.2415 -1.2814  3.0744
 1580SOL    HW216200   0.364   3.979   5.063 -0.1851 -2.1367 -1.8585
 1581SOL     OW16201   0.748   2.640  13.551  0.2766 -0.4926 -0.1464
 1581SOL    HW116202   0.832   2.681  13.533 -0.5059  1.4542  0.6871
 1581SOL    HW216203   0.751   2.552  13.513  0.1165 -0.3084 -0.5861
 1582SOL     OW16204   1.442   1.180  16.922  0.2998  0.4464  0.2832
 1582SOL    HW116205   1.408   1.259  16.879 -1.6015 -0.5364 -0.0114
 1582SOL    HW216206   1.437   1.115  16.852  0.9496 -0.4532  1.0831
 1583SOL     OW16207   0.938   4.168   6.178 -0.0791  0.4366  0.7239
 1583SOL    HW116208   0.944   4.107   6.104  0.5884  0.4784  0.7471
 1583SOL    HW216209   0.867   4.131   6.230  0.8380  1.5270  2.7596
 1584SOL     OW16210   1.730   0.906  12.550  0.1342 -0.2949 -0.2108
 1584SOL    HW116211   1.790   0.923  12.623  0.1973  1.6380 -0.7216
 1584SOL    HW216212   1.645   0.904  12.595 -0.2050  2.3338 -0.7194
 1585SOL     OW16213   4.252   3.792   1.632 -0.5519  0.0220  0.5227
 1585SOL    HW116214   4.216   3.719   1.582  1.8783 -0.1281 -1.0034
 1585SOL    HW216215   4.261   3.764   1.723 -0.6593  1.3620  0.9429
 1586SOL     OW16216   1.448   1.813   2.664 -0.5543  0.4141  0.2775
 1586SOL    HW116217   1.493   1.834   2.583 -2.5353 -0.2172 -0.9990
 1586SOL    HW216218   1.463   1.899   2.703 -2.4612  1.1277 -0.5642
 1587SOL     OW16219   0.967   4.049   2.674 -0.1275  0.5141  0.3034
 1587SOL    HW116220   0.993   3.962   2.643 -1.1071  0.4389 -0.3021
 1587SOL    HW216221   1.057   4.071   2.699  0.9839 -0.4906 -2.8231
 1588SOL     OW16222   1.560   1.245   4.853 -0.3491 -0.1074 -0.2074
 1588SOL    HW116223   1.655   1.231   4.853  0.0351  2.5163  0.4378
 1588SOL    HW216224   1.527   1.161   4.884 -0.6310 -0.1728 -0.6894
 1589SOL     OW16225   1.967   4.306   1.145  0.3064  0.1104 -0.0058
 1589SOL    HW116226   1.973   4.334   1.054 -0.0204 -0.2618 -0.1441
 1589SOL    HW216227   2.010   4.223   1.125 -2.6529 -1.9429  2.1222
 1590SOL     OW16228   4.598   3.721   4.377  0.4558 -0.3161 -0.2499
 1590SOL    HW116229   4.546   3.702   4.454  0.7899  0.4333  0.1570
 1590SOL    HW216230   4.529   3.724   4.311 -1.8134  0.9138  2.2337
 1591SOL     OW16231   1.241   2.239   7.543  0.5672  0.1612  0.3204
 1591SOL    HW116232   1.168   2.186   7.511  2.2798 -2.8886  1.4611
 1591SOL    HW216233   1.291   2.242   7.462 -0.7968 -0.4586 -0.5340
 1592SOL     OW16234   3.855   0.651   7.575  0.2047  0.6557  0.0575
 1592SOL    HW116235   3.829   0.743   7.579 -1.0826  0.3313 -0.6470
 1592SOL    HW216236   3.950   0.659   7.570  0.1494  1.8082  0.9190
 1593SOL     OW16237   1.697   1.310   8.010  0.4270 -0.2942  0.1897
 1593SOL    HW116238   1.615   1.354   7.986 -0.1100 -0.2835  2.0333
 1593SOL    HW216239   1.673   1.218   8.008  0.2583 -0.2627  0.6593
 1594SOL     OW16240   2.501   4.465   4.931 -0.3222 -0.4609  0.3456
 1594SOL    HW116241   2.508   4.377   4.966  2.2317  0.4611  2.1355
 1594SOL    HW216242   2.532   4.521   5.002  0.4281 -0.0761 -0.2937
 1595SOL     OW16243   3.831   3.061   9.286 -0.4719 -0.2919 -0.2067
 1595SOL    HW116244   3.827   3.154   9.260  0.4264 -0.7883 -2.0984
 1595SOL    HW216245   3.886   3.073   9.364 -2.8612 -0.8859  1.5785
 1596SOL     OW16246   2.878   2.577  12.839  0.7479  0.3008  0.1295
 1596SOL    HW116247   2.890   2.669  12.816  1.6742  0.8561  2.7980
 1596SOL    HW216248   2.819   2.587  12.914 -0.2343  1.8135 -0.8341
 1597SOL     OW16249   1.759   3.514   0.412  0.3017 -0.6962 -0.0597
 1597SOL    HW116250   1.692   3.569   0.450  1.3861  0.2408  0.4738
 1597SOL    HW216251   1.745   3.514   0.317  0.4093 -2.4339 -0.0897
 1598SOL     OW16252   4.047   3.917   2.851  0.3301  0.4180 -0.8476
 1598SOL    HW116253   4.116   3.905   2.917 -1.2066  2.4142  1.1130
 1598SOL    HW216254   3.980   3.970   2.895 -0.6868 -1.6572  0.0977
 1599SOL     OW16255   3.392   4.002   6.653 -0.2039 -0.4336  0.0964
 1599SOL    HW116256   3.369   3.989   6.745  2.7140  0.5503  0.9678
 1599SOL    HW216257   3.307   3.980   6.614  0.1207  0.6040 -1.1962
 1600SOL     OW16258   0.783   4.512   8.223  0.0509  0.0170 -0.5344
 1600SOL    HW116259   0.699   4.520   8.178 -0.7131  1.3858  1.1089
 1600SOL    HW216260   0.755   4.459   8.299  1.1542 -0.3928 -0.4178
 1601SOL     OW16261   2.812   4.507  16.727  0.3340  0.0444 -0.2471
 1601SOL    HW116262   2.820   4.416  16.699  1.6748 -0.3748  1.5287
 1601SOL    HW216263   2.718   4.516  16.715  0.4901 -1.1934 -2.3064
 1602SOL     OW16264   4.142   1.454   4.878  0.4418 -0.0783  1.2960
 1602SOL    HW116265   4.074   1.388   4.888  0.1523  0.0289  0.0316
 1602SOL    HW216266   4.099   1.538   4.886 -1.4764 -1.1846  2.7307
 1603SOL     OW16267   3.908   2.204   8.691  0.6223  0.0044 -0.1300
 1603SOL    HW116268   3.916   2.250   8.774  0.1432 -0.2534  0.0609
 1603SOL    HW216269   3.818   2.226   8.668 -0.5371 -2.9407  1.6320
 1604SOL     OW16270   0.753   3.138  11.192 -0.1484 -0.2610 -0.0072
 1604SOL    HW116271   0.842   3.109  11.212 -0.6661 -3.8381 -2.7556
 1604SOL    HW216272   0.734   3.114  11.101 -0.5061  3.2215 -0.8448
 1605SOL     OW16273   4.670   2.514   8.549  0.5110  0.3125 -0.5370
 1605SOL    HW116274   4.717   2.466   8.481 -0.3199  0.2957 -1.0964
 1605SOL    HW216275   0.017   2.573   8.579  1.3051 -0.1975 -1.3792
 1606SOL     OW16276   2.577   4.276   4.382  0.4915  0.7344 -0.0890
 1606SOL    HW116277   2.506   4.307   4.326  0.3915 -1.7131 -1.3214
 1606SOL    HW216278   2.574   4.182   4.363  1.7255  0.9343 -1.2757
 1607SOL     OW16279   2.085   3.542   0.200  0.1880  0.1591 -0.8025
 1607SOL    HW116280   2.033   3.498   0.133  2.5260 -1.9198 -1.2340
 1607SOL    HW216281   2.164   3.488   0.198 -0.4829 -0.7834 -1.4963
 1608SOL     OW16282   2.132   2.466   8.789  0.5604  0.4629 -0.2398
 1608SOL    HW116283   2.093   2.421   8.864 -0.2605  0.1552 -0.8495
 1608SOL    HW216284   2.127   2.558   8.814 -1.1280  0.4110 -0.3896
 1609SOL     OW16285   4.225   3.496   9.923 -0.1678 -0.1008 -0.1086
 1609SOL    HW116286   4.147   3.500   9.867 -0.3194  0.7790  0.1714
 1609SOL    HW216287   4.185   3.552   9.989 -0.4410 -2.1154  1.4377
 1610SOL     OW16288   2.088   1.981   2.010 -0.0278  0.0569 -0.2913
 1610SOL    HW116289   2.044   2.065   2.003 -0.6359 -0.2427 -0.0880
 1610SOL    HW216290   2.118   1.989   1.919  3.9608 -1.1713  0.9422
 1611SOL     OW16291   1.855   2.027   9.001  0.2580 -0.7428  0.2670
 1611SOL    HW116292   1.872   1.984   9.085 -1.2225  1.3243  1.6181
 1611SOL    HW216293   1.813   2.106   9.035  0.8930  0.0799 -0.8859
 1612SOL     OW16294   4.664   3.169  13.475 -0.0768  0.4511 -0.2423
 1612SOL    HW116295   4.599   3.234  13.502 -0.1876  0.9975 -1.7959
 1612SOL    HW216296   4.661   3.110  13.550 -2.2702  0.7358 -0.1099
 1613SOL     OW16297   4.176   0.997  17.064 -0.7454  0.1104  0.1205
 1613SOL    HW116298   4.134   0.972  16.981  0.0567  0.5954 -0.4333
 1613SOL    HW216299   4.099   0.983  17.119 -2.1096  1.5211 -1.4240
 1614SOL     OW16300   2.332   3.128  13.899 -0.1224 -0.3752 -0.1081
 1614SOL    HW116301   2.285   3.201  13.940  1.2319 -0.3770  1.4734
 1614SOL    HW216302   2.413   3.163  13.863 -0.3772  0.1131 -0.2017
 1615SOL     OW16303   2.113   1.163   3.437 -0.2090  0.2107 -0.4696
 1615SOL    HW116304   2.036   1.160   3.494 -0.2697  0.0496 -0.5596
 1615SOL    HW216305   2.094   1.083   3.388 -1.0239 -0.3683  0.7908
 1616SOL     OW16306   4.143   1.098   6.629 -0.2013  0.6804 -0.6794
 1616SOL    HW116307   4.132   1.054   6.545  0.6794 -0.0273 -0.4162
 1616SOL    HW216308   4.197   1.172   6.603  1.6458 -0.6294 -0.5737
 1617SOL     OW16309   3.833   1.213   7.026 -0.2247  0.0185  0.2657
 1617SOL    HW116310   3.856   1.137   7.079  2.8343 -0.9149 -2.3466
 1617SOL    HW216311   3.901   1.215   6.958 -0.6612 -0.7096 -0.1889
 1618SOL     OW16312   1.138   1.905   8.210  0.1847 -0.2203 -0.5198
 1618SOL    HW116313   1.180   1.985   8.243  2.3360 -2.9568  3.2838
 1618SOL    HW216314   1.188   1.836   8.253  0.2235  0.3051  0.2792
 1619SOL     OW16315   2.393   2.286   0.690 -0.0391  0.3022  0.5023
 1619SOL    HW116316   2.300   2.267   0.675  0.1167 -0.8566  0.9599
 1619SOL    HW216317   2.379   2.367   0.739 -0.7554  0.0313  0.7553
 1620SOL     OW16318   0.147   1.343   7.435  0.1198  0.5337 -0.0415
 1620SOL    HW116319   0.081   1.381   7.493 -0.5894 -1.7283  0.6407
 1620SOL    HW216320   0.122   1.389   7.355 -1.0646  0.1782  0.1182
 1621SOL     OW16321   0.415   4.487   1.822 -0.0091  0.2207  0.0997
 1621SOL    HW116322   0.390   4.519   1.735  1.8752 -0.6840 -0.7867
 1621SOL    HW216323   0.371   4.558   1.868  0.1333  0.3722  0.0043
 1622SOL     OW16324   1.645   4.504   6.483  0.4031 -0.2622 -0.5533
 1622SOL    HW116325   1.652   4.496   6.578 -1.4946 -0.3098 -0.4146
 1622SOL    HW216326   1.720   4.460   6.443  0.8217  0.7200 -0.8644
 1623SOL     OW16327   0.325   3.663   9.378 -0.3769 -0.3236  0.2675
 1623SOL    HW116328   0.383   3.654   9.453 -1.1545 -1.5132  0.7193
 1623SOL    HW216329   0.246   3.618   9.408 -0.5317 -0.7611 -0.7737
 1624SOL     OW16330   4.283   2.194  17.450 -0.3928  0.6935  0.8806
 1624SOL    HW116331   4.350   2.203  17.383 -1.4838  1.8543 -0.0633
 1624SOL    HW216332   4.300   2.279  17.490  1.0343  1.0250 -0.4201
 1625SOL     OW16333   3.111   3.361   7.139  0.1595 -0.6164  0.2433
 1625SOL    HW116334   3.200   3.346   7.172 -0.7999 -0.0434  3.0118
 1625SOL    HW216335   3.115   3.456   7.129 -1.3405 -0.5870 -0.0031
 1626SOL     OW16336   3.604   1.698   1.200 -0.2557  0.4952 -0.5852
 1626SOL    HW116337   3.536   1.658   1.145  1.8624  0.2948 -3.0693
 1626SOL    HW216338   3.687   1.705   1.154 -0.2171 -2.5440 -0.9697
 1627SOL     OW16339   1.962   3.554   6.287 -0.2029 -0.9597  0.2868
 1627SOL    HW116340   1.941   3.489   6.355  1.2977 -0.2618  1.4130
 1627SOL    HW216341   1.885   3.558   6.231  1.0292  1.7927 -1.2167
 1628SOL     OW16342   3.746   2.001  11.059 -0.6194 -0.3200 -0.6582
 1628SOL    HW116343   3.782   2.089  11.071 -0.6451 -0.2203 -1.2983
 1628SOL    HW216344   3.810   1.989  10.989  1.0954  2.3222  0.4233
 1629SOL     OW16345   0.621   3.262   4.458  0.1525  0.1025 -0.0031
 1629SOL    HW116346   0.626   3.270   4.363  0.3521 -1.4183 -0.1241
 1629SOL    HW216347   0.693   3.200   4.471  0.4791  0.1697 -1.4971
 1630SOL     OW16348   3.688   1.389   2.028  0.5403  0.0276 -0.1039
 1630SOL    HW116349   3.737   1.416   1.950 -1.0177  0.6864 -0.8489
 1630SOL    HW216350   3.689   1.294   2.033  1.2975  0.0706  0.6929
 1631SOL     OW16351   0.607   3.398   3.247  0.9113  0.1595  0.7546
 1631SOL    HW116352   0.701   3.401   3.262  1.1435  0.2822 -0.7758
 1631SOL    HW216353   0.572   3.465   3.306  1.4125  1.6706 -0.6510
 1632SOL     OW16354   3.683   1.906   5.934 -0.7115  0.1019  0.2477
 1632SOL    HW116355   3.729   1.982   5.968 -1.8515  0.6091  0.6537
 1632SOL    HW216356   3.749   1.854   5.888 -0.9578  0.2135 -0.2337
 1633SOL     OW16357   3.456   0.586   5.624 -0.0081  0.0480  0.3736
 1633SOL    HW116358   3.538   0.623   5.656  0.3664 -1.3350  0.9963
 1633SOL    HW216359   3.462   0.614   5.533  2.4343  0.3617  0.6495
 1634SOL     OW16360   3.009   3.985   9.323  0.4666  0.3153 -0.0251
 1634SOL    HW116361   2.986   4.059   9.380 -0.4123  0.4110 -0.4901
 1634SOL    HW216362   2.933   3.993   9.265  0.6855  0.4692 -0.2914
 1635SOL     OW16363   4.639   3.578   3.089  0.1605  0.0028 -0.0802
 1635SOL    HW116364   4.643   3.558   2.995 -0.2845 -0.7552  0.0602
 1635SOL    HW216365   4.635   3.673   3.082 -0.0976  0.0618  0.8202
 1636SOL     OW16366   2.864   3.408   5.611 -0.0525 -0.8507  0.3148
 1636SOL    HW116367   2.858   3.454   5.695 -3.0403  3.8025 -2.4375
 1636SOL    HW216368   2.951   3.436   5.582 -0.6515  2.1465  1.4275
 1637SOL     OW16369   3.582   4.635  15.802  0.1158  0.1652 -0.2167
 1637SOL    HW116370   3.535   4.585  15.868  0.8639 -0.7264 -0.3587
 1637SOL    HW216371   3.532   4.713  15.779  0.8383  0.1055 -2.0313
 1638SOL     OW16372   2.843   1.551   6.091 -0.1439  0.0230 -0.1056
 1638SOL    HW116373   2.754   1.545   6.125 -0.3172  0.0440 -0.5497
 1638SOL    HW216374   2.815   1.576   6.003  0.5311 -0.6113 -0.5073
 1639SOL     OW16375   3.284   2.864   3.246  0.6404 -0.2973 -0.2362
 1639SOL    HW116376   3.195   2.831   3.233  0.0381  2.3228 -2.6301
 1639SOL    HW216377   3.299   2.892   3.156 -1.5738  1.8628  0.0852
 1640SOL     OW16378   3.622   1.161  13.670 -0.4145 -0.3159  0.0938
 1640SOL    HW116379   3.567   1.145  13.593 -0.8332 -1.7292  0.6974
 1640SOL    HW216380   3.689   1.213  13.625 -0.5655 -1.2870 -1.2945
 1641SOL     OW16381   1.823   2.709   1.931  0.6930 -0.2052 -0.2159
 1641SOL    HW116382   1.750   2.648   1.929  1.1070 -0.7090  0.1886
 1641SOL    HW216383   1.775   2.790   1.950  2.9720  0.9518  0.5464
 1642SOL     OW16384   4.239   1.399  11.119 -0.5969  0.0496  0.0441
 1642SOL    HW116385   4.292   1.343  11.062 -2.1589 -2.1731  0.7950
 1642SOL    HW216386   4.182   1.441  11.055  2.4142 -1.0471 -3.3216
 1643SOL     OW16387   4.298   1.078   5.054  0.6429 -0.1770 -0.7060
 1643SOL    HW116388   4.265   0.995   5.087  0.7670  0.0247 -0.0804
 1643SOL    HW216389   4.390   1.063   5.034  0.5678 -0.5008 -0.8131
 1644SOL     OW16390   1.236   0.021   4.606  0.1590 -0.7102 -0.8769
 1644SOL    HW116391   1.292   4.699   4.669 -0.7809 -1.4146 -0.5343
 1644SOL    HW216392   1.283   0.001   4.526 -1.6943 -3.4657 -1.2653
 1645SOL     OW16393   0.350   0.516   0.598  0.3478  0.6726  0.0310
 1645SOL    HW116394   0.295   0.585   0.560  1.1508  1.7546  0.8135
 1645SOL    HW216395   0.430   0.567   0.609  0.6747 -0.3483  2.4215
 1646SOL     OW16396   3.075   2.021   3.728 -0.0902 -0.4897  0.3525
 1646SOL    HW116397   3.035   1.947   3.683 -2.7076  0.0931  1.6731
 1646SOL    HW216398   3.004   2.028   3.792 -1.5589 -0.6530 -1.2469
 1647SOL     OW16399   0.715   2.143   7.259 -0.1791 -0.4020  0.4891
 1647SOL    HW116400   0.766   2.207   7.210  0.5687 -0.8140  0.7244
 1647SOL    HW216401   0.770   2.065   7.255 -0.0516 -0.3246  0.7444
 1648SOL     OW16402   4.492   3.151   2.714 -0.2441 -0.3212  0.1927
 1648SOL    HW116403   4.461   3.172   2.802 -1.7198 -1.7122  0.0046
 1648SOL    HW216404   4.507   3.058   2.728  0.3831 -0.2425  0.0117
 1649SOL     OW16405   1.788   1.311   2.945 -0.5909 -0.5595  0.2085
 1649SOL    HW116406   1.709   1.364   2.932 -0.2830  0.0143  0.6780
 1649SOL    HW216407   1.837   1.348   3.019  3.1801 -4.2762 -0.5103
 1650SOL     OW16408   2.757   0.747   3.937 -0.5652  0.2612 -0.1335
 1650SOL    HW116409   2.834   0.707   3.895 -2.4140 -0.0715 -3.1557
 1650SOL    HW216410   2.799   0.784   4.015 -0.1528  0.3003 -0.3756
 1651SOL     OW16411   1.395   3.050   2.783 -0.0343 -0.4599  0.2008
 1651SOL    HW116412   1.323   3.042   2.720 -0.6171 -2.2168  1.1041
 1651SOL    HW216413   1.338   3.066   2.858  0.7343  1.1668  0.4314
 1652SOL     OW16414   0.564   4.006  16.484  0.0537  0.3419 -0.3973
 1652SOL    HW116415   0.574   4.087  16.434 -0.4536 -0.2660 -1.4772
 1652SOL    HW216416   0.490   3.965  16.440  0.7117  0.1521 -1.3307
 1653SOL     OW16417   1.065   2.240   9.733 -0.1712 -0.4078 -0.3362
 1653SOL    HW116418   1.141   2.261   9.787  0.2010 -0.7961 -0.7223
 1653SOL    HW216419   1.011   2.200   9.801  0.1048 -1.3737 -0.6859
 1654SOL     OW16420   3.484   0.609   6.447 -0.1084  0.2155  0.7956
 1654SOL    HW116421   3.496   0.687   6.393 -0.3484 -1.1361 -1.2115
 1654SOL    HW216422   3.514   0.635   6.534  0.4276  4.3120 -0.6386
 1655SOL     OW16423   2.129   2.992   9.850  0.0404  0.4439  0.2175
 1655SOL    HW116424   2.053   2.989   9.792 -0.2159  1.4721  0.4849
 1655SOL    HW216425   2.123   3.079   9.890  0.6438 -0.7321  2.8653
 1656SOL     OW16426   2.418   3.488   7.869 -0.2992  0.0669 -0.0080
 1656SOL    HW116427   2.505   3.527   7.863  0.5067 -1.8801 -1.1007
 1656SOL    HW216428   2.445   3.413   7.922 -0.5814 -1.0393 -1.4307
 1657SOL     OW16429   0.338   4.318   5.057  0.4754  0.0620 -0.0334
 1657SOL    HW116430   0.351   4.405   5.095  0.3453 -0.1944  0.6074
 1657SOL    HW216431   0.416   4.274   5.090 -1.0793 -3.3690 -0.9220
 1658SOL     OW16432   1.394   3.002   8.703 -0.0505  0.3625 -0.2240
 1658SOL    HW116433   1.321   2.988   8.764 -0.6051  2.5636 -0.3833
 1658SOL    HW216434   1.459   3.047   8.756  0.1791 -0.1607 -0.0583
 1659SOL     OW16435   0.889   1.688   3.251  0.4813  0.2943 -0.6961
 1659SOL    HW116436   0.828   1.614   3.252 -0.0164  0.7045 -0.9042
 1659SOL    HW216437   0.974   1.646   3.266  0.4838  0.0786 -1.2832
 1660SOL     OW16438   0.585   3.853  17.651  0.0649  0.3521 -0.0111
 1660SOL    HW116439   0.622   3.867   0.048 -0.0512  0.9617 -0.0593
 1660SOL    HW216440   0.524   3.780  17.660  0.7065 -0.1346  0.3679
 1661SOL     OW16441   2.107   4.468   6.292  0.2022 -0.1057  0.2613
 1661SOL    HW116442   2.137   4.422   6.213  1.1051  0.8589  0.0450
 1661SOL    HW216443   2.141   4.556   6.277 -1.0606  0.5619  1.3843
 1662SOL     OW16444   4.600   1.696  11.774 -0.8158 -0.2189  0.3651
 1662SOL    HW116445   4.627   1.649  11.695 -1.4689 -0.3157  0.1988
 1662SOL    HW216446   4.638   1.783  11.760  0.9368 -0.6436  2.4837
 1663SOL     OW16447   1.287   1.970   5.324 -0.4349 -0.3396 -0.7291
 1663SOL    HW116448   1.301   1.910   5.397 -0.7218 -0.7166 -0.9845
 1663SOL    HW216449   1.215   1.933   5.274  1.0819 -0.8080 -2.5522
 1664SOL     OW16450   1.027   2.470   1.889 -0.2680  0.1239  0.0527
 1664SOL    HW116451   1.006   2.483   1.797 -0.4381  0.3950  0.1311
 1664SOL    HW216452   1.090   2.401   1.867  0.0160  0.2889  0.3438
 1665SOL     OW16453   4.661   0.109   7.371 -0.6684  0.2046 -0.8179
 1665SOL    HW116454   4.654   0.175   7.440  0.6471 -0.3688 -0.1279
 1665SOL    HW216455   4.592   0.150   7.320 -0.6667  2.0881  0.7117
 1666SOL     OW16456   4.313   3.786   2.504 -0.7983  0.5596  0.5349
 1666SOL    HW116457   4.302   3.692   2.520  0.5569  0.5295  1.2471
 1666SOL    HW216458   4.221   3.812   2.511 -0.8566  0.1808  1.1826
 1667SOL     OW16459   0.704   0.658  17.100  0.3097 -0.5503  0.1924
 1667SOL    HW116460   0.633   0.609  17.059  0.1648 -1.6230  1.6902
 1667SOL    HW216461   0.689   0.619  17.186  2.0669 -2.3330 -0.3301
 1668SOL     OW16462   4.055   3.247   6.469  0.4776  0.0433  0.5395
 1668SOL    HW116463   4.102   3.164   6.482 -0.1813 -0.8164 -2.3909
 1668SOL    HW216464   4.069   3.298   6.548  0.1237  0.1595  0.5267
 1669SOL     OW16465   0.231   2.276   5.584  0.3733  0.3559 -0.6267
 1669SOL    HW116466   0.164   2.215   5.614  1.1442 -0.3798 -0.3894
 1669SOL    HW216467   0.215   2.281   5.489  0.8633 -0.7812 -0.7716
 1670SOL     OW16468   4.200   2.452   6.551 -0.1618 -0.1418 -0.1771
 1670SOL    HW116469   4.276   2.420   6.600 -0.5961 -0.5701  0.2152
 1670SOL    HW216470   4.226   2.422   6.464  1.6851 -0.1411  0.3566
 1671SOL     OW16471   4.117   0.003   7.449  0.1222 -0.0355  0.3051
 1671SOL    HW116472   4.170   0.082   7.450 -2.1552  1.5238 -1.4020
 1671SOL    HW216473   4.174   4.653   7.473 -0.7788 -0.7269  0.3955
 1672SOL     OW16474   1.573   1.985   6.411  0.1863  0.1549 -1.1292
 1672SOL    HW116475   1.507   1.917   6.426  1.3909 -0.3806  1.6704
 1672SOL    HW216476   1.656   1.940   6.421 -1.0519 -1.2195  3.0997
 1673SOL     OW16477   1.184   0.887   8.745  0.2690 -0.3646  0.1081
 1673SOL    HW116478   1.088   0.890   8.752  0.1920 -1.0523 -0.5648
 1673SOL    HW216479   1.193   0.946   8.671 -0.7960  2.7158  2.4654
 1674SOL     OW16480   4.556   2.757   2.188 -0.6231  0.0927 -0.1321
 1674SOL    HW116481   4.515   2.770   2.102 -0.2769 -0.6484 -0.4103
 1674SOL    HW216482   4.577   2.846   2.216 -3.0192  0.6991 -0.2085
 1675SOL     OW16483   4.090   4.246   6.407 -1.0043 -0.2379 -0.4970
 1675SOL    HW116484   4.140   4.174   6.368 -0.5730 -0.5800  0.6882
 1675SOL    HW216485   4.124   4.242   6.496 -0.7811 -0.3737 -0.5871
 1676SOL     OW16486   3.250   2.503   3.713 -0.6816 -0.0905 -0.0680
 1676SOL    HW116487   3.245   2.530   3.804  1.0771 -0.0982  0.0173
 1676SOL    HW216488   3.164   2.528   3.679  0.0099  1.1511 -0.9177
 1677SOL     OW16489   3.861   3.991   1.590 -0.2954  0.7105  0.6821
 1677SOL    HW116490   3.841   3.899   1.576 -2.5941  1.4957 -1.1553
 1677SOL    HW216491   3.818   4.037   1.517 -1.3099  0.0225  0.8541
 1678SOL     OW16492   3.772   1.769   9.513  0.2402 -0.7405 -0.2194
 1678SOL    HW116493   3.822   1.732   9.587  0.1132 -1.6845 -0.6096
 1678SOL    HW216494   3.729   1.834   9.568 -1.5960 -2.3174  0.1887
 1679SOL     OW16495   1.975   0.762   2.779  0.0461  0.1947 -0.2390
 1679SOL    HW116496   1.946   0.731   2.865 -2.1153  0.6934 -0.7909
 1679SOL    HW216497   2.030   0.690   2.749 -0.6087 -0.0420 -0.8772
 1680SOL     OW16498   2.745   1.840   8.403  0.6376 -0.4343  0.1720
 1680SOL    HW116499   2.759   1.923   8.449 -0.3987  1.0328 -2.1212
 1680SOL    HW216500   2.658   1.810   8.428  0.0622  2.6064  1.8484
 1681SOL     OW16501   3.510   0.218   3.903  0.7469 -0.5731  0.3920
 1681SOL    HW116502   3.528   0.188   3.813  1.2538 -2.7519  1.2004
 1681SOL    HW216503   3.420   0.248   3.902  0.1697 -2.2841  0.0315
 1682SOL     OW16504   4.193   4.590   1.717  0.4949  0.3581 -0.7077
 1682SOL    HW116505   4.196   4.504   1.675  1.5753 -0.0335  0.1755
 1682SOL    HW216506   4.170   4.646   1.643 -2.4080 -0.9200 -0.7969
 1683SOL     OW16507   0.174   2.229  10.416 -0.3143  0.1718 -0.0680
 1683SOL    HW116508   0.185   2.234  10.321 -3.4315  1.2889 -0.3803
 1683SOL    HW216509   0.170   2.133  10.426  2.0559 -0.0497 -1.4957
 1684SOL     OW16510   1.113   1.750  10.557  0.5411 -0.4533 -0.7262
 1684SOL    HW116511   1.151   1.805  10.489  0.8787 -1.5236 -1.4077
 1684SOL    HW216512   1.078   1.677  10.506 -0.8088  0.6566 -1.4046
 1685SOL     OW16513   0.069   3.173  11.235 -0.5738 -0.0922 -0.2147
 1685SOL    HW116514   0.136   3.213  11.289  0.4222 -0.9416 -0.8234
 1685SOL    HW216515   4.720   3.230  11.265 -0.3975  0.4931 -0.9078
 1686SOL     OW16516   1.233   3.272   4.143 -0.5668  0.3481  0.0516
 1686SOL    HW116517   1.195   3.247   4.059 -0.1235  0.1677 -0.0965
 1686SOL    HW216518   1.328   3.260   4.137 -0.6213  1.4649 -2.9219
 1687SOL     OW16519   4.388   2.610  14.384  0.7574  0.1855  0.2438
 1687SOL    HW116520   4.369   2.684  14.441 -1.3233  0.3826 -0.7055
 1687SOL    HW216521   4.340   2.636  14.305 -0.0575  1.2563  1.0848
 1688SOL     OW16522   2.074   0.962   5.479  0.1385  0.0814  0.1746
 1688SOL    HW116523   2.034   0.954   5.392  1.4176  0.4696 -0.4433
 1688SOL    HW216524   2.079   1.057   5.493 -1.1846  0.4873 -2.1932
 1689SOL     OW16525   0.442   4.535   5.155  0.1104 -0.4392  0.3548
 1689SOL    HW116526   0.411   4.523   5.245 -1.5057  1.7850  0.0889
 1689SOL    HW216527   0.526   4.581   5.164  0.1969 -0.3646 -0.8519
 1690SOL     OW16528   3.122   4.183   3.115  0.1663 -0.5224 -0.0707
 1690SOL    HW116529   3.175   4.147   3.045  2.5197  0.9254  0.9750
 1690SOL    HW216530   3.107   4.275   3.090  3.1246  0.3683  1.4653
 1691SOL     OW16531   4.567   3.007   6.136 -0.1423  0.0010  0.5339
 1691SOL    HW116532   4.484   2.965   6.114  0.7633 -0.8693 -1.2399
 1691SOL    HW216533   4.538   3.097   6.151 -0.7849 -0.1617  0.2901
 1692SOL     OW16534   0.357   0.504   5.736 -0.8197  0.2184 -0.7672
 1692SOL    HW116535   0.294   0.563   5.778  0.6795 -0.2827  2.1882
 1692SOL    HW216536   0.429   0.566   5.723 -0.1687 -0.3935 -0.0290
 1693SOL     OW16537   1.121   3.485   6.640 -0.2304  0.3817 -0.0059
 1693SOL    HW116538   1.079   3.400   6.630  2.6640 -1.1448  0.9791
 1693SOL    HW216539   1.176   3.481   6.719  2.1893  1.6074 -1.6262
 1694SOL     OW16540   1.559   1.486   2.877  0.1130  0.2845 -0.0300
 1694SOL    HW116541   1.596   1.567   2.913 -1.7130  1.9272 -1.8542
 1694SOL    HW216542   1.514   1.516   2.799  0.8044 -1.3923 -1.0826
 1695SOL     OW16543   3.279   4.684   5.885 -0.1081  0.0939  0.2495
 1695SOL    HW116544   3.358   0.001   5.846 -0.0393 -1.2825 -1.0201
 1695SOL    HW216545   3.275   0.014   5.965 -0.3103  0.5821 -0.0813
 1696SOL     OW16546   0.905   0.453   2.635  0.1968  0.8122  0.6061
 1696SOL    HW116547   0.837   0.472   2.700 -0.9101 -1.6821  0.2035
 1696SOL    HW216548   0.909   0.533   2.584 -2.2686 -1.3961 -3.0304
 1697SOL     OW16549   2.883   4.184  12.181  0.2338 -0.1356 -0.3573
 1697SOL    HW116550   2.939   4.133  12.123 -0.1624  0.4847 -1.2717
 1697SOL    HW216551   2.883   4.267  12.133  0.4574 -0.5236 -1.0268
 1698SOL     OW16552   4.399   4.714   0.721  0.3030 -0.2301 -0.0000
 1698SOL    HW116553   4.343   4.701   0.644  0.5359  1.3874 -0.4467
 1698SOL    HW216554   4.445   4.633   0.742  2.1153  1.1836  1.4639
 1699SOL     OW16555   2.454   4.102   9.851  0.3790 -0.0904  0.0571
 1699SOL    HW116556   2.422   4.164   9.785 -1.8879 -3.1110 -1.6669
 1699SOL    HW216557   2.461   4.026   9.793  1.2690 -0.6064  0.8421
 1700SOL     OW16558   1.464   4.699   7.282 -0.4901 -0.4884 -0.4383
 1700SOL    HW116559   1.467   4.620   7.336 -1.5737  1.4771  2.5450
 1700SOL    HW216560   1.385   4.690   7.229 -0.3114 -0.5781 -0.6854
 1701SOL     OW16561   4.212   2.104   4.981  0.0280 -0.1551 -0.2903
 1701SOL    HW116562   4.236   2.185   4.937 -1.4767 -0.3566 -1.4993
 1701SOL    HW216563   4.203   2.130   5.072  0.3407  0.4726 -0.4447
 1702SOL     OW16564   2.861   1.846  13.123 -0.4859  0.2281  0.3440
 1702SOL    HW116565   2.923   1.869  13.055  0.9003 -0.0435  1.5029
 1702SOL    HW216566   2.863   1.751  13.110  0.7442 -0.0458  2.5620
 1703SOL     OW16567   2.009   2.814  11.909 -0.3799  0.2938  0.2283
 1703SOL    HW116568   1.914   2.823  11.901 -0.2599 -0.1993 -1.9582
 1703SOL    HW216569   2.020   2.745  11.975  0.5459  0.6123  0.4022
 1704SOL     OW16570   4.162   2.165   3.566 -0.0055  0.2429 -0.2139
 1704SOL    HW116571   4.073   2.199   3.556  0.1791  0.0384 -2.5546
 1704SOL    HW216572   4.154   2.100   3.497 -0.2733  3.1198 -2.8897
 1705SOL     OW16573   0.346   3.908   1.060 -0.0327  0.2318 -0.0541
 1705SOL    HW116574   0.396   3.835   1.024 -1.1517 -0.2460 -0.6613
 1705SOL    HW216575   0.411   3.960   1.107  0.6406  0.0478 -0.7930
 1706SOL     OW16576   0.625   1.241   7.125  0.9214 -0.0349 -0.0220
 1706SOL    HW116577   0.694   1.290   7.081  1.2321  0.8942  1.5019
 1706SOL    HW216578   0.557   1.250   7.059 -0.3353  0.9365  1.4069
 1707SOL     OW16579   2.007   3.958   3.354 -0.8302 -0.2127  0.3293
 1707SOL    HW116580   1.927   4.007   3.372 -1.9405 -2.4153  1.4091
 1707SOL    HW216581   2.044   3.941   3.441  0.3703  1.5727  0.1722
 1708SOL     OW16582   2.425   2.678  15.592  0.0424 -0.4623 -0.3404
 1708SOL    HW116583   2.437   2.616  15.519  0.5389  0.1217 -0.7505
 1708SOL    HW216584   2.507   2.668  15.641  0.1651 -1.1792 -0.6844
 1709SOL     OW16585   1.596   4.268   3.917 -0.1540  0.1047 -0.4750
 1709SOL    HW116586   1.688   4.293   3.905 -0.3368  0.9584 -0.1088
 1709SOL    HW216587   1.548   4.345   3.887  0.5036  0.8691  0.4426
 1710SOL     OW16588   2.456   0.310   4.854  0.2172  0.6979  0.3698
 1710SOL    HW116589   2.525   0.284   4.794 -1.8854 -1.0143 -1.3050
 1710SOL    HW216590   2.517   0.342   4.921  1.0890  0.8542 -0.5026
 1711SOL     OW16591   0.918   1.161  17.207 -0.2188  0.6079 -0.0147
 1711SOL    HW116592   0.907   1.253  17.231  1.7945  0.8056  0.1724
 1711SOL    HW216593   0.827   1.129  17.206  0.4024 -1.2687  1.8692
 1712SOL     OW16594   2.732   1.843  16.612 -0.0873 -0.1169  0.2859
 1712SOL    HW116595   2.794   1.771  16.601 -2.6683 -2.7513  2.9713
 1712SOL    HW216596   2.788   1.902  16.662  0.6485 -0.3453 -0.2688
 1713SOL     OW16597   2.836   0.074   3.910  0.6270 -0.2378  0.0847
 1713SOL    HW116598   2.910   0.014   3.905  1.9019  1.3292  0.1444
 1713SOL    HW216599   2.763   0.033   3.863 -0.0729 -1.0796  1.8617
 1714SOL     OW16600   2.720   3.311   3.090 -0.0699  0.0659  0.3422
 1714SOL    HW116601   2.637   3.274   3.121  0.4383 -2.1861 -1.0236
 1714SOL    HW216602   2.692   3.352   3.009  0.5732 -0.5698 -0.1988
 1715SOL     OW16603   0.798   1.520  13.225 -0.8529 -0.0523 -0.2008
 1715SOL    HW116604   0.742   1.535  13.301  0.3750  1.3593  0.4354
 1715SOL    HW216605   0.795   1.601  13.173 -1.4896  0.8143  1.1598
 1716SOL     OW16606   4.702   4.281   8.426 -0.0595 -0.0016 -0.3219
 1716SOL    HW116607   4.612   4.250   8.432 -0.6389  1.6696 -0.4210
 1716SOL    HW216608   0.021   4.236   8.499  1.7011  0.4659 -1.0319
 1717SOL     OW16609   0.884   1.157   1.363  0.3998  0.0098 -0.4140
 1717SOL    HW116610   0.855   1.191   1.448  1.0899  0.4337 -0.3569
 1717SOL    HW216611   0.973   1.191   1.370  0.0734  0.7663  0.0351
 1718SOL     OW16612   2.723   2.357  13.806  0.2140 -0.1682 -0.0085
 1718SOL    HW116613   2.771   2.425  13.758 -1.4761 -0.0589 -1.5346
 1718SOL    HW216614   2.657   2.419  13.838 -0.3091 -1.3637  1.2347
 1719SOL     OW16615   4.160   2.686  11.116 -0.2336  0.3320  0.1235
 1719SOL    HW116616   4.151   2.725  11.202  3.3696 -0.6228  0.9276
 1719SOL    HW216617   4.162   2.765  11.062 -0.7565 -0.8980 -1.6837
 1720SOL     OW16618   1.956   0.913   4.342 -0.3509  0.4661  0.3414
 1720SOL    HW116619   1.983   0.985   4.285  1.7581 -3.3845 -3.5469
 1720SOL    HW216620   1.967   0.957   4.426 -1.4604 -0.6568  1.0715
 1721SOL     OW16621   1.961   3.012  17.596  0.6602  0.6843  0.4609
 1721SOL    HW116622   2.019   3.028  17.670  2.3482 -0.1373 -0.6846
 1721SOL    HW216623   1.876   3.049  17.621 -0.1292 -0.5533 -0.4229
 1722SOL     OW16624   3.681   1.601   5.498  0.4077  0.7455  0.0600
 1722SOL    HW116625   3.671   1.691   5.530  1.5787  1.1900 -0.8058
 1722SOL    HW216626   3.592   1.589   5.464  0.4651  4.7475 -1.4692
 1723SOL     OW16627   0.805   0.916   2.702  0.5083  0.3360  0.1843
 1723SOL    HW116628   0.886   0.871   2.727  0.2148 -0.8204 -0.9483
 1723SOL    HW216629   0.735   0.851   2.701  0.7904  0.0084  2.3436
 1724SOL     OW16630   3.484   0.941   7.543 -0.5598 -0.5553 -0.1058
 1724SOL    HW116631   3.461   1.003   7.474  0.3148 -0.4237 -0.2807
 1724SOL    HW216632   3.398   0.911   7.573 -0.6874  0.9972  1.0841
 1725SOL     OW16633   1.338   2.445   3.253 -0.2148  0.3662 -0.4587
 1725SOL    HW116634   1.306   2.492   3.330 -0.1500  1.5966 -1.1805
 1725SOL    HW216635   1.322   2.508   3.183 -0.9041 -0.1869 -0.7975
 1726SOL     OW16636   0.170   0.216  11.150  0.0558  0.0102 -0.8049
 1726SOL    HW116637   0.141   0.238  11.062  0.4258  0.5848 -0.7837
 1726SOL    HW216638   0.106   0.149  11.174 -0.8766  0.5857 -1.6528
 1727SOL     OW16639   1.351   1.720  14.647  0.1691 -0.5366 -0.2224
 1727SOL    HW116640   1.308   1.782  14.587  2.0902  1.2051  0.2367
 1727SOL    HW216641   1.321   1.757  14.730  0.0042 -0.7015 -0.2070
 1728SOL     OW16642   1.655   1.588   8.215 -0.1421  0.5215 -0.3675
 1728SOL    HW116643   1.598   1.590   8.138 -1.2453 -0.4823  0.4091
 1728SOL    HW216644   1.735   1.622   8.175  0.3665  0.2158  0.3905
 1729SOL     OW16645   2.319   3.838   7.470 -1.0931 -0.2664  0.7116
 1729SOL    HW116646   2.354   3.926   7.484  0.2988 -0.6076 -0.5184
 1729SOL    HW216647   2.297   3.853   7.378 -3.6029 -0.1576  1.3302
 1730SOL     OW16648   2.291   4.369  16.185 -0.3003  0.8807 -0.8914
 1730SOL    HW116649   2.328   4.383  16.273 -1.2888 -1.2002 -0.1600
 1730SOL    HW216650   2.204   4.349  16.219 -0.5712  3.0562 -0.2431
 1731SOL     OW16651   4.408   3.170   7.364  0.0439 -0.1308 -0.3265
 1731SOL    HW116652   4.495   3.129   7.368 -0.4482 -1.0690  1.0529
 1731SOL    HW216653   4.393   3.148   7.272 -1.7199 -0.2773  0.0054
 1732SOL     OW16654   0.754   2.029   6.602 -0.5759 -0.3635 -0.3869
 1732SOL    HW116655   0.839   2.027   6.559 -0.3616 -1.9427  0.1312
 1732SOL    HW216656   0.775   2.106   6.655 -0.3695 -0.5473 -0.2032
 1733SOL     OW16657   1.206   4.579   1.315 -0.3221 -0.3964  0.2075
 1733SOL    HW116658   1.295   4.547   1.297  0.1712  0.2635  1.5089
 1733SOL    HW216659   1.211   4.642   1.243  1.8508  1.5315  2.0618
 1734SOL     OW16660   1.786   1.384  11.231 -0.1624 -0.0101  0.4011
 1734SOL    HW116661   1.747   1.415  11.149  2.0793 -0.2452 -0.7469
 1734SOL    HW216662   1.794   1.469  11.273  0.0233  0.1158  0.1091
 1735SOL     OW16663   2.812   2.572   3.766 -0.1334  0.8515 -0.1321
 1735SOL    HW116664   2.717   2.557   3.765 -0.0935  0.7441 -1.7407
 1735SOL    HW216665   2.831   2.565   3.860 -5.6900  1.2839  1.0389
 1736SOL     OW16666   0.456   4.169  15.035 -0.6466  0.1832 -0.0301
 1736SOL    HW116667   0.490   4.081  15.045  2.0418  1.3439  1.1114
 1736SOL    HW216668   0.365   4.161  15.062 -0.4363 -0.9530  0.3234
 1737SOL     OW16669   0.616   0.988   4.510  0.1960 -0.9062 -0.0969
 1737SOL    HW116670   0.710   0.998   4.523  0.0000  1.2505 -0.3299
 1737SOL    HW216671   0.581   0.951   4.591  1.9862 -1.1652  0.5528
 1738SOL     OW16672   2.975   3.170   6.182 -0.5133  1.0380 -0.4201
 1738SOL    HW116673   2.901   3.201   6.235 -1.0775 -0.1728 -0.5011
 1738SOL    HW216674   3.039   3.170   6.253  0.8427  0.1935 -1.6416
 1739SOL     OW16675   3.947   0.675   2.508 -0.3213 -0.3573 -0.4738
 1739SOL    HW116676   3.940   0.662   2.414  3.2878  0.8724 -0.9229
 1739SOL    HW216677   3.923   0.767   2.515 -1.7540 -0.7791  0.0624
 1740SOL     OW16678   0.160   2.701   7.313 -0.2026  0.0638 -0.0488
 1740SOL    HW116679   0.136   2.754   7.389 -2.1193 -0.7536 -0.0973
 1740SOL    HW216680   0.243   2.663   7.342  0.8007  0.7119 -2.0960
 1741SOL     OW16681   0.502   3.737  17.250 -0.1863 -0.6095 -0.1479
 1741SOL    HW116682   0.517   3.653  17.207 -0.3392 -1.4677  1.4882
 1741SOL    HW216683   0.434   3.717  17.315 -0.9265  1.1272 -0.3669
 1742SOL     OW16684   0.229   0.339   3.533  0.6424 -0.1320 -0.0095
 1742SOL    HW116685   0.304   0.398   3.539 -1.5221  2.7084 -1.3047
 1742SOL    HW216686   0.268   0.252   3.525 -0.3855 -0.6018  0.1039
 1743SOL     OW16687   3.941   0.287  15.363  0.2491 -0.4145 -0.0640
 1743SOL    HW116688   3.918   0.350  15.295  2.2081  2.4247  1.9033
 1743SOL    HW216689   4.017   0.329  15.404  0.5100 -0.0588 -0.8964
 1744SOL     OW16690   3.686   3.216   4.147 -0.4038  0.5260  0.0778
 1744SOL    HW116691   3.713   3.142   4.201 -0.2032  0.6455  0.1416
 1744SOL    HW216692   3.775   3.251   4.148 -0.0733 -0.3110 -1.3508
 1745SOL     OW16693   3.234   2.344   7.395  0.2168  0.2341 -0.5009
 1745SOL    HW116694   3.287   2.376   7.321 -0.2137  1.7419 -0.1675
 1745SOL    HW216695   3.148   2.366   7.359  0.9602 -1.2055 -3.1669
 1746SOL     OW16696   3.583   4.508   5.332 -0.0068 -0.0600  0.1196
 1746SOL    HW116697   3.554   4.505   5.241  1.0517  0.5370 -0.2281
 1746SOL    HW216698   3.561   4.420   5.364  0.7126  0.6064  2.4699
 1747SOL     OW16699   1.243   0.896   0.030  0.0895  0.2083  0.3497
 1747SOL    HW116700   1.218   0.833   0.097 -1.1100 -1.0279 -1.2467
 1747SOL    HW216701   1.219   0.845  17.643 -0.8041 -2.5159  2.4267
 1748SOL     OW16702   3.793   3.656   5.750 -0.1815 -0.0954  0.2588
 1748SOL    HW116703   3.880   3.617   5.743 -0.3056 -0.3995  0.3793
 1748SOL    HW216704   3.812   3.749   5.747  1.9611 -0.5985 -2.3879
 1749SOL     OW16705   1.588   1.074   8.096 -0.2921  0.0544 -0.1889
 1749SOL    HW116706   1.626   1.090   8.182 -2.2834 -0.9170  0.8747
 1749SOL    HW216707   1.614   0.983   8.083 -0.0917  0.1293 -0.2978
 1750SOL     OW16708   0.870   0.534  17.664  0.0519 -0.5731 -1.0451
 1750SOL    HW116709   0.878   0.539  17.569 -0.2283  1.1205 -0.9736
 1750SOL    HW216710   0.781   0.501  17.677  0.5227 -1.6418 -0.5039
 1751SOL     OW16711   1.150   1.751   8.857 -0.2006 -0.1485  0.2599
 1751SOL    HW116712   1.055   1.748   8.842 -0.5030  1.1996  1.8803
 1751SOL    HW216713   1.173   1.715   8.772  1.0188 -0.1802  0.6070
 1752SOL     OW16714   3.834   0.853   6.960  0.5234  0.4684  0.1322
 1752SOL    HW116715   3.881   0.797   7.022  0.0581  0.3720  0.3971
 1752SOL    HW216716   3.913   0.899   6.931 -0.4481  2.3855  0.4815
 1753SOL     OW16717   3.634   0.750  11.454  0.6905  0.0745  0.4544
 1753SOL    HW116718   3.622   0.831  11.504 -2.3379 -0.7567  1.0793
 1753SOL    HW216719   3.709   0.718  11.503  0.7915 -0.5183 -0.0894
 1754SOL     OW16720   1.733   1.966   2.085 -0.0175 -0.4048  0.2054
 1754SOL    HW116721   1.772   2.002   2.005  1.9792 -0.7516  1.0146
 1754SOL    HW216722   1.766   2.029   2.148 -0.3150 -1.0575  1.0107
 1755SOL     OW16723   0.774   1.669   6.098 -0.2909  0.4365  0.1994
 1755SOL    HW116724   0.770   1.759   6.129 -1.2754  0.1171  0.9963
 1755SOL    HW216725   0.861   1.637   6.124 -0.2729 -0.7935 -1.3456
 1756SOL     OW16726   3.543   2.508   0.268 -0.7874 -0.4976 -0.4748
 1756SOL    HW116727   3.510   2.519   0.357  2.0670 -1.3571  0.6982
 1756SOL    HW216728   3.513   2.418   0.251  0.7330 -1.2257  0.6805
 1757SOL     OW16729   2.263   4.091   6.220  0.7997  0.5895 -0.6467
 1757SOL    HW116730   2.287   4.062   6.308 -1.7822  1.9334  0.4690
 1757SOL    HW216731   2.180   4.046   6.206  1.0821 -0.6442  1.5360
 1758SOL     OW16732   3.170   1.838   6.627 -0.1033 -0.3059 -0.0186
 1758SOL    HW116733   3.084   1.809   6.597  0.4750 -1.2077 -0.8089
 1758SOL    HW216734   3.212   1.763   6.585  0.5293  0.9442 -1.6419
 1759SOL     OW16735   4.188   3.312   9.362 -0.6541  0.1870  0.2118
 1759SOL    HW116736   4.135   3.343   9.436 -2.9443 -0.3598 -1.1939
 1759SOL    HW216737   4.158   3.221   9.353 -1.5741  0.5605 -0.4152
 1760SOL     OW16738   2.277   1.780   5.079 -0.1519  0.0850  0.5552
 1760SOL    HW116739   2.207   1.806   5.139 -0.2750 -2.4784  1.5528
 1760SOL    HW216740   2.312   1.708   5.132  0.9318 -0.7646 -1.3290
 1761SOL     OW16741   0.079   3.463   1.216  0.1663  0.5233 -0.3828
 1761SOL    HW116742   0.020   3.535   1.239  1.6232  1.3424  0.8091
 1761SOL    HW216743   0.031   3.394   1.261  0.5166  1.3381  1.2749
 1762SOL     OW16744   4.647   1.110  10.244 -0.4921 -0.5405  0.5145
 1762SOL    HW116745   4.564   1.069  10.270  0.2554 -1.6369  1.1934
 1762SOL    HW216746   4.641   1.113  10.148 -2.4513  1.4898  0.7162
 1763SOL     OW16747   4.215   3.079   5.651 -0.4599 -0.2559 -0.4052
 1763SOL    HW116748   4.256   3.074   5.565  2.2033  0.9653  0.7767
 1763SOL    HW216749   4.285   3.032   5.697 -1.6271  1.8299  3.5076
 1764SOL     OW16750   4.338   2.872   6.062  0.8716  0.0237 -1.1311
 1764SOL    HW116751   4.351   2.788   6.106  2.6721  0.5669 -0.6148
 1764SOL    HW216752   4.243   2.877   6.063  0.9430  1.0213  1.7028
 1765SOL     OW16753   4.329   1.610   6.558  0.4029 -0.5462  0.0887
 1765SOL    HW116754   4.368   1.680   6.507 -2.0501  0.8321  0.1077
 1765SOL    HW216755   4.241   1.595   6.523  0.5924  1.5686 -1.2604
 1766SOL     OW16756   3.409   2.830  10.861  0.0345 -0.1559  0.1029
 1766SOL    HW116757   3.351   2.778  10.806  0.1609 -1.8272  1.5783
 1766SOL    HW216758   3.453   2.895  10.805  0.9625 -0.7355  0.1624
 1767SOL     OW16759   2.201   3.231  10.912  0.1469 -0.7418  0.1923
 1767SOL    HW116760   2.274   3.177  10.941  0.3723 -0.2116  0.6101
 1767SOL    HW216761   2.230   3.230  10.821 -1.7842 -1.7842 -0.4167
 1768SOL     OW16762   4.154   0.046   7.848 -0.5277 -0.7285  0.3195
 1768SOL    HW116763   4.244   0.066   7.877 -0.3486  1.1935 -1.6219
 1768SOL    HW216764   4.144   0.104   7.772  0.2143 -3.3932 -1.8038
 1769SOL     OW16765   4.037   0.954   5.738 -0.1517  0.6571 -0.3030
 1769SOL    HW116766   3.967   1.019   5.749 -0.4904 -0.0149  1.5592
 1769SOL    HW216767   4.055   0.985   5.649  0.1076 -0.6246 -0.6955
 1770SOL     OW16768   4.508   2.326   8.745 -0.2691 -0.5445  0.1374
 1770SOL    HW116769   4.480   2.388   8.812  2.4772  0.9147 -0.0547
 1770SOL    HW216770   4.560   2.382   8.688 -0.2767 -0.8634 -0.1818
 1771SOL     OW16771   0.348   4.049   4.032  0.1313  0.1589 -0.3704
 1771SOL    HW116772   0.380   4.064   3.943  2.0688 -0.0099  0.3014
 1771SOL    HW216773   0.415   4.107   4.067  1.1247  0.6577 -3.1452
 1772SOL     OW16774   2.776   1.579  13.062  0.2139 -0.0682  0.3778
 1772SOL    HW116775   2.750   1.595  12.971 -0.1963  0.5073  0.5996
 1772SOL    HW216776   2.793   1.485  13.054 -0.9819 -0.1966 -0.6628
 1773SOL     OW16777   1.603   3.925   1.399 -0.1381  0.0785 -0.0545
 1773SOL    HW116778   1.571   4.015   1.389 -0.1476  0.0897  0.0832
 1773SOL    HW216779   1.570   3.883   1.319  1.9322 -0.5479 -0.5661
 1774SOL     OW16780   0.857   1.969   4.721  0.1585  0.1878  0.6071
 1774SOL    HW116781   0.773   1.948   4.681 -0.0442 -1.3564  1.8134
 1774SOL    HW216782   0.860   2.064   4.715  0.5821  0.0068 -2.1752
 1775SOL     OW16783   2.898   4.080   5.739 -0.4316 -0.1136 -0.4962
 1775SOL    HW116784   2.977   4.124   5.706  0.5985 -0.3980  1.6244
 1775SOL    HW216785   2.935   4.057   5.824  0.3114  1.1295 -0.4835
 1776SOL     OW16786   2.498   0.325   9.744 -0.0267 -0.4010  0.2141
 1776SOL    HW116787   2.555   0.284   9.809 -0.5853 -2.5268 -0.6213
 1776SOL    HW216788   2.464   0.403   9.787  1.4671  1.0607 -1.2386
 1777SOL     OW16789   1.348   3.767   2.637 -0.0385  0.6676 -0.3200
 1777SOL    HW116790   1.409   3.705   2.596  1.4170 -0.0533  2.8964
 1777SOL    HW216791   1.266   3.720   2.619 -1.8303  3.2330  1.1136
 1778SOL     OW16792   1.586   2.136   5.217 -0.0227  0.5176  0.2298
 1778SOL    HW116793   1.587   2.152   5.311  1.3777 -0.5994  0.4142
 1778SOL    HW216794   1.508   2.187   5.194  1.2951  2.0271 -0.8607
 1779SOL     OW16795   2.322   1.220   2.637 -0.1941 -0.4013  0.4371
 1779SOL    HW116796   2.326   1.315   2.642  1.0263 -0.4107 -0.5600
 1779SOL    HW216797   2.238   1.208   2.681 -0.5585  0.2971 -0.0818
 1780SOL     OW16798   0.693   3.275   4.203 -0.7167 -0.1936  0.5440
 1780SOL    HW116799   0.778   3.298   4.164 -0.1664 -0.4369  1.6100
 1780SOL    HW216800   0.637   3.322   4.142  2.4040  0.4636 -1.8086
 1781SOL     OW16801   4.065   0.454   8.872  0.2419 -0.1760 -0.9708
 1781SOL    HW116802   4.133   0.456   8.939  2.1530  1.5481 -2.9574
 1781SOL    HW216803   4.088   0.531   8.820  0.4479 -0.0382 -0.6750
 1782SOL     OW16804   3.382   1.704   7.434  0.0704 -0.2828 -0.3876
 1782SOL    HW116805   3.352   1.730   7.346  1.5797  1.9713 -0.2157
 1782SOL    HW216806   3.381   1.608   7.425 -1.4512 -0.3349  0.3236
 1783SOL     OW16807   1.757   3.154  13.459  0.3321  0.3424  0.0699
 1783SOL    HW116808   1.829   3.186  13.405  0.4658  0.8490  0.5496
 1783SOL    HW216809   1.750   3.064  13.427 -0.8467 -0.2612  2.0279
 1784SOL     OW16810   0.623   0.997   5.247 -0.4374  0.1251 -0.2954
 1784SOL    HW116811   0.644   1.089   5.236  0.4624 -0.2149 -1.5039
 1784SOL    HW216812   0.565   0.976   5.173 -1.5301 -2.2863  1.2324
 1785SOL     OW16813   3.947   4.208  16.003  0.2249  0.1926 -0.2684
 1785SOL    HW116814   3.870   4.230  15.951  0.5399  1.1882 -0.3051
 1785SOL    HW216815   3.919   4.137  16.061  0.9195  2.0180  2.3010
 1786SOL     OW16816   0.288   1.130   6.769  0.2482  0.8921  0.0156
 1786SOL    HW116817   0.229   1.203   6.751  0.2217  1.2223  1.4332
 1786SOL    HW216818   0.358   1.182   6.807  1.5509 -0.2552 -0.8125
 1787SOL     OW16819   2.341   3.990   2.638 -0.1284 -0.1289 -0.4611
 1787SOL    HW116820   2.398   4.060   2.606  1.0124 -0.5057  0.7002
 1787SOL    HW216821   2.355   4.000   2.733  0.2841 -1.3749 -0.3832
 1788SOL     OW16822   4.489   1.499   4.031  0.0088  0.1298 -0.1693
 1788SOL    HW116823   4.485   1.519   4.124  0.0843  2.1967 -0.6200
 1788SOL    HW216824   4.501   1.404   4.036 -1.9037 -0.0006  1.3819
 1789SOL     OW16825   1.297   0.100  13.931  0.4389 -0.4230 -0.7560
 1789SOL    HW116826   1.366   0.081  13.867  0.2113 -1.9957 -0.5381
 1789SOL    HW216827   1.332   0.077  14.017  0.6147 -1.0463 -0.9952
 1790SOL     OW16828   1.005   0.132   0.534 -0.7083  0.1047 -0.2572
 1790SOL    HW116829   0.976   0.220   0.558  2.9892  1.5522 -1.0635
 1790SOL    HW216830   1.043   0.117   0.621 -2.0632  0.8173  0.4734
 1791SOL     OW16831   2.759   4.496   1.548 -0.0325  0.3207  0.0381
 1791SOL    HW116832   2.794   4.508   1.636  0.0296 -0.6549  0.1422
 1791SOL    HW216833   2.827   4.540   1.496  0.1881  0.6092  0.5696
 1792SOL     OW16834   3.914   3.542   8.755 -0.0809  0.3401  0.1503
 1792SOL    HW116835   3.840   3.600   8.738  1.2803  1.3166 -2.5565
 1792SOL    HW216836   3.961   3.595   8.819  1.1104 -0.9495  0.3563
 1793SOL     OW16837   1.888   3.778  10.515 -0.5405  0.2200  0.0985
 1793SOL    HW116838   1.795   3.761  10.525 -0.3994  0.7438  2.3360
 1793SOL    HW216839   1.906   3.839  10.587 -2.2675  1.0621 -0.2071
 1794SOL     OW16840   3.985   1.885   6.535 -0.0584  0.3219  0.2501
 1794SOL    HW116841   3.928   1.833   6.591  2.6944 -0.5796  2.2040
 1794SOL    HW216842   3.919   1.919   6.475  0.0447  1.4079  0.7509
 1795SOL     OW16843   1.407   0.055   4.396  0.3161 -0.5464  0.1810
 1795SOL    HW116844   1.422   0.102   4.314 -0.2524 -0.3077  0.2175
 1795SOL    HW216845   1.492   0.010   4.398  0.4374 -0.3672 -1.2068
 1796SOL     OW16846   0.830   3.470   0.242  0.1421  0.3139 -0.4778
 1796SOL    HW116847   0.863   3.408   0.177  3.7771  1.3750  0.3552
 1796SOL    HW216848   0.740   3.479   0.213  0.6055 -0.2209 -2.0618
 1797SOL     OW16849   0.377   3.060   4.927 -0.1072 -0.4430  0.6936
 1797SOL    HW116850   0.440   3.113   4.976 -1.5269 -0.1573  2.2135
 1797SOL    HW216851   0.407   2.969   4.930  2.6179  0.3959 -1.3368
 1798SOL     OW16852   0.186   0.624  16.914  0.3483  0.3767 -0.2376
 1798SOL    HW116853   0.188   0.688  16.985 -0.2949 -0.0987  0.2120
 1798SOL    HW216854   0.142   0.668  16.842 -0.6491 -0.5646 -0.2132
 1799SOL     OW16855   1.535   1.957  16.100 -0.2068 -0.0222 -0.1243
 1799SOL    HW116856   1.596   1.927  16.168 -0.3877 -1.4206 -0.5995
 1799SOL    HW216857   1.477   2.002  16.162 -0.4828  0.1716 -0.5268
 1800SOL     OW16858   2.694   2.015  15.403 -0.7878 -0.4747  0.0542
 1800SOL    HW116859   2.621   2.023  15.342  0.7005 -2.5172 -1.9781
 1800SOL    HW216860   2.733   1.933  15.371  0.9914  0.8159 -1.1445
 1801SOL     OW16861   2.000   2.616   7.406 -0.7885 -0.1144 -0.2682
 1801SOL    HW116862   1.923   2.651   7.361 -0.1508  0.4428 -0.9433
 1801SOL    HW216863   1.969   2.603   7.495  1.7757 -1.6124  0.3932
 1802SOL     OW16864   3.490   1.237   3.873 -0.4224 -0.1140  0.0675
 1802SOL    HW116865   3.559   1.179   3.841  0.3205  0.2813  0.9397
 1802SOL    HW216866   3.418   1.175   3.882 -0.0549 -0.4551  0.6968
 1803SOL     OW16867   0.492   2.621   9.360  0.7997  0.0408  0.3270
 1803SOL    HW116868   0.523   2.639   9.271 -0.4152  1.2295  0.1544
 1803SOL    HW216869   0.422   2.558   9.340 -1.5390  2.8686 -0.2539
 1804SOL     OW16870   0.837   0.800  15.566  0.0079  0.2227  0.4722
 1804SOL    HW116871   0.760   0.858  15.559 -1.3485 -1.5794  0.6374
 1804SOL    HW216872   0.876   0.824  15.482  0.4120 -1.6461  0.1285
 1805SOL     OW16873   3.902   4.229   8.815 -0.1893 -0.2306  0.6918
 1805SOL    HW116874   3.995   4.238   8.797 -0.3401  1.6743  0.8278
 1805SOL    HW216875   3.898   4.201   8.906 -0.9316  4.1401  1.9924
 1806SOL     OW16876   0.259   1.440   5.662 -0.2213 -0.9302  0.0771
 1806SOL    HW116877   0.349   1.438   5.694 -0.9482 -0.8493  2.1457
 1806SOL    HW216878   0.218   1.386   5.730  0.7474 -0.4683  1.0359
 1807SOL     OW16879   2.924   4.110  12.461 -0.1094 -0.1319  0.3120
 1807SOL    HW116880   2.913   4.015  12.474 -0.8831  0.0064  0.6740
 1807SOL    HW216881   2.895   4.124  12.370 -1.7350  4.1029  1.4913
 1808SOL     OW16882   3.406   0.637   5.354  0.3142 -0.0563  0.2478
 1808SOL    HW116883   3.443   0.681   5.277 -0.6318 -2.3019 -1.4870
 1808SOL    HW216884   3.320   0.679   5.351  0.2931 -0.0502  0.8602
 1809SOL     OW16885   2.518   3.193   3.984 -0.6722 -0.4604  0.3643
 1809SOL    HW116886   2.539   3.102   4.004  0.2131 -1.0220 -3.1920
 1809SOL    HW216887   2.556   3.196   3.897 -0.1670  1.1819  0.6342
 1810SOL     OW16888   2.790   4.023  10.595  0.6286  0.0090  0.8716
 1810SOL    HW116889   2.879   3.993  10.615 -0.0665 -2.4301  0.2560
 1810SOL    HW216890   2.727   3.961  10.632  2.3015 -2.9850 -1.2975
 1811SOL     OW16891   3.673   2.543   6.205 -0.1472  0.0620  0.2290
 1811SOL    HW116892   3.624   2.481   6.151 -1.0239  0.3584  0.6743
 1811SOL    HW216893   3.693   2.499   6.288 -0.3938 -0.7478 -0.1397
 1812SOL     OW16894   4.447   4.103   6.531  0.7159  0.0009 -0.2028
 1812SOL    HW116895   4.389   4.028   6.515 -0.8312  1.1558 -0.0027
 1812SOL    HW216896   4.437   4.151   6.449 -1.7042 -0.2674 -0.0830
 1813SOL     OW16897   4.102   0.913   8.846 -0.5602  0.0713  0.5902
 1813SOL    HW116898   4.082   0.901   8.940 -0.4456 -0.9832  0.4881
 1813SOL    HW216899   4.195   0.932   8.852 -0.3271 -1.1421  0.9789
 1814SOL     OW16900   2.564   3.208   4.435 -0.5555  0.0807 -0.3328
 1814SOL    HW116901   2.519   3.289   4.460 -0.5641 -1.0951  3.4765
 1814SOL    HW216902   2.637   3.209   4.496 -0.9868  1.9813  0.1297
 1815SOL     OW16903   3.609   3.615   5.372 -0.0490 -0.4199  0.7581
 1815SOL    HW116904   3.629   3.540   5.316 -0.5854 -0.5885  0.7855
 1815SOL    HW216905   3.520   3.625   5.338  0.4544 -1.6195 -0.9070
 1816SOL     OW16906   3.638   1.984  17.623  0.2463 -0.1856  0.0193
 1816SOL    HW116907   3.697   1.911  17.605 -0.1364 -0.2000 -1.1496
 1816SOL    HW216908   3.670   2.008   0.019 -0.7879 -1.7112  0.8207
 1817SOL     OW16909   0.501   0.728   0.305  0.2589 -0.0315 -0.2812
 1817SOL    HW116910   0.411   0.747   0.278  0.2228 -0.3520 -0.3858
 1817SOL    HW216911   0.564   0.756   0.238  0.7787  0.4869  0.4237
 1818SOL     OW16912   2.088   4.223   2.725  0.2390 -0.0176  0.8875
 1818SOL    HW116913   2.170   4.253   2.685 -0.0282 -0.5500 -0.0368
 1818SOL    HW216914   2.073   4.136   2.688 -1.0577 -0.0453  1.5020
 1819SOL     OW16915   3.145   3.781  16.056  0.4854  0.1043  0.2175
 1819SOL    HW116916   3.176   3.767  15.966 -0.1725 -0.3610  0.0570
 1819SOL    HW216917   3.090   3.858  16.037  1.6343  0.6418 -0.9529
 1820SOL     OW16918   3.128   4.239   8.167 -0.2392 -0.2340  0.4901
 1820SOL    HW116919   3.192   4.218   8.099 -1.1686 -0.5009 -0.3106
 1820SOL    HW216920   3.191   4.248   8.238 -1.5664  1.2393  1.5060
 1821SOL     OW16921   2.398   2.379   6.939 -0.0136 -0.5706  0.2799
 1821SOL    HW116922   2.465   2.445   6.922  1.6483 -2.1128  0.8737
 1821SOL    HW216923   2.438   2.295   6.917  0.4486 -0.3030  0.0843
 1822SOL     OW16924   1.162   4.175   5.116 -0.2753 -0.2554 -0.0123
 1822SOL    HW116925   1.234   4.124   5.153  1.8195  1.5066 -1.6234
 1822SOL    HW216926   1.221   4.235   5.070  1.0591 -1.5556  0.0130
 1823SOL     OW16927   0.614   4.533   4.891 -0.3420  0.2844 -0.5079
 1823SOL    HW116928   0.678   4.602   4.909 -0.6464  0.5076 -0.2734
 1823SOL    HW216929   0.553   4.550   4.963  0.7115 -1.6748  0.8658
 1824SOL     OW16930   1.959   3.873  14.735  0.6600 -0.2446  0.5242
 1824SOL    HW116931   1.869   3.904  14.734  0.4336 -0.9251 -0.1857
 1824SOL    HW216932   1.994   3.951  14.693 -0.6049 -0.0105 -0.0817
 1825SOL     OW16933   3.258   3.153   7.599  1.2752 -0.4678 -0.1531
 1825SOL    HW116934   3.224   3.141   7.510  0.6500 -1.5684  0.2338
 1825SOL    HW216935   3.267   3.062   7.627  1.6429 -0.3577  0.0837
 1826SOL     OW16936   0.504   1.311   5.825  0.3507 -0.0944  0.1498
 1826SOL    HW116937   0.491   1.307   5.920  1.8251  2.6760  0.4714
 1826SOL    HW216938   0.509   1.218   5.806 -1.9583 -0.2523  0.2458
 1827SOL     OW16939   2.326   2.870   0.330 -0.1866  0.6809 -0.0203
 1827SOL    HW116940   2.295   2.960   0.341 -1.1877  0.3396  0.0094
 1827SOL    HW216941   2.415   2.870   0.365 -1.1242 -1.5853  2.3724
 1828SOL     OW16942   4.082   0.984   0.646  0.4722 -0.4635  0.6238
 1828SOL    HW116943   4.092   0.892   0.670  0.4667 -1.5505 -3.6123
 1828SOL    HW216944   3.987   0.992   0.648  0.3634 -1.1240 -3.1825
 1829SOL     OW16945   1.880   1.064   2.370  0.0772  0.0490 -0.1681
 1829SOL    HW116946   1.933   1.129   2.325  0.9080 -0.3984  0.1727
 1829SOL    HW216947   1.941   1.003   2.411  0.0680  0.0264 -0.1879
 1830SOL     OW16948   0.280   3.433   3.038  0.5644  0.5152 -0.0683
 1830SOL    HW116949   0.309   3.502   2.979  3.5028 -0.2412  0.4763
 1830SOL    HW216950   0.234   3.374   2.977  3.1949 -2.8476  1.1694
 1831SOL     OW16951   3.611   2.964   3.386  0.2400  0.2841 -0.5725
 1831SOL    HW116952   3.592   2.907   3.311  3.1814 -1.1608 -0.1888
 1831SOL    HW216953   3.699   2.933   3.405  0.1143  0.6587  0.6087
 1832SOL     OW16954   3.024   3.890   4.707  0.0979  0.4670  0.3477
 1832SOL    HW116955   3.119   3.892   4.717  0.0035 -0.9676  1.4576
 1832SOL    HW216956   3.000   3.968   4.656 -1.9468  0.6363  1.5239
 1833SOL     OW16957   4.662   1.368   6.319  0.2928 -0.2033  0.6155
 1833SOL    HW116958   4.627   1.350   6.232 -2.5708  1.2960  1.4414
 1833SOL    HW216959   4.641   1.462   6.326  3.5586  0.5088  0.7589
 1834SOL     OW16960   0.815   2.898   0.470  0.0494 -0.1931  0.2613
 1834SOL    HW116961   0.861   2.967   0.423  0.5802 -1.8314 -1.6110
 1834SOL    HW216962   0.787   2.951   0.544  2.7097  0.3966  0.8284
 1835SOL     OW16963   3.804   4.401  10.410  0.3582  0.4297  0.3388
 1835SOL    HW116964   3.775   4.469  10.349 -0.8997 -1.2915 -0.9802
 1835SOL    HW216965   3.898   4.421  10.412  0.6487 -0.7689 -1.7526
 1836SOL     OW16966   1.064   3.186   4.351 -0.5068 -0.2769 -0.1634
 1836SOL    HW116967   1.134   3.216   4.292 -0.2745 -0.4228  0.0378
 1836SOL    HW216968   1.064   3.256   4.417 -0.2309 -0.2026 -0.2404
 1837SOL     OW16969   3.238   2.987   2.795 -0.0722 -0.7766 -0.9405
 1837SOL    HW116970   3.229   2.941   2.712 -0.6712 -3.6283  0.6740
 1837SOL    HW216971   3.276   3.072   2.774 -0.0594  0.2915  3.2485
 1838SOL     OW16972   0.275   4.408   9.503 -0.0395 -0.1492  0.1303
 1838SOL    HW116973   0.230   4.477   9.552 -0.3095  0.6426 -1.2093
 1838SOL    HW216974   0.333   4.464   9.451 -0.4886  0.8363  0.6917
 1839SOL     OW16975   0.321   1.244  16.456 -0.2797 -0.3030  0.1246
 1839SOL    HW116976   0.367   1.244  16.540 -0.2559 -0.8909  0.1147
 1839SOL    HW216977   0.233   1.266  16.487 -1.1195 -2.2205 -0.9354
 1840SOL     OW16978   1.957   0.231   5.965 -0.1466  0.0299  0.2486
 1840SOL    HW116979   1.942   0.151   5.914 -1.9994  0.0414  0.7565
 1840SOL    HW216980   1.876   0.235   6.017 -0.0928  1.4951  0.2007
 1841SOL     OW16981   2.738   1.649  12.804 -0.0320 -0.2514  0.5034
 1841SOL    HW116982   2.657   1.630  12.757  0.1214 -0.4809  0.3360
 1841SOL    HW216983   2.737   1.740  12.775  1.0920 -0.3524  0.1314
 1842SOL     OW16984   1.818   0.432  12.677 -0.1603 -0.0321  0.0233
 1842SOL    HW116985   1.779   0.470  12.756 -0.5285  0.0697 -0.2079
 1842SOL    HW216986   1.886   0.382  12.722  0.0921 -0.4878 -0.8648
 1843SOL     OW16987   3.626   3.736  15.743  0.1737  0.0031 -0.0560
 1843SOL    HW116988   3.713   3.763  15.772  0.2409 -1.7804  1.3731
 1843SOL    HW216989   3.594   3.700  15.825 -0.7281  2.5439  0.7108
 1844SOL     OW16990   1.107   2.824  11.859 -0.0128  0.0018  0.1538
 1844SOL    HW116991   1.024   2.869  11.847 -1.7207 -3.6561 -1.8108
 1844SOL    HW216992   1.121   2.829  11.953 -1.7235  0.9736  0.3443
 1845SOL     OW16993   1.185   3.236  17.629 -0.3047 -0.7860 -0.2345
 1845SOL    HW116994   1.105   3.288  17.631  0.6026  0.4799  2.8411
 1845SOL    HW216995   1.164   3.164  17.688 -0.6455  0.9093  1.6997
 1846SOL     OW16996   3.105   3.836   7.986  0.6385  0.4648  1.0429
 1846SOL    HW116997   3.186   3.808   8.029  1.8835  0.7488 -1.1340
 1846SOL    HW216998   3.071   3.747   7.991 -1.3344  1.1915  0.5457
 1847SOL     OW16999   3.232   2.077   2.430  0.6451 -0.2080  0.2069
 1847SOL    HW117000   3.229   2.123   2.346 -2.3998 -1.4090 -0.3204
 1847SOL    HW217001   3.295   2.010   2.405  1.6214  1.5066 -1.9718
 1848SOL     OW17002   3.486   4.052   1.604 -0.3168 -0.3955  0.2539
 1848SOL    HW117003   3.452   4.085   1.521 -0.4599 -2.7441 -0.6405
 1848SOL    HW217004   3.537   3.982   1.564  0.6507 -0.7370  2.0746
 1849SOL     OW17005   3.839   2.927   5.518  0.3382 -0.1708  0.5753
 1849SOL    HW117006   3.779   3.002   5.525 -0.5955 -0.8626 -0.0379
 1849SOL    HW217007   3.863   2.917   5.610 -3.7064  1.8042  1.8622
 1850SOL     OW17008   0.350   2.933   0.388  0.3353  0.2488  0.3788
 1850SOL    HW117009   0.361   2.887   0.471 -0.0900  1.2346  0.9816
 1850SOL    HW217010   0.256   2.925   0.375  0.7258  0.8385 -3.0224
 1851SOL     OW17011   2.971   0.385  10.664 -0.1681 -0.4913 -0.0943
 1851SOL    HW117012   2.961   0.311  10.724  0.1345  0.1546  0.7517
 1851SOL    HW217013   2.881   0.415  10.655 -0.4505 -1.2284  0.2485
 1852SOL     OW17014   4.399   0.902   6.160  0.1389 -0.3338  0.5155
 1852SOL    HW117015   4.369   0.931   6.074 -4.1945 -0.7562  1.8940
 1852SOL    HW217016   4.378   0.809   6.161  2.9613 -0.9706  0.1633
 1853SOL     OW17017   3.662   4.521  11.040  0.2932  0.1123  0.2880
 1853SOL    HW117018   3.607   4.508  11.117 -1.1825  1.9499 -0.4791
 1853SOL    HW217019   3.723   4.586  11.074 -0.5133 -0.4910  2.8947
 1854SOL     OW17020   2.431   0.535   7.110  0.6807 -0.7185  0.1277
 1854SOL    HW117021   2.492   0.589   7.160  0.1758  0.5828 -0.6565
 1854SOL    HW217022   2.474   0.452   7.133  1.7026 -0.5409 -1.1512
 1855SOL     OW17023   1.460   2.335   2.108 -0.2527 -0.1482  0.1323
 1855SOL    HW117024   1.495   2.424   2.118  1.3256 -0.9695  1.7536
 1855SOL    HW217025   1.400   2.320   2.181 -2.3001 -0.9496 -1.7290
 1856SOL     OW17026   1.534   3.389   8.674 -0.2389  0.1920 -0.3083
 1856SOL    HW117027   1.539   3.439   8.592  1.6719  0.6758  0.1040
 1856SOL    HW217028   1.584   3.449   8.729 -0.1911 -0.3389  0.2218
 1857SOL     OW17029   3.333   2.837   6.227  0.1192  0.6202 -0.2844
 1857SOL    HW117030   3.364   2.833   6.137  2.5196 -0.1113  0.5786
 1857SOL    HW217031   3.387   2.778   6.279 -1.1884  1.0010  1.5135
 1858SOL     OW17032   3.447   3.942  10.129  0.8497 -0.1504  0.1890
 1858SOL    HW117033   3.531   3.924  10.171  0.9800  0.5273  0.2134
 1858SOL    HW217034   3.393   3.869  10.160 -1.5423  1.7854  0.6169
 1859SOL     OW17035   3.886   3.879   1.185  0.0054  0.0964 -0.2183
 1859SOL    HW117036   3.962   3.936   1.199 -0.4530  1.2527 -2.3959
 1859SOL    HW217037   3.920   3.815   1.122  1.8820  0.5216  0.3533
 1860SOL     OW17038   0.705   1.860   8.926 -0.5585 -0.3563 -0.8015
 1860SOL    HW117039   0.643   1.822   8.988 -0.4213  2.4489  1.0296
 1860SOL    HW217040   0.647   1.894   8.858  1.4726  0.6382 -2.0294
 1861SOL     OW17041   3.752   3.908   6.409 -0.4183  0.3811  0.0573
 1861SOL    HW117042   3.688   3.886   6.341  1.3082 -1.0547 -1.1030
 1861SOL    HW217043   3.740   4.002   6.424 -2.4164  0.1077  0.1179
 1862SOL     OW17044   3.416   3.879   2.959 -0.6423  0.3341 -0.0859
 1862SOL    HW117045   3.464   3.836   3.030 -1.1163 -0.6374 -0.3560
 1862SOL    HW217046   3.392   3.813   2.894 -1.6823  0.6305 -0.0159
 1863SOL     OW17047   3.855   2.573   1.758  0.2978 -0.1106 -0.1698
 1863SOL    HW117048   3.874   2.667   1.762 -1.2644  0.1818  0.6498
 1863SOL    HW217049   3.822   2.562   1.848 -1.9727 -0.7693 -1.0946
 1864SOL     OW17050   0.143   0.848   3.874  0.1947  0.0581 -0.1768
 1864SOL    HW117051   0.089   0.778   3.837 -0.5710  0.1926  0.6974
 1864SOL    HW217052   0.154   0.803   3.958 -3.5038 -0.8023 -0.1522
 1865SOL     OW17053   1.437   1.876   8.154 -0.6648  0.2518  0.7076
 1865SOL    HW117054   1.403   1.963   8.174  1.0957  0.9754  0.6126
 1865SOL    HW217055   1.427   1.873   8.059  0.5832  0.2968  0.5634
 1866SOL     OW17056   1.541   3.128   8.496 -0.5289 -0.2014 -0.4034
 1866SOL    HW117057   1.508   3.042   8.523  0.9318 -0.0174  1.9608
 1866SOL    HW217058   1.506   3.193   8.558 -0.6944 -0.6844  0.0142
 1867SOL     OW17059   1.931   2.894   2.182 -0.0812 -0.8938 -0.0741
 1867SOL    HW117060   1.950   2.800   2.184 -0.3552 -0.9214  1.3888
 1867SOL    HW217061   1.889   2.901   2.096  2.4767  1.2509 -1.1483
 1868SOL     OW17062   2.038   3.608   5.414  0.4389  0.2461 -0.0510
 1868SOL    HW117063   2.037   3.703   5.406 -1.2431  0.1149 -1.3519
 1868SOL    HW217064   2.086   3.588   5.495  0.7877 -0.4425 -0.4286
 1869SOL     OW17065   2.598   1.470   4.454 -0.0322  0.6205  0.6536
 1869SOL    HW117066   2.507   1.502   4.456  0.9293  3.3583 -0.3137
 1869SOL    HW217067   2.589   1.398   4.392  0.1141  0.6557  0.5916
 1870SOL     OW17068   3.735   3.768  10.775  0.1971  0.1692  0.3222
 1870SOL    HW117069   3.717   3.776  10.869 -1.6157 -2.8826  0.2487
 1870SOL    HW217070   3.806   3.705  10.780  2.1481  2.4072  0.9627
 1871SOL     OW17071   0.653   3.825   7.669 -0.0074  0.5408  0.8040
 1871SOL    HW117072   0.634   3.766   7.596  0.3799 -2.9576  3.5385
 1871SOL    HW217073   0.563   3.828   7.702 -0.8124 -1.9337 -1.0976
 1872SOL     OW17074   4.194   4.187   0.225 -0.4275 -0.1137 -0.6248
 1872SOL    HW117075   4.137   4.204   0.300 -0.6498 -0.5916 -0.6810
 1872SOL    HW217076   4.177   4.272   0.185 -1.5637  0.5081  1.1580
 1873SOL     OW17077   2.293   3.452   2.297  0.1173  0.4148  0.0427
 1873SOL    HW117078   2.263   3.368   2.331  1.9812  0.0750  0.8027
 1873SOL    HW217079   2.216   3.509   2.298 -0.7303 -0.7076 -2.3172
 1874SOL     OW17080   3.519   1.603   4.167  0.0151  0.1994  0.0722
 1874SOL    HW117081   3.577   1.538   4.208  0.5181  0.8869  0.4470
 1874SOL    HW217082   3.563   1.601   4.082 -0.0687  3.2446 -0.0484
 1875SOL     OW17083   2.833   4.533   5.368 -0.6794 -0.5870  0.0459
 1875SOL    HW117084   2.914   4.553   5.321  0.6952  2.1398  3.5519
 1875SOL    HW217085   2.824   4.622   5.404 -4.1835 -1.4722  1.2627
 1876SOL     OW17086   3.417   3.400  12.503  0.3979 -0.0431 -0.1343
 1876SOL    HW117087   3.330   3.436  12.487  0.9819  1.3778 -0.0221
 1876SOL    HW217088   3.471   3.469  12.541  0.7799 -0.6688  0.4643
 1877SOL     OW17089   4.384   2.286  10.413  0.3658  0.2089 -0.0957
 1877SOL    HW117090   4.408   2.196  10.392  1.9262  0.7267 -0.6119
 1877SOL    HW217091   4.294   2.267  10.438  0.9370 -5.1051 -2.0511
 1878SOL     OW17092   3.755   2.395   4.106  0.4069  0.0599 -0.1825
 1878SOL    HW117093   3.744   2.361   4.017  1.3632 -1.5925  0.3217
 1878SOL    HW217094   3.833   2.345   4.129 -0.8286 -1.1740  1.3541
 1879SOL     OW17095   4.358   2.278   8.453 -0.8498  0.3265  0.0825
 1879SOL    HW117096   4.284   2.224   8.482  1.7476 -3.0711  0.3959
 1879SOL    HW217097   4.357   2.268   8.357 -0.9433 -0.5500  0.1704
 1880SOL     OW17098   4.701   2.139   7.069 -0.4169  0.4756 -0.3817
 1880SOL    HW117099   0.032   2.075   7.021 -2.2873 -0.7515 -0.8253
 1880SOL    HW217100   4.632   2.137   7.003 -0.9177 -2.2794  0.1980
 1881SOL     OW17101   2.337   1.199   5.539  0.6763  0.1623 -0.0323
 1881SOL    HW117102   2.311   1.153   5.619  0.1452 -2.1320 -1.5195
 1881SOL    HW217103   2.326   1.287   5.574  0.3271  1.2066 -2.7488
 1882SOL     OW17104   1.025   1.114   5.027 -0.4870  0.4472 -0.0620
 1882SOL    HW117105   1.015   1.057   4.951  1.6345  0.8831 -0.6643
 1882SOL    HW217106   1.096   1.172   5.000 -0.1901  0.4324  0.6770
 1883SOL     OW17107   4.448   4.332   9.092  0.6147  0.2199 -0.3863
 1883SOL    HW117108   4.385   4.266   9.063 -0.6151  0.9236  0.6891
 1883SOL    HW217109   4.426   4.335   9.185  2.3076  0.7863 -0.0094
 1884SOL     OW17110   2.055   0.160  13.602  0.2620 -0.3780  0.0960
 1884SOL    HW117111   2.089   0.144  13.690 -0.8135 -2.1444  0.1937
 1884SOL    HW217112   2.106   0.240  13.590 -0.8702  0.1753 -1.0200
 1885SOL     OW17113   3.311   1.575   5.931 -0.0792  0.0501 -0.0563
 1885SOL    HW117114   3.352   1.567   6.018 -0.4690 -0.7145  0.0610
 1885SOL    HW217115   3.336   1.500   5.877 -0.8394 -0.9357  0.9355
 1886SOL     OW17116   1.164   1.839   7.557 -0.4011  0.3437  0.1270
 1886SOL    HW117117   1.072   1.843   7.584 -0.2158 -1.6764  0.9856
 1886SOL    HW217118   1.193   1.894   7.629  0.6138  1.0619 -0.8255
 1887SOL     OW17119   2.314   2.805   6.024  0.6610  0.1046 -0.4982
 1887SOL    HW117120   2.225   2.812   5.989  0.4298 -1.7521 -0.2397
 1887SOL    HW217121   2.308   2.851   6.108  1.2498 -0.2050 -0.2920
 1888SOL     OW17122   3.356   2.157   3.362 -0.1184 -0.4843  0.0678
 1888SOL    HW117123   3.424   2.208   3.405 -1.5071  1.7981 -0.4519
 1888SOL    HW217124   3.286   2.177   3.423  0.5827  0.9538  0.4057
 1889SOL     OW17125   0.583   1.297  10.339  0.0779 -0.5462  0.1345
 1889SOL    HW117126   0.544   1.210  10.341 -1.6391  0.2414  1.0076
 1889SOL    HW217127   0.647   1.273  10.272  1.2350 -0.4495  1.1960
 1890SOL     OW17128   4.452   1.185  13.087 -0.2462  0.2654  0.2062
 1890SOL    HW117129   4.368   1.195  13.044 -0.0585  1.6072  0.1568
 1890SOL    HW217130   4.498   1.111  13.047 -0.3730  0.5535 -0.4545
 1891SOL     OW17131   1.211   4.102   2.733 -0.4215  0.2430 -0.2854
 1891SOL    HW117132   1.218   4.179   2.789  0.4332 -0.8970  1.1804
 1891SOL    HW217133   1.295   4.108   2.687  1.3734  2.8259  3.3422
 1892SOL     OW17134   1.838   4.281  16.533  0.1595  0.4672  0.1990
 1892SOL    HW117135   1.913   4.339  16.548  1.5145 -0.7727 -1.7345
 1892SOL    HW217136   1.799   4.286  16.620  0.2359  1.0443  0.2009
 1893SOL     OW17137   3.915   3.117   8.269 -0.0180 -0.1259 -0.3040
 1893SOL    HW117138   3.941   3.058   8.340 -0.5274 -0.9091 -0.7686
 1893SOL    HW217139   3.987   3.180   8.269 -0.5389  0.4786  0.4992
 1894SOL     OW17140   0.450   0.748   8.605 -0.1496 -0.2339  0.5026
 1894SOL    HW117141   0.394   0.702   8.542  0.2118 -1.3132  0.9733
 1894SOL    HW217142   0.426   0.705   8.686  1.3794 -1.6710  0.1945
 1895SOL     OW17143   3.720   2.417  13.870 -0.5212 -0.2930  0.6959
 1895SOL    HW117144   3.792   2.368  13.911  1.3455  0.6455 -1.4738
 1895SOL    HW217145   3.745   2.408  13.778 -1.8370  1.5270  0.1603
 1896SOL     OW17146   3.578   2.848   8.387  0.2901 -0.0413  0.5731
 1896SOL    HW117147   3.592   2.927   8.335 -3.9285 -1.0994 -2.1995
 1896SOL    HW217148   3.496   2.879   8.426 -0.5078  0.3683 -1.4329
 1897SOL     OW17149   2.075   4.044   8.055  0.4607  0.0993 -0.2535
 1897SOL    HW117150   2.068   4.080   7.967  2.9267 -1.6521 -1.1405
 1897SOL    HW217151   2.129   4.111   8.096  0.8268  1.8083 -3.5290
 1898SOL     OW17152   0.829   3.989  10.011 -0.0934  0.4109 -0.3770
 1898SOL    HW117153   0.734   3.997  10.008 -0.3581 -2.6865 -0.5848
 1898SOL    HW217154   0.863   4.033  10.089 -3.4314  1.9158  0.2506
 1899SOL     OW17155   4.402   1.176   6.796  0.2917 -0.2325  0.3760
 1899SOL    HW117156   4.390   1.221   6.713 -1.0883 -0.2873  0.5337
 1899SOL    HW217157   4.374   1.246   6.855  2.3615 -0.3794  1.5280
 1900SOL     OW17158   1.499   0.500   3.648 -0.2306  0.2528 -0.0196
 1900SOL    HW117159   1.574   0.495   3.589  0.2945  0.2911  0.6367
 1900SOL    HW217160   1.425   0.511   3.589 -2.2267  0.2896  2.4774
 1901SOL     OW17161   4.266   3.194   1.825  0.2176  0.8042 -0.7757
 1901SOL    HW117162   4.238   3.114   1.780  1.3039  0.1287 -0.2585
 1901SOL    HW217163   4.185   3.241   1.842  0.8248  3.5597 -5.4085
 1902SOL     OW17164   4.293   2.151   5.540  0.6145  0.0775 -0.3002
 1902SOL    HW117165   4.379   2.114   5.521  0.6841  1.2946 -2.3318
 1902SOL    HW217166   4.268   2.104   5.620  0.3523  1.2258  0.2990
 1903SOL     OW17167   3.249   4.222   5.320 -0.1477  0.1211 -0.5813
 1903SOL    HW117168   3.280   4.265   5.399  0.8590  0.6883 -1.2775
 1903SOL    HW217169   3.326   4.211   5.263 -0.0077  0.3413 -0.4374
 1904SOL     OW17170   3.304   1.660  12.051 -0.5386 -0.1892  0.1731
 1904SOL    HW117171   3.335   1.573  12.029 -0.5255 -0.0794 -0.2416
 1904SOL    HW217172   3.383   1.708  12.073 -0.4446 -1.0434  1.7517
 1905SOL     OW17173   3.704   0.264  15.971 -0.0404 -0.3663 -0.0846
 1905SOL    HW117174   3.775   0.328  15.973 -0.4865  0.0704  1.6033
 1905SOL    HW217175   3.751   0.199  15.919  0.8616  0.1430  0.1024
 1906SOL     OW17176   2.484   0.465   2.864  0.5571 -0.4722 -0.0960
 1906SOL    HW117177   2.433   0.410   2.804 -0.2004 -0.0928  0.2081
 1906SOL    HW217178   2.565   0.478   2.814 -0.3496  1.0238 -1.1714
 1907SOL     OW17179   3.882   3.698   7.672 -0.0048 -0.2486 -0.2373
 1907SOL    HW117180   3.788   3.694   7.658 -0.0758  1.9631 -0.4383
 1907SOL    HW217181   3.914   3.683   7.583 -2.2674  1.0305 -1.2693
 1908SOL     OW17182   3.914   0.753  12.123  0.2430 -0.2660 -0.2987
 1908SOL    HW117183   3.990   0.697  12.137  0.2003 -0.4874 -0.9945
 1908SOL    HW217184   3.940   0.827  12.179 -1.8982  0.0146  0.3363
 1909SOL     OW17185   2.992   2.380   2.423 -0.0911  0.4905 -0.0313
 1909SOL    HW117186   3.084   2.388   2.397 -0.3733  1.3665 -0.7695
 1909SOL    HW217187   2.953   2.419   2.344 -1.1856  1.4643  0.9931
 1910SOL     OW17188   0.339   3.029   5.580  0.6817  0.1413  0.5162
 1910SOL    HW117189   0.312   2.983   5.500 -1.5119  1.1590  0.6785
 1910SOL    HW217190   0.289   3.111   5.583  0.6536  0.1533 -0.1570
 1911SOL     OW17191   2.532   1.629   2.497  0.4432 -0.2287 -0.9060
 1911SOL    HW117192   2.461   1.652   2.437 -0.2005 -0.0149 -0.0605
 1911SOL    HW217193   2.520   1.693   2.568  0.2393 -1.4278  0.1358
 1912SOL     OW17194   4.394   4.129  12.286 -0.1546  0.1350  0.1682
 1912SOL    HW117195   4.427   4.092  12.204  0.8508  0.1335  0.5716
 1912SOL    HW217196   4.435   4.070  12.350  0.5027 -0.4096 -0.7562
 1913SOL     OW17197   0.672   3.975  10.251  0.2058  0.2659 -0.6388
 1913SOL    HW117198   0.759   3.942  10.270  0.3410  0.6190 -0.6629
 1913SOL    HW217199   0.623   3.892  10.250  0.0611  0.3515 -0.8483
 1914SOL     OW17200   3.586   2.159   1.844  0.0642  0.1606 -0.0531
 1914SOL    HW117201   3.556   2.241   1.884  0.4317  0.4471 -0.3567
 1914SOL    HW217202   3.645   2.200   1.781  2.4900 -0.5573  1.7169
 1915SOL     OW17203   4.286   0.937   2.251  0.3656  0.1255 -0.8836
 1915SOL    HW117204   4.245   0.860   2.211  0.3271 -0.1196 -0.3801
 1915SOL    HW217205   4.356   0.944   2.187  0.8380  1.0540 -0.2615
 1916SOL     OW17206   2.417   0.679   9.530  0.2836 -0.6442  0.3350
 1916SOL    HW117207   2.359   0.693   9.605  0.3891 -1.1149  0.5052
 1916SOL    HW217208   2.494   0.698   9.584 -0.4407  0.8367  0.8478
 1917SOL     OW17209   1.747   3.190   4.420  0.0657  0.2490  0.8221
 1917SOL    HW117210   1.673   3.143   4.382  1.2457 -0.1181 -1.0007
 1917SOL    HW217211   1.718   3.274   4.384 -2.2882 -0.9105  0.0012
 1918SOL     OW17212   1.922   0.247   7.925 -0.0731  0.0546 -0.4840
 1918SOL    HW117213   1.856   0.316   7.934  0.0797 -0.2580  2.8994
 1918SOL    HW217214   2.003   0.297   7.917 -0.0864  0.6156  2.9697
 1919SOL     OW17215   0.381   2.597   8.567  0.1525 -0.2977 -0.1687
 1919SOL    HW117216   0.420   2.612   8.481  1.4455 -0.3986  0.4049
 1919SOL    HW217217   0.355   2.505   8.558 -0.7478  0.0478 -1.1077
 1920SOL     OW17218   4.367   1.385   5.597  0.3635  0.4105  0.1298
 1920SOL    HW117219   4.370   1.448   5.525 -0.1211  0.0835 -0.1777
 1920SOL    HW217220   4.456   1.350   5.601 -0.7301 -2.7375 -2.0113
 1921SOL     OW17221   4.399   2.499   1.542 -0.3280 -0.9069  0.2097
 1921SOL    HW117222   4.449   2.578   1.520 -1.3565 -0.6468 -1.2421
 1921SOL    HW217223   4.444   2.429   1.496 -1.5091  0.3438 -2.8349
 1922SOL     OW17224   4.340   3.166  12.840  0.4701  0.5085 -0.1998
 1922SOL    HW117225   4.411   3.110  12.871  0.2133 -0.7596 -1.8859
 1922SOL    HW217226   4.267   3.121  12.883 -0.8860  2.4869 -0.4135
 1923SOL     OW17227   0.555   1.750  10.511 -0.2965  0.0902 -0.7062
 1923SOL    HW117228   0.596   1.767  10.426  1.4089 -0.7151 -0.0301
 1923SOL    HW217229   0.610   1.678  10.541 -1.1752 -1.7147 -3.3916
 1924SOL     OW17230   4.074   3.229   3.009  0.2724  0.4517  0.3484
 1924SOL    HW117231   4.075   3.267   3.097  1.3003 -1.0478  0.9709
 1924SOL    HW217232   4.045   3.138   3.017 -1.5252  1.0591  0.6831
 1925SOL     OW17233   4.323   0.366   8.603  0.1550  0.0455 -0.4198
 1925SOL    HW117234   4.265   0.404   8.537  0.3484  0.1198 -0.5463
 1925SOL    HW217235   4.324   0.431   8.674  0.0532 -1.1798  0.7001
 1926SOL     OW17236   2.273   3.082   8.771  0.1581  0.4534 -0.2196
 1926SOL    HW117237   2.332   3.123   8.708  0.6437 -0.8878 -0.6541
 1926SOL    HW217238   2.329   3.026   8.825 -0.5318 -0.0355 -0.0081
 1927SOL     OW17239   1.254   2.073   3.531 -0.0204 -0.2854  0.2415
 1927SOL    HW117240   1.325   2.011   3.551 -0.2947 -2.1863 -4.8016
 1927SOL    HW217241   1.301   2.156   3.536 -0.1451 -0.0273 -3.3745
 1928SOL     OW17242   2.476   3.243   4.790 -0.0678  0.1210  0.1792
 1928SOL    HW117243   2.427   3.323   4.771 -1.5169 -0.7080  0.4830
 1928SOL    HW217244   2.559   3.264   4.748 -0.2120  0.1892 -0.0711
 1929SOL     OW17245   3.645   2.136   3.249  0.3296  0.9193 -0.3480
 1929SOL    HW117246   3.681   2.104   3.332  0.2961  0.7697 -0.3918
 1929SOL    HW217247   3.722   2.134   3.193 -0.5665 -0.0954 -1.5390
 1930SOL     OW17248   4.441   4.486   7.231  0.3734  0.3310  0.2913
 1930SOL    HW117249   4.378   4.556   7.218 -0.9823 -1.3321 -1.9420
 1930SOL    HW217250   4.521   4.516   7.187  0.0186  0.7694 -0.0497
 1931SOL     OW17251   1.446   4.705  10.527  0.1199 -0.1128 -0.3874
 1931SOL    HW117252   1.370   4.656  10.557 -2.5948  2.6626 -2.6656
 1931SOL    HW217253   1.452   0.057  10.587 -0.3007  0.4178 -1.0036
 1932SOL     OW17254   2.116   1.253   6.758  0.1950  0.0925 -0.4662
 1932SOL    HW117255   2.108   1.160   6.780 -2.2155  0.4968  0.3903
 1932SOL    HW217256   2.033   1.281   6.797 -1.1297 -3.4440 -0.7286
 1933SOL     OW17257   2.020   1.083   9.857 -0.0731 -0.3784 -0.3230
 1933SOL    HW117258   2.073   1.159   9.883 -2.4110  0.8103  1.0000
 1933SOL    HW217259   1.933   1.117   9.880  0.3323  1.7971 -2.0202
 1934SOL     OW17260   3.447   1.385   3.384 -0.2765 -0.2353 -0.3890
 1934SOL    HW117261   3.389   1.360   3.456  0.6455 -0.1297  0.3976
 1934SOL    HW217262   3.414   1.469   3.355  0.3593 -0.0295 -0.5050
 1935SOL     OW17263   2.271   2.627   6.295  0.0189  0.9192  0.0350
 1935SOL    HW117264   2.244   2.718   6.289 -1.2225  0.6026  0.7379
 1935SOL    HW217265   2.355   2.627   6.249 -1.5901 -1.7383 -2.9416
 1936SOL     OW17266   1.392   2.002   1.039  0.3264 -0.0677  0.6142
 1936SOL    HW117267   1.463   2.038   1.092  1.6952 -1.3200 -0.3515
 1936SOL    HW217268   1.322   2.050   1.082 -0.0865 -0.7990  0.7589
 1937SOL     OW17269   4.173   2.986   2.098 -0.0696  0.3515 -0.3046
 1937SOL    HW117270   4.207   2.903   2.066  0.2725 -0.0388  1.0845
 1937SOL    HW217271   4.086   2.967   2.061 -0.1802 -1.5803  0.9792
 1938SOL     OW17272   4.140   0.271   7.056  0.0908 -0.2403 -0.2253
 1938SOL    HW117273   4.211   0.257   6.993 -0.4422 -0.1542 -0.8487
 1938SOL    HW217274   4.187   0.285   7.138  0.8333  0.3118 -0.7456
 1939SOL     OW17275   0.423   3.572   3.399  0.4393  0.0156  0.4795
 1939SOL    HW117276   0.427   3.652   3.451 -1.4239  1.0924 -1.0219
 1939SOL    HW217277   0.330   3.572   3.374  0.4096  0.4502  0.5826
 1940SOL     OW17278   0.198   4.298   4.751  0.0596 -0.0490  0.1556
 1940SOL    HW117279   0.123   4.350   4.779  0.5132  1.7799 -2.0953
 1940SOL    HW217280   0.236   4.269   4.834 -0.1212  3.4371  1.4397
 1941SOL     OW17281   1.640   1.397   0.184  0.1360 -0.2111  0.5736
 1941SOL    HW117282   1.676   1.485   0.172  1.7293 -0.2612  4.9355
 1941SOL    HW217283   1.653   1.387   0.279  0.2157 -0.6018  0.5228
 1942SOL     OW17284   2.135   1.519  13.181  0.3301 -0.4046 -0.4283
 1942SOL    HW117285   2.057   1.548  13.228  0.8645 -2.0131  1.4655
 1942SOL    HW217286   2.188   1.518  13.261  0.0562  2.5876 -0.2216
 1943SOL     OW17287   3.889   3.604   5.424  0.3877 -0.0068 -0.3962
 1943SOL    HW117288   3.794   3.608   5.436  0.4031  0.5196 -0.4314
 1943SOL    HW217289   3.918   3.574   5.510 -0.6005 -0.4379 -0.2233
 1944SOL     OW17290   3.703   1.133  15.309  0.6985  0.6772  0.6355
 1944SOL    HW117291   3.758   1.212  15.310  0.4991  0.8199  0.0236
 1944SOL    HW217292   3.757   1.079  15.367 -0.3833  1.8332  2.7350
 1945SOL     OW17293   3.256   1.497  11.230  0.6324 -0.1643 -0.2167
 1945SOL    HW117294   3.182   1.557  11.243  2.3394  2.4614 -2.6317
 1945SOL    HW217295   3.311   1.559  11.183  0.2671  1.1727  1.1214
 1946SOL     OW17296   3.467   1.230  16.924  0.1107 -0.7850 -0.4832
 1946SOL    HW117297   3.540   1.171  16.944  0.9037  0.3750  0.0510
 1946SOL    HW217298   3.466   1.278  17.007  0.4182  0.7891 -1.3904
 1947SOL     OW17299   0.745   3.024   4.453 -0.3745  0.2909  0.2782
 1947SOL    HW117300   0.829   2.993   4.486 -0.2761  0.8115  0.5233
 1947SOL    HW217301   0.687   2.999   4.525  1.2797  0.1635  1.5705
 1948SOL     OW17302   2.036   2.769  17.305 -0.2401 -0.1756 -0.3455
 1948SOL    HW117303   1.942   2.773  17.289 -0.0106  0.5770 -1.5159
 1948SOL    HW217304   2.051   2.859  17.335 -0.6015 -1.4486  3.7142
 1949SOL     OW17305   0.502   2.762   6.885 -0.3030 -0.4976 -0.2271
 1949SOL    HW117306   0.553   2.842   6.878 -0.1192 -0.6734 -0.9665
 1949SOL    HW217307   0.467   2.772   6.973  3.9384  2.0904  1.1379
 1950SOL     OW17308   3.993   2.615   2.974  0.0014 -0.5995  0.3172
 1950SOL    HW117309   3.949   2.662   2.904  0.3724 -0.8516 -0.0854
 1950SOL    HW217310   4.043   2.551   2.923 -1.6525 -0.5122 -1.4152
 1951SOL     OW17311   0.449   4.499   3.714 -0.1197 -0.3650 -0.2280
 1951SOL    HW117312   0.461   4.471   3.804 -0.0617 -0.3861 -0.2429
 1951SOL    HW217313   0.355   4.519   3.715 -0.0324  0.1319 -2.1091
 1952SOL     OW17314   0.771   0.577   5.707 -0.6950 -0.2198  0.1496
 1952SOL    HW117315   0.733   0.491   5.693 -2.3443  0.9249 -2.5205
 1952SOL    HW217316   0.842   0.554   5.767 -0.3062  4.1013  1.3384
 1953SOL     OW17317   2.671   2.872   9.057  0.3871 -0.2355 -0.4137
 1953SOL    HW117318   2.749   2.906   9.102 -0.1125 -0.1509  0.3825
 1953SOL    HW217319   2.657   2.938   8.990  3.0159  0.6306 -0.1336
 1954SOL     OW17320   0.051   3.024   9.760  0.2812  0.0606  0.2803
 1954SOL    HW117321   0.004   3.016   9.677  0.7262 -2.5090  0.2640
 1954SOL    HW217322   0.134   3.060   9.729  0.3226 -0.7488 -0.5488
 1955SOL     OW17323   3.927   0.631   7.159  0.6089 -0.4798 -0.0409
 1955SOL    HW117324   3.921   0.551   7.211 -1.0603  0.1961  0.7969
 1955SOL    HW217325   4.022   0.632   7.168  0.5638  0.6775  0.2852
 1956SOL     OW17326   2.679   1.304   8.805 -1.0802 -0.0491 -0.1963
 1956SOL    HW117327   2.677   1.221   8.759 -0.8528 -0.6368  0.8553
 1956SOL    HW217328   2.608   1.352   8.762  0.0220  1.2637 -0.5493
 1957SOL     OW17329   1.895   1.247   0.241  0.0521 -0.9333 -0.2618
 1957SOL    HW117330   1.931   1.248   0.330 -0.9754  1.4543  0.1266
 1957SOL    HW217331   1.827   1.312   0.258  1.4718  0.5769 -0.2864
 1958SOL     OW17332   4.549   2.668   8.234 -0.3211  0.1633 -0.1898
 1958SOL    HW117333   4.552   2.726   8.310 -2.4293 -0.4195  0.3424
 1958SOL    HW217334   4.500   2.593   8.269  0.1812 -0.3403 -0.5568
 1959SOL     OW17335   0.925   1.987   5.610  0.0795 -0.2035  0.0424
 1959SOL    HW117336   1.002   1.929   5.607 -0.3815 -0.7399 -1.0850
 1959SOL    HW217337   0.861   1.933   5.565 -1.1603  0.9981  0.3790
 1960SOL     OW17338   1.393   2.187  10.303 -0.5188  0.0179  0.0690
 1960SOL    HW117339   1.352   2.269  10.275 -1.3716  0.6697  3.1682
 1960SOL    HW217340   1.431   2.207  10.389  0.0988 -1.8168  0.2191
 1961SOL     OW17341   0.255   0.522   5.168  0.3068 -0.5657  0.0835
 1961SOL    HW117342   0.207   0.440   5.153 -0.3978 -0.7544  3.3486
 1961SOL    HW217343   0.244   0.528   5.263 -0.4975  1.6552 -0.1531
 1962SOL     OW17344   2.889   0.686   9.530  0.2230 -0.0465 -0.0677
 1962SOL    HW117345   2.846   0.639   9.459 -1.9284  0.8638  0.6571
 1962SOL    HW217346   2.977   0.650   9.514  0.0122 -0.6150  0.0383
 1963SOL     OW17347   0.979   0.835  17.160 -0.1860 -0.1351 -0.2240
 1963SOL    HW117348   0.968   0.913  17.105 -1.3870  1.0792  1.7547
 1963SOL    HW217349   0.884   0.821  17.167 -0.6176  2.8634  0.0287
 1964SOL     OW17350   3.896   4.399   8.452  0.1472 -0.1386  0.6233
 1964SOL    HW117351   3.960   4.423   8.385 -0.9260  1.1590  0.0547
 1964SOL    HW217352   3.892   4.483   8.497 -2.6818  0.6942 -1.1442
 1965SOL     OW17353   1.310   2.416   4.623 -0.0585  0.5732  0.3556
 1965SOL    HW117354   1.310   2.422   4.719 -0.7786 -2.3782  0.5514
 1965SOL    HW217355   1.323   2.322   4.613 -1.2007  0.4255  0.2944
 1966SOL     OW17356   4.196   2.055   4.176  0.3040  0.0968  0.4231
 1966SOL    HW117357   4.273   2.087   4.129 -0.9465 -0.2356 -1.8224
 1966SOL    HW217358   4.242   1.990   4.230  0.7694 -0.1409 -0.2563
 1967SOL     OW17359   0.514   0.786  13.868 -0.5240 -0.1278  0.4195
 1967SOL    HW117360   0.598   0.743  13.855 -0.7808 -0.8886  1.3177
 1967SOL    HW217361   0.544   0.874  13.890 -0.7334  0.9461 -3.5483
 1968SOL     OW17362   2.113   1.762   6.931  0.0425 -0.2281 -0.0499
 1968SOL    HW117363   2.108   1.687   6.873  1.0123 -0.0039 -0.4240
 1968SOL    HW217364   2.082   1.730   7.015  1.5553  1.4932  1.1887
 1969SOL     OW17365   4.244   2.896   9.988  0.2764  0.2995 -0.6144
 1969SOL    HW117366   4.221   2.936  10.072  2.2323  3.4851 -1.5818
 1969SOL    HW217367   4.309   2.832  10.017  0.5773  0.3009 -1.2911
 1970SOL     OW17368   4.193   2.132   5.789  0.2323  0.1822 -0.3264
 1970SOL    HW117369   4.180   2.041   5.819 -2.0809  0.3504 -0.8489
 1970SOL    HW217370   4.202   2.173   5.875 -2.0757  1.9186 -0.9282
 1971SOL     OW17371   3.777   3.531   5.049 -0.1953 -0.1038 -0.3323
 1971SOL    HW117372   3.715   3.531   4.976  1.2477 -0.1471 -1.5582
 1971SOL    HW217373   3.729   3.476   5.111 -1.4309  0.0673 -1.1394
 1972SOL     OW17374   2.460   3.775   0.203  0.5329 -0.2868  0.1656
 1972SOL    HW117375   2.374   3.775   0.162  0.0500 -0.2148  1.1765
 1972SOL    HW217376   2.508   3.811   0.129  2.2558 -1.4988  0.6835
 1973SOL     OW17377   0.416   0.190   5.675 -0.0609 -0.1059  0.1875
 1973SOL    HW117378   0.435   0.096   5.671 -1.0389 -0.4155  2.7380
 1973SOL    HW217379   0.409   0.203   5.770 -0.1502 -2.5469  0.5348
 1974SOL     OW17380   3.292   0.575   4.974 -0.1129  0.2911  0.5617
 1974SOL    HW117381   3.319   0.666   4.983 -1.5418  0.7629  0.0321
 1974SOL    HW217382   3.376   0.540   5.004 -1.2240 -2.4543  0.5011
 1975SOL     OW17383   3.520   1.005   4.134  0.0300  0.5404 -0.3698
 1975SOL    HW117384   3.434   1.019   4.174 -0.0989  2.8312 -1.4035
 1975SOL    HW217385   3.529   0.913   4.110  0.5125  0.4001  0.3436
 1976SOL     OW17386   4.188   0.795   3.327 -0.4146  0.8905 -1.0160
 1976SOL    HW117387   4.228   0.721   3.372  0.2980  1.0976 -1.3118
 1976SOL    HW217388   4.199   0.865   3.391  2.0193  0.0014 -0.4590
 1977SOL     OW17389   4.603   2.835   9.905  0.0022  0.0168  0.5807
 1977SOL    HW117390   4.560   2.901   9.960  1.3442 -0.1497  1.8136
 1977SOL    HW217391   4.654   2.901   9.858 -0.7402  0.1994  0.0321
 1978SOL     OW17392   1.985   0.994   5.202 -0.2529 -0.2908  0.1036
 1978SOL    HW117393   2.000   0.994   5.108  0.4953  1.8937  0.2047
 1978SOL    HW217394   1.923   1.066   5.212  1.8298  1.4264  0.9381
 1979SOL     OW17395   0.058   2.336   6.429 -0.2111  0.5296  0.1339
 1979SOL    HW117396   4.686   2.317   6.420 -0.3194  0.9896  0.3206
 1979SOL    HW217397   0.085   2.263   6.373  1.2892  1.1672  0.0320
 1980SOL     OW17398   4.526   4.719   4.458  0.0790  0.3659 -0.0436
 1980SOL    HW117399   4.438   0.032   4.448 -0.7417 -1.0100  2.3369
 1980SOL    HW217400   4.514   4.629   4.428  0.8204  0.1283  0.3837
 1981SOL     OW17401   3.410   0.453   1.125  0.4141 -0.0563 -0.0854
 1981SOL    HW117402   3.463   0.382   1.090 -0.0185  0.4653 -1.7836
 1981SOL    HW217403   3.483   0.512   1.146 -0.7093  0.9200  1.0851
 1982SOL     OW17404   0.054   0.648   1.006 -0.2231 -0.7746 -0.3102
 1982SOL    HW117405   0.118   0.707   0.965 -0.3911  0.1430  0.7661
 1982SOL    HW217406   4.696   0.661   0.954 -0.9800 -1.5245  0.6797
 1983SOL     OW17407   1.197   1.355  17.099 -0.4149 -0.1546  0.0122
 1983SOL    HW117408   1.196   1.337  17.005 -1.2362 -0.8167  0.1443
 1983SOL    HW217409   1.145   1.434  17.110 -1.5648 -0.4565 -3.2034
 1984SOL     OW17410   1.137   3.267  16.446 -0.2313  0.4694  0.1355
 1984SOL    HW117411   1.135   3.360  16.423 -2.1108 -0.2085 -2.3374
 1984SOL    HW217412   1.065   3.267  16.510  0.2064 -1.7483  0.6420
 1985SOL     OW17413   0.803   2.378  13.923 -0.3697 -0.0895  0.0117
 1985SOL    HW117414   0.707   2.373  13.918 -0.5101  1.5805  1.2599
 1985SOL    HW217415   0.822   2.398  13.832  1.9349 -0.6964  0.3696
 1986SOL     OW17416   1.034   0.664  15.985 -0.1101 -0.7970 -0.0232
 1986SOL    HW117417   1.028   0.656  15.890 -0.7743  2.0391 -0.2227
 1986SOL    HW217418   1.019   0.572  16.006 -0.5182 -1.8311 -4.9637
 1987SOL     OW17419   0.982   3.516   1.938  0.3577  0.7153 -0.1323
 1987SOL    HW117420   0.965   3.600   1.895  0.0605  0.0622 -1.3129
 1987SOL    HW217421   0.897   3.481   1.965  0.8729 -1.6411 -1.5372
 1988SOL     OW17422   3.463   1.438   7.828  0.1573  0.0593  0.1039
 1988SOL    HW117423   3.540   1.421   7.882  0.9143  2.1905 -0.3015
 1988SOL    HW217424   3.492   1.513   7.776  1.9642 -0.1738  0.7562
 1989SOL     OW17425   4.204   2.751   4.727 -0.3117 -0.3650  0.0426
 1989SOL    HW117426   4.190   2.737   4.633  1.5339 -0.8136 -0.1569
 1989SOL    HW217427   4.126   2.789   4.767 -0.3992  0.2165 -0.6692
 1990SOL     OW17428   2.610   1.797   5.780 -0.6832  0.1267  0.2436
 1990SOL    HW117429   2.705   1.790   5.793 -0.4156  1.1068 -1.1720
 1990SOL    HW217430   2.606   1.890   5.803  1.6137  0.4453 -0.6248
 1991SOL     OW17431   3.481   4.589   0.873 -0.1377  0.0867  0.0302
 1991SOL    HW117432   3.414   4.658   0.873 -0.8716 -0.6394 -1.6085
 1991SOL    HW217433   3.560   4.628   0.837  0.1370  1.1660  1.7617
 1992SOL     OW17434   3.753   4.071  15.811  0.6085 -0.0445  0.2344
 1992SOL    HW117435   3.758   4.060  15.716  1.1976  2.3695 -0.0096
 1992SOL    HW217436   3.791   3.987  15.837 -0.0418 -1.1035 -2.1882
 1993SOL     OW17437   0.242   1.457   8.130  0.5103  0.6744 -0.7566
 1993SOL    HW117438   0.203   1.542   8.150  0.3272  0.0013  1.6925
 1993SOL    HW217439   0.173   1.402   8.093  0.1943 -0.1852  1.1120
 1994SOL     OW17440   2.170   4.362   5.594  0.3326  0.2625 -0.1479
 1994SOL    HW117441   2.226   4.429   5.634  0.3525 -0.5534  1.2083
 1994SOL    HW217442   2.240   4.315   5.548  0.0586  1.2197 -1.5132
 1995SOL     OW17443   3.093   0.489   4.722 -0.2769 -0.2046  0.0687
 1995SOL    HW117444   3.094   0.525   4.811 -1.9278  2.1441 -0.8483
 1995SOL    HW217445   3.171   0.533   4.689  0.2033 -0.8520  0.3717
 1996SOL     OW17446   2.254   0.015   5.512 -0.4633 -0.5611  0.2520
 1996SOL    HW117447   2.166   0.042   5.537 -0.8283 -1.8775  0.3775
 1996SOL    HW217448   2.267   0.076   5.440 -0.8761  0.0226  0.6730
 1997SOL     OW17449   1.544   4.358  13.302  0.1912 -0.2184 -0.4672
 1997SOL    HW117450   1.574   4.267  13.312  2.8661  0.8232  1.0737
 1997SOL    HW217451   1.546   4.357  13.206 -0.3303 -0.9651 -0.4698
 1998SOL     OW17452   0.106   2.521  13.604 -0.3585 -0.2849 -0.1000
 1998SOL    HW117453   0.117   2.613  13.584 -1.9282 -0.0052  0.2957
 1998SOL    HW217454   0.173   2.475  13.553  2.3762  2.0844  1.3733
 1999SOL     OW17455   1.833   1.014   4.023  0.3101  0.2339  0.0504
 1999SOL    HW117456   1.774   1.004   3.948 -1.2564 -0.5219  1.4001
 1999SOL    HW217457   1.882   1.086   3.983 -1.4233  1.8945  0.9145
 2000SOL     OW17458   2.767   3.730   5.176 -0.4482  0.8060 -0.0900
 2000SOL    HW117459   2.785   3.764   5.089  1.1071 -0.6609 -0.3608
 2000SOL    HW217460   2.777   3.808   5.230 -1.5913  0.4809  0.5878
 2001SOL     OW17461   0.166   0.103  15.018 -0.2850  0.4926 -0.3533
 2001SOL    HW117462   0.207   0.023  15.051  0.3352  1.7066  1.8503
 2001SOL    HW217463   0.208   0.165  15.079 -0.2325 -0.9914  1.1019
 2002SOL     OW17464   4.646   1.151   1.834 -0.0423  0.6455 -0.5846
 2002SOL    HW117465   4.599   1.114   1.760 -0.8156  0.4583 -0.0004
 2002SOL    HW217466   4.669   1.239   1.807  1.0831  0.7500  0.6854
 2003SOL     OW17467   1.332   0.887   0.477  0.2884  0.7042  0.1644
 2003SOL    HW117468   1.257   0.883   0.536  0.3120 -0.8927  0.0760
 2003SOL    HW217469   1.322   0.980   0.456 -1.5179  0.5579  0.3819
 2004SOL     OW17470   0.028   4.425   1.580  0.4623  0.5275 -0.4244
 2004SOL    HW117471   4.677   4.486   1.583 -0.0436 -0.1595  1.1741
 2004SOL    HW217472   4.717   4.366   1.512 -0.4931  1.2964 -0.6190
 2005SOL     OW17473   4.440   0.103   4.040 -0.1770  0.0582 -0.0936
 2005SOL    HW117474   4.361   0.051   4.049  0.3799 -0.3170  2.4321
 2005SOL    HW217475   4.411   0.194   4.028  1.2947  0.7325  1.5871
 2006SOL     OW17476   3.137   1.155   9.787  0.4837  0.4280  0.4102
 2006SOL    HW117477   3.225   1.141   9.752 -0.8718 -2.5250 -1.8752
 2006SOL    HW217478   3.082   1.148   9.708  0.2770 -1.5674  0.7256
 2007SOL     OW17479   2.030   2.507   6.217  0.2176 -0.1588  0.5098
 2007SOL    HW117480   2.123   2.515   6.238  0.1994  0.0090  0.5216
 2007SOL    HW217481   1.988   2.570   6.275  1.4277  0.3314  0.8512
 2008SOL     OW17482   3.825   3.222   0.643  0.0351  0.1345  0.4936
 2008SOL    HW117483   3.804   3.228   0.736  2.8924 -0.6848  1.1947
 2008SOL    HW217484   3.789   3.136   0.624  0.4613 -0.0657  0.5993
 2009SOL     OW17485   3.854   4.691   5.747 -0.1557  0.0980  0.5783
 2009SOL    HW117486   3.932   4.654   5.706 -0.2702  0.4822  0.0192
 2009SOL    HW217487   3.893   0.041   5.797 -0.0384  0.9776 -0.7986
 2010SOL     OW17488   4.466   0.678   7.756  0.5544  0.2803 -0.1745
 2010SOL    HW117489   4.503   0.696   7.843 -0.9105  0.4967  0.4011
 2010SOL    HW217490   4.481   0.763   7.715 -0.4110 -0.2650 -1.6138
 2011SOL     OW17491   0.590   2.746   5.700  0.1671 -0.3104 -0.1966
 2011SOL    HW117492   0.643   2.666   5.707  1.2474  0.3104 -1.2296
 2011SOL    HW217493   0.518   2.722   5.757 -1.2524  0.6453 -1.5897
 2012SOL     OW17494   4.591   1.182   8.441 -0.0617  0.0849 -0.3670
 2012SOL    HW117495   4.578   1.262   8.390  4.9652  1.3668  0.4330
 2012SOL    HW217496   4.530   1.189   8.514 -2.2373 -1.1160 -2.0586
 2013SOL     OW17497   3.697   4.022   9.208 -0.2876 -0.2069  0.2957
 2013SOL    HW117498   3.671   4.030   9.116  1.0629  0.8379  0.0007
 2013SOL    HW217499   3.633   4.075   9.255  1.7577  1.9300  0.6677
 2014SOL     OW17500   0.070   0.541  11.208 -0.0745  0.7757 -0.1793
 2014SOL    HW117501   0.076   0.464  11.152 -0.2988  0.8589 -0.3195
 2014SOL    HW217502   0.025   0.511  11.287  2.0113  1.1587  1.1498
 2015SOL     OW17503   1.058   4.436  17.653 -0.3783  0.1020 -0.2675
 2015SOL    HW117504   1.033   4.494   0.033 -0.0311  0.3168 -0.3190
 2015SOL    HW217505   1.016   4.454  17.568 -0.6481 -0.3113 -0.2229
 2016SOL     OW17506   3.205   0.422   8.849 -0.3105 -0.3340  0.1299
 2016SOL    HW117507   3.287   0.393   8.810 -0.1923 -0.4450  0.4584
 2016SOL    HW217508   3.231   0.486   8.916 -1.9444  1.7653 -1.2354
 2017SOL     OW17509   0.906   3.402   7.462 -0.1900 -0.3922 -0.3276
 2017SOL    HW117510   0.936   3.446   7.541 -3.0026  0.0809  0.4738
 2017SOL    HW217511   0.902   3.310   7.488 -0.1785 -0.6621 -1.2799
 2018SOL     OW17512   3.118   4.394   5.133 -0.7689  0.0231 -0.0685
 2018SOL    HW117513   3.128   4.457   5.205 -0.2599 -0.6166  0.4224
 2018SOL    HW217514   3.168   4.326   5.179 -0.3942 -0.4251 -1.1514
 2019SOL     OW17515   2.979   3.523  15.113  0.3044  0.1788  0.4527
 2019SOL    HW117516   2.979   3.589  15.182 -0.7662  1.3906 -0.7190
 2019SOL    HW217517   2.963   3.577  15.035  0.2514  1.2326  1.1988
 2020SOL     OW17518   1.637   2.052   4.251  0.1526  0.4194  0.1954
 2020SOL    HW117519   1.665   1.997   4.178  2.5135  2.3964 -0.3656
 2020SOL    HW217520   1.550   2.080   4.222  1.1902  1.8956 -1.4315
 2021SOL     OW17521   2.604   1.915  16.942 -0.2064 -0.1236 -0.3476
 2021SOL    HW117522   2.566   1.994  16.902 -1.4695  0.0730  1.2263
 2021SOL    HW217523   2.695   1.917  16.913  0.0206 -1.7020  0.2550
 2022SOL     OW17524   4.397   2.858   2.414 -0.3876 -0.1236  0.0960
 2022SOL    HW117525   4.431   2.909   2.340  2.4982 -1.9145  0.1933
 2022SOL    HW217526   4.320   2.822   2.369 -1.2861  1.6166  0.2387
 2023SOL     OW17527   0.395   4.101   6.294 -0.3614 -0.4647  0.3531
 2023SOL    HW117528   0.306   4.132   6.276  0.3244  0.9982 -0.5280
 2023SOL    HW217529   0.398   4.125   6.387  0.4070  0.7427  0.0304
 2024SOL     OW17530   0.117   4.656   2.782  0.0232  0.4959 -0.1126
 2024SOL    HW117531   0.094   0.010   2.835  0.4078  1.3062 -1.1001
 2024SOL    HW217532   0.208   4.636   2.804  0.0188  0.7887  0.1792
 2025SOL     OW17533   0.069   4.173  13.329  0.1444 -0.4954  0.3320
 2025SOL    HW117534   4.707   4.173  13.375  0.2401 -1.8846  0.5279
 2025SOL    HW217535   0.124   4.135  13.398 -0.3904  0.1044  1.0773
 2026SOL     OW17536   2.270   3.181   2.388 -0.1928 -0.0125  0.1541
 2026SOL    HW117537   2.344   3.139   2.430 -0.1661 -1.4272 -1.3166
 2026SOL    HW217538   2.203   3.115   2.371  2.7370 -2.8803 -0.1980
 2027SOL     OW17539   0.829   1.450  17.227 -0.2513 -0.1677  0.0526
 2027SOL    HW117540   0.755   1.510  17.218 -1.0238 -1.3704 -1.5792
 2027SOL    HW217541   0.890   1.521  17.250 -0.3811 -0.8405  2.4797
 2028SOL     OW17542   0.563   3.411   3.998 -0.0339  0.4874  0.0120
 2028SOL    HW117543   0.488   3.351   3.989 -1.7453  2.8306 -1.5404
 2028SOL    HW217544   0.535   3.476   3.934  0.1462 -0.6958 -1.2673
 2029SOL     OW17545   0.911   3.909   7.737 -0.0451  0.1510  0.1996
 2029SOL    HW117546   0.823   3.872   7.730 -0.2496  0.5430  0.7122
 2029SOL    HW217547   0.960   3.838   7.778  0.1995  0.4951  0.5013
 2030SOL     OW17548   0.745   3.371   5.188 -0.6864  0.2951 -0.0891
 2030SOL    HW117549   0.826   3.416   5.214  1.1606 -2.3888 -1.1244
 2030SOL    HW217550   0.685   3.442   5.208 -1.4598 -0.3108 -0.2587
 2031SOL     OW17551   0.086   4.194   5.105 -0.3322  0.0978  0.3483
 2031SOL    HW117552   0.111   4.120   5.161 -1.1466 -1.0988 -0.8504
 2031SOL    HW217553   0.163   4.247   5.124 -0.9692  1.3814 -0.7363
 2032SOL     OW17554   0.146   1.359   1.890  0.0320 -0.2676 -0.1447
 2032SOL    HW117555   0.144   1.340   1.984 -3.1910 -0.9273 -0.3485
 2032SOL    HW217556   0.092   1.437   1.902  1.3409  0.5911  0.0988
 2033SOL     OW17557   2.198   4.094   4.907  0.4105 -0.1746 -0.2446
 2033SOL    HW117558   2.273   4.055   4.862  0.4383  1.1891 -1.3618
 2033SOL    HW217559   2.136   4.111   4.836 -1.3005 -2.0409  0.7957
 2034SOL     OW17560   4.377   4.344   9.356  0.3886  0.1044  0.2527
 2034SOL    HW117561   4.307   4.407   9.375 -0.2502  0.1074 -2.1629
 2034SOL    HW217562   4.330   4.265   9.379  1.9897 -0.4888  1.4751
 2035SOL     OW17563   3.436   3.818   3.409 -0.0358 -0.0874 -0.2046
 2035SOL    HW117564   3.370   3.883   3.434 -2.0372 -2.2073  0.1001
 2035SOL    HW217565   3.373   3.748   3.391  0.5074 -0.6835  0.2050
 2036SOL     OW17566   0.984   3.037  11.284 -0.5281 -0.1301 -0.3249
 2036SOL    HW117567   1.079   3.040  11.291 -0.7347  0.4831  2.2877
 2036SOL    HW217568   0.952   3.030  11.374  1.7923  0.0164  0.5193
 2037SOL     OW17569   3.306   2.440  12.090 -0.5411 -0.3557  0.0674
 2037SOL    HW117570   3.230   2.384  12.077 -2.0234  1.5157  0.6212
 2037SOL    HW217571   3.266   2.527  12.085 -0.4121 -0.2509  0.7900
 2038SOL     OW17572   3.017   0.755   4.860  0.4811 -0.1864  0.4052
 2038SOL    HW117573   2.935   0.710   4.844 -0.3591  1.3689  0.2906
 2038SOL    HW217574   2.995   0.809   4.937  2.7154  1.8004 -0.3343
 2039SOL     OW17575   2.265   4.700   0.054 -0.5965  0.2225 -0.1881
 2039SOL    HW117576   2.267   0.066   0.091 -2.2530  0.9784 -1.8775
 2039SOL    HW217577   2.179   4.674   0.087 -0.7036  0.6742 -0.1080
 2040SOL     OW17578   2.324   0.630   0.798 -0.5061  0.0715  0.5327
 2040SOL    HW117579   2.250   0.611   0.856 -0.4318  0.4484  0.7509
 2040SOL    HW217580   2.392   0.581   0.844 -1.0518 -0.2633  0.9743
 2041SOL     OW17581   2.561   0.045  16.502 -0.1846  0.2606  0.3687
 2041SOL    HW117582   2.485   4.714  16.479  0.0531 -0.7583  1.9561
 2041SOL    HW217583   2.555   0.097  16.421 -0.0370 -0.6089 -0.2092
 2042SOL     OW17584   4.152   3.937   2.254  0.2501 -0.3045 -0.0499
 2042SOL    HW117585   4.238   3.976   2.237  0.8935  0.0859  4.1580
 2042SOL    HW217586   4.151   3.865   2.190 -1.1871 -0.3961  0.0653
 2043SOL     OW17587   1.638   4.163   6.918 -0.1185 -0.7720 -0.3987
 2043SOL    HW117588   1.594   4.214   6.987 -0.2858  0.9546 -1.7696
 2043SOL    HW217589   1.702   4.122   6.976 -0.5733 -1.9139 -0.7106
 2044SOL     OW17590   1.414   4.048   5.193  0.6098  0.3810  0.3074
 2044SOL    HW117591   1.480   4.110   5.163  0.6394 -0.0085 -0.4185
 2044SOL    HW217592   1.445   4.045   5.283  2.0877  0.8085 -0.1865
 2045SOL     OW17593   1.425   4.084   6.272 -0.1130  1.0612 -0.2235
 2045SOL    HW117594   1.504   4.115   6.316 -1.2221 -0.0979  2.5930
 2045SOL    HW217595   1.397   4.014   6.331 -1.6020  0.8143 -1.2433
 2046SOL     OW17596   4.260   4.080   3.551  0.5353 -0.3714 -0.2335
 2046SOL    HW117597   4.220   4.051   3.470  0.6656  0.2129 -0.5089
 2046SOL    HW217598   4.187   4.076   3.613  0.0536  0.3291 -0.7508
 2047SOL     OW17599   3.603   2.723   4.970 -0.3779 -0.1746  0.4690
 2047SOL    HW117600   3.587   2.753   5.060 -3.4996  0.6733 -0.3584
 2047SOL    HW217601   3.522   2.680   4.943  0.0019 -1.4258  1.2645
 2048SOL     OW17602   1.436   4.027   8.696 -0.1106 -0.2445 -0.0870
 2048SOL    HW117603   1.502   3.993   8.757 -0.4612  2.3692  1.7818
 2048SOL    HW217604   1.475   4.011   8.611 -0.7383  0.8599 -0.5803
 2049SOL     OW17605   3.029   4.429  11.122  0.2619  0.5565  0.1359
 2049SOL    HW117606   3.094   4.486  11.162  0.1736 -0.4819  1.7906
 2049SOL    HW217607   3.089   4.381  11.066 -1.2253  0.2919 -1.2113
 2050SOL     OW17608   2.802   2.126   3.403  0.5921  0.1176  0.7061
 2050SOL    HW117609   2.859   2.184   3.352  0.5644  0.6624  1.2809
 2050SOL    HW217610   2.793   2.177   3.484 -1.2906  0.2877  0.3805
 2051SOL     OW17611   1.982   2.339   4.456 -0.5708  0.5567  0.8909
 2051SOL    HW117612   1.896   2.321   4.495  0.0711 -2.6150  0.8553
 2051SOL    HW217613   1.956   2.389   4.379  0.7251  0.1336  0.1828
 2052SOL     OW17614   3.244   3.773   7.542 -0.2810 -0.0987 -0.0739
 2052SOL    HW117615   3.204   3.738   7.622  0.0817 -3.1072 -1.2187
 2052SOL    HW217616   3.272   3.690   7.503 -1.5320 -1.9087  2.8540
 2053SOL     OW17617   3.599   2.541   5.663  0.4953 -0.1043  0.0842
 2053SOL    HW117618   3.636   2.586   5.587  2.2459 -2.1435 -0.2850
 2053SOL    HW217619   3.544   2.609   5.702 -0.6614 -0.0787 -1.6208
 2054SOL     OW17620   3.277   2.875  11.270 -0.0495 -0.1586  0.3912
 2054SOL    HW117621   3.358   2.831  11.295  0.4946 -0.2249 -1.4754
 2054SOL    HW217622   3.248   2.901  11.357  1.4610 -0.4844  0.9932
 2055SOL     OW17623   3.134   4.520   2.409 -0.6227 -0.1468  0.1505
 2055SOL    HW117624   3.114   4.490   2.321 -4.5122  2.3042  0.2041
 2055SOL    HW217625   3.205   4.583   2.399  1.9661 -3.0399  0.3827
 2056SOL     OW17626   3.328   1.640   3.576 -0.7903  0.1855  1.1117
 2056SOL    HW117627   3.252   1.698   3.581 -1.2957 -0.4722  0.9897
 2056SOL    HW217628   3.329   1.613   3.668 -0.2273  0.2229  1.1152
 2057SOL     OW17629   1.772   3.170   6.587 -0.8163 -0.4629  0.4089
 2057SOL    HW117630   1.682   3.147   6.565 -0.9474 -0.1974  0.6760
 2057SOL    HW217631   1.804   3.089   6.626  1.0578  0.6510  1.1957
 2058SOL     OW17632   0.315   0.406   7.330 -0.2890 -0.0120 -0.7700
 2058SOL    HW117633   0.352   0.386   7.416 -3.3404  0.1774  0.5873
 2058SOL    HW217634   0.302   0.320   7.290 -1.7550 -0.4252  0.6008
 2059SOL     OW17635   2.345   1.073  15.946 -0.3729  0.3313 -0.0938
 2059SOL    HW117636   2.273   1.032  15.899  0.0834 -2.7806  1.8860
 2059SOL    HW217637   2.412   1.005  15.937 -0.2018  0.5912 -0.7996
 2060SOL     OW17638   0.008   1.110   6.405 -0.2742 -0.2169  0.1194
 2060SOL    HW117639   0.009   1.205   6.396  1.0373 -0.0585  1.9582
 2060SOL    HW217640   0.094   1.091   6.367 -0.2002  0.1947  0.0823
 2061SOL     OW17641   0.275   4.253  14.049 -0.1260  0.5865  0.2743
 2061SOL    HW117642   0.286   4.347  14.031  1.3270  0.4234  0.3148
 2061SOL    HW217643   0.364   4.218  14.049  0.7859  2.8631 -0.9569
 2062SOL     OW17644   4.535   1.060   1.578  0.3011 -0.2848  0.0359
 2062SOL    HW117645   4.516   1.145   1.538  0.3547 -0.0551  0.5059
 2062SOL    HW217646   4.492   1.005   1.512 -0.7967  0.0331  0.4847
 2063SOL     OW17647   0.919   2.574  11.108  0.4459 -0.3140 -0.4814
 2063SOL    HW117648   0.830   2.542  11.098  0.4378 -0.4893  0.1770
 2063SOL    HW217649   0.934   2.603  11.017 -0.7843  2.1679  0.1130
 2064SOL     OW17650   0.015   0.954   4.212 -0.2506 -0.1023 -0.0430
 2064SOL    HW117651   0.060   0.881   4.169  1.5760  1.3143 -0.5450
 2064SOL    HW217652   4.658   0.914   4.247 -0.2182 -2.1991 -2.3623
 2065SOL     OW17653   3.167   0.298   7.590 -0.0849  0.7670  0.4624
 2065SOL    HW117654   3.244   0.317   7.644  1.2844  0.2467 -1.3387
 2065SOL    HW217655   3.161   0.382   7.543  1.2890  0.2577 -0.5893
 2066SOL     OW17656   3.502   2.372  15.606  0.0490 -0.1508  0.7568
 2066SOL    HW117657   3.498   2.466  15.624 -0.5771 -0.4714  2.3011
 2066SOL    HW217658   3.545   2.347  15.688  0.8041  3.4094  1.4434
 2067SOL     OW17659   2.298   1.278   3.239  0.7433  0.1222  0.1875
 2067SOL    HW117660   2.272   1.224   3.315 -1.7306  0.8300 -0.1620
 2067SOL    HW217661   2.389   1.252   3.230  1.1197  2.2314 -1.8454
 2068SOL     OW17662   2.750   1.888  16.319  0.3226 -0.3214 -0.3492
 2068SOL    HW117663   2.680   1.953  16.308 -0.7529 -1.6295 -1.1558
 2068SOL    HW217664   2.710   1.841  16.392  3.1194 -2.1159  0.0377
 2069SOL     OW17665   1.493   0.952   7.656  0.0882 -0.4444  0.3841
 2069SOL    HW117666   1.423   0.916   7.711  0.7228 -1.8621  0.2775
 2069SOL    HW217667   1.457   0.922   7.572 -0.8253 -0.9387  0.9445
 2070SOL     OW17668   3.072   1.338  14.515  0.2982  0.0349  0.6876
 2070SOL    HW117669   3.155   1.295  14.498  0.3459  1.6978 -3.3607
 2070SOL    HW217670   3.080   1.420  14.466  2.3592 -0.5736  0.0208
 2071SOL     OW17671   2.190   0.503  12.097  0.1509 -0.1271 -0.1502
 2071SOL    HW117672   2.096   0.518  12.088  0.0419 -0.8989 -0.2881
 2071SOL    HW217673   2.201   0.437  12.029 -0.4797 -0.3004 -0.0879
 2072SOL     OW17674   0.028   4.109   1.763  0.1284  0.2208 -0.5644
 2072SOL    HW117675   0.080   4.190   1.764  0.6290 -0.0943 -1.6249
 2072SOL    HW217676   4.700   4.120   1.844  0.8619 -1.1693  0.0805
 2073SOL     OW17677   0.134   2.346   2.209  0.0321  0.5991  0.8861
 2073SOL    HW117678   0.140   2.442   2.214  1.4873  0.6475 -1.9409
 2073SOL    HW217679   0.172   2.317   2.126  0.5391 -0.3305  1.4449
 2074SOL     OW17680   1.257   4.553  12.834  0.3327 -0.4744  0.6477
 2074SOL    HW117681   1.232   4.532  12.923 -0.3529 -2.1425  0.0527
 2074SOL    HW217682   1.338   4.503  12.838  0.5604 -0.4219 -2.7503
 2075SOL     OW17683   1.217   4.355   8.299 -0.0656  0.3775 -0.0240
 2075SOL    HW117684   1.280   4.326   8.365 -0.9503 -1.1934  0.1357
 2075SOL    HW217685   1.167   4.275   8.282  0.4102  0.5307 -2.1415
 2076SOL     OW17686   2.073   1.939   4.894  0.5685 -0.0295 -0.3401
 2076SOL    HW117687   2.157   1.894   4.888  1.1531  0.8371  1.3407
 2076SOL    HW217688   2.025   1.876   4.841 -1.3615  3.7453 -3.1315
 2077SOL     OW17689   3.740   4.427  13.165 -0.0952  0.5851  0.3155
 2077SOL    HW117690   3.701   4.389  13.086  1.2431 -2.5872  1.1671
 2077SOL    HW217691   3.818   4.371  13.167 -0.1612  0.5749  3.6935
 2078SOL     OW17692   3.890   3.067   6.106 -0.5792 -0.2939  0.3063
 2078SOL    HW117693   3.832   3.020   6.165  0.6357 -0.2930  1.4991
 2078SOL    HW217694   3.834   3.138   6.076 -1.4093 -0.6317  1.0890
 2079SOL     OW17695   4.389   2.555   8.410  0.3362 -0.3012 -0.1841
 2079SOL    HW117696   4.475   2.562   8.453  0.4967 -1.8242 -0.2405
 2079SOL    HW217697   4.359   2.470   8.444  1.6565 -0.7764 -0.1999
 2080SOL     OW17698   1.632   4.600  13.667 -0.0783 -0.2506 -0.1139
 2080SOL    HW117699   1.572   4.568  13.734 -1.0910  1.6807 -0.0917
 2080SOL    HW217700   1.618   4.694  13.673  0.2641 -0.0804 -2.0547
 2081SOL     OW17701   3.023   2.374  11.785 -0.0152 -0.4485  0.2920
 2081SOL    HW117702   2.969   2.297  11.770  0.4977 -0.9997  1.3164
 2081SOL    HW217703   3.034   2.375  11.880  2.6529 -2.5601 -0.0013
 2082SOL     OW17704   0.537   1.533   6.163 -0.3458  0.6581 -0.3650
 2082SOL    HW117705   0.568   1.445   6.183  0.8027  1.5212  1.7071
 2082SOL    HW217706   0.621   1.577   6.151 -0.3297  0.5285 -0.7354
 2083SOL     OW17707   3.919   2.208   1.245  0.3165 -0.2592  0.1338
 2083SOL    HW117708   3.855   2.274   1.273  0.6319 -0.5343  1.5242
 2083SOL    HW217709   3.936   2.219   1.152  0.1549  1.9739  0.3584
 2084SOL     OW17710   1.905   1.705  15.654  0.0663  0.3173  0.6975
 2084SOL    HW117711   1.982   1.741  15.610 -0.2259 -0.5652 -0.4986
 2084SOL    HW217712   1.835   1.749  15.606  0.2709  0.6010  0.6594
 2085SOL     OW17713   0.780   0.159  12.690  0.4095  0.3581 -0.0260
 2085SOL    HW117714   0.794   0.191  12.779 -1.1367 -1.4241  0.8640
 2085SOL    HW217715   0.864   0.181  12.652  0.5829  1.3708  0.9539
 2086SOL     OW17716   4.222   3.825   8.794 -0.3129  0.0878  0.1647
 2086SOL    HW117717   4.286   3.842   8.724  0.1846  2.1922  1.1187
 2086SOL    HW217718   4.256   3.737   8.811 -1.9106 -0.3465  1.0685
 2087SOL     OW17719   2.287   1.748   2.323  0.1243 -0.1527 -0.2347
 2087SOL    HW117720   2.297   1.835   2.360 -2.0322  0.1792 -0.4086
 2087SOL    HW217721   2.291   1.760   2.228  3.1893  1.7103  0.1661
 2088SOL     OW17722   1.404   2.452  11.149 -0.3384 -0.4525  0.8454
 2088SOL    HW117723   1.418   2.545  11.169 -0.0823 -0.3048 -0.0329
 2088SOL    HW217724   1.490   2.410  11.156  0.3303  1.0623  1.9416
 2089SOL     OW17725   3.698   4.031   2.408  0.0974 -0.2823 -0.6243
 2089SOL    HW117726   3.619   3.979   2.391  1.0963 -2.3402  1.0200
 2089SOL    HW217727   3.771   3.990   2.361 -1.4502 -0.5668 -2.7479
 2090SOL     OW17728   4.709   3.856   3.173 -0.5445  0.0500 -0.1475
 2090SOL    HW117729   4.618   3.879   3.193 -0.3131 -0.1398  1.1020
 2090SOL    HW217730   0.007   3.824   3.261 -1.4441 -1.2891 -0.4234
 2091SOL     OW17731   2.479   1.740  16.399  0.0380  0.0781 -0.1290
 2091SOL    HW117732   2.513   1.821  16.360 -1.7763  1.8537  1.9966
 2091SOL    HW217733   2.443   1.774  16.480  0.3229 -3.3337  1.4368
 2092SOL     OW17734   4.692   2.382  10.511  0.0765  0.1604  0.1516
 2092SOL    HW117735   4.689   2.319  10.583 -0.1172  1.7579  1.5429
 2092SOL    HW217736   0.033   2.335  10.456  0.6656 -0.1714  1.1161
 2093SOL     OW17737   3.392   1.850  16.908 -0.4305  0.1731 -0.2246
 2093SOL    HW117738   3.406   1.939  16.941 -2.8653  1.4872 -2.7194
 2093SOL    HW217739   3.404   1.856  16.813  0.3447  0.9436 -0.0835
 2094SOL     OW17740   3.772   4.060   8.011 -0.1576 -0.0826  0.4912
 2094SOL    HW117741   3.790   3.980   8.061 -0.8129 -0.8148 -0.4557
 2094SOL    HW217742   3.858   4.071   7.971 -0.2536  1.3500  0.6464
 2095SOL     OW17743   2.083   1.892   7.343 -0.1371  0.1634  0.0141
 2095SOL    HW117744   2.062   1.922   7.432 -0.5010 -0.4480  0.1364
 2095SOL    HW217745   2.038   1.961   7.295  0.1000  1.0473  1.0387
 2096SOL     OW17746   1.773   2.829   9.892 -0.0833 -0.6203 -0.5915
 2096SOL    HW117747   1.695   2.792   9.851  1.8647 -3.2572 -1.8655
 2096SOL    HW217748   1.815   2.752   9.930  0.7325 -0.1976 -0.6342
 2097SOL     OW17749   2.201   0.133   7.741 -0.0603 -0.1528  0.4495
 2097SOL    HW117750   2.266   0.120   7.672 -1.6641 -1.9040 -0.7201
 2097SOL    HW217751   2.234   0.076   7.811 -1.3832 -0.8172  0.5289
 2098SOL     OW17752   4.647   4.277   9.402  0.0980  0.2988  0.3416
 2098SOL    HW117753   4.553   4.282   9.382  0.2270 -1.3655 -0.6386
 2098SOL    HW217754   4.657   4.352   9.462  0.8542  2.2690 -2.2379
 2099SOL     OW17755   1.299   3.721   4.841  0.4983  1.0128 -0.1017
 2099SOL    HW117756   1.276   3.728   4.934 -1.3079  0.5849 -0.5146
 2099SOL    HW217757   1.390   3.747   4.846  0.3176  1.3050  1.7746
 2100SOL     OW17758   1.257   1.710  11.662 -0.1144  0.1965 -0.4578
 2100SOL    HW117759   1.337   1.683  11.617 -0.5176 -1.8676  0.0709
 2100SOL    HW217760   1.232   1.626  11.700 -1.3243  1.0308  0.5851
 2101SOL     OW17761   2.944   2.317   9.821 -0.6758  0.8913  0.2885
 2101SOL    HW117762   2.873   2.312   9.884 -0.1392 -0.1131  0.8064
 2101SOL    HW217763   2.901   2.303   9.737 -1.6278 -0.8131  1.0703
 2102SOL     OW17764   3.943   2.890   2.037  0.4840 -0.0529  0.1590
 2102SOL    HW117765   3.926   2.816   2.097  1.4457  0.4685  1.0649
 2102SOL    HW217766   3.858   2.933   2.039 -1.3462 -3.5947 -1.5363
 2103SOL     OW17767   3.528   0.184   9.125 -0.4198 -0.7243  0.1841
 2103SOL    HW117768   3.435   0.204   9.132 -0.0756  1.4448 -1.7246
 2103SOL    HW217769   3.530   0.154   9.034  1.9865  1.4845 -0.4873
 2104SOL     OW17770   3.330   1.404   4.957  0.7877 -0.4280  0.2158
 2104SOL    HW117771   3.275   1.341   4.912  2.6627 -1.6810 -0.3241
 2104SOL    HW217772   3.271   1.435   5.026  1.9879 -0.3269  1.2102
 2105SOL     OW17773   2.250   2.562  16.714  0.5260 -0.2050 -0.0648
 2105SOL    HW117774   2.320   2.578  16.777  0.0477 -0.9649  0.6589
 2105SOL    HW217775   2.187   2.624  16.753  0.1115 -0.1508 -0.8254
 2106SOL     OW17776   0.551   3.677   7.453  0.3224  0.1270  0.0195
 2106SOL    HW117777   0.460   3.647   7.458 -0.0040  1.0728 -0.2122
 2106SOL    HW217778   0.582   3.634   7.373 -0.2489 -0.1496 -0.0563
 2107SOL     OW17779   1.603   3.244   7.834 -1.2127 -0.0139  0.0741
 2107SOL    HW117780   1.565   3.188   7.901  2.5459 -2.6926 -0.0595
 2107SOL    HW217781   1.678   3.276   7.883  0.3652 -0.5998 -1.9409
 2108SOL     OW17782   1.009   2.632  12.184 -0.2187 -0.0231 -0.0805
 2108SOL    HW117783   1.022   2.539  12.201 -1.3270  0.0014  0.9050
 2108SOL    HW217784   0.934   2.643  12.242 -0.6757  0.1422 -0.6943
 2109SOL     OW17785   4.211   4.414   4.227  0.0501  0.0574 -0.6825
 2109SOL    HW117786   4.253   4.351   4.168 -0.4099 -0.6260 -0.2827
 2109SOL    HW217787   4.128   4.420   4.180 -1.7069 -0.5085  2.3595
 2110SOL     OW17788   0.662   2.472   5.370 -0.1170 -0.4874  0.4844
 2110SOL    HW117789   0.636   2.560   5.398 -2.2607  0.2202 -3.6769
 2110SOL    HW217790   0.582   2.424   5.347  0.1422  0.5012 -2.5154
 2111SOL     OW17791   0.914   0.316   2.030 -0.1314 -0.1730  0.3668
 2111SOL    HW117792   0.929   0.282   2.118  0.0200  1.2044  0.8774
 2111SOL    HW217793   0.917   0.242   1.971  0.0514 -0.8776  1.2558
 2112SOL     OW17794   3.784   1.373   1.535  0.5229  0.0063  0.0129
 2112SOL    HW117795   3.740   1.424   1.467 -1.3246  0.2164  1.3611
 2112SOL    HW217796   3.735   1.291   1.530  0.4227  0.0177  0.7198
 2113SOL     OW17797   2.997   2.558  16.024  0.1983  0.2361 -0.2973
 2113SOL    HW117798   3.026   2.625  16.086  0.0657 -0.7318  0.8132
 2113SOL    HW217799   2.950   2.609  15.958 -1.0650 -1.5242 -0.7528
 2114SOL     OW17800   0.041   1.729   0.352  0.3837 -0.1411 -0.3810
 2114SOL    HW117801   0.039   1.691   0.264 -1.1645  0.8238 -0.7626
 2114SOL    HW217802   0.047   1.654   0.412  1.0638  0.1659 -0.0723
 2115SOL     OW17803   3.734   4.683   5.075 -0.0000 -0.2428 -0.3154
 2115SOL    HW117804   3.656   4.630   5.096 -0.7019  0.5688 -0.9010
 2115SOL    HW217805   3.694   0.048   5.076  0.5514  0.0260 -2.6153
 2116SOL     OW17806   3.560   1.332   2.350  0.0121  0.1176 -0.1313
 2116SOL    HW117807   3.583   1.273   2.423  1.6878 -1.9587 -2.3361
 2116SOL    HW217808   3.643   1.378   2.341  1.4246 -1.8826  2.4720
 2117SOL     OW17809   2.204   2.725   8.895 -0.7834 -0.4122 -0.5189
 2117SOL    HW117810   2.281   2.781   8.888 -1.8636  0.9613 -1.3696
 2117SOL    HW217811   2.201   2.718   8.991  0.1091 -3.2776 -0.7070
 2118SOL     OW17812   0.081   4.306   0.098  0.2256 -0.0693 -0.0096
 2118SOL    HW117813   0.073   4.391   0.056  1.1094  0.1708  0.3097
 2118SOL    HW217814   4.713   4.276   0.092  0.5323 -0.9446 -0.2384
 2119SOL     OW17815   1.576   3.838   7.169  0.4659  0.4208  0.2376
 2119SOL    HW117816   1.628   3.820   7.247  0.7468 -0.4681 -0.1527
 2119SOL    HW217817   1.616   3.919   7.139  1.1103  0.3520  0.9158
 2120SOL     OW17818   0.839   2.702   6.719 -0.0764  0.1642  0.1668
 2120SOL    HW117819   0.823   2.771   6.783  2.7807 -0.4210  1.5384
 2120SOL    HW217820   0.800   2.740   6.641  0.0914  0.3060  0.1503
 2121SOL     OW17821   3.954   1.500   3.019  0.4040  0.3784 -0.4028
 2121SOL    HW117822   3.869   1.539   2.996  0.8033  1.3303 -0.2792
 2121SOL    HW217823   4.007   1.576   3.044  1.1407  0.3111 -1.8058
 2122SOL     OW17824   4.592   4.531   5.654  0.1915  0.4441  0.1114
 2122SOL    HW117825   4.529   4.550   5.724  1.3408 -2.3197  1.8988
 2122SOL    HW217826   4.630   4.445   5.674 -0.0745  0.0826 -0.9458
 2123SOL     OW17827   2.083   3.728   6.851 -0.3356 -0.7270 -0.9684
 2123SOL    HW117828   2.035   3.668   6.907 -1.4944 -0.8897 -2.1500
 2123SOL    HW217829   2.087   3.678   6.770 -1.0590  0.4840 -1.7507
 2124SOL     OW17830   4.392   3.553  11.700 -0.1018  0.1778 -0.7681
 2124SOL    HW117831   4.354   3.525  11.782  0.0464 -1.4867 -1.2791
 2124SOL    HW217832   4.333   3.503  11.644  0.8215 -0.7333 -0.9211
 2125SOL     OW17833   0.969   1.146  17.656  0.2173  0.2274  0.3580
 2125SOL    HW117834   1.063   1.162  17.663  0.0497  1.4368 -0.1743
 2125SOL    HW217835   0.927   1.228  17.679 -0.1634  0.0391  0.3429
 2126SOL     OW17836   3.408   3.372   5.504 -0.1932  0.3032  0.2555
 2126SOL    HW117837   3.502   3.384   5.492  0.2076  0.2294  3.3210
 2126SOL    HW217838   3.378   3.361   5.414 -0.5876  0.2819  0.3887
 2127SOL     OW17839   3.674   1.447  16.284 -0.6510 -0.1281  0.1160
 2127SOL    HW117840   3.719   1.532  16.285  0.7417 -0.8459 -0.8061
 2127SOL    HW217841   3.585   1.469  16.313  0.8305  2.2364  2.8645
 2128SOL     OW17842   3.959   0.492   3.552 -0.2217  0.0010 -0.3855
 2128SOL    HW117843   3.997   0.426   3.493 -1.3756 -0.3702 -0.7138
 2128SOL    HW217844   4.034   0.495   3.611 -0.7981 -0.3511  0.3565
 2129SOL     OW17845   4.006   4.395   4.013 -0.8196  0.8484  0.1364
 2129SOL    HW117846   4.064   4.401   3.936 -1.4887 -1.4290 -0.5465
 2129SOL    HW217847   3.922   4.371   3.975 -0.2961  0.6755 -0.9355
 2130SOL     OW17848   2.662   0.039  11.176 -0.2700  0.0981 -0.0777
 2130SOL    HW117849   2.637   4.670  11.159 -1.4388  0.6888 -1.5571
 2130SOL    HW217850   2.756   0.030  11.158 -0.2978 -0.7119  0.1671
 2131SOL     OW17851   4.254   4.659   3.945 -0.0659 -0.5853  0.4315
 2131SOL    HW117852   4.294   4.666   3.859  1.1021  0.8671  1.0895
 2131SOL    HW217853   4.166   4.641   3.913  0.5295 -2.2137 -0.3198
 2132SOL     OW17854   4.638   3.150  12.666 -0.4099 -0.2729  0.4908
 2132SOL    HW117855   4.708   3.107  12.715 -0.5118 -0.1591  0.7340
 2132SOL    HW217856   4.638   3.237  12.706 -1.3353  0.2914 -0.7289
 2133SOL     OW17857   1.431   2.099  13.565  0.2647 -0.1317 -0.6705
 2133SOL    HW117858   1.491   2.120  13.494 -0.3395  1.8311 -0.6005
 2133SOL    HW217859   1.455   2.008  13.579  0.6193  0.0071 -0.3803
 2134SOL     OW17860   2.577   3.890   5.897  0.3549 -0.1255  0.2597
 2134SOL    HW117861   2.505   3.868   5.956 -0.7644 -1.1495 -1.5321
 2134SOL    HW217862   2.533   3.932   5.824  1.2916 -1.9163 -1.3142
 2135SOL     OW17863   1.155   2.722   7.800  0.8092 -0.2631 -0.1005
 2135SOL    HW117864   1.146   2.627   7.809 -0.0699 -0.1532  0.2494
 2135SOL    HW217865   1.209   2.728   7.721  2.4875 -2.0393  0.9085
 2136SOL     OW17866   0.985   1.302   5.345  0.6663 -0.1545  0.2145
 2136SOL    HW117867   0.976   1.347   5.429 -0.3865 -0.0910  0.0721
 2136SOL    HW217868   1.013   1.218   5.381 -0.3556 -1.4934 -2.0684
 2137SOL     OW17869   1.712   1.367   3.299 -0.2615  0.0808 -0.2955
 2137SOL    HW117870   1.643   1.330   3.244  0.0428 -0.2419 -0.4597
 2137SOL    HW217871   1.684   1.331   3.383 -1.3632  1.7107  0.0363
 2138SOL     OW17872   4.137   3.344  16.424  0.1051 -0.0034 -0.8990
 2138SOL    HW117873   4.225   3.382  16.428 -1.1252  2.7116 -0.1165
 2138SOL    HW217874   4.155   3.300  16.340  1.3430 -0.8588 -0.1922
 2139SOL     OW17875   2.089   3.736  15.302 -0.0285 -0.3752 -0.3179
 2139SOL    HW117876   2.132   3.686  15.371 -0.9046  1.0588  1.2680
 2139SOL    HW217877   2.158   3.792  15.266 -0.5943  1.2846  1.1556
 2140SOL     OW17878   3.790   1.651   7.581 -0.0901 -0.4393  0.4151
 2140SOL    HW117879   3.706   1.608   7.599 -0.4266  0.7984  1.8381
 2140SOL    HW217880   3.842   1.612   7.651 -0.9084 -0.9596  0.7399
 2141SOL     OW17881   4.348   2.608   9.369  0.3786 -0.3135  0.0697
 2141SOL    HW117882   4.407   2.583   9.297  0.0443  0.6569 -0.5416
 2141SOL    HW217883   4.288   2.664   9.320  2.5205 -0.1865 -2.4267
 2142SOL     OW17884   0.571   1.648   2.845 -0.1821 -0.2249  0.4902
 2142SOL    HW117885   0.483   1.684   2.851 -0.0907 -0.1277  1.2873
 2142SOL    HW217886   0.632   1.722   2.846  0.4460 -0.7285 -1.7146
 2143SOL     OW17887   3.416   4.704   8.295 -0.1657 -0.3392 -0.3912
 2143SOL    HW117888   3.332   0.023   8.276 -1.8644 -2.7646  1.8208
 2143SOL    HW217889   3.419   4.630   8.234 -0.1794 -1.0624  0.4782
 2144SOL     OW17890   2.250   0.329   2.476  0.3144  1.1819 -0.4144
 2144SOL    HW117891   2.258   0.424   2.478  0.9293  1.0916  1.3623
 2144SOL    HW217892   2.294   0.312   2.559  2.8051  2.3552 -1.4822
 2145SOL     OW17893   1.703   4.116   9.835 -0.1338 -0.3175 -0.6651
 2145SOL    HW117894   1.614   4.082   9.842  0.5636 -1.6285  1.7540
 2145SOL    HW217895   1.741   4.040   9.879  0.6585  0.2315 -0.3994
 2146SOL     OW17896   3.959   1.420   7.147 -0.4244  0.3370 -0.0735
 2146SOL    HW117897   3.890   1.368   7.105 -0.3167 -0.9160  1.2994
 2146SOL    HW217898   4.031   1.357   7.143 -0.8272 -0.1109 -0.2524
 2147SOL     OW17899   0.730   1.358   8.516 -0.0478  0.3135 -0.1686
 2147SOL    HW117900   0.808   1.408   8.543 -1.1632  1.6146  0.6273
 2147SOL    HW217901   0.672   1.430   8.489  1.7881  1.6324 -0.6642
 2148SOL     OW17902   0.985   1.116  16.581 -0.3952  0.3464  0.7569
 2148SOL    HW117903   1.042   1.185  16.614  0.9663 -0.5378  0.2329
 2148SOL    HW217904   1.021   1.090  16.496 -0.2683 -1.5550  1.3942
 2149SOL     OW17905   4.018   4.474  10.768  0.0536  0.1311 -0.4065
 2149SOL    HW117906   4.061   4.389  10.756 -2.1526 -1.0320 -0.2228
 2149SOL    HW217907   3.930   4.438  10.781 -0.1719  1.2808  1.1757
 2150SOL     OW17908   4.618   2.577   3.666  0.3584  0.3850  0.1125
 2150SOL    HW117909   4.662   2.661   3.675  1.7657 -0.1843 -1.4602
 2150SOL    HW217910   4.539   2.599   3.619 -0.0102  0.3289  0.7034
 2151SOL     OW17911   0.747   1.069  10.222  0.8769 -0.3961  0.1980
 2151SOL    HW117912   0.828   1.020  10.211  1.3213  0.6697 -1.2666
 2151SOL    HW217913   0.699   1.007  10.278 -0.9640  0.2664 -0.6318
 2152SOL     OW17914   2.573   2.825   3.651 -0.2497  0.0602 -0.2656
 2152SOL    HW117915   2.597   2.913   3.622  0.0718  0.5966  1.6187
 2152SOL    HW217916   2.500   2.848   3.708  2.2978  0.9407  2.6697
 2153SOL     OW17917   3.456   0.856   0.030 -0.4563  0.6683  0.1996
 2153SOL    HW117918   3.486   0.806   0.106 -0.7732  0.3650  0.1246
 2153SOL    HW217919   3.537   0.907   0.033 -0.3070  0.3639  1.2487
 2154SOL     OW17920   2.295   0.783   6.014 -0.1599 -0.2859  0.1452
 2154SOL    HW117921   2.328   0.864   5.975  1.7813 -2.8377 -3.5603
 2154SOL    HW217922   2.320   0.717   5.949  1.9206  0.3607  0.3056
 2155SOL     OW17923   3.797   1.144   9.614 -0.3330 -0.2591 -0.4571
 2155SOL    HW117924   3.877   1.159   9.663 -0.3841  2.2341 -1.1514
 2155SOL    HW217925   3.728   1.183   9.668  0.9943  2.8224 -0.9741
 2156SOL     OW17926   4.285   0.863   9.208 -0.8487  0.4349 -0.0158
 2156SOL    HW117927   4.360   0.914   9.176 -0.4680  0.6781  1.2649
 2156SOL    HW217928   4.324   0.777   9.223 -0.1751  1.0199  1.6005
 2157SOL     OW17929   4.519   2.537  10.257  0.9013  0.7194  0.7751
 2157SOL    HW117930   4.508   2.611  10.198 -0.4639  0.9390  1.3158
 2157SOL    HW217931   4.518   2.473  10.186 -0.5972  1.8022 -0.1919
 2158SOL     OW17932   4.662   2.611   9.642  0.1660  0.1792 -0.2686
 2158SOL    HW117933   0.023   2.656   9.629  0.7606 -0.9611 -0.3772
 2158SOL    HW217934   4.640   2.592   9.551  0.1163  1.8274 -0.6093
 2159SOL     OW17935   4.393   1.410   3.147  0.4312 -0.0960  0.1622
 2159SOL    HW117936   4.429   1.453   3.070 -1.5079 -0.5574 -0.9952
 2159SOL    HW217937   4.305   1.448   3.149  1.0091  1.2854 -0.1257
 2160SOL     OW17938   2.010   1.301   1.936  0.4638 -0.0399  0.6753
 2160SOL    HW117939   1.930   1.276   1.890  0.8522  0.3761 -0.2211
 2160SOL    HW217940   2.051   1.366   1.879  0.6039 -0.4593  0.2902
 2161SOL     OW17941   3.561   1.289   6.962  0.2113  0.3127 -0.6179
 2161SOL    HW117942   3.511   1.210   6.942  1.0383 -0.6516  1.0569
 2161SOL    HW217943   3.654   1.268   6.956 -0.0990 -1.7374  1.7365
 2162SOL     OW17944   0.152   3.248   8.560  0.2078 -0.0316  0.1026
 2162SOL    HW117945   0.210   3.309   8.514  1.2981 -1.3345 -0.2211
 2162SOL    HW217946   0.197   3.237   8.643  1.8872  0.1920 -0.7697
 2163SOL     OW17947   0.121   3.154   4.155  0.3930  0.3686  0.0205
 2163SOL    HW117948   0.168   3.200   4.225  2.2466  0.4572 -1.2868
 2163SOL    HW217949   0.177   3.157   4.078 -0.0477  1.0491 -0.2657
 2164SOL     OW17950   0.213   3.469   3.862 -0.2307  0.2903 -0.2635
 2164SOL    HW117951   0.193   3.544   3.917  0.8090  0.6546 -0.3753
 2164SOL    HW217952   0.225   3.508   3.775 -2.6118  2.0810  0.2190
 2165SOL     OW17953   1.310   2.331  10.680 -0.0424 -0.1764  0.0740
 2165SOL    HW117954   1.381   2.328  10.616  1.2167  0.1604  1.4483
 2165SOL    HW217955   1.284   2.240  10.690 -1.9977  0.5638  1.6340
 2166SOL     OW17956   3.329   3.672   4.152 -0.2323  0.2650 -1.0489
 2166SOL    HW117957   3.274   3.639   4.082 -0.2209  1.3149 -1.5613
 2166SOL    HW217958   3.293   3.615   4.220 -0.0738  1.4594  0.0347
 2167SOL     OW17959   1.605   3.379   5.106  0.0242 -0.4419  0.4416
 2167SOL    HW117960   1.646   3.459   5.072  0.1142 -1.0575 -0.9089
 2167SOL    HW217961   1.587   3.336   5.022  2.5918  0.1488 -0.4254
 2168SOL     OW17962   2.148   3.122   7.886  0.2584 -0.1370  0.1182
 2168SOL    HW117963   2.178   3.202   7.929  1.7487 -0.3076 -0.5887
 2168SOL    HW217964   2.217   3.064   7.919 -0.1139 -0.0303  1.0770
 2169SOL     OW17965   0.318   0.658   8.823 -0.0470  0.1183 -0.0243
 2169SOL    HW117966   0.340   0.596   8.893  0.6074  0.9276  0.4794
 2169SOL    HW217967   0.344   0.743   8.857  0.3084  0.3071 -0.7624
 2170SOL     OW17968   2.315   2.182   7.564  0.3522  0.1165 -0.3291
 2170SOL    HW117969   2.349   2.268   7.587 -2.1580  0.9471  0.1503
 2170SOL    HW217970   2.250   2.166   7.632  1.6498  0.9444  1.0992
 2171SOL     OW17971   4.333   2.448   9.572  0.3706  0.7927  0.4929
 2171SOL    HW117972   4.327   2.494   9.488 -1.9830 -1.3355 -0.4999
 2171SOL    HW217973   4.412   2.393   9.568 -0.8342 -0.9687  1.0755
 2172SOL     OW17974   4.385   3.325   8.351 -0.5454 -0.1771 -0.2087
 2172SOL    HW117975   4.465   3.327   8.403 -0.5802  1.1311 -0.2154
 2172SOL    HW217976   4.408   3.358   8.265  0.8262  1.4225  0.7907
 2173SOL     OW17977   0.079   2.807   3.928  0.0461 -0.0417 -0.2385
 2173SOL    HW117978   0.020   2.837   3.858 -1.8599  0.3495  1.5575
 2173SOL    HW217979   0.127   2.744   3.874  0.9131  0.9331 -0.5898
 2174SOL     OW17980   3.435   4.202   7.250 -0.3283  0.3707  0.8146
 2174SOL    HW117981   3.468   4.191   7.339 -0.2303  0.5293  0.7976
 2174SOL    HW217982   3.514   4.184   7.200 -0.7711  1.3411 -0.2273
 2175SOL     OW17983   3.714   3.839  16.368  0.4728  0.5745 -0.3325
 2175SOL    HW117984   3.664   3.832  16.287  1.5397 -1.5929 -0.7872
 2175SOL    HW217985   3.679   3.911  16.422 -0.3546  1.2367 -1.7603
 2176SOL     OW17986   4.545   1.415   8.996 -0.5472  0.1325 -0.8132
 2176SOL    HW117987   4.618   1.378   8.947 -0.5291 -2.2009  0.9544
 2176SOL    HW217988   4.533   1.341   9.055  0.8819  0.6404  0.1117
 2177SOL     OW17989   0.162   1.247  10.299  0.3084 -0.1636 -0.1514
 2177SOL    HW117990   0.083   1.195  10.282  0.7066 -2.0142  3.7895
 2177SOL    HW217991   0.130   1.337  10.303 -0.8362 -0.6190  0.7413
 2178SOL     OW17992   3.432   4.675   3.140 -0.5763  0.2370 -0.3428
 2178SOL    HW117993   3.352   4.701   3.185 -1.1213  2.1384 -2.4547
 2178SOL    HW217994   3.401   4.606   3.081 -2.4874 -0.1162  1.0657
 2179SOL     OW17995   4.653   2.101  10.603  0.0034  1.0578 -0.4315
 2179SOL    HW117996   0.007   2.044  10.598 -0.1072  0.7846  0.8297
 2179SOL    HW217997   4.665   2.122  10.696 -2.1869  1.5512 -0.2566
 2180SOL     OW17998   3.545   4.412  16.580  0.0603 -0.3770  0.4158
 2180SOL    HW117999   3.525   4.435  16.489  1.6270  1.7468  0.6079
 2180SOL    HW218000   3.500   4.329  16.595  1.2204 -0.8359  1.3734
 2181SOL     OW18001   3.896   4.464   6.106 -0.2374 -0.3498  0.0417
 2181SOL    HW118002   3.934   4.452   6.193 -0.8891 -1.3535  0.1812
 2181SOL    HW218003   3.842   4.387   6.089  0.2646 -0.3681 -1.4733
 2182SOL     OW18004   4.040   3.660  10.968 -0.1379  0.6788  0.4908
 2182SOL    HW118005   3.972   3.640  10.903  1.1631 -2.3326  0.0211
 2182SOL    HW218006   4.113   3.607  10.936 -1.4635 -1.3736  0.8194
 2183SOL     OW18007   1.380   2.988  15.315 -0.2329 -0.3874  0.2287
 2183SOL    HW118008   1.358   3.074  15.278  3.1627  0.6176  0.5376
 2183SOL    HW218009   1.372   2.940  15.232  0.8076  2.9204 -1.8049
 2184SOL     OW18010   0.678   0.610   1.708 -0.5024 -0.0019 -0.7224
 2184SOL    HW118011   0.767   0.647   1.703 -0.9493  0.9266 -2.0103
 2184SOL    HW218012   0.643   0.625   1.620  0.9833  0.1238 -1.3075
 2185SOL     OW18013   2.611   2.693  11.625 -0.3638 -0.3183 -0.5422
 2185SOL    HW118014   2.671   2.621  11.645 -0.4841  0.0350  1.0927
 2185SOL    HW218015   2.587   2.722  11.713  1.6768  0.9409 -0.3907
 2186SOL     OW18016   2.611   4.023   1.926  0.0159 -0.1201  0.3442
 2186SOL    HW118017   2.632   3.944   1.877 -0.6837  0.3971 -0.8058
 2186SOL    HW218018   2.660   4.091   1.880  0.3948 -0.2253  0.5912
 2187SOL     OW18019   3.500   2.317  13.566  0.5676 -0.0129  0.0399
 2187SOL    HW118020   3.535   2.248  13.623 -1.7985 -1.6957 -0.5194
 2187SOL    HW218021   3.578   2.362  13.534  0.1564  0.1174 -0.7848
 2188SOL     OW18022   1.795   4.509   1.247  0.9106  0.3362 -0.3416
 2188SOL    HW118023   1.855   4.434   1.237  0.4796 -0.4195  2.8240
 2188SOL    HW218024   1.739   4.487   1.173 -1.0086 -1.9289  1.7691
 2189SOL     OW18025   0.246   3.871   5.543 -0.3702  0.0115  0.2331
 2189SOL    HW118026   0.178   3.826   5.492  0.0322 -0.0912 -0.2170
 2189SOL    HW218027   0.189   3.908   5.610  1.2352  2.2560  0.3352
 2190SOL     OW18028   2.162   4.650   3.380  0.4513  0.1057  0.0449
 2190SOL    HW118029   2.170   4.599   3.460  0.3466 -0.9902 -0.6452
 2190SOL    HW218030   2.101   4.720   3.405  1.9958  0.0913  3.9308
 2191SOL     OW18031   2.791   0.947   7.079 -0.2541 -0.5983 -0.2142
 2191SOL    HW118032   2.847   0.939   7.157 -1.9119  2.7531  1.3080
 2191SOL    HW218033   2.757   1.036   7.088 -1.5657 -1.2511  1.1923
 2192SOL     OW18034   0.238   1.898   3.097  0.1576 -0.0043  0.2704
 2192SOL    HW118035   0.291   1.953   3.155 -0.7631  3.0668 -1.8451
 2192SOL    HW218036   0.172   1.965   3.083 -0.6836 -0.8888  0.0538
 2193SOL     OW18037   1.552   2.126  10.855  0.1839 -0.1208 -0.1600
 2193SOL    HW118038   1.624   2.115  10.793 -0.0774 -1.8444 -0.1667
 2193SOL    HW218039   1.468   2.113  10.810  0.1701  2.4272 -0.8744
 2194SOL     OW18040   1.474   3.222   4.861  0.3058  0.1835 -0.0547
 2194SOL    HW118041   1.446   3.154   4.923  0.2174  0.3324  0.0687
 2194SOL    HW218042   1.569   3.220   4.870 -0.0404 -1.7275  3.1876
 2195SOL     OW18043   0.225   0.637   6.742  0.2973  0.0077 -0.0766
 2195SOL    HW118044   0.235   0.662   6.834 -0.6017  1.1709 -0.2878
 2195SOL    HW218045   0.257   0.547   6.747  0.3507 -0.0328 -1.2458
 2196SOL     OW18046   0.267   2.874   8.238 -0.0811 -0.7245 -0.4098
 2196SOL    HW118047   0.250   2.786   8.203 -3.4684 -0.8350  1.5412
 2196SOL    HW218048   0.216   2.929   8.179 -0.9905 -0.6323  0.4585
 2197SOL     OW18049   0.066   2.887  10.297  0.3218 -0.8485  0.4571
 2197SOL    HW118050   0.036   2.811  10.247  3.1594 -1.3304 -0.5043
 2197SOL    HW218051   0.140   2.924  10.248 -0.1214  1.1054  1.2600
 2198SOL     OW18052   0.372   1.185   3.242  0.0021  0.2474  0.1584
 2198SOL    HW118053   0.345   1.224   3.159  0.9373 -1.0865 -0.7748
 2198SOL    HW218054   0.323   1.238   3.305 -0.5004 -1.7917  1.4785
 2199SOL     OW18055   3.638   1.467   1.318 -0.2720  0.4904 -0.0662
 2199SOL    HW118056   3.642   1.538   1.253  0.3576 -1.7799 -2.5157
 2199SOL    HW218057   3.544   1.467   1.333 -0.1212  1.0297  0.8730
 2200SOL     OW18058   4.643   4.257   5.715 -0.2260  0.5781 -0.0616
 2200SOL    HW118059   4.700   4.185   5.690 -2.0726 -1.0198  0.3032
 2200SOL    HW218060   4.640   4.241   5.809 -0.9692  1.4537  0.0766
 2201SOL     OW18061   3.285   2.521  17.170 -0.1282 -0.0998 -0.0634
 2201SOL    HW118062   3.341   2.592  17.203 -0.9622  0.6494 -0.2510
 2201SOL    HW218063   3.213   2.567  17.127 -0.8864  0.3872  1.7395
 2202SOL     OW18064   2.282   3.722   2.852  0.7473  0.6894  0.7868
 2202SOL    HW118065   2.193   3.755   2.860  1.2076  2.1294 -0.0055
 2202SOL    HW218066   2.292   3.669   2.931  0.2248 -1.3868 -0.5371
 2203SOL     OW18067   3.459   0.042   4.276 -0.1273  0.6051 -0.3447
 2203SOL    HW118068   3.440   4.722   4.359  3.1643 -0.8663 -0.3338
 2203SOL    HW218069   3.420   4.699   4.217 -0.2663 -0.8887  1.4126
 2204SOL     OW18070   1.247   0.975   2.864  0.3761 -0.4826  0.4452
 2204SOL    HW118071   1.340   0.999   2.866  0.3220 -0.1269 -2.1158
 2204SOL    HW218072   1.197   1.055   2.846 -1.3267 -1.6403  0.0904
 2205SOL     OW18073   2.412   3.991   8.091  0.3267 -0.1654 -0.4213
 2205SOL    HW118074   2.386   3.900   8.097 -2.7037  0.8367  1.3380
 2205SOL    HW218075   2.352   4.036   8.150  2.0644  0.1014  1.1431
 2206SOL     OW18076   4.028   2.399  12.740 -0.3605  0.5821 -0.2671
 2206SOL    HW118077   4.059   2.474  12.791  0.1685 -0.1791  0.5132
 2206SOL    HW218078   3.966   2.448  12.686 -0.4407 -1.9626 -2.4720
 2207SOL     OW18079   0.303   3.822   6.258  0.0178  0.4263  0.0335
 2207SOL    HW118080   0.338   3.895   6.310  1.8174 -1.9677  2.2185
 2207SOL    HW218081   0.321   3.750   6.319 -1.0654  1.5134  1.6330
 2208SOL     OW18082   1.421   4.672  17.098  0.0836 -0.2728 -0.3666
 2208SOL    HW118083   1.361   4.600  17.079  0.3901 -0.2417 -1.4733
 2208SOL    HW218084   1.423   4.712  17.011  1.4581  2.8742  1.0737
 2209SOL     OW18085   0.837   4.599   0.808 -0.0130  0.1947 -0.4226
 2209SOL    HW118086   0.807   4.510   0.829 -0.7616  0.5085 -0.1513
 2209SOL    HW218087   0.930   4.589   0.788  0.4854  0.8664  1.4749
 2210SOL     OW18088   4.574   0.308   6.450 -0.1225 -0.7040  0.1902
 2210SOL    HW118089   4.596   0.316   6.357  1.8647  0.8628  0.7964
 2210SOL    HW218090   4.568   0.402   6.467  4.1867 -0.6041  1.0022
 2211SOL     OW18091   4.121   0.297   1.253 -0.0167  0.2736 -0.6396
 2211SOL    HW118092   4.162   0.384   1.254  2.9538 -1.1202  0.7025
 2211SOL    HW218093   4.141   0.249   1.334 -0.6288  2.4907  0.8396
 2212SOL     OW18094   1.942   4.667   2.827 -0.5222 -0.3717  0.1046
 2212SOL    HW118095   1.871   4.663   2.763 -0.9238  0.7256  0.4937
 2212SOL    HW218096   1.941   4.583   2.872  1.2696  0.4231  1.6128
 2213SOL     OW18097   3.249   2.359   8.970 -0.0062 -0.0596  0.1781
 2213SOL    HW118098   3.181   2.426   8.970  0.3928  0.3521 -0.2082
 2213SOL    HW218099   3.207   2.295   9.027 -1.4219 -0.7718 -1.6558
 2214SOL     OW18100   4.252   4.268   7.429  0.2418 -0.5460  0.2743
 2214SOL    HW118101   4.313   4.235   7.495  1.4165  1.0228 -0.0122
 2214SOL    HW218102   4.167   4.234   7.456  0.1290 -0.4825  0.0022
 2215SOL     OW18103   3.660   0.226  17.441  0.7989 -0.2401  0.0395
 2215SOL    HW118104   3.749   0.218  17.475  0.3660  1.8005  1.6446
 2215SOL    HW218105   3.670   0.289  17.371  1.1728  0.0625  0.3674
 2216SOL     OW18106   0.578   1.272   8.728  0.2176  0.4873  0.2344
 2216SOL    HW118107   0.660   1.308   8.693  1.1696 -0.7864  1.1111
 2216SOL    HW218108   0.518   1.306   8.662 -2.6529 -1.3880  1.8728
 2217SOL     OW18109   0.427   3.938   4.368  0.3508 -0.4586 -0.1344
 2217SOL    HW118110   0.436   3.865   4.429  1.0145  0.7663  1.2150
 2217SOL    HW218111   0.386   3.999   4.428  1.4378 -0.2506  0.3909
 2218SOL     OW18112   0.897   0.536   3.408 -0.4655 -0.1133 -0.0645
 2218SOL    HW118113   0.990   0.540   3.430 -0.7181 -0.3656  1.0131
 2218SOL    HW218114   0.874   0.461   3.462 -1.1552 -0.3546 -0.6923
 2219SOL     OW18115   0.543   0.165   6.601  0.3347  0.2081 -0.4566
 2219SOL    HW118116   0.539   0.156   6.505  0.6345  0.3849 -0.4859
 2219SOL    HW218117   0.487   0.090   6.621  0.5301  0.1567 -0.1162
 2220SOL     OW18118   0.018   1.875   9.038  0.3100 -0.2447  0.3043
 2220SOL    HW118119   0.026   1.885   9.133  0.9930  0.3381  0.1852
 2220SOL    HW218120   0.099   1.918   9.011  0.2864 -0.2418  0.2395
 2221SOL     OW18121   0.120   0.255   6.969 -0.5202  0.3321 -0.2374
 2221SOL    HW118122   0.100   0.320   7.036 -0.8610  0.3121 -0.3201
 2221SOL    HW218123   0.216   0.256   6.965 -0.4841  1.8177  0.8635
 2222SOL     OW18124   0.400   0.343   7.611  0.2817  0.3275  0.3659
 2222SOL    HW118125   0.475   0.293   7.643  0.2826 -0.0347 -0.2050
 2222SOL    HW218126   0.327   0.287   7.639 -0.0213  0.3286 -0.4167
 2223SOL     OW18127   2.755   3.525   1.726 -0.2942  0.4296 -0.0044
 2223SOL    HW118128   2.833   3.469   1.721 -1.8391 -1.7107  0.1538
 2223SOL    HW218129   2.695   3.486   1.663 -0.7480  0.5370  0.3698
 2224SOL     OW18130   3.874   3.829   8.158 -0.1428 -0.2221 -0.2783
 2224SOL    HW118131   3.925   3.749   8.168 -2.5187 -1.7057 -0.0276
 2224SOL    HW218132   3.821   3.837   8.237  0.6771  0.9701  0.1485
 2225SOL     OW18133   0.392   1.144   7.971 -0.1256 -0.5290  0.1482
 2225SOL    HW118134   0.403   1.086   7.896 -1.6234  0.8143 -1.0871
 2225SOL    HW218135   0.384   1.230   7.930 -0.4665 -0.3806  0.5197
 2226SOL     OW18136   2.029   3.273   5.610 -0.2984  0.1612  0.0387
 2226SOL    HW118137   2.104   3.332   5.614  0.3179 -0.5207 -1.3038
 2226SOL    HW218138   2.061   3.220   5.536  0.5163 -1.0682  1.2618
 2227SOL     OW18139   2.522   4.623  15.208 -0.8964 -1.0004  0.1968
 2227SOL    HW118140   2.575   4.601  15.132 -1.7496 -2.0532 -0.0987
 2227SOL    HW218141   2.470   4.543  15.219  0.4978 -1.8986  0.2323
 2228SOL     OW18142   0.259   3.334  11.385  0.3349 -0.3661 -0.4077
 2228SOL    HW118143   0.353   3.321  11.370  0.3607  0.3352 -0.8744
 2228SOL    HW218144   0.251   3.332  11.481 -1.0160  1.5248 -0.4930
 2229SOL     OW18145   3.114   0.165  11.055  0.5206 -0.4245 -0.7720
 2229SOL    HW118146   3.132   0.155  11.148  2.0171 -2.0027 -1.2292
 2229SOL    HW218147   3.178   0.233  11.036 -0.0854  0.0967 -0.9239
 2230SOL     OW18148   1.181   4.205   7.533 -0.1505  0.5063  0.1580
 2230SOL    HW118149   1.129   4.185   7.611 -1.9856  0.8544 -0.9728
 2230SOL    HW218150   1.120   4.182   7.463 -1.0246  1.3089  0.6532
 2231SOL     OW18151   3.646   1.849   3.762  0.3078 -0.1501 -0.0343
 2231SOL    HW118152   3.590   1.810   3.830 -1.0892 -3.8029 -3.2642
 2231SOL    HW218153   3.704   1.912   3.805  0.1895 -1.0568  1.4528
 2232SOL     OW18154   1.935   0.159   8.314 -0.1668 -0.4335 -0.2725
 2232SOL    HW118155   1.857   0.201   8.277  0.0050 -0.2189 -0.3908
 2232SOL    HW218156   1.959   0.228   8.376 -1.7579  0.3252 -0.4963
 2233SOL     OW18157   1.184   3.347   7.799  0.1363  0.1352  0.7850
 2233SOL    HW118158   1.231   3.429   7.809  1.0978 -0.2798 -0.3587
 2233SOL    HW218159   1.103   3.385   7.766  0.6761 -3.0154 -4.1164
 2234SOL     OW18160   1.151   2.176   2.584  0.0060 -0.3889  0.0855
 2234SOL    HW118161   1.145   2.270   2.570  1.5567 -0.3682 -0.4596
 2234SOL    HW218162   1.245   2.165   2.601 -0.0719 -0.4443  0.4716
 2235SOL     OW18163   1.146   1.485   4.196 -0.2220 -0.0912 -0.5822
 2235SOL    HW118164   1.170   1.457   4.284 -0.2567  3.5087  0.5689
 2235SOL    HW218165   1.220   1.447   4.149  0.8251 -0.1304  1.1198
 2236SOL     OW18166   0.013   1.448   7.231 -0.0689 -0.2172  0.0411
 2236SOL    HW118167   0.031   1.491   7.147 -0.8526  0.8245  0.4038
 2236SOL    HW218168   4.666   1.507   7.258  0.9285  0.2790  1.4884
 2237SOL     OW18169   0.109   3.862   1.699  0.6392 -0.2083 -0.2146
 2237SOL    HW118170   0.115   3.948   1.742  1.3238 -0.8183  0.9125
 2237SOL    HW218171   0.065   3.893   1.620  1.1888  2.9907  0.7396
 2238SOL     OW18172   1.971   3.467   9.783  0.5394  0.3247  0.4315
 2238SOL    HW118173   1.884   3.453   9.818 -0.3363  1.4557 -1.2955
 2238SOL    HW218174   2.000   3.535   9.844 -1.0171  0.9150  0.5143
 2239SOL     OW18175   0.955   4.584   2.368 -0.1758  0.2062 -0.6342
 2239SOL    HW118176   0.905   4.502   2.366  1.2237 -0.6948  1.1111
 2239SOL    HW218177   0.897   4.628   2.430  1.1053 -0.8655  1.3220
 2240SOL     OW18178   4.328   2.867   2.863  0.0215 -0.0452  0.5222
 2240SOL    HW118179   4.273   2.900   2.792 -1.4289  0.4948  1.8875
 2240SOL    HW218180   4.400   2.830   2.812  0.2329  0.4926  0.4297
 2241SOL     OW18181   1.264   3.735   3.741  0.2558  0.1847 -0.0457
 2241SOL    HW118182   1.185   3.691   3.772  0.2773  0.1630 -0.0222
 2241SOL    HW218183   1.324   3.705   3.809 -0.0205  1.4369  0.7504
 2242SOL     OW18184   0.139   0.662   5.849  0.3523  0.0475  0.5324
 2242SOL    HW118185   0.124   0.746   5.805  0.5173 -0.1949  0.0220
 2242SOL    HW218186   0.058   0.648   5.898  0.5090 -1.0448  0.4695
 2243SOL     OW18187   3.715   3.648   6.849 -0.4107  0.1610  0.0423
 2243SOL    HW118188   3.700   3.701   6.770 -0.1766  1.4418  0.8635
 2243SOL    HW218189   3.652   3.575   6.853  1.8897 -1.8035  0.3808
 2244SOL     OW18190   4.509   3.726   6.769 -0.2492 -0.0275 -0.5376
 2244SOL    HW118191   4.522   3.695   6.679  1.3499 -0.2657 -0.2366
 2244SOL    HW218192   4.538   3.817   6.763  1.3471 -0.4821  0.2689
 2245SOL     OW18193   2.195   2.146  12.015  0.2536  0.2302 -0.7902
 2245SOL    HW118194   2.278   2.098  12.021 -0.6512 -1.4812 -1.8736
 2245SOL    HW218195   2.144   2.116  12.092 -1.0218  0.1300 -1.6724
 2246SOL     OW18196   1.479   0.298  17.494 -0.2161  0.3502  0.3309
 2246SOL    HW118197   1.471   0.235  17.423 -0.2673  3.0905 -2.1104
 2246SOL    HW218198   1.507   0.237  17.562 -0.5164 -1.0725 -0.8474
 2247SOL     OW18199   0.137   4.192   2.653 -0.1840 -0.0523 -0.4621
 2247SOL    HW118200   0.099   4.267   2.700  0.4641  0.4342 -0.7092
 2247SOL    HW218201   0.059   4.136   2.648 -0.7896  1.0347 -2.9079
 2248SOL     OW18202   4.319   0.490   2.123  0.0380 -0.4066  0.2246
 2248SOL    HW118203   4.280   0.561   2.073 -0.0896 -0.9500 -0.4448
 2248SOL    HW218204   4.403   0.486   2.078 -0.4362 -0.8326 -0.6089
 2249SOL     OW18205   4.092   1.229  13.214 -0.0162 -0.1796  0.2513
 2249SOL    HW118206   4.183   1.255  13.228 -0.2903  1.5456 -1.1934
 2249SOL    HW218207   4.076   1.286  13.139 -0.7683 -0.2503  0.3623
 2250SOL     OW18208   2.082   3.572   0.476 -0.5309 -0.1434 -0.6366
 2250SOL    HW118209   2.110   3.664   0.481  1.7873 -0.9100  0.3846
 2250SOL    HW218210   2.030   3.577   0.396  1.4500  0.9699 -1.8640
 2251SOL     OW18211   4.618   4.566   6.994 -0.3165 -0.0527 -0.0752
 2251SOL    HW118212   4.629   4.659   6.975 -0.4480 -0.2253 -1.0033
 2251SOL    HW218213   4.602   4.523   6.909  2.2011  0.6092 -0.8910
 2252SOL     OW18214   4.292   3.156  11.089 -0.6025 -0.0803 -0.4200
 2252SOL    HW118215   4.219   3.177  11.147  0.4342  0.6597  0.5948
 2252SOL    HW218216   4.249   3.083  11.044 -1.0051  0.8710 -1.5981
 2253SOL     OW18217   3.994   4.252   9.466 -0.2412  0.4284 -0.0374
 2253SOL    HW118218   3.907   4.249   9.504 -0.9182  1.3332 -1.5334
 2253SOL    HW218219   3.977   4.318   9.399 -0.0584 -1.3092 -1.8103
 2254SOL     OW18220   3.071   0.103   5.505 -0.0021  0.3106  0.2112
 2254SOL    HW118221   3.004   0.114   5.437 -0.4329  1.1811  0.7818
 2254SOL    HW218222   3.077   0.194   5.536 -2.2151  0.6442 -0.3343
 2255SOL     OW18223   2.829   0.738   9.038 -0.2784 -0.1218  0.2018
 2255SOL    HW118224   2.786   0.654   9.050 -1.9712  0.7160  0.0676
 2255SOL    HW218225   2.839   0.742   8.942 -0.4759  0.1400  0.1923
 2256SOL     OW18226   3.326   2.127  10.379  0.7193  0.2444 -0.2299
 2256SOL    HW118227   3.347   2.052  10.323 -0.2660 -0.1522 -0.0709
 2256SOL    HW218228   3.388   2.191  10.344  1.2110 -0.2129 -0.1955
 2257SOL     OW18229   2.672   2.941   6.289 -0.0326 -0.4090  0.6766
 2257SOL    HW118230   2.615   2.928   6.213  2.1631  2.5579 -1.4628
 2257SOL    HW218231   2.609   2.947   6.362  0.1211  2.6975  0.5512
 2258SOL     OW18232   2.460   2.731   7.608 -0.6402 -0.3667  0.2962
 2258SOL    HW118233   2.465   2.716   7.703 -1.0025  1.4761  0.6084
 2258SOL    HW218234   2.373   2.770   7.598 -0.7768 -1.2063 -1.6846
 2259SOL     OW18235   4.203   4.507   5.135 -0.2397 -0.2454  0.1790
 2259SOL    HW118236   4.248   4.437   5.089  0.9033  0.5899  0.0202
 2259SOL    HW218237   4.112   4.482   5.123 -0.9382  2.0889  0.5718
 2260SOL     OW18238   4.090   3.875  15.675  0.2081 -0.7701  0.1857
 2260SOL    HW118239   4.091   3.956  15.727 -1.1738  0.3981 -1.6106
 2260SOL    HW218240   4.172   3.830  15.696  0.5613 -0.1903  0.0557
 2261SOL     OW18241   0.624   3.488   2.990 -0.1583  0.1529 -0.1160
 2261SOL    HW118242   0.535   3.452   2.995 -1.2110  3.1208  2.0742
 2261SOL    HW218243   0.664   3.474   3.076  1.3254  1.2932 -0.6149
 2262SOL     OW18244   1.752   0.896  11.981 -0.0226  0.0633  1.0809
 2262SOL    HW118245   1.777   0.815  11.937  0.4914  0.4552  0.6411
 2262SOL    HW218246   1.742   0.947  11.900  0.1551 -0.0265  1.0050
 2263SOL     OW18247   4.656   0.058  10.901  0.5610 -0.2791 -0.1665
 2263SOL    HW118248   4.685   4.709  10.958  2.5866 -0.5158 -1.4936
 2263SOL    HW218249   0.018   0.099  10.881  0.4498 -0.0754 -0.2104
 2264SOL     OW18250   0.716   4.698   6.212 -1.4473 -0.4671 -0.7554
 2264SOL    HW118251   0.807   4.679   6.186 -2.0972 -3.1099 -1.0976
 2264SOL    HW218252   0.720   0.071   6.219 -1.0077 -0.4965 -0.5903
 2265SOL     OW18253   0.596   0.081  17.101 -0.0766  0.1810 -0.1319
 2265SOL    HW118254   0.613   4.713  17.074 -1.2833  0.4194 -1.6906
 2265SOL    HW218255   0.502   0.084  17.083  0.0574  0.9133 -0.7077
 2266SOL     OW18256   1.841   0.056   4.255 -0.0259 -0.6858 -0.3889
 2266SOL    HW118257   1.928   0.088   4.234 -0.7351  0.7955 -1.1064
 2266SOL    HW218258   1.807   0.118   4.319  1.2665 -0.8047  0.4082
 2267SOL     OW18259   0.910   3.857   7.271  0.0271  0.2394  0.2978
 2267SOL    HW118260   0.902   3.762   7.259  0.4168  0.6041 -2.9108
 2267SOL    HW218261   1.004   3.869   7.280  0.1371  1.8421 -2.9033
 2268SOL     OW18262   2.258   2.559   8.343  0.3222  0.0560  0.2738
 2268SOL    HW118263   2.191   2.621   8.371 -0.8203 -1.7654  1.5503
 2268SOL    HW218264   2.235   2.533   8.254  0.1312 -1.4805  0.7587
 2269SOL     OW18265   1.510   4.572  15.954  0.3767 -0.6864 -0.3367
 2269SOL    HW118266   1.480   4.505  16.015 -0.6324 -0.5190 -0.6606
 2269SOL    HW218267   1.583   4.612  16.003 -1.3449  0.7575  1.1009
 2270SOL     OW18268   1.037   4.598   4.724 -0.0197 -0.4681  0.4018
 2270SOL    HW118269   1.116   4.631   4.681  1.0490  0.7558  3.3423
 2270SOL    HW218270   1.046   4.649   4.804  0.3059 -1.3407  0.9215
 2271SOL     OW18271   2.290   4.607   9.108  0.0594  0.6241  0.1426
 2271SOL    HW118272   2.336   4.542   9.161 -2.5155 -0.8046  0.6117
 2271SOL    HW218273   2.203   4.600   9.147  0.7178  0.2355  1.5345
 2272SOL     OW18274   3.561   1.911   2.949 -1.0141 -0.0123 -0.3893
 2272SOL    HW118275   3.640   1.940   2.905  1.6407 -3.0865  2.3843
 2272SOL    HW218276   3.490   1.943   2.893 -0.3945  0.5967 -0.8227
 2273SOL     OW18277   2.387   4.557   2.777 -0.4470  0.5190  0.3375
 2273SOL    HW118278   2.378   4.518   2.690 -0.1024  0.9492  0.1024
 2273SOL    HW218279   2.404   4.646   2.745  0.1103  0.7291  1.2157
 2274SOL     OW18280   1.548   3.573  15.943 -0.4054  0.3471 -0.4093
 2274SOL    HW118281   1.615   3.517  15.902  0.0155  0.6655 -0.1492
 2274SOL    HW218282   1.532   3.520  16.020 -0.2066  0.7893 -0.0657
 2275SOL     OW18283   3.870   0.338   7.072  0.0707  1.2606  0.4474
 2275SOL    HW118284   3.962   0.318   7.051 -0.0956  1.1464 -0.1791
 2275SOL    HW218285   3.863   0.387   7.154 -0.0909  1.3119  0.4031
 2276SOL     OW18286   0.255   0.434  17.140 -0.0016 -0.1887  0.4689
 2276SOL    HW118287   0.196   0.474  17.076  0.5059  0.3704  0.3548
 2276SOL    HW218288   0.200   0.360  17.164  0.6301 -0.3407  1.4722
 2277SOL     OW18289   4.542   4.288   8.068  0.0792  0.6726  0.7473
 2277SOL    HW118290   4.525   4.236   8.147 -0.7233  0.9186  0.7373
 2277SOL    HW218291   4.451   4.293   8.038  0.8946 -2.8392 -2.1754
 2278SOL     OW18292   1.625   0.986   6.428 -0.0379 -0.2683 -0.2411
 2278SOL    HW118293   1.696   1.038   6.467 -0.5482 -0.0300  0.3729
 2278SOL    HW218294   1.609   1.035   6.348 -0.3891  0.8517  0.5080
 2279SOL     OW18295   0.986   1.228   8.640 -0.6302  0.1678 -0.7204
 2279SOL    HW118296   0.924   1.288   8.683 -1.6541 -0.3404 -1.4788
 2279SOL    HW218297   1.034   1.295   8.591  0.4555 -0.0981 -0.0052
 2280SOL     OW18298   4.598   0.133   6.920  0.4212 -0.0504 -0.6705
 2280SOL    HW118299   4.683   0.162   6.954 -0.6330  0.6194  1.4307
 2280SOL    HW218300   4.592   0.165   6.830  0.6141  2.0282  0.0480
 2281SOL     OW18301   2.963   2.309   6.760  0.0415  0.5262  0.7861
 2281SOL    HW118302   3.015   2.230   6.746  0.5328  1.0781 -0.4998
 2281SOL    HW218303   2.979   2.343   6.672 -0.7102 -0.6294  0.1882
 2282SOL     OW18304   2.718   0.052   9.275  0.0904  0.2370  0.3839
 2282SOL    HW118305   2.647   0.082   9.218 -0.2018 -3.0629 -0.9701
 2282SOL    HW218306   2.790   0.090   9.224 -1.7479  2.5515 -0.4986
 2283SOL     OW18307   1.273   1.146  17.633  0.5239  0.6332 -0.2405
 2283SOL    HW118308   1.333   1.175   0.010 -0.3699 -0.6155  1.0689
 2283SOL    HW218309   1.262   1.055  17.660 -0.8054  0.4353 -1.4084
 2284SOL     OW18310   0.190   2.676   3.520  0.0754  0.0005 -0.0272
 2284SOL    HW118311   0.171   2.700   3.429  2.0474 -2.0139 -0.9410
 2284SOL    HW218312   0.228   2.589   3.511 -0.1494  0.1902 -2.9496
 2285SOL     OW18313   4.195   0.332  11.779  0.7728 -0.1784 -0.2231
 2285SOL    HW118314   4.133   0.376  11.721  0.7410 -0.9108 -0.7483
 2285SOL    HW218315   4.143   0.332  11.860  1.6270  2.2594  0.3397
 2286SOL     OW18316   1.749   4.093   0.192  0.2201 -0.1519  0.2978
 2286SOL    HW118317   1.723   4.027   0.257  0.0776 -0.8584 -0.4747
 2286SOL    HW218318   1.770   4.173   0.240 -0.7754 -1.0368  2.2182
 2287SOL     OW18319   4.158   0.537   3.760  0.2485 -0.5419 -0.7268
 2287SOL    HW118320   4.120   0.579   3.837 -0.4896 -1.4115 -0.6095
 2287SOL    HW218321   4.230   0.485   3.796  0.4748 -0.3909 -0.9608
 2288SOL     OW18322   2.868   4.426  11.388  0.3476 -0.0913 -0.1528
 2288SOL    HW118323   2.917   4.393  11.463 -2.2024 -0.5295  1.2956
 2288SOL    HW218324   2.881   4.361  11.318  4.6127 -1.6853  2.1424
 2289SOL     OW18325   1.304   3.358   5.441 -0.3045  0.1197 -0.5533
 2289SOL    HW118326   1.286   3.376   5.348  3.3777  1.0395 -1.0617
 2289SOL    HW218327   1.293   3.263   5.437  2.8807 -0.2460 -0.4229
 2290SOL     OW18328   3.884   0.513   4.033 -0.6072 -0.7490  0.4169
 2290SOL    HW118329   3.825   0.584   4.057  1.2899  0.6411  0.9757
 2290SOL    HW218330   3.848   0.439   4.082  0.6922 -0.3919  1.9134
 2291SOL     OW18331   3.275   1.346   3.014 -0.3474  0.2887  0.6036
 2291SOL    HW118332   3.236   1.266   2.979  2.2158  1.0306 -3.8365
 2291SOL    HW218333   3.363   1.335   2.979 -0.5201 -3.6451  1.4657
 2292SOL     OW18334   2.241   2.144   2.721  0.1775  0.0029  0.1271
 2292SOL    HW118335   2.277   2.062   2.757 -0.5816 -0.2469  0.3058
 2292SOL    HW218336   2.237   2.194   2.803  2.8981  2.6485 -1.3515
 2293SOL     OW18337   1.121   2.765   0.303  0.0866  0.3153 -0.3382
 2293SOL    HW118338   1.129   2.695   0.239 -0.3029 -2.6548  2.8818
 2293SOL    HW218339   1.026   2.770   0.300 -0.1074 -3.5196 -0.1051
 2294SOL     OW18340   0.863   2.899   2.595 -0.7823  0.4264 -0.4292
 2294SOL    HW118341   0.903   2.858   2.671 -1.4441  2.0963  0.8422
 2294SOL    HW218342   0.904   2.986   2.594 -1.0034  0.5330 -0.3959
 2295SOL     OW18343   4.031   1.524   6.170  0.3318  0.3458 -0.1887
 2295SOL    HW118344   4.062   1.443   6.129 -1.4339 -0.5711  0.2409
 2295SOL    HW218345   3.947   1.529   6.123 -0.0953 -0.7333  0.4491
 2296SOL     OW18346   0.412   0.475   9.005  0.2317 -0.5965  0.0111
 2296SOL    HW118347   0.472   0.401   9.004  0.0309 -0.7631  0.1802
 2296SOL    HW218348   0.341   0.425   8.965  0.4829 -0.4669 -0.5938
 2297SOL     OW18349   2.357   1.457   5.649  0.1337  0.0039  0.5593
 2297SOL    HW118350   2.292   1.477   5.716  0.6798  3.1914  0.1291
 2297SOL    HW218351   2.409   1.537   5.645 -1.7132  1.2173  0.9370
 2298SOL     OW18352   3.926   2.598   6.532  0.0067 -0.0819 -0.2710
 2298SOL    HW118353   3.957   2.508   6.535 -0.5849 -0.2566  0.6331
 2298SOL    HW218354   3.837   2.579   6.501  1.3236 -0.8382 -3.6674
 2299SOL     OW18355   4.186   3.117   4.568  0.0203 -0.4173 -0.2504
 2299SOL    HW118356   4.153   3.128   4.479  0.9143 -0.8879 -0.6348
 2299SOL    HW218357   4.276   3.089   4.550  0.6377  1.6237 -0.3472
 2300SOL     OW18358   0.884   1.072   0.629  0.6534  0.3713 -0.0445
 2300SOL    HW118359   0.840   0.987   0.638 -0.1287  0.7908  0.0958
 2300SOL    HW218360   0.821   1.139   0.603  0.6102  0.7256  0.9816
 2301SOL     OW18361   3.111   2.263   5.426 -0.4105 -0.1401 -0.1192
 2301SOL    HW118362   3.195   2.227   5.397  0.1838 -0.5844  2.1643
 2301SOL    HW218363   3.081   2.201   5.492  0.7447  0.0400  0.5668
 2302SOL     OW18364   0.790   3.174   0.216 -0.1007 -0.0882  0.1524
 2302SOL    HW118365   0.719   3.188   0.279 -0.5688  1.1807 -0.6746
 2302SOL    HW218366   0.857   3.154   0.281  0.1170 -2.1192 -0.7006
 2303SOL     OW18367   0.932   4.457  11.833  0.0403  0.0249  0.2948
 2303SOL    HW118368   1.025   4.445  11.814  0.6016  1.0417  2.3317
 2303SOL    HW218369   0.925   4.534  11.776 -2.2242  0.0761  0.6376
 2304SOL     OW18370   0.338   1.696  10.903  0.4041 -0.1518  0.2950
 2304SOL    HW118371   0.409   1.736  10.953 -0.6596  1.6054  0.4013
 2304SOL    HW218372   0.301   1.641  10.972 -2.3280  2.2741  0.7682
 2305SOL     OW18373   0.753   0.825   3.779  1.3700  0.1120  0.1812
 2305SOL    HW118374   0.804   0.785   3.849  1.5374  0.3322  0.1841
 2305SOL    HW218375   0.752   0.762   3.706  3.1465 -0.2631  0.4650
 2306SOL     OW18376   1.221   0.641   8.904  0.0047 -0.4177  0.0779
 2306SOL    HW118377   1.198   0.722   8.860 -2.1081 -0.4687  1.0806
 2306SOL    HW218378   1.200   0.580   8.833 -1.5497  1.7615 -1.3225
 2307SOL     OW18379   4.032   1.567   2.006  0.1900  0.2376 -0.1693
 2307SOL    HW118380   3.992   1.654   2.000 -0.2121  0.2325  2.5379
 2307SOL    HW218381   4.117   1.578   1.963 -0.5690 -0.6957 -1.8949
 2308SOL     OW18382   2.637   1.826   4.249 -0.7363 -0.1018 -0.3409
 2308SOL    HW118383   2.702   1.808   4.317 -0.6933  1.2528 -0.0230
 2308SOL    HW218384   2.661   1.768   4.177  0.8308  0.5240 -0.3279
 2309SOL     OW18385   4.654   4.128  15.305  0.2101  0.6921 -0.2498
 2309SOL    HW118386   4.570   4.132  15.259  0.2906  0.1828 -0.4390
 2309SOL    HW218387   4.631   4.071  15.378 -1.6870  2.1296  0.2967
 2310SOL     OW18388   3.717   1.085   1.569 -0.1994  0.8139 -0.5486
 2310SOL    HW118389   3.777   1.089   1.495  2.4554 -0.3823  1.5370
 2310SOL    HW218390   3.771   1.129   1.636  0.3769 -0.5054 -0.1482
 2311SOL     OW18391   3.670   1.204   9.092  0.1113 -0.0240  0.5990
 2311SOL    HW118392   3.613   1.272   9.056  0.3814 -0.3402 -0.4303
 2311SOL    HW218393   3.679   1.234   9.182  2.5386 -1.9819  0.9951
 2312SOL     OW18394   1.909   4.175   1.563 -0.0015  0.3052  0.4381
 2312SOL    HW118395   1.864   4.107   1.514  1.0756  0.2333 -0.4661
 2312SOL    HW218396   1.879   4.147   1.649  0.7592 -0.1011  0.5698
 2313SOL     OW18397   0.409   0.140   6.321  0.0336 -0.1693 -0.0679
 2313SOL    HW118398   0.354   0.111   6.248 -2.0014 -0.8267  1.7375
 2313SOL    HW218399   0.462   0.209   6.281  0.4246  0.2570  1.2042
 2314SOL     OW18400   2.389   3.520  13.050 -0.4281  0.2650 -0.3670
 2314SOL    HW118401   2.458   3.472  13.004 -0.7542 -0.6214  0.0738
 2314SOL    HW218402   2.379   3.603  13.003 -0.1908  0.9931  0.8696
 2315SOL     OW18403   1.956   2.006  11.815 -0.0841 -0.2768 -0.1789
 2315SOL    HW118404   2.013   1.993  11.890 -2.0838 -0.8844  1.2259
 2315SOL    HW218405   2.009   1.981  11.740  1.1006 -0.7148  0.8155
 2316SOL     OW18406   4.030   2.462   6.768 -0.0067  0.4281  0.2690
 2316SOL    HW118407   4.098   2.454   6.701 -1.2090 -2.5813 -0.5778
 2316SOL    HW218408   4.080   2.476   6.849  0.9762  1.8397 -0.5668
 2317SOL     OW18409   0.419   3.115  11.805  0.0807  0.9154 -0.2898
 2317SOL    HW118410   0.403   3.091  11.897  2.8432  0.8887  0.1924
 2317SOL    HW218411   0.498   3.168  11.818  0.4546  0.5249 -0.9340
 2318SOL     OW18412   4.184   1.084  12.414  0.6233 -0.6464  0.1483
 2318SOL    HW118413   4.276   1.110  12.409  0.2532  0.3923 -1.2581
 2318SOL    HW218414   4.173   1.063  12.507 -0.5090  0.4963  0.2619
 2319SOL     OW18415   2.211   1.721   4.803  0.3657  0.1010  0.1834
 2319SOL    HW118416   2.254   1.732   4.887  1.8932  1.5910 -0.8057
 2319SOL    HW218417   2.291   1.719   4.750  1.6289 -1.7701  2.1601
 2320SOL     OW18418   3.382   4.668  11.815  0.2168 -0.7333 -0.2238
 2320SOL    HW118419   3.287   4.678  11.809  0.4897  1.9715 -0.1237
 2320SOL    HW218420   3.388   4.706  11.903  1.5948  1.2116 -1.1712
 2321SOL     OW18421   2.233   0.904  10.559  0.4387 -0.7419  0.3476
 2321SOL    HW118422   2.172   0.831  10.574 -1.3909  0.7259  0.0735
 2321SOL    HW218423   2.240   0.942  10.647  1.1997 -2.6100  1.0976
 2322SOL     OW18424   0.892   4.514   9.283 -0.0033 -0.0711  0.1573
 2322SOL    HW118425   0.934   4.599   9.294 -1.1575  0.6273 -0.7352
 2322SOL    HW218426   0.940   4.466   9.350  0.6876  0.7105  0.2123
 2323SOL     OW18427   3.478   4.707  10.634 -0.3969 -0.2572 -0.4304
 2323SOL    HW118428   3.523   4.623  10.625  0.5464  0.1425  0.6099
 2323SOL    HW218429   3.433   4.702  10.718 -0.9906 -1.3485 -0.8048
 2324SOL     OW18430   0.945   3.182   8.359 -0.3679  0.1800  0.3618
 2324SOL    HW118431   1.032   3.147   8.379 -0.0407  0.1527 -1.1082
 2324SOL    HW218432   0.907   3.207   8.443  0.1615 -3.2113  1.6077
 2325SOL     OW18433   3.394   3.225  12.158  0.5536  0.2384 -0.0844
 2325SOL    HW118434   3.378   3.179  12.076  0.3853 -0.8484  0.5629
 2325SOL    HW218435   3.345   3.305  12.137  0.6441  0.4127  0.3768
 2326SOL     OW18436   1.845   1.156  15.647  0.1408 -0.8031  0.0899
 2326SOL    HW118437   1.825   1.124  15.559 -0.7581 -2.0098  0.7217
 2326SOL    HW218438   1.932   1.193  15.634 -0.9093  1.8503  0.6517
 2327SOL     OW18439   0.951   4.654  17.498 -0.0759 -0.5653  0.2821
 2327SOL    HW118440   0.999   4.711  17.439 -2.4873  0.4353 -0.7293
 2327SOL    HW218441   0.982   4.678  17.586 -0.2739  1.4473 -0.2017
 2328SOL     OW18442   2.193   2.645   6.547 -0.0296  0.3609 -0.5061
 2328SOL    HW118443   2.235   2.645   6.461  1.4160  0.9501  0.2075
 2328SOL    HW218444   2.158   2.557   6.556 -0.8890  0.9223  1.5828
 2329SOL     OW18445   3.698   2.818   5.825  0.9075 -0.0226 -0.4875
 2329SOL    HW118446   3.741   2.779   5.901 -0.3362 -0.0209  0.2146
 2329SOL    HW218447   3.684   2.903   5.866  1.2174 -0.4888  0.5992
 2330SOL     OW18448   0.077   2.996   8.108  0.0794  0.0393 -0.7276
 2330SOL    HW118449   0.031   3.080   8.094  1.2356  0.6682 -0.7363
 2330SOL    HW218450   0.007   2.934   8.091  0.0308  0.6702 -2.8180
 2331SOL     OW18451   4.090   3.330   2.742 -0.6751 -0.1283  0.4309
 2331SOL    HW118452   4.178   3.365   2.760 -0.3466 -1.6766  1.7972
 2331SOL    HW218453   4.065   3.296   2.827  0.1683 -0.2837  0.6189
 2332SOL     OW18454   1.694   3.592   5.393 -0.1588  0.5232  0.3520
 2332SOL    HW118455   1.712   3.551   5.478 -1.6055 -1.0104 -0.0758
 2332SOL    HW218456   1.712   3.682   5.420  0.2067  0.9493 -1.2998
 2333SOL     OW18457   0.625   0.230  16.049 -0.0215  0.1779 -0.1506
 2333SOL    HW118458   0.572   0.306  16.025  0.7081  0.9074  0.5592
 2333SOL    HW218459   0.628   0.183  15.965 -2.8304 -1.8631  0.8880
 2334SOL     OW18460   2.218   3.900   8.410 -0.3643 -0.3869 -0.8578
 2334SOL    HW118461   2.194   3.827   8.468  1.4987  0.1213  0.5734
 2334SOL    HW218462   2.144   3.960   8.424  1.0872  0.8336  1.6822
 2335SOL     OW18463   2.572   3.109   0.062  1.0249  0.5158  0.3765
 2335SOL    HW118464   2.569   3.086   0.155  0.3300 -1.0987 -0.0296
 2335SOL    HW218465   2.564   3.204   0.061  2.2276  0.6176  2.1605
 2336SOL     OW18466   0.841   1.184  15.507 -0.1496  0.0526  0.8305
 2336SOL    HW118467   0.893   1.174  15.587  1.6457  1.7319 -0.1207
 2336SOL    HW218468   0.908   1.216  15.447 -0.7243  0.3866  0.3654
 2337SOL     OW18469   0.959   1.491   4.005 -0.0281  0.3718  0.1134
 2337SOL    HW118470   1.026   1.480   4.072 -0.1133 -0.9857 -0.0276
 2337SOL    HW218471   1.000   1.442   3.933 -2.7291  3.6427 -3.6539
 2338SOL     OW18472   4.685   0.281   2.171  0.2048  0.0266  0.0392
 2338SOL    HW118473   4.613   0.281   2.234  0.3622  1.0907  0.2204
 2338SOL    HW218474   4.661   0.359   2.120  1.0531 -0.7615 -1.5853
 2339SOL     OW18475   2.124   0.800   1.426 -0.4144 -0.3751  0.5715
 2339SOL    HW118476   2.103   0.880   1.475 -2.4673  0.5039 -1.7467
 2339SOL    HW218477   2.207   0.773   1.466  0.6789  0.5134 -1.0650
 2340SOL     OW18478   2.326   1.389   4.040 -0.0861  0.1304  0.2654
 2340SOL    HW118479   2.331   1.480   4.012  1.2293  0.1513  0.5530
 2340SOL    HW218480   2.370   1.348   3.965 -2.6232 -0.5378 -0.8624
 2341SOL     OW18481   2.414   3.546   3.895 -0.0009 -0.1629  0.5908
 2341SOL    HW118482   2.336   3.602   3.892  0.1229 -0.0398 -0.2413
 2341SOL    HW218483   2.391   3.497   3.816 -3.5898 -0.2679  1.6861
 2342SOL     OW18484   2.780   1.028   9.541 -0.1733 -0.2811 -0.7046
 2342SOL    HW118485   2.732   1.073   9.471  1.5653  3.3066  0.3892
 2342SOL    HW218486   2.811   1.104   9.591 -2.5999  0.9331 -1.0422
 2343SOL     OW18487   1.427   0.549   7.138  0.2837 -0.4034  0.0175
 2343SOL    HW118488   1.443   0.643   7.149  3.3514 -0.8318 -0.6911
 2343SOL    HW218489   1.510   0.516   7.172  0.6831  1.3041  0.7079
 2344SOL     OW18490   1.106   1.411   6.472 -0.3411  0.3043 -0.3512
 2344SOL    HW118491   1.150   1.425   6.556  0.7191  0.9282 -1.0037
 2344SOL    HW218492   1.023   1.458   6.482 -0.5082 -0.1008  0.1614
 2345SOL     OW18493   2.654   0.239   4.660 -0.2048  0.0170  0.0737
 2345SOL    HW118494   2.643   0.168   4.597 -0.7686 -0.2834  0.5098
 2345SOL    HW218495   2.749   0.238   4.674  0.1455 -1.5798 -2.5352
 2346SOL     OW18496   0.016   2.774   4.437  0.1623  0.9298 -0.1748
 2346SOL    HW118497   0.007   2.695   4.385  0.9599  0.0519  1.0322
 2346SOL    HW218498   0.027   2.837   4.365 -0.6822  1.6193  0.2981
 2347SOL     OW18499   1.150   2.782  12.386 -0.3974 -0.3408 -0.3397
 2347SOL    HW118500   1.122   2.705  12.335  0.6615 -0.1703 -1.1888
 2347SOL    HW218501   1.121   2.759  12.474  1.1569 -0.9780  0.0158
 2348SOL     OW18502   1.170   3.439   2.857  0.4602 -0.3173 -0.3894
 2348SOL    HW118503   1.143   3.374   2.792 -2.9607 -0.2462  1.0145
 2348SOL    HW218504   1.262   3.416   2.873  0.4071 -0.7986 -0.7610
 2349SOL     OW18505   1.600   1.113  12.377  1.1888  0.6994 -0.3474
 2349SOL    HW118506   1.644   1.028  12.372  0.0347 -0.1194  3.5453
 2349SOL    HW218507   1.671   1.171  12.352  2.4224 -0.1283  1.2615
 2350SOL     OW18508   1.834   0.305   7.411 -0.5493 -0.3290  0.4427
 2350SOL    HW118509   1.868   0.236   7.468 -1.6232 -1.2302 -0.0035
 2350SOL    HW218510   1.849   0.282   7.319 -1.5203 -0.1099  0.2307
 2351SOL     OW18511   0.705   1.209   5.538  0.5476  0.0124 -0.1841
 2351SOL    HW118512   0.737   1.294   5.570 -0.2902 -0.6247  2.3814
 2351SOL    HW218513   0.781   1.156   5.559  0.7327 -0.0351 -1.0117
 2352SOL     OW18514   0.960   4.094  12.830  0.6143 -0.2244 -0.2565
 2352SOL    HW118515   1.028   4.160  12.813  0.1018  0.5820  0.8248
 2352SOL    HW218516   0.994   4.056  12.911 -2.5202 -0.8637  0.7693
 2353SOL     OW18517   1.452   4.454   3.331 -0.2000  0.3074 -0.3607
 2353SOL    HW118518   1.494   4.450   3.245 -1.2062  0.1763 -0.8441
 2353SOL    HW218519   1.368   4.491   3.304  0.0887  1.0358 -0.2423
 2354SOL     OW18520   4.369   3.229   9.589 -0.2515  0.5039  0.2034
 2354SOL    HW118521   4.325   3.208   9.671 -0.7526  2.5060  0.4452
 2354SOL    HW218522   4.335   3.156   9.537  0.1685 -0.2352  0.9771
 2355SOL     OW18523   3.592   3.100   7.193  0.1317  0.2106 -0.3352
 2355SOL    HW118524   3.667   3.059   7.236  1.3109  1.5104 -1.1262
 2355SOL    HW218525   3.523   3.040   7.220  0.4212 -0.7122 -1.6843
 2356SOL     OW18526   0.022   1.497   4.439  0.8670 -0.1387 -0.1701
 2356SOL    HW118527   0.009   1.402   4.443 -0.6154  0.1853  2.9515
 2356SOL    HW218528   0.081   1.504   4.365  0.7037 -0.6800 -0.3511
 2357SOL     OW18529   2.249   2.563   3.456  0.6923  0.4169  0.1155
 2357SOL    HW118530   2.206   2.484   3.489 -1.3839  1.1360 -0.9095
 2357SOL    HW218531   2.338   2.526   3.454  0.4003 -0.3133  0.4663
 2358SOL     OW18532   3.581   0.878   3.740  0.0874 -0.4952 -0.4240
 2358SOL    HW118533   3.502   0.825   3.752 -0.4976  0.6163  0.7006
 2358SOL    HW218534   3.643   0.811   3.712 -1.9575 -2.6769  0.1947
 2359SOL     OW18535   1.198   4.635   2.715  0.5101 -0.6091  0.1719
 2359SOL    HW118536   1.175   4.654   2.624  1.7050 -0.2586 -0.0538
 2359SOL    HW218537   1.107   4.623   2.743  1.2680 -5.3726  0.5480
 2360SOL     OW18538   2.099   3.098   4.103 -0.0831 -0.2285 -0.0011
 2360SOL    HW118539   2.066   3.116   4.191  1.5797 -1.2129  0.8357
 2360SOL    HW218540   2.035   3.143   4.047 -0.1495 -1.0388 -0.5798
 2361SOL     OW18541   2.762   2.062   8.549 -0.1033  0.0618  0.5070
 2361SOL    HW118542   2.815   2.133   8.585 -0.2328  0.0163  0.7857
 2361SOL    HW218543   2.672   2.090   8.566 -0.5033  0.0597 -1.5184
 2362SOL     OW18544   0.519   4.254  15.356  0.0698 -0.2424  0.1403
 2362SOL    HW118545   0.568   4.270  15.436 -0.0765  1.8334 -0.1908
 2362SOL    HW218546   0.588   4.214  15.304  0.3293  0.9952 -0.4595
 2363SOL     OW18547   3.642   2.618  12.074 -0.6268 -0.4283 -0.2519
 2363SOL    HW118548   3.621   2.575  12.157  0.0915  0.9686  0.6546
 2363SOL    HW218549   3.569   2.680  12.072 -1.5119 -1.3880  2.1994
 2364SOL     OW18550   4.427   3.838   5.813 -0.3557  0.2751 -0.1719
 2364SOL    HW118551   4.435   3.917   5.865  1.2607 -0.8876  1.3333
 2364SOL    HW218552   4.515   3.802   5.822  0.9638  3.2739 -1.2338
 2365SOL     OW18553   0.213   0.364   9.730  0.0569  0.5197 -0.3122
 2365SOL    HW118554   0.247   0.393   9.645 -0.3220 -0.9820 -0.9611
 2365SOL    HW218555   0.256   0.279   9.728  0.7990  0.8745  0.4812
 2366SOL     OW18556   2.995   0.836   5.988  0.1132  0.1142 -0.0427
 2366SOL    HW118557   3.037   0.813   6.071  1.9488  0.9674 -0.7308
 2366SOL    HW218558   3.071   0.831   5.931  0.3554  0.1614  0.2777
 2367SOL     OW18559   0.510   1.760   9.156 -0.7532 -0.4061  0.5983
 2367SOL    HW118560   0.581   1.703   9.187  1.2382  1.0296 -1.2876
 2367SOL    HW218561   0.440   1.695   9.151  0.0513 -1.2882  0.8371
 2368SOL     OW18562   4.097   1.622  13.204  0.4802 -0.0548 -0.0418
 2368SOL    HW118563   4.176   1.674  13.191  0.6258 -0.7294 -1.8248
 2368SOL    HW218564   4.109   1.557  13.135 -0.8320  1.9447 -2.1545
 2369SOL     OW18565   3.756   2.395  11.301  0.9708  0.3724  0.1852
 2369SOL    HW118566   3.851   2.389  11.296  0.9031 -0.1141 -0.4454
 2369SOL    HW218567   3.739   2.390  11.207 -0.0895  0.2130  0.3823
 2370SOL     OW18568   0.457   4.651   6.116  0.4118  0.5722  0.7005
 2370SOL    HW118569   0.458   4.566   6.160 -2.1979  0.1319 -0.0775
 2370SOL    HW218570   0.550   4.674   6.119  0.2897  1.4372 -1.7301
 2371SOL     OW18571   1.772   4.542   7.869 -0.8703 -0.0530  0.1839
 2371SOL    HW118572   1.843   4.582   7.920 -1.0548  2.1531 -1.3007
 2371SOL    HW218573   1.704   4.564   7.933 -0.0039  2.2189  0.3119
 2372SOL     OW18574   4.438   0.623   2.335  0.0520  0.1385  0.7754
 2372SOL    HW118575   4.400   0.574   2.262 -1.8076  2.1805  0.3519
 2372SOL    HW218576   4.355   0.626   2.384 -1.5889 -1.7014 -1.8559
 2373SOL     OW18577   1.532   1.242  17.334  0.1261 -0.1486  0.2226
 2373SOL    HW118578   1.556   1.188  17.410  2.2615  0.2481 -0.1651
 2373SOL    HW218579   1.445   1.206  17.315  0.0650  0.6806 -1.0404
 2374SOL     OW18580   1.459   3.324  17.209 -0.3422 -0.2034 -0.1709
 2374SOL    HW118581   1.478   3.378  17.286  0.0950 -1.3762  0.5457
 2374SOL    HW218582   1.399   3.258  17.243 -1.9326  1.3502  0.0338
 2375SOL     OW18583   0.973   3.178   2.600 -0.2390 -0.1843  0.2010
 2375SOL    HW118584   0.910   3.244   2.626 -0.8218 -0.6178 -0.1173
 2375SOL    HW218585   1.038   3.236   2.561 -0.8539  0.7057  0.5059
 2376SOL     OW18586   1.877   4.402   5.726 -0.0850 -0.3716  0.4621
 2376SOL    HW118587   1.961   4.363   5.704  0.2951  0.2677  0.7862
 2376SOL    HW218588   1.892   4.428   5.817  0.7800  3.2915 -0.7383
 2377SOL     OW18589   3.152   0.281   2.838 -0.4091 -0.1636  0.3443
 2377SOL    HW118590   3.245   0.303   2.846 -0.8831  2.1947 -0.5827
 2377SOL    HW218591   3.152   0.199   2.789  0.7769  0.8907 -1.4320
 2378SOL     OW18592   0.756   3.492   6.394 -0.5062  0.2125  0.0855
 2378SOL    HW118593   0.813   3.541   6.453 -1.4260 -0.8232  1.8167
 2378SOL    HW218594   0.683   3.458   6.446  0.0581 -0.7011  0.2869
 2379SOL     OW18595   1.510   0.311   4.964 -0.3810  0.0970  0.4360
 2379SOL    HW118596   1.510   0.404   4.940  0.5399  0.3433  1.3693
 2379SOL    HW218597   1.449   0.281   4.897  0.5854 -0.5401 -0.1496
 2380SOL     OW18598   0.962   1.806  17.578  0.0356 -0.4145 -0.2031
 2380SOL    HW118599   0.967   1.881  17.519  2.1255  0.1136  0.6105
 2380SOL    HW218600   0.997   1.845  17.658 -0.5019  1.2209 -0.7694
 2381SOL     OW18601   1.923   3.203  13.238  0.4367  0.6534 -0.0606
 2381SOL    HW118602   1.908   3.292  13.270  3.5807  0.8113  1.0338
 2381SOL    HW218603   2.018   3.214  13.230  0.2306  0.9977 -2.0111
 2382SOL     OW18604   3.426   2.793  12.182  0.6998  0.3765 -0.5468
 2382SOL    HW118605   3.353   2.761  12.130 -0.0590 -0.9170  1.2976
 2382SOL    HW218606   3.382   2.855  12.241  0.8538 -0.0208 -0.0157
 2383SOL     OW18607   0.786   3.454  12.856 -0.5517  0.1435 -0.3849
 2383SOL    HW118608   0.760   3.362  12.858 -1.2360  0.3088 -1.7294
 2383SOL    HW218609   0.866   3.435  12.806  0.3473  0.1304  1.0557
 2384SOL     OW18610   2.428   3.848   7.791  0.1706 -0.1705  0.0189
 2384SOL    HW118611   2.511   3.877   7.828  0.6267 -0.5651 -0.7030
 2384SOL    HW218612   2.454   3.838   7.700 -2.0456 -2.5150 -0.3645
 2385SOL     OW18613   0.744   3.610   8.307  0.0533 -0.0346  0.3985
 2385SOL    HW118614   0.750   3.632   8.214 -0.9057  0.1953  0.3872
 2385SOL    HW218615   0.835   3.584   8.324  0.9883  2.1790 -1.1343
 2386SOL     OW18616   4.673   4.165   4.636  0.6274 -0.2597 -0.7901
 2386SOL    HW118617   0.005   4.115   4.697  0.7755 -0.4088 -1.0430
 2386SOL    HW218618   0.020   4.222   4.601 -0.3229  1.1321 -0.3705
 2387SOL     OW18619   0.052   3.955  10.961  0.1711  0.4270 -0.0868
 2387SOL    HW118620   0.016   3.910  11.038 -2.1524  0.4939 -1.1474
 2387SOL    HW218621   0.081   4.039  10.998 -0.6366  0.7081 -0.1081
 2388SOL     OW18622   2.893   2.325   8.967  0.6109  0.5154  0.0237
 2388SOL    HW118623   2.824   2.366   8.914 -0.9475 -0.5929  1.2074
 2388SOL    HW218624   2.924   2.403   9.012 -2.6222  3.3230 -2.6368
 2389SOL     OW18625   2.333   2.059   4.768 -0.3509 -0.1909 -0.1366
 2389SOL    HW118626   2.300   2.124   4.829 -0.9181 -0.6092  0.0010
 2389SOL    HW218627   2.277   2.070   4.691  0.4290 -2.0732 -0.9879
 2390SOL     OW18628   1.935   2.168  15.399  0.3963  0.1731 -0.6073
 2390SOL    HW118629   1.969   2.176  15.488 -1.3235  0.4280  0.0324
 2390SOL    HW218630   2.009   2.152  15.340 -0.0850  3.5149 -2.1025
 2391SOL     OW18631   3.661   3.787  16.106  0.4420  0.5965 -0.6392
 2391SOL    HW118632   3.748   3.747  16.098 -0.1454 -0.4841 -1.7714
 2391SOL    HW218633   3.608   3.716  16.071 -1.7925  2.7806 -1.6264
 2392SOL     OW18634   3.947   0.397  16.016 -0.2830 -0.2154 -0.2091
 2392SOL    HW118635   4.035   0.370  16.041 -1.0245 -4.8348 -2.5730
 2392SOL    HW218636   3.957   0.492  16.023  0.1194 -0.3410  0.9174
 2393SOL     OW18637   1.557   4.074   8.175 -0.0224  0.4748 -0.3808
 2393SOL    HW118638   1.479   4.021   8.159  1.7695 -2.5707  1.0156
 2393SOL    HW218639   1.631   4.021   8.147 -0.3498  0.5027 -1.2837
 2394SOL     OW18640   3.267   0.487   8.314 -0.6445 -0.0716 -0.0342
 2394SOL    HW118641   3.203   0.455   8.377  0.1096 -1.3786  0.0553
 2394SOL    HW218642   3.227   0.572   8.292  0.7995  0.3917 -0.8565
 2395SOL     OW18643   4.402   1.855  12.433  0.5938  0.0069  0.5899
 2395SOL    HW118644   4.406   1.864  12.338  1.0507  1.0940  0.7109
 2395SOL    HW218645   4.479   1.801  12.454 -0.6117 -1.4553  1.2266
 2396SOL     OW18646   2.241   3.069   5.148 -0.7226  0.5109  0.1839
 2396SOL    HW118647   2.269   3.010   5.218 -0.7096  0.2012 -0.0830
 2396SOL    HW218648   2.165   3.018   5.119  1.2070 -2.9257  1.2044
 2397SOL     OW18649   0.640   0.999  14.143 -0.2811  0.6538  0.7449
 2397SOL    HW118650   0.664   1.067  14.207  0.6700  1.5323 -0.5492
 2397SOL    HW218651   0.719   0.944  14.143  0.8572  2.2859 -1.3237
 2398SOL     OW18652   1.817   3.824   6.201  0.3873 -0.0361  0.3218
 2398SOL    HW118653   1.722   3.810   6.202  0.5288 -0.8877  0.9105
 2398SOL    HW218654   1.818   3.838   6.106  1.0149  1.0057  0.4827
 2399SOL     OW18655   0.939   2.380   9.546 -0.0530  0.5230  0.2245
 2399SOL    HW118656   0.991   2.322   9.601  1.1043 -1.2558 -2.7070
 2399SOL    HW218657   0.879   2.416   9.611 -2.3145  1.8019 -2.5233
 2400SOL     OW18658   3.643   2.887   6.570  0.1329 -0.5292 -0.3796
 2400SOL    HW118659   3.565   2.936   6.545 -1.0525 -1.8440  0.8254
 2400SOL    HW218660   3.640   2.881   6.665  0.0590 -0.0288 -0.3461
 2401SOL     OW18661   2.507   3.381   3.381 -0.1399  0.5370 -0.5749
 2401SOL    HW118662   2.514   3.332   3.299  1.4564  1.4971 -0.9939
 2401SOL    HW218663   2.583   3.353   3.431 -0.3494 -2.7270 -2.0511
 2402SOL     OW18664   1.789   4.572   5.549 -0.2146 -0.0815  0.3162
 2402SOL    HW118665   1.752   4.617   5.625  1.5697  2.3496 -0.2362
 2402SOL    HW218666   1.824   4.494   5.590  1.0217  0.2942 -0.0124
 2403SOL     OW18667   0.101   2.363  10.911  0.1461 -0.0345 -0.7299
 2403SOL    HW118668   0.018   2.345  10.867  0.2700 -2.0508 -0.1581
 2403SOL    HW218669   0.159   2.375  10.836  2.5038 -0.1851  1.0333
 2404SOL     OW18670   3.019   2.883  16.953 -0.0956 -0.6209 -0.1310
 2404SOL    HW118671   2.957   2.910  17.020 -0.1111 -1.6131  0.2445
 2404SOL    HW218672   3.031   2.967  16.908  0.1905 -0.2361  0.6586
 2405SOL     OW18673   0.273   3.139   2.681  0.5824  0.5929 -0.0714
 2405SOL    HW118674   0.351   3.124   2.735  0.4881 -2.1494 -0.7153
 2405SOL    HW218675   0.240   3.050   2.677 -1.4491  1.4120 -1.2582
 2406SOL     OW18676   4.386   2.681  12.001  0.1120 -0.1644  0.4435
 2406SOL    HW118677   4.428   2.634  11.929  0.8509  1.4803 -0.1978
 2406SOL    HW218678   4.458   2.675  12.063  0.8806 -2.1126 -0.6066
 2407SOL     OW18679   1.482   0.448   0.480  0.1285 -0.0698 -0.3361
 2407SOL    HW118680   1.466   0.517   0.416 -1.3519 -0.2478 -0.1421
 2407SOL    HW218681   1.574   0.465   0.500 -0.3549  0.5888  1.3089
 2408SOL     OW18682   4.121   0.791   6.834  0.6151  0.9471 -0.1005
 2408SOL    HW118683   4.176   0.865   6.811  0.0708  1.4321  0.1729
 2408SOL    HW218684   4.048   0.804   6.774  0.2917 -1.3557 -0.2025
 2409SOL     OW18685   1.461   0.830   9.163  0.4630 -0.4671  0.2748
 2409SOL    HW118686   1.453   0.925   9.152 -2.5428 -0.6054  1.4582
 2409SOL    HW218687   1.546   0.806   9.125 -0.1706 -1.1572 -0.6863
 2410SOL     OW18688   2.031   1.946   8.014  0.0937 -0.4426  0.3959
 2410SOL    HW118689   2.097   1.889   7.973 -0.1189  0.5480 -1.3426
 2410SOL    HW218690   2.018   2.009   7.943 -2.5584 -1.3773  0.0565
 2411SOL     OW18691   0.833   3.712   4.190  0.0236 -0.5605 -0.1362
 2411SOL    HW118692   0.758   3.772   4.188  1.1960  0.9008 -0.6914
 2411SOL    HW218693   0.860   3.727   4.281  1.7363 -0.4731 -0.6553
 2412SOL     OW18694   4.051   2.512  15.140  0.4380  0.4997  0.3136
 2412SOL    HW118695   4.046   2.420  15.166 -0.1158  0.4567  0.0644
 2412SOL    HW218696   4.107   2.510  15.063  0.5767 -4.1705  0.5565
 2413SOL     OW18697   1.303   3.023   1.670 -0.4213  0.1397 -0.0221
 2413SOL    HW118698   1.237   3.003   1.736 -0.3538  1.9945  0.5910
 2413SOL    HW218699   1.317   3.117   1.668 -1.4157  0.2755 -0.5958
 2414SOL     OW18700   3.990   1.022  16.402  0.5369 -0.0590  0.1003
 2414SOL    HW118701   3.926   1.076  16.449  1.7181  0.6896  0.8283
 2414SOL    HW218702   4.032   0.988  16.481  1.1099  0.6596  0.1033
 2415SOL     OW18703   0.644   3.894   4.221  0.1616 -0.6428  0.7042
 2415SOL    HW118704   0.676   3.976   4.259  2.6810 -1.3089  0.0200
 2415SOL    HW218705   0.552   3.906   4.245  0.5773 -0.9793  2.4766
 2416SOL     OW18706   2.998   0.828   3.348 -0.2854 -0.0453 -0.2467
 2416SOL    HW118707   3.080   0.831   3.298  0.5029  1.5551  1.1113
 2416SOL    HW218708   2.943   0.761   3.308 -0.2418  1.3269 -2.5522
 2417SOL     OW18709   0.278   0.197   0.414  0.0056  0.3521 -0.4456
 2417SOL    HW118710   0.188   0.226   0.416  0.3097  1.2799 -0.4880
 2417SOL    HW218711   0.303   0.212   0.506  0.2184  0.2478 -0.4866
 2418SOL     OW18712   0.858   4.547   0.410 -0.2877 -0.1432 -0.1436
 2418SOL    HW118713   0.832   4.632   0.445  0.8514 -0.2750  1.0128
 2418SOL    HW218714   0.942   4.575   0.374 -1.1052  1.4932 -0.7813
 2419SOL     OW18715   3.605   2.584  10.963 -0.2614  0.1880 -0.2711
 2419SOL    HW118716   3.602   2.646  11.036  2.3815 -2.1465  1.8190
 2419SOL    HW218717   3.582   2.637  10.887 -1.3843  1.5703  1.0266
 2420SOL     OW18718   3.290   3.707   9.829  0.1591  0.3736  0.5007
 2420SOL    HW118719   3.229   3.677   9.896 -1.7047 -0.7023 -1.6949
 2420SOL    HW218720   3.278   3.801   9.822  1.8629  0.5263 -0.5633
 2421SOL     OW18721   0.335   0.871   8.191  0.0187  0.4367 -0.0063
 2421SOL    HW118722   0.240   0.879   8.203  0.1633  1.6110  0.3640
 2421SOL    HW218723   0.353   0.935   8.123  0.9463  0.1723 -0.0087
 2422SOL     OW18724   0.193   1.390  13.767 -0.5050  0.4164 -0.3494
 2422SOL    HW118725   0.108   1.385  13.811  0.1629  2.7504  1.2522
 2422SOL    HW218726   0.239   1.311  13.795 -0.8789  0.1254 -0.5619
 2423SOL     OW18727   0.847   3.948  13.813  0.1001  0.0270 -0.2726
 2423SOL    HW118728   0.797   3.968  13.892  0.8173 -0.3250  0.2658
 2423SOL    HW218729   0.925   3.989  13.850 -1.3765  2.5096  0.0590
 2424SOL     OW18730   1.751   0.645  14.496 -0.0473 -0.2020  0.4781
 2424SOL    HW118731   1.771   0.616  14.407 -1.6823  2.2213 -0.6986
 2424SOL    HW218732   1.831   0.696  14.512 -0.7991  1.4290 -0.9742
 2425SOL     OW18733   3.418   1.433   6.343  0.4615 -0.3781 -0.0809
 2425SOL    HW118734   3.373   1.348   6.350  0.0630 -0.3153 -1.8457
 2425SOL    HW218735   3.358   1.483   6.288 -0.5083 -2.0086 -0.5051
 2426SOL     OW18736   2.784   4.489   2.012 -0.4108  0.4460  0.1335
 2426SOL    HW118737   2.845   4.488   1.938 -2.3182 -0.8139 -1.4119
 2426SOL    HW218738   2.798   4.407   2.060  1.1816 -0.1890 -1.4269
 2427SOL     OW18739   4.664   2.535   8.029 -0.2333 -0.3344  0.2696
 2427SOL    HW118740   4.662   2.555   7.935 -0.8286  1.0392  0.5845
 2427SOL    HW218741   4.602   2.593   8.072 -0.6952  0.0093 -0.8596
 2428SOL     OW18742   3.988   1.427   4.334 -0.3939  0.7579 -0.4324
 2428SOL    HW118743   4.069   1.471   4.307 -0.4392  0.9353 -0.2838
 2428SOL    HW218744   4.010   1.335   4.329  0.3859  0.8993  0.4648
 2429SOL     OW18745   0.833   1.680   8.579 -0.6438 -0.2231  0.4809
 2429SOL    HW118746   0.745   1.658   8.548 -0.5315  1.1496 -0.8162
 2429SOL    HW218747   0.865   1.721   8.499 -1.2118  0.9180  0.8348
 2430SOL     OW18748   3.503   4.444   4.417 -0.3641 -0.0586  0.7560
 2430SOL    HW118749   3.595   4.466   4.430 -0.5534  0.8644  0.5526
 2430SOL    HW218750   3.504   4.353   4.391 -1.3082  0.1211  0.0929
 2431SOL     OW18751   2.371   4.324  13.740 -0.6096  0.0199  0.8652
 2431SOL    HW118752   2.281   4.293  13.743 -1.0341  1.1039 -0.4905
 2431SOL    HW218753   2.423   4.247  13.762 -1.1060 -0.3981  0.5762
 2432SOL     OW18754   1.036   3.305   1.219  0.0213 -0.0787  0.3646
 2432SOL    HW118755   1.004   3.252   1.146  0.5189 -0.0708  0.1374
 2432SOL    HW218756   1.117   3.340   1.180  0.1426 -1.4794 -0.6668
 2433SOL     OW18757   4.542   3.110   5.634  0.1666 -0.2240 -0.1668
 2433SOL    HW118758   4.587   3.113   5.718  1.0026  1.8460 -0.6899
 2433SOL    HW218759   4.486   3.033   5.641  0.9419 -1.0284 -2.7222
 2434SOL     OW18760   0.686   3.546   7.755  0.7559  0.1915 -0.0311
 2434SOL    HW118761   0.674   3.576   7.844 -0.5317 -0.9296  0.1786
 2434SOL    HW218762   0.683   3.624   7.700 -1.6811 -0.0120 -0.1872
 2435SOL     OW18763   4.242   1.560   8.266  0.4349  0.8237  0.0049
 2435SOL    HW118764   4.311   1.621   8.242  2.0640 -1.2182 -0.4961
 2435SOL    HW218765   4.203   1.546   8.180  1.7021  0.1400 -0.4583
 2436SOL     OW18766   1.148   2.315   6.571 -0.4901 -0.3800  0.1007
 2436SOL    HW118767   1.219   2.324   6.507 -0.6356  1.4643  0.2203
 2436SOL    HW218768   1.192   2.351   6.648  0.1907  2.3379 -1.5602
 2437SOL     OW18769   4.127   2.453  14.464  0.6287 -0.1673  0.7367
 2437SOL    HW118770   4.103   2.390  14.532 -0.9418 -0.0013  0.3435
 2437SOL    HW218771   4.111   2.538  14.504  0.5771  0.4852 -0.6622
 2438SOL     OW18772   2.347   2.461   2.203  0.1735 -0.1363  0.0126
 2438SOL    HW118773   2.426   2.513   2.218 -0.6928  1.7082 -1.7957
 2438SOL    HW218774   2.286   2.488   2.272  2.0529 -0.0716  1.6713
 2439SOL     OW18775   1.406   2.357  15.238  0.7102 -0.2563 -0.4592
 2439SOL    HW118776   1.330   2.351  15.181  2.2613 -1.6151 -2.4128
 2439SOL    HW218777   1.444   2.439  15.206  0.7103 -0.9352 -2.2320
 2440SOL     OW18778   1.623   4.076  11.003  0.4235  0.6547  0.1951
 2440SOL    HW118779   1.693   4.010  11.004  0.8692  1.1483  1.0108
 2440SOL    HW218780   1.666   4.156  10.975  0.9041  0.1210 -0.5973
 2441SOL     OW18781   0.527   2.988   5.260  0.2035  0.0372 -0.5709
 2441SOL    HW118782   0.566   2.990   5.347  0.2160 -0.0631 -0.5748
 2441SOL    HW218783   0.475   3.068   5.268 -0.2739 -0.2364 -0.9260
 2442SOL     OW18784   2.044   3.037  14.844  0.0298  0.0311 -0.5318
 2442SOL    HW118785   2.111   2.993  14.791  1.5577 -0.3620  1.7069
 2442SOL    HW218786   1.984   2.963  14.853  1.1133 -0.7666  0.0579
 2443SOL     OW18787   2.681   0.732   5.018  0.3119 -0.3083 -0.0114
 2443SOL    HW118788   2.693   0.746   4.924 -1.0124 -0.9007 -0.2689
 2443SOL    HW218789   2.643   0.817   5.041  2.3434  1.1407 -1.9667
 2444SOL     OW18790   4.441   0.786   8.553  0.0624 -0.5766  0.3568
 2444SOL    HW118791   4.460   0.816   8.464  1.0835  0.7387  1.0088
 2444SOL    HW218792   4.466   0.694   8.555 -0.8536 -0.7862  2.6431
 2445SOL     OW18793   0.151   0.556  10.481  0.0930 -0.0320 -0.2657
 2445SOL    HW118794   0.126   0.618  10.550 -2.0756 -0.7247 -0.4063
 2445SOL    HW218795   0.084   0.489  10.492 -1.5061  1.9564  2.1610
 2446SOL     OW18796   2.535   1.686   5.561  0.0116  0.0183 -0.2960
 2446SOL    HW118797   2.529   1.731   5.645  3.6882  0.6026 -0.3411
 2446SOL    HW218798   2.608   1.625   5.561 -0.6720 -0.7967  2.7859
 2447SOL     OW18799   0.685   1.578   5.372  0.4583  0.3549  0.0279
 2447SOL    HW118800   0.697   1.671   5.351  0.5295  0.3840  0.1947
 2447SOL    HW218801   0.620   1.563   5.304 -0.0244  0.1530  0.5392
 2448SOL     OW18802   2.827   0.583   1.518  0.1339  0.4997 -0.2265
 2448SOL    HW118803   2.908   0.602   1.471 -0.0003 -0.2472 -0.7446
 2448SOL    HW218804   2.765   0.575   1.447 -1.1424 -1.7360  1.1510
 2449SOL     OW18805   0.774   4.583  13.857 -0.6345  0.1337  0.6230
 2449SOL    HW118806   0.701   4.566  13.797 -0.6485 -0.6824  0.8846
 2449SOL    HW218807   0.781   4.676  13.835  2.5496 -0.4744 -1.0069
 2450SOL     OW18808   4.371   4.289   6.241 -0.1927 -0.1774 -0.1894
 2450SOL    HW118809   4.338   4.326   6.160  1.7129 -2.6085 -2.0853
 2450SOL    HW218810   4.427   4.216   6.216  0.0237 -0.5125  1.2560
 2451SOL     OW18811   2.255   2.193   5.843 -0.0344  0.1736  0.0967
 2451SOL    HW118812   2.163   2.176   5.821  0.4256 -0.6519 -1.1707
 2451SOL    HW218813   2.247   2.266   5.904  2.3675  1.2048 -0.8280
 2452SOL     OW18814   1.130   0.192   7.541  0.2435 -0.3995 -0.6046
 2452SOL    HW118815   1.150   0.186   7.634  1.2352  3.2961 -0.5952
 2452SOL    HW218816   1.198   0.254   7.513 -2.2390  2.7016  0.3335
 2453SOL     OW18817   0.466   0.678   7.883  0.3644 -0.0752 -0.1859
 2453SOL    HW118818   0.441   0.588   7.902  0.9516 -0.3977 -0.9114
 2453SOL    HW218819   0.560   0.682   7.905  0.5037  1.3697 -1.0645
 2454SOL     OW18820   1.367   0.886  12.076  0.9243 -0.4577 -0.1248
 2454SOL    HW118821   1.319   0.884  12.159  0.7133 -0.4151 -0.2479
 2454SOL    HW218822   1.366   0.979  12.055 -0.2941  0.1326  2.5493
 2455SOL     OW18823   1.232   1.136   2.494 -0.0379  0.2137  0.2490
 2455SOL    HW118824   1.284   1.146   2.414 -0.5802  0.2215 -0.1097
 2455SOL    HW218825   1.198   1.047   2.482 -1.5035  0.9719 -1.3529
 2456SOL     OW18826   0.028   2.601   6.502  0.4644  0.7819 -0.2989
 2456SOL    HW118827   0.074   2.592   6.585  3.6542  0.0611 -2.1652
 2456SOL    HW218828   0.038   2.513   6.465  2.1660  0.7629  0.1876
 2457SOL     OW18829   3.555   1.613  11.366  0.7712  0.0910 -0.0418
 2457SOL    HW118830   3.625   1.671  11.335  3.0887 -1.7897  1.6425
 2457SOL    HW218831   3.516   1.607  11.279  0.0924  0.3013  0.2491
 2458SOL     OW18832   2.365   4.270   1.064  0.5645  0.6569  0.4385
 2458SOL    HW118833   2.427   4.211   1.023 -1.1498 -0.0631 -1.0862
 2458SOL    HW218834   2.286   4.222   1.039  0.1787  0.5271  1.8870
 2459SOL     OW18835   4.562   0.721   8.865  0.3741  0.6078 -0.3569
 2459SOL    HW118836   4.600   0.711   8.952 -2.3022  0.2198  0.7612
 2459SOL    HW218837   4.637   0.719   8.805  0.0378 -1.2102 -0.7049
 2460SOL     OW18838   2.888   3.741   0.290 -0.2899 -0.5614  0.3750
 2460SOL    HW118839   2.978   3.749   0.321 -0.4112 -2.2883  1.1613
 2460SOL    HW218840   2.828   3.728   0.364 -1.9187  1.4016 -0.5834
 2461SOL     OW18841   1.097   0.208   8.729 -0.1344 -0.2680 -0.5893
 2461SOL    HW118842   1.054   0.157   8.660 -2.3283  1.3061 -0.3677
 2461SOL    HW218843   1.133   0.282   8.681  2.5006 -1.1964 -0.0469
 2462SOL     OW18844   1.088   2.110   0.822  0.0593 -0.5065  0.0172
 2462SOL    HW118845   1.072   2.112   0.917 -0.3995  0.9902 -0.1015
 2462SOL    HW218846   1.154   2.176   0.801 -2.0393  1.3747 -0.6120
 2463SOL     OW18847   3.007   4.147   5.421  0.0934  0.0778  0.1537
 2463SOL    HW118848   3.066   4.195   5.362 -1.3401  1.2732 -0.3049
 2463SOL    HW218849   2.955   4.218   5.459 -0.9802 -0.8185  0.3343
 2464SOL     OW18850   0.874   0.567   0.420  0.3588 -0.6302  0.1010
 2464SOL    HW118851   0.892   0.505   0.349  1.0677 -0.2440 -0.0565
 2464SOL    HW218852   0.963   0.595   0.441 -0.1260 -0.1853  1.5645
 2465SOL     OW18853   3.582   0.656  14.815  0.0728 -0.2123 -0.1563
 2465SOL    HW118854   3.640   0.716  14.769  1.9431 -0.9997  1.1813
 2465SOL    HW218855   3.547   0.703  14.891  1.5006 -1.3508  1.2046
 2466SOL     OW18856   2.878   1.419   4.879  0.0414 -0.1910  0.5861
 2466SOL    HW118857   2.811   1.469   4.924  0.9377 -0.9041  2.6942
 2466SOL    HW218858   2.952   1.480   4.876  1.0989 -1.4427  1.4555
 2467SOL     OW18859   1.374   1.040   5.014 -0.2580  0.9516 -0.0571
 2467SOL    HW118860   1.409   0.959   4.976 -0.7418  0.5422  0.3716
 2467SOL    HW218861   1.361   1.025   5.108  0.5888 -0.2899 -0.1291
 2468SOL     OW18862   1.719   0.368   5.533  0.5406 -0.3585  0.7389
 2468SOL    HW118863   1.642   0.416   5.564  0.3928  0.4484 -0.8810
 2468SOL    HW218864   1.748   0.406   5.451  1.2263 -0.5745  0.8780
 2469SOL     OW18865   1.073   3.789   4.075 -0.5828 -0.7851  0.2948
 2469SOL    HW118866   0.988   3.799   4.118 -0.9069  0.5476 -0.6767
 2469SOL    HW218867   1.064   3.843   3.997  0.6157 -0.5585  0.3078
 2470SOL     OW18868   0.847   1.147   3.777  0.2190  0.3845 -0.2175
 2470SOL    HW118869   0.908   1.092   3.729 -1.1042 -1.7313  0.5361
 2470SOL    HW218870   0.784   1.082   3.810 -1.1593  0.9119 -1.8309
 2471SOL     OW18871   2.852   1.198  16.501  0.2238 -0.4748 -0.5132
 2471SOL    HW118872   2.831   1.153  16.583  0.3076  1.1759  0.4171
 2471SOL    HW218873   2.920   1.252  16.539 -0.0250  0.4530 -1.3837
 2472SOL     OW18874   2.962   3.615   2.652 -0.3843 -0.2030 -0.0723
 2472SOL    HW118875   3.025   3.581   2.715  0.0679 -0.5534 -0.7087
 2472SOL    HW218876   2.950   3.560   2.575  0.2037 -0.1594 -0.1919
 2473SOL     OW18877   1.890   0.091  13.921 -0.1534  0.0427 -0.0160
 2473SOL    HW118878   1.977   0.100  13.882 -1.1074 -1.7301 -2.5730
 2473SOL    HW218879   1.899   0.164  13.982  0.2853 -0.8740  0.9983
 2474SOL     OW18880   3.871   2.017   7.200 -0.1315 -0.4719 -0.1280
 2474SOL    HW118881   3.781   1.989   7.186 -0.4133  0.8678 -1.0668
 2474SOL    HW218882   3.909   2.031   7.112  0.6685  2.3781  0.6554
 2475SOL     OW18883   4.149   2.246   6.980  0.4213  0.0851  0.2679
 2475SOL    HW118884   4.146   2.240   6.884  2.2723 -2.5383  0.3749
 2475SOL    HW218885   4.244   2.260   6.987  0.6424 -1.6160  0.5031
 2476SOL     OW18886   4.633   3.811  14.317 -0.1382  0.6031  0.1194
 2476SOL    HW118887   4.578   3.818  14.395  0.6123 -1.1997  0.8115
 2476SOL    HW218888   4.696   3.744  14.343  1.6078  2.5225  0.8010
 2477SOL     OW18889   0.297   2.531   3.867  0.0915 -0.6503  0.0686
 2477SOL    HW118890   0.256   2.486   3.942  1.7694 -1.0263  0.7637
 2477SOL    HW218891   0.370   2.475   3.840  0.0394 -0.3408 -0.7147
 2478SOL     OW18892   0.932   2.628  10.833  0.0368 -0.7268  0.0834
 2478SOL    HW118893   0.881   2.636  10.752 -1.2575 -0.7565  0.8804
 2478SOL    HW218894   1.011   2.585  10.801  0.1368 -1.0975  0.8412
 2479SOL     OW18895   2.608   2.855  17.021 -0.2020 -0.2458  0.1661
 2479SOL    HW118896   2.692   2.885  17.057  0.6031 -0.7488 -1.2906
 2479SOL    HW218897   2.549   2.890  17.087 -0.1843 -2.7691  1.5177
 2480SOL     OW18898   1.867   2.809   7.803  0.1818  0.0173 -0.4371
 2480SOL    HW118899   1.878   2.888   7.856  0.3532 -1.0615  1.1184
 2480SOL    HW218900   1.907   2.839   7.721  1.0021 -1.5727 -0.6262
 2481SOL     OW18901   2.801   2.562   6.257  0.2328 -0.1562  0.2902
 2481SOL    HW118902   2.747   2.578   6.334  0.1037 -2.1226  0.5909
 2481SOL    HW218903   2.878   2.615   6.281  1.8092 -0.6342 -3.6612
 2482SOL     OW18904   1.854   2.648   8.951  0.0729 -0.1670  0.4945
 2482SOL    HW118905   1.763   2.642   8.924  0.0990  0.1749  0.3301
 2482SOL    HW218906   1.878   2.559   8.977  0.1328 -0.1263  0.5808
 2483SOL     OW18907   3.310   4.220   8.942  0.1983  0.3056  0.4195
 2483SOL    HW118908   3.242   4.156   8.964 -0.3448  1.3729  1.8854
 2483SOL    HW218909   3.258   4.295   8.913 -0.2404 -0.2175 -0.1333
 2484SOL     OW18910   2.494   3.773  12.635  0.2646  0.1138  0.1900
 2484SOL    HW118911   2.558   3.842  12.651 -1.1784  1.6696 -0.6684
 2484SOL    HW218912   2.459   3.763  12.723  0.0178 -1.2166 -0.0505
 2485SOL     OW18913   1.115   0.867   1.914  0.1186 -0.5247 -0.2674
 2485SOL    HW118914   1.175   0.922   1.964 -0.7363  0.4762 -0.3529
 2485SOL    HW218915   1.115   0.787   1.966 -0.3672 -0.4730 -0.1880
 2486SOL     OW18916   4.660   4.426  13.114  0.4307  0.4221 -0.2688
 2486SOL    HW118917   4.598   4.368  13.158  0.0319  1.3568  0.4082
 2486SOL    HW218918   0.018   4.377  13.131  0.7589  1.3778  0.9159
 2487SOL     OW18919   1.301   3.059  12.221 -0.1090 -0.0776 -0.0198
 2487SOL    HW118920   1.287   3.141  12.175  1.2540 -1.5284 -3.0428
 2487SOL    HW218921   1.294   3.089  12.311  1.2990 -0.9233  0.3731
 2488SOL     OW18922   1.842   4.358  11.791 -0.0805 -0.0449 -0.6219
 2488SOL    HW118923   1.810   4.268  11.803  2.4804 -0.8796 -0.1452
 2488SOL    HW218924   1.934   4.348  11.814 -0.4849  0.1244  1.0919
 2489SOL     OW18925   0.828   1.484   7.701 -0.2505  0.2448  0.1058
 2489SOL    HW118926   0.897   1.451   7.644  1.3364 -1.1973  2.8214
 2489SOL    HW218927   0.770   1.408   7.692 -1.9473  1.6148 -0.5411
 2490SOL     OW18928   3.020   0.422  16.146 -0.7392 -0.4023  0.3785
 2490SOL    HW118929   3.093   0.466  16.101 -1.8089 -1.1072 -2.0657
 2490SOL    HW218930   3.062   0.338  16.167 -0.6431  0.2955  2.9539
 2491SOL     OW18931   0.880   1.803   3.941  0.3455 -0.7056  0.6192
 2491SOL    HW118932   0.955   1.851   3.977  0.3462 -1.4436  1.6101
 2491SOL    HW218933   0.924   1.723   3.913 -0.1999 -0.8603  0.2113
 2492SOL     OW18934   4.623   3.712   8.991  0.1164  0.1754 -0.5282
 2492SOL    HW118935   4.697   3.654   9.008 -1.3401 -0.8144  2.3365
 2492SOL    HW218936   4.666   3.764   8.923  2.2561 -0.2753  0.4958
 2493SOL     OW18937   4.065   4.082   7.992  0.4650  0.1173 -1.3867
 2493SOL    HW118938   4.062   4.017   7.922  0.2812 -0.4580 -0.8415
 2493SOL    HW218939   4.142   4.136   7.976  0.4343  0.4907 -0.2997
 2494SOL     OW18940   0.181   2.484   1.916 -0.2796  0.1276  0.3828
 2494SOL    HW118941   0.194   2.579   1.915  0.4429  0.0328  0.4299
 2494SOL    HW218942   0.272   2.457   1.903 -0.3243  0.5439 -0.7550
 2495SOL     OW18943   2.947   0.810  16.138  0.2709 -0.2233 -0.4235
 2495SOL    HW118944   3.006   0.820  16.063 -1.6577 -0.3426 -1.9634
 2495SOL    HW218945   2.902   0.727  16.119 -0.8926  0.0145  1.2903
 2496SOL     OW18946   1.620   4.136  15.255 -0.1860  0.3987  0.1806
 2496SOL    HW118947   1.561   4.145  15.180 -2.3982  1.4998  2.0634
 2496SOL    HW218948   1.703   4.111  15.213  0.6651  3.1364  0.1819
 2497SOL     OW18949   2.369   1.906   4.012  0.4205  0.0742 -0.2750
 2497SOL    HW118950   2.360   1.957   4.093 -4.8567 -0.1648 -0.7088
 2497SOL    HW218951   2.367   1.976   3.947  2.3615 -0.1246 -0.5377
 2498SOL     OW18952   1.274   0.817   3.639  0.5120 -0.1606  0.2363
 2498SOL    HW118953   1.344   0.797   3.576 -1.0237 -1.0851 -1.1787
 2498SOL    HW218954   1.325   0.865   3.704  1.5579 -0.0258 -0.6831
 2499SOL     OW18955   1.380   1.073   9.113  0.3542 -0.2780 -0.1454
 2499SOL    HW118956   1.345   1.098   9.199 -1.5455 -3.1339 -0.0962
 2499SOL    HW218957   1.390   1.156   9.066  1.1593 -0.1212  0.2922
 2500SOL     OW18958   1.356   0.284   6.882  0.2879 -0.4588  0.3036
 2500SOL    HW118959   1.266   0.251   6.874  0.0820 -0.2329  1.6562
 2500SOL    HW218960   1.402   0.211   6.924 -0.3295 -0.5266  0.8784
 2501SOL     OW18961   3.019   2.139   7.118 -0.1986 -0.1347  0.3677
 2501SOL    HW118962   3.110   2.169   7.116 -1.5659  4.0938  1.4183
 2501SOL    HW218963   3.038   2.049   7.092  0.1592  0.0372  0.0421
 2502SOL     OW18964   1.116   3.640   4.665  0.2325 -0.2597 -0.1889
 2502SOL    HW118965   1.112   3.726   4.707  2.7981 -0.1267 -0.2265
 2502SOL    HW218966   1.184   3.613   4.726  1.4951  2.1073 -0.5343
 2503SOL     OW18967   4.101   1.100   6.138 -0.3391  0.3470  0.1024
 2503SOL    HW118968   4.059   1.170   6.088  0.1033  0.0105 -0.7306
 2503SOL    HW218969   4.163   1.074   6.070  1.0784 -1.8158  2.2196
 2504SOL     OW18970   0.463   2.571  14.160 -0.1582  0.0925  0.2535
 2504SOL    HW118971   0.500   2.622  14.089  0.9932  1.2645  1.6976
 2504SOL    HW218972   0.509   2.608  14.236 -0.7397 -1.0524  1.1651
 2505SOL     OW18973   2.702   2.845   7.272  0.0640 -1.1021  0.6639
 2505SOL    HW118974   2.692   2.791   7.350  0.3395  0.8420  2.0147
 2505SOL    HW218975   2.613   2.834   7.237  0.0816  0.1672  0.2069
 2506SOL     OW18976   4.237   2.572   6.952 -0.1482 -0.1980 -0.4013
 2506SOL    HW118977   4.186   2.638   6.999 -0.0671 -0.8860  0.6732
 2506SOL    HW218978   4.303   2.625   6.907 -0.0023 -0.9758 -1.0957
 2507SOL     OW18979   4.539   0.744   5.009  0.0081  0.0350  0.8603
 2507SOL    HW118980   4.568   0.835   5.002 -0.1290  0.2290  2.7331
 2507SOL    HW218981   4.445   0.761   4.998  0.4190  1.7447 -0.0606
 2508SOL     OW18982   3.125   3.936  17.624  0.3004  0.4914 -0.5657
 2508SOL    HW118983   3.054   3.881  17.656  1.9060 -0.2476  1.6806
 2508SOL    HW218984   3.079   4.016  17.649  1.0836  0.5162  0.7555
 2509SOL     OW18985   3.321   0.347   9.949 -0.1024 -0.0439  0.2857
 2509SOL    HW118986   3.368   0.285   9.893  1.0922  1.1787 -0.0777
 2509SOL    HW218987   3.241   0.350   9.897 -0.3892 -1.1823  0.6781
 2510SOL     OW18988   3.972   4.388   3.627  0.1015  0.4330 -0.0250
 2510SOL    HW118989   3.883   4.412   3.652  1.1710  1.5245  2.7470
 2510SOL    HW218990   4.008   4.454   3.568  0.1439 -0.7908 -1.3706
 2511SOL     OW18991   2.541   1.288  10.954  0.0534 -0.2558 -0.1667
 2511SOL    HW118992   2.456   1.289  10.910 -0.7865 -0.2819  1.4407
 2511SOL    HW218993   2.506   1.284  11.043 -3.0872  1.4644 -1.3027
 2512SOL     OW18994   3.953   1.036   0.095  0.2515 -0.2175  0.0332
 2512SOL    HW118995   3.992   1.071   0.175 -0.3511  0.6542 -0.0454
 2512SOL    HW218996   3.862   1.019   0.117  0.2896 -0.2237  0.1891
 2513SOL     OW18997   2.753   1.082   4.423  1.0081 -0.3296 -0.2512
 2513SOL    HW118998   2.789   0.995   4.441  2.6277  1.0785  3.3864
 2513SOL    HW218999   2.750   1.121   4.511 -1.7865 -0.7354 -0.1814
 2514SOL     OW19000   0.395   2.960  17.512  0.5067  0.1386 -1.1764
 2514SOL    HW119001   0.307   2.937  17.542  1.0993  0.4923  0.7714
 2514SOL    HW219002   0.376   2.982  17.421 -2.5703  0.0025 -0.5495
 2515SOL     OW19003   1.205   3.210   6.642  0.2408  0.0681 -0.1488
 2515SOL    HW119004   1.270   3.162   6.591  0.1908 -0.5816  0.3996
 2515SOL    HW219005   1.176   3.142   6.702  2.1485 -0.9121 -0.3205
 2516SOL     OW19006   4.609   3.276   7.581 -0.2759  0.5019 -0.0593
 2516SOL    HW119007   4.666   3.232   7.518 -2.3971 -0.3391 -1.4071
 2516SOL    HW219008   4.641   3.247   7.666 -2.0835  1.2462  0.8850
 2517SOL     OW19009   4.487   4.028   9.475  0.2408  0.2978 -0.0878
 2517SOL    HW119010   4.533   4.088   9.417  1.7368 -0.4196  0.3566
 2517SOL    HW219011   4.398   4.050   9.446 -0.2737 -1.6043  0.0450
 2518SOL     OW19012   3.149   2.789   3.711  0.4650  0.4207 -0.5890
 2518SOL    HW119013   3.192   2.742   3.783 -0.7577  0.1627 -0.0316
 2518SOL    HW219014   3.131   2.716   3.651 -2.8319  0.5266  0.2917
 2519SOL     OW19015   4.223   2.873  11.869 -0.3877  0.3016  0.2554
 2519SOL    HW119016   4.202   2.939  11.935 -3.0997 -0.3581  0.0510
 2519SOL    HW219017   4.290   2.838  11.928 -1.3726 -0.6755  0.8017
 2520SOL     OW19018   0.572   1.426   3.024 -0.2516 -0.0893  0.0777
 2520SOL    HW119019   0.477   1.425   3.012 -0.1735  0.0536 -0.5189
 2520SOL    HW219020   0.589   1.508   2.977 -2.4385  0.3592  0.0753
 2521SOL     OW19021   1.914   3.576  12.225  0.5761  1.2338 -0.1709
 2521SOL    HW119022   1.837   3.609  12.271  0.1796  0.5165 -0.3154
 2521SOL    HW219023   1.981   3.609  12.285  2.0918 -0.5191 -0.9042
 2522SOL     OW19024   1.234   4.219  12.866 -0.0594  0.0754  0.1173
 2522SOL    HW119025   1.283   4.300  12.849 -0.2455  0.2447  0.3888
 2522SOL    HW219026   1.259   4.173  12.785  3.4519  3.2360 -0.5936
 2523SOL     OW19027   4.168   4.471   5.512  0.3176  0.4014 -0.4597
 2523SOL    HW119028   4.200   4.398   5.459 -0.3580 -0.2240 -0.0061
 2523SOL    HW219029   4.084   4.491   5.472  0.6654 -0.0170 -1.4116
 2524SOL     OW19030   0.807   4.314   5.869  0.1027 -0.0487  0.0696
 2524SOL    HW119031   0.803   4.342   5.961 -0.2878  1.2258 -0.3284
 2524SOL    HW219032   0.712   4.304   5.864  0.1164 -0.1854  0.1041
 2525SOL     OW19033   0.008   0.091   3.795 -0.1665  0.4381 -0.2893
 2525SOL    HW119034   0.018   0.186   3.798  1.5072  0.2382  0.1787
 2525SOL    HW219035   4.699   0.074   3.884 -0.3203  2.1031 -0.0337
 2526SOL     OW19036   3.264   2.551   2.449  0.2153 -0.1814  0.6433
 2526SOL    HW119037   3.285   2.504   2.529 -0.1555  1.7298  1.8543
 2526SOL    HW219038   3.213   2.625   2.479 -0.6137  0.2884 -1.8723
 2527SOL     OW19039   4.130   0.771  16.892  0.9154 -0.0716  0.2221
 2527SOL    HW119040   4.196   0.712  16.854  0.9035  1.3112 -1.9344
 2527SOL    HW219041   4.092   0.816  16.816  0.1093 -0.9543  0.0911
 2528SOL     OW19042   1.207   3.064   1.003 -0.7409 -0.1144  0.4782
 2528SOL    HW119043   1.206   3.045   0.909 -1.0229  0.8490  0.2848
 2528SOL    HW219044   1.120   3.029   1.023 -1.0578  0.7241  0.5384
 2529SOL     OW19045   1.210   2.678   2.028 -0.9935  0.3206  0.3794
 2529SOL    HW119046   1.271   2.660   1.957 -0.3571 -0.0613  1.0248
 2529SOL    HW219047   1.130   2.657   1.980 -0.0616 -1.0778 -0.5499
 2530SOL     OW19048   0.991   1.497   8.365 -0.2367  0.2357 -0.4010
 2530SOL    HW119049   0.919   1.559   8.352  0.2890  1.1942  1.2379
 2530SOL    HW219050   0.988   1.438   8.290  0.6917  1.0510 -1.0776
 2531SOL     OW19051   2.088   2.660  17.578  0.6027 -0.1312  0.3811
 2531SOL    HW119052   2.026   2.686  17.510  0.2288  1.7103  1.4098
 2531SOL    HW219053   2.112   2.572  17.549 -0.9700  0.4420 -2.7071
 2532SOL     OW19054   3.597   2.048   8.865 -0.2024 -0.0174  0.0542
 2532SOL    HW119055   3.516   2.002   8.845 -0.9767  1.0228  0.7805
 2532SOL    HW219056   3.633   1.996   8.937  1.1571 -0.4367 -0.9170
 2533SOL     OW19057   0.669   1.298   5.218  0.5022  0.7753  0.4323
 2533SOL    HW119058   0.750   1.335   5.182  1.6667 -2.9937 -0.8342
 2533SOL    HW219059   0.680   1.304   5.313 -1.4149  0.1927  0.6825
 2534SOL     OW19060   3.984   3.357  14.267 -0.6466  0.3318  0.1324
 2534SOL    HW119061   4.061   3.320  14.225 -0.1583  1.5706 -0.0777
 2534SOL    HW219062   3.918   3.326  14.205 -0.4505  1.3111 -0.5717
 2535SOL     OW19063   2.376   1.630   3.961  0.0266  0.3404  0.0323
 2535SOL    HW119064   2.306   1.657   3.901  1.3113 -1.2676 -2.1798
 2535SOL    HW219065   2.397   1.711   4.006 -0.0244  0.2826  0.1601
 2536SOL     OW19066   2.709   1.455   9.011  0.7560  0.4031  0.1536
 2536SOL    HW119067   2.700   1.412   8.926  1.5861  0.2975  0.1177
 2536SOL    HW219068   2.771   1.524   8.990 -0.0929  0.4687 -2.1308
 2537SOL     OW19069   0.205   4.500  13.415  0.1178 -0.7514 -0.5083
 2537SOL    HW119070   0.199   4.507  13.319 -0.3281  0.7316 -0.3654
 2537SOL    HW219071   0.115   4.473  13.431 -0.4224 -0.4409 -2.8932
 2538SOL     OW19072   1.812   4.164   3.411  0.3058  0.1902 -0.1688
 2538SOL    HW119073   1.734   4.212   3.440  0.7578  1.0598 -0.3756
 2538SOL    HW219074   1.873   4.217   3.462 -1.3140  0.3078  1.6379
 2539SOL     OW19075   3.067   0.542   7.853  0.6927  0.3656  1.0337
 2539SOL    HW119076   3.005   0.510   7.919  2.6845  0.0639  2.7786
 2539SOL    HW219077   3.001   0.557   7.785  0.9775 -1.9878  0.2399
 2540SOL     OW19078   2.499   2.037  12.867  0.2044 -0.1525 -0.0121
 2540SOL    HW119079   2.466   1.948  12.852 -0.0207 -0.4553  2.2548
 2540SOL    HW219080   2.554   2.027  12.945  1.2980 -0.8695 -0.8736
 2541SOL     OW19081   0.704   4.303  11.805  0.0428  0.0482 -0.2477
 2541SOL    HW119082   0.661   4.388  11.798  2.8208  1.5208  0.3078
 2541SOL    HW219083   0.786   4.337  11.843  0.6294  1.1498 -2.4750
 2542SOL     OW19084   0.830   2.750   4.257 -0.1732  0.7902  0.1995
 2542SOL    HW119085   0.825   2.738   4.162  1.5503  0.1653  0.1827
 2542SOL    HW219086   0.806   2.842   4.254 -1.6897  0.3732 -0.5277
 2543SOL     OW19087   2.329   4.543  15.920  0.3293 -0.3281  0.7335
 2543SOL    HW119088   2.299   4.623  15.876  1.6095 -0.2087  0.0749
 2543SOL    HW219089   2.261   4.555  15.986 -1.0754 -0.7326 -0.6433
 2544SOL     OW19090   3.595   2.819   5.238  0.3604  0.3512 -0.4407
 2544SOL    HW119091   3.510   2.850   5.268  1.3290  1.6023  0.9776
 2544SOL    HW219092   3.623   2.906   5.211  1.4710 -0.1431 -0.8901
 2545SOL     OW19093   0.854   0.146   7.578  0.5169 -0.0503  0.6856
 2545SOL    HW119094   0.939   0.190   7.581  0.9442 -0.8488  0.5653
 2545SOL    HW219095   0.866   0.094   7.498  0.3937 -0.1398  0.7250
 2546SOL     OW19096   4.298   4.302   0.940  0.2726 -0.0214 -0.3470
 2546SOL    HW119097   4.204   4.299   0.924  0.3044 -2.3951 -0.0530
 2546SOL    HW219098   4.333   4.329   0.855  0.8927  1.6826  0.4337
 2547SOL     OW19099   1.167   1.414   8.535 -0.1290  0.4118  0.0812
 2547SOL    HW119100   1.233   1.378   8.475  0.7910  1.1146  0.6651
 2547SOL    HW219101   1.108   1.458   8.474 -2.1661 -3.2809 -0.5800
 2548SOL     OW19102   1.422   1.850   5.530 -0.2133 -0.1966  0.3227
 2548SOL    HW119103   1.463   1.933   5.553 -1.0167  0.3558 -0.2192
 2548SOL    HW219104   1.492   1.792   5.499 -0.3112  1.0386 -2.2817
 2549SOL     OW19105   0.048   1.968   5.620  0.2232  0.1132 -0.5104
 2549SOL    HW119106   0.106   1.894   5.636  0.1697  0.3303  0.6813
 2549SOL    HW219107   0.065   1.995   5.530  0.2398 -1.2912 -0.9164
 2550SOL     OW19108   2.025   2.444   5.928 -0.0872 -0.3954 -0.3079
 2550SOL    HW119109   1.941   2.417   5.892 -0.6000 -0.0898  0.6551
 2550SOL    HW219110   2.012   2.461   6.021  1.7546  0.0941 -0.1382
 2551SOL     OW19111   3.144   1.222   5.548  0.0130  0.1471  0.7163
 2551SOL    HW119112   3.133   1.200   5.456 -3.1103 -0.0692  1.1235
 2551SOL    HW219113   3.232   1.187   5.558  0.8541  2.2887  0.9729
 2552SOL     OW19114   2.781   0.067   2.671  0.3691  0.2849  0.4926
 2552SOL    HW119115   2.744   0.130   2.609  0.1675 -0.6820 -0.3610
 2552SOL    HW219116   2.795   4.713   2.616 -0.2946 -0.9115  1.9623
 2553SOL     OW19117   2.701   2.980  11.506  0.5839 -0.2885 -0.5387
 2553SOL    HW119118   2.615   2.977  11.549  1.8338 -0.6773  1.9016
 2553SOL    HW219119   2.753   2.997  11.584 -0.9994 -0.4062  0.5533
 2554SOL     OW19120   4.441   2.482  13.001 -0.2612  0.0193  0.2060
 2554SOL    HW119121   4.414   2.540  12.930 -1.2491 -0.6491  0.0423
 2554SOL    HW219122   4.523   2.442  12.972 -0.3636 -0.6584  0.8566
 2555SOL     OW19123   3.112   3.956   9.585  0.2370  0.0613 -0.2032
 2555SOL    HW119124   3.119   3.929   9.493 -3.2788  0.8338 -0.6976
 2555SOL    HW219125   3.118   4.051   9.581  0.1366  0.0800  0.0958
 2556SOL     OW19126   3.376   3.911  16.503 -0.1539 -0.1954  0.0909
 2556SOL    HW119127   3.393   3.837  16.562 -1.4648  0.9443  1.8636
 2556SOL    HW219128   3.343   3.864  16.427 -1.4668 -0.1826  0.6577
 2557SOL     OW19129   2.101   3.846   0.443  0.2638  0.7756  0.0218
 2557SOL    HW119130   2.077   3.846   0.350  0.7703  1.1806 -0.1051
 2557SOL    HW219131   2.182   3.895   0.453  1.3520 -0.9907 -0.1327
 2558SOL     OW19132   0.830   3.857   3.572 -0.2427 -0.1052  0.0196
 2558SOL    HW119133   0.800   3.824   3.657  0.4494  0.7418  0.6006
 2558SOL    HW219134   0.902   3.798   3.550  0.1400  0.5344 -0.4406
 2559SOL     OW19135   1.007   2.710  13.832 -0.0610 -0.0584 -0.1680
 2559SOL    HW119136   0.956   2.705  13.913  0.3289 -2.1450 -0.0462
 2559SOL    HW219137   1.032   2.618  13.824 -0.5157 -0.1681 -0.3271
 2560SOL     OW19138   2.831   4.548   4.805  0.3969 -0.1056 -0.3123
 2560SOL    HW119139   2.918   4.580   4.782  0.1661 -0.4997 -1.7722
 2560SOL    HW219140   2.780   4.599   4.741 -0.5082  0.5440  0.9244
 2561SOL     OW19141   1.831   1.802   2.767 -0.4402  0.1643 -0.1034
 2561SOL    HW119142   1.919   1.832   2.743 -0.6791  0.7673 -0.2325
 2561SOL    HW219143   1.815   1.733   2.703  0.2560 -1.2791  1.2971
 2562SOL     OW19144   0.205   0.967  16.613 -0.6010 -0.1703 -0.6191
 2562SOL    HW119145   0.197   0.872  16.622 -1.2941  0.0070  0.6138
 2562SOL    HW219146   0.276   0.963  16.549 -0.0084 -2.6185  0.1897
 2563SOL     OW19147   1.576   1.071   3.301  1.0114  0.3171  0.1761
 2563SOL    HW119148   1.670   1.054   3.293  1.1323 -0.2903  2.8245
 2563SOL    HW219149   1.532   0.988   3.288  0.5092  0.5648  0.2788
 2564SOL     OW19150   0.717   1.008   1.223  0.1535 -0.0555 -0.4164
 2564SOL    HW119151   0.668   1.004   1.305  2.6439  2.2363  1.1298
 2564SOL    HW219152   0.793   1.057   1.253 -0.0873 -1.5678  2.6787
 2565SOL     OW19153   1.104   4.495   0.717  0.1078  0.2691 -0.5335
 2565SOL    HW119154   1.161   4.427   0.681  0.0247  1.1618 -2.3046
 2565SOL    HW219155   1.169   4.522   0.782  0.2904  0.2699 -0.7169
 2566SOL     OW19156   1.708   4.505   8.767 -0.4011 -0.3703 -0.0565
 2566SOL    HW119157   1.680   4.480   8.855 -1.6594  2.1902  0.2865
 2566SOL    HW219158   1.791   4.543   8.797 -0.2434 -0.6951 -0.0893
 2567SOL     OW19159   2.693   4.071  16.367  0.2467 -0.1129  0.1438
 2567SOL    HW119160   2.654   4.155  16.392  2.5711  0.8546  0.5572
 2567SOL    HW219161   2.615   4.030  16.330  0.2464 -1.1125  1.2536
 2568SOL     OW19162   3.606   1.196   5.772  0.7793 -0.2860  0.0327
 2568SOL    HW119163   3.634   1.211   5.682  1.1099 -1.6230 -0.1001
 2568SOL    HW219164   3.574   1.283   5.792  0.1925 -0.4223 -0.2964
 2569SOL     OW19165   0.929   1.548  10.455  0.1439 -0.0306 -0.1074
 2569SOL    HW119166   0.844   1.546  10.498  0.4747 -2.1596  0.4500
 2569SOL    HW219167   0.961   1.458  10.458 -0.5477 -0.3099 -0.8889
 2570SOL     OW19168   1.941   3.909   3.837  0.1697 -0.2083  0.5719
 2570SOL    HW119169   1.942   3.831   3.892  3.1934  0.0581  0.9192
 2570SOL    HW219170   1.940   3.975   3.907  0.2126 -0.1645  0.5317
 2571SOL     OW19171   3.893   0.003   3.237 -0.5242 -0.2364  0.1810
 2571SOL    HW119172   3.848   0.087   3.226  0.1343  0.0825 -0.1006
 2571SOL    HW219173   3.922   4.719   3.327 -0.9988 -0.6070  0.3079
 2572SOL     OW19174   3.924   0.950  12.804  0.3291  0.5284 -0.0090
 2572SOL    HW119175   3.927   0.994  12.890  0.8161  0.8008 -0.1667
 2572SOL    HW219176   3.850   0.997  12.766 -0.7147 -1.2953 -0.2374
 2573SOL     OW19177   0.442   3.264   7.064  0.4921 -0.2262 -0.0136
 2573SOL    HW119178   0.454   3.345   7.014 -1.2212  0.3134  0.4756
 2573SOL    HW219179   0.355   3.268   7.101  0.3865 -0.9158 -0.1858
 2574SOL     OW19180   3.904   0.605   2.816 -0.0995  0.8133 -0.2737
 2574SOL    HW119181   3.919   0.698   2.797  1.4327  0.0672 -2.6976
 2574SOL    HW219182   3.960   0.557   2.755 -0.9781 -0.0090 -0.4429
 2575SOL     OW19183   3.384   0.650   1.381 -0.1669  0.0934 -0.0578
 2575SOL    HW119184   3.464   0.666   1.330  0.1440  0.4388  0.5339
 2575SOL    HW219185   3.426   0.627   1.464 -1.7543 -0.8078  0.4853
 2576SOL     OW19186   0.025   2.125   5.004 -0.1774  0.1554 -0.4531
 2576SOL    HW119187   0.118   2.114   5.023 -0.4174  1.5323  1.5982
 2576SOL    HW219188   4.719   2.037   4.980 -0.1726  0.2415 -0.7706
 2577SOL     OW19189   0.180   1.751   7.549 -0.3530 -0.1334 -0.7405
 2577SOL    HW119190   0.212   1.839   7.528  1.7284 -0.0742  2.7160
 2577SOL    HW219191   0.104   1.749   7.491 -1.4515  1.7077  0.6343
 2578SOL     OW19192   3.647   3.050   3.862 -0.0247 -0.3630  0.2059
 2578SOL    HW119193   3.677   3.070   3.950  0.6476  1.5121 -0.4453
 2578SOL    HW219194   3.586   3.121   3.842 -1.6331 -1.5322  0.9709
 2579SOL     OW19195   3.605   4.094   8.358  0.3134 -0.9385  0.4195
 2579SOL    HW119196   3.671   4.095   8.426  0.2654 -0.9102  0.4661
 2579SOL    HW219197   3.581   4.003   8.373 -1.4276 -0.5017  0.3373
 2580SOL     OW19198   1.927   1.000  16.036  0.3631 -0.2357 -0.2789
 2580SOL    HW119199   1.885   1.055  15.970 -0.2212 -1.4953 -0.9398
 2580SOL    HW219200   1.995   1.056  16.073  0.2609 -0.6748  0.5670
 2581SOL     OW19201   2.821   1.868   5.336  0.3937  0.2708 -0.3621
 2581SOL    HW119202   2.818   1.957   5.301  1.3716 -0.2366 -1.7286
 2581SOL    HW219203   2.915   1.867   5.355 -0.2069 -3.4228  2.5229
 2582SOL     OW19204   4.459   3.936   1.721  0.1047  0.5941  0.1704
 2582SOL    HW119205   4.528   3.871   1.704 -0.6902  0.2989 -2.0353
 2582SOL    HW219206   4.388   3.905   1.664 -1.6345  1.3065  1.9805
 2583SOL     OW19207   4.563   1.464   3.361  0.2667  0.1171 -0.1337
 2583SOL    HW119208   4.505   1.453   3.437 -0.2598  0.9003 -0.4163
 2583SOL    HW219209   4.503   1.437   3.292 -0.8630 -0.0940  0.9276
 2584SOL     OW19210   2.621   2.474  12.026 -0.4460  0.3180 -0.4896
 2584SOL    HW119211   2.592   2.423  12.101  2.3610  1.7137  1.5089
 2584SOL    HW219212   2.714   2.458  12.037 -0.8120 -2.4476 -1.4255
 2585SOL     OW19213   1.564   4.288   9.652 -0.1193  0.2337 -0.2384
 2585SOL    HW119214   1.598   4.202   9.677  1.8966  0.5483 -1.8828
 2585SOL    HW219215   1.618   4.306   9.575  1.6125 -1.0791  0.6460
 2586SOL     OW19216   3.181   0.769   7.320  0.1415 -0.0781  1.3347
 2586SOL    HW119217   3.272   0.746   7.300 -0.4259  0.6818 -2.1525
 2586SOL    HW219218   3.153   0.690   7.366  0.8099 -1.2475 -0.2855
 2587SOL     OW19219   1.523   2.398   2.431 -0.3389 -0.4354  0.3916
 2587SOL    HW119220   1.495   2.444   2.510  1.9763  1.1256  0.2964
 2587SOL    HW219221   1.436   2.377   2.396 -0.9242  3.5210 -0.5627
 2588SOL     OW19222   0.226   3.090  17.305  0.7478  0.2599  0.4630
 2588SOL    HW119223   0.146   3.046  17.333  0.7464  0.3123  0.5410
 2588SOL    HW219224   0.193   3.178  17.322  0.6990  0.3540 -0.1332
 2589SOL     OW19225   0.931   4.506   4.262  0.3807 -0.1641 -0.1239
 2589SOL    HW119226   0.990   4.434   4.241  1.1309  0.2962  0.4303
 2589SOL    HW219227   0.892   4.516   4.175 -0.9091 -1.4882  0.3215
 2590SOL     OW19228   2.369   3.624   2.074  0.6531  0.0207  0.2811
 2590SOL    HW119229   2.344   3.563   2.005  0.9901 -0.6036  0.7196
 2590SOL    HW219230   2.372   3.570   2.153 -0.7759 -0.3529  0.0926
 2591SOL     OW19231   1.984   2.194   4.765 -0.4624 -0.4071 -0.2816
 2591SOL    HW119232   1.977   2.171   4.858  0.3052 -0.5856 -0.2720
 2591SOL    HW219233   2.036   2.274   4.765  0.3588 -0.9450  1.3678
 2592SOL     OW19234   1.564   3.443   1.696  0.0018  0.1991 -0.1180
 2592SOL    HW119235   1.549   3.429   1.602 -1.5031 -0.9076  0.2830
 2592SOL    HW219236   1.621   3.519   1.697 -2.3779  1.9574  1.4885
 2593SOL     OW19237   0.429   4.365   2.145  0.3111  0.0481  0.4120
 2593SOL    HW119238   0.351   4.415   2.124 -0.0949 -0.9780 -0.5160
 2593SOL    HW219239   0.500   4.429   2.143  0.8839 -0.6511 -1.3843
 2594SOL     OW19240   2.631   2.901   6.017  0.3670 -0.0093  0.0557
 2594SOL    HW119241   2.545   2.942   6.027  0.5631  0.3219  0.3577
 2594SOL    HW219242   2.611   2.838   5.948  0.2540  0.6727 -0.5308
 2595SOL     OW19243   2.822   1.386   7.470 -0.0115 -0.2826 -0.6919
 2595SOL    HW119244   2.869   1.304   7.481  1.6973  0.8199  0.1729
 2595SOL    HW219245   2.802   1.372   7.377 -0.6668 -0.3914 -0.5311
 2596SOL     OW19246   2.945   0.586   6.830  0.2355  0.4865 -0.0442
 2596SOL    HW119247   3.030   0.604   6.790  0.8545 -0.3497  0.9115
 2596SOL    HW219248   2.886   0.622   6.764  0.9258  1.0138 -0.3675
 2597SOL     OW19249   2.897   4.229   6.870 -0.1820 -0.1118 -0.6185
 2597SOL    HW119250   2.972   4.286   6.852 -1.2682  0.9838 -1.6951
 2597SOL    HW219251   2.874   4.259   6.958  1.4013  3.3965 -1.3870
 2598SOL     OW19252   4.715   0.779   0.636 -0.1893  0.2887  0.0171
 2598SOL    HW119253   4.690   0.798   0.546 -2.4434 -1.4070  0.2671
 2598SOL    HW219254   4.684   0.853   0.687  3.4721  1.5040  0.4444
 2599SOL     OW19255   0.802   2.217   2.496 -0.8367  0.3248 -0.5642
 2599SOL    HW119256   0.854   2.137   2.503  0.1861  0.9377 -1.4076
 2599SOL    HW219257   0.833   2.257   2.577 -0.4971 -1.2353  0.0726
 2600SOL     OW19258   1.676   2.451   8.165 -0.0947  0.3657  0.1749
 2600SOL    HW119259   1.702   2.425   8.253 -2.0650 -0.9452  0.3563
 2600SOL    HW219260   1.725   2.533   8.170 -0.5001  0.6492 -0.5991
 2601SOL     OW19261   2.977   1.362  10.751 -0.0645 -0.2182  0.0577
 2601SOL    HW119262   3.003   1.270  10.753 -1.0272 -0.5555 -2.4479
 2601SOL    HW219263   2.991   1.391  10.841 -0.1105  1.2344 -0.4076
 2602SOL     OW19264   0.516   3.673   6.634  0.0719  0.3814  0.5722
 2602SOL    HW119265   0.568   3.594   6.645 -0.9543 -0.6539 -2.0318
 2602SOL    HW219266   0.576   3.747   6.642  0.3905  0.4951 -2.9729
 2603SOL     OW19267   3.403   2.111   4.148  0.5549  0.3802 -0.2008
 2603SOL    HW119268   3.351   2.159   4.212 -0.4576  0.7663 -1.2940
 2603SOL    HW219269   3.341   2.045   4.116 -0.2296  0.9442  0.1263
 2604SOL     OW19270   0.806   3.627  15.818 -0.1944 -0.2446  0.2511
 2604SOL    HW119271   0.837   3.714  15.795  0.8103 -0.4444  0.8462
 2604SOL    HW219272   0.720   3.652  15.852  0.5019  0.7716  1.2488
 2605SOL     OW19273   4.667   3.648   7.285 -0.6173 -0.0835  0.4107
 2605SOL    HW119274   4.636   3.608   7.366  2.7725 -0.8799  1.3402
 2605SOL    HW219275   0.018   3.703   7.313 -2.5488  1.5644  2.1277
 2606SOL     OW19276   0.868   0.764   5.534 -0.2044 -0.7594  0.0132
 2606SOL    HW119277   0.950   0.715   5.527 -0.2711 -0.9368  0.4334
 2606SOL    HW219278   0.826   0.704   5.596  0.9331 -1.5088  0.0672
 2607SOL     OW19279   3.812   4.122   5.535 -0.0970  0.0634  0.5694
 2607SOL    HW119280   3.862   4.106   5.455  0.4198 -0.1828  0.9457
 2607SOL    HW219281   3.856   4.201   5.564  0.2500 -0.4376  1.4002
 2608SOL     OW19282   1.120   0.945   5.214 -0.6381 -0.3231 -0.3116
 2608SOL    HW119283   1.171   1.005   5.269 -1.1883  0.7519 -0.9628
 2608SOL    HW219284   1.084   1.007   5.150 -0.5589  0.5151  0.4435
 2609SOL     OW19285   0.934   0.138   1.848 -0.2293  0.0540 -0.1474
 2609SOL    HW119286   0.955   0.173   1.761 -0.9949 -0.3683 -0.5023
 2609SOL    HW219287   0.975   0.051   1.847 -0.7228 -0.1699 -0.8269
 2610SOL     OW19288   3.248   1.967   4.395  0.2654  0.7770  0.4394
 2610SOL    HW119289   3.276   1.920   4.316 -0.2407 -0.2529  0.8699
 2610SOL    HW219290   3.214   1.898   4.453 -1.0290  1.6182  0.6597
 2611SOL     OW19291   0.553   3.233   8.295 -0.0352  0.4647 -0.9408
 2611SOL    HW119292   0.514   3.152   8.326 -0.6767  1.1612  0.0945
 2611SOL    HW219293   0.613   3.236   8.370 -0.0898 -0.6641 -0.8574
 2612SOL     OW19294   3.611   1.508   5.774  0.5394  0.1649  0.7912
 2612SOL    HW119295   3.627   1.530   5.683 -1.7111  0.3449  0.4480
 2612SOL    HW219296   3.520   1.536   5.783  1.4462  3.6294 -1.1500
 2613SOL     OW19297   2.946   3.645   7.351 -0.5813  0.0354 -0.3669
 2613SOL    HW119298   2.934   3.723   7.406 -2.0860 -0.4914  0.0478
 2613SOL    HW219299   2.857   3.611   7.344 -0.3903 -0.6399  0.5381
 2614SOL     OW19300   2.412   0.567   2.055  0.2961  0.3078 -0.0155
 2614SOL    HW119301   2.431   0.630   1.985 -0.4481  1.5131  0.8676
 2614SOL    HW219302   2.446   0.623   2.125 -3.4493  1.6581  0.7186
 2615SOL     OW19303   0.663   4.669   0.119 -0.1012 -0.0488 -0.2891
 2615SOL    HW119304   0.572   4.656   0.092 -0.4324 -1.5463  1.5473
 2615SOL    HW219305   0.648   4.715   0.201 -0.1372  1.9687 -1.4252
 2616SOL     OW19306   0.955   3.798   1.290 -0.7482 -0.1726  0.3717
 2616SOL    HW119307   0.947   3.871   1.351 -0.7440  0.3245 -0.2246
 2616SOL    HW219308   1.049   3.795   1.271 -0.3973  1.7565  1.8827
 2617SOL     OW19309   4.544   2.292   9.536  0.5157  0.1679 -0.4726
 2617SOL    HW119310   4.597   2.281   9.615 -0.1514 -0.3625 -0.0997
 2617SOL    HW219311   4.606   2.268   9.468 -0.7362 -2.2843 -0.7343
 2618SOL     OW19312   3.024   0.912   6.837 -0.1074 -0.4358 -0.2996
 2618SOL    HW119313   3.012   0.837   6.778 -1.1337 -1.1391  0.7936
 2618SOL    HW219314   2.945   0.965   6.824  0.4450  0.4239 -0.0424
 2619SOL     OW19315   1.358   3.483   0.848 -0.2763  0.0062  0.1946
 2619SOL    HW119316   1.293   3.455   0.784  0.6729 -1.5771 -0.0739
 2619SOL    HW219317   1.318   3.443   0.925  0.2126 -0.9144 -0.0329
 2620SOL     OW19318   0.120   2.365   3.634 -0.6382  0.2390 -0.4766
 2620SOL    HW119319   0.122   2.457   3.659  2.1980  0.0698 -0.0378
 2620SOL    HW219320   0.113   2.313   3.714  0.2231  0.4743 -0.2384
 2621SOL     OW19321   4.660   1.024  14.953 -0.8296 -0.1314 -0.0661
 2621SOL    HW119322   0.011   0.963  14.938 -1.4069 -0.3538 -1.8659
 2621SOL    HW219323   4.631   0.998  15.041  1.9671 -0.3728  0.7867
 2622SOL     OW19324   4.566   1.043   5.108 -0.0154 -0.3142 -0.1193
 2622SOL    HW119325   4.624   1.117   5.091  0.7379 -1.0037 -0.5684
 2622SOL    HW219326   4.624   0.989   5.161  0.7555  1.4841  0.8590
 2623SOL     OW19327   2.018   2.301   5.494 -0.5241 -0.4824 -0.1196
 2623SOL    HW119328   2.083   2.235   5.470  0.9163  0.7147  0.4754
 2623SOL    HW219329   1.987   2.326   5.407 -1.7568 -1.5836  0.0022
 2624SOL     OW19330   1.375   1.989  11.755  0.5572 -0.8583 -0.4543
 2624SOL    HW119331   1.280   2.002  11.761  0.7082 -0.6228  1.3380
 2624SOL    HW219332   1.369   1.907  11.707  1.9540 -0.7475 -0.8073
 2625SOL     OW19333   2.533   2.809   9.289  0.1815 -0.7004  0.3606
 2625SOL    HW119334   2.448   2.850   9.275 -0.4848 -2.5117 -0.9972
 2625SOL    HW219335   2.592   2.860   9.235 -1.3274  1.2177  0.5292
 2626SOL     OW19336   2.850   2.710   4.221  0.7762 -0.2475  0.2474
 2626SOL    HW119337   2.776   2.769   4.204  0.2434 -0.5932  1.3238
 2626SOL    HW219338   2.908   2.767   4.271  0.5820  0.5542 -0.4328
 2627SOL     OW19339   1.057   0.160  10.752  0.6017 -0.0065 -0.1189
 2627SOL    HW119340   1.106   0.114  10.820  1.4025  2.4555  0.9665
 2627SOL    HW219341   1.054   0.244  10.797  0.1487  0.9620 -1.9499
 2628SOL     OW19342   0.031   0.572  13.376 -0.0095  0.4330  0.2773
 2628SOL    HW119343   0.001   0.622  13.300 -1.4740 -0.5079  0.2331
 2628SOL    HW219344   4.680   0.519  13.408  0.6573 -0.1530  0.8436
 2629SOL     OW19345   4.062   4.568   9.031  0.1667 -0.4691 -0.1570
 2629SOL    HW119346   4.056   4.662   9.050 -0.2176 -0.3923 -0.6641
 2629SOL    HW219347   4.055   4.559   8.936  1.0406  0.1133 -0.2739
 2630SOL     OW19348   1.446   4.478  12.604 -0.0639 -0.5609 -0.3358
 2630SOL    HW119349   1.454   4.424  12.683 -1.4879  0.8030  0.7219
 2630SOL    HW219350   1.516   4.448  12.545  2.6565  1.4376  1.9173
 2631SOL     OW19351   1.044   0.677   2.568  0.2065  0.5419  0.4207
 2631SOL    HW119352   1.073   0.737   2.500 -0.0851 -0.2923 -0.4425
 2631SOL    HW219353   1.023   0.732   2.643 -1.2201  0.3864  0.1298
 2632SOL     OW19354   0.177   3.550   8.773  0.4692 -0.0132  0.1009
 2632SOL    HW119355   0.084   3.534   8.758  1.2035 -4.0990 -0.1971
 2632SOL    HW219356   0.168   3.558   8.868  0.6689 -0.0131  0.1187
 2633SOL     OW19357   1.020   0.798   6.684  0.1248  0.2592  0.0275
 2633SOL    HW119358   0.971   0.799   6.602  0.9596  3.5777 -0.4441
 2633SOL    HW219359   0.955   0.819   6.751 -1.4753 -0.4104 -1.3313
 2634SOL     OW19360   2.905   3.654   7.758  0.2989 -0.2177  0.6402
 2634SOL    HW119361   3.001   3.645   7.756  0.2032 -1.7827  3.1138
 2634SOL    HW219362   2.902   3.749   7.747  3.0121 -0.2808 -0.6164
 2635SOL     OW19363   0.142   3.458   6.327  0.1060  0.0003 -0.4784
 2635SOL    HW119364   0.191   3.381   6.296  0.0415  0.3474 -1.4380
 2635SOL    HW219365   0.215   3.519   6.336 -0.4695  0.7425 -0.8691
 2636SOL     OW19366   2.837   0.753   0.464  0.2332  0.1663 -0.5278
 2636SOL    HW119367   2.776   0.735   0.392 -0.7479  2.3198 -0.2183
 2636SOL    HW219368   2.868   0.669   0.498 -0.8356  0.2338  0.5599
 2637SOL     OW19369   3.495   1.480   2.695 -0.4721  0.3772 -0.1081
 2637SOL    HW119370   3.577   1.526   2.678 -0.1294 -0.6493 -1.2717
 2637SOL    HW219371   3.442   1.521   2.626 -0.4471  1.2973  0.4289
 2638SOL     OW19372   4.098   2.705   1.439 -0.3512 -0.1643 -0.2490
 2638SOL    HW119373   4.146   2.723   1.359 -1.6286 -1.4429 -1.3021
 2638SOL    HW219374   4.156   2.760   1.491  1.2804 -1.8280 -0.3288
 2639SOL     OW19375   1.642   2.029   3.583 -0.3023 -0.3556  0.1559
 2639SOL    HW119376   1.675   2.066   3.501  0.9369  0.0749  0.8435
 2639SOL    HW219377   1.622   2.105   3.638 -0.1026  0.3807 -0.7831
 2640SOL     OW19378   0.021   4.537  11.034  0.0581 -0.2563  0.5187
 2640SOL    HW119379   0.097   4.551  11.090  0.3455 -2.4797  0.6901
 2640SOL    HW219380   0.067   4.529  10.951  0.6623  0.9205  0.7363
 2641SOL     OW19381   3.197   1.699   6.853  0.1196 -0.0198 -0.4059
 2641SOL    HW119382   3.109   1.701   6.890  0.5791 -0.4357  0.7086
 2641SOL    HW219383   3.194   1.769   6.788 -1.2204  1.7175  1.5028
 2642SOL     OW19384   1.856   3.205   9.192 -0.4619  0.0241  0.1552
 2642SOL    HW119385   1.945   3.198   9.156  0.3142 -0.2461  2.1089
 2642SOL    HW219386   1.868   3.176   9.283  2.5830 -3.2158 -1.2627
 2643SOL     OW19387   3.653   2.604   4.433  0.4783 -0.1377  0.0955
 2643SOL    HW119388   3.579   2.544   4.438  1.7746 -1.5652  2.1954
 2643SOL    HW219389   3.671   2.599   4.339 -0.2504 -1.2877  0.0082
 2644SOL     OW19390   0.434   3.353   2.402 -0.9278  0.0634  0.0974
 2644SOL    HW119391   0.385   3.388   2.477 -0.9580 -0.4168  0.3008
 2644SOL    HW219392   0.501   3.292   2.432 -0.6607  0.1449 -0.3408
 2645SOL     OW19393   3.149   3.683   4.542  0.9442  0.3795 -0.4194
 2645SOL    HW119394   3.173   3.754   4.482 -0.5621  0.9058 -0.4084
 2645SOL    HW219395   3.061   3.653   4.518  1.5210 -0.3888 -1.5771
 2646SOL     OW19396   1.783   3.149  12.553  0.8349  0.0968 -0.4719
 2646SOL    HW119397   1.733   3.072  12.581  1.1169  0.2420  0.4201
 2646SOL    HW219398   1.803   3.134  12.461  0.8708 -2.0095 -0.1135
 2647SOL     OW19399   3.807   0.403  15.625 -0.3273  0.1922 -0.4847
 2647SOL    HW119400   3.841   0.321  15.660  0.1794  0.7994  0.4317
 2647SOL    HW219401   3.813   0.395  15.529  0.9582  2.2095 -0.5946
 2648SOL     OW19402   0.052   4.237  11.317  0.2313 -0.0758  0.4069
 2648SOL    HW119403   4.685   4.202  11.316  0.6999 -1.3022  1.6106
 2648SOL    HW219404   0.100   4.154  11.310 -2.3994 -1.3079 -2.7796
 2649SOL     OW19405   3.879   2.671   2.716  0.2557 -0.1705  0.4021
 2649SOL    HW119406   3.787   2.687   2.695  0.0057 -1.0255  0.8621
 2649SOL    HW219407   3.916   2.679   2.628  0.6634  0.2558  0.6110
 2650SOL     OW19408   3.677   4.150   7.087  0.6984 -0.2572  0.0737
 2650SOL    HW119409   3.714   4.216   7.029 -0.2050 -0.1572 -0.3970
 2650SOL    HW219410   3.673   4.077   7.025  0.1018 -0.3041  0.1638
 2651SOL     OW19411   0.526   4.130   2.945 -0.0749  0.0651  0.7419
 2651SOL    HW119412   0.536   4.206   2.887 -0.9453 -0.0454  0.4423
 2651SOL    HW219413   0.600   4.076   2.919  0.2941  0.9025  0.0411
 2652SOL     OW19414   3.355   0.055  16.792  0.1691 -0.1252  0.2199
 2652SOL    HW119415   3.414   4.717  16.836 -1.7771 -1.1434  1.4615
 2652SOL    HW219416   3.334   0.010  16.710 -1.7912  0.2382  0.5173
 2653SOL     OW19417   1.720   3.857   5.476  0.0618 -0.3587 -0.6832
 2653SOL    HW119418   1.737   3.936   5.424 -0.7153 -1.2197 -2.2218
 2653SOL    HW219419   1.749   3.878   5.565 -1.9208 -0.5185 -0.0172
 2654SOL     OW19420   2.061   0.847   9.735 -0.2599 -0.2146 -0.0247
 2654SOL    HW119421   2.045   0.926   9.787 -1.2202 -0.9120  0.7543
 2654SOL    HW219422   1.971   0.815   9.723 -1.0767  1.6607  0.9479
 2655SOL     OW19423   4.350   3.656  13.764  0.4006 -0.2463  0.1904
 2655SOL    HW119424   4.363   3.670  13.670  1.0059 -0.9923  0.1633
 2655SOL    HW219425   4.440   3.652  13.797  0.6661  0.0308 -0.5008
 2656SOL     OW19426   2.383   2.962  17.160  0.1874  0.1763 -0.3447
 2656SOL    HW119427   2.310   3.024  17.152 -1.1657 -1.0558  2.2710
 2656SOL    HW219428   2.361   2.900  17.091 -0.8657 -1.1373  1.1704
 2657SOL     OW19429   1.894   4.212   9.375  0.1231  0.1474 -0.4928
 2657SOL    HW119430   1.979   4.217   9.418 -0.9925 -0.2143  1.7758
 2657SOL    HW219431   1.847   4.149   9.431 -0.3413  0.0373 -1.0040
 2658SOL     OW19432   3.221   0.622   2.625 -0.4294 -0.7210 -0.2283
 2658SOL    HW119433   3.281   0.614   2.550  0.9475  1.6584  0.6431
 2658SOL    HW219434   3.270   0.671   2.691 -1.2368  1.7134 -1.4361
 2659SOL     OW19435   4.325   0.799   2.705  0.4728 -0.1578 -0.3974
 2659SOL    HW119436   4.295   0.711   2.727  1.5345 -0.6997 -1.1067
 2659SOL    HW219437   4.400   0.804   2.764  0.1157 -1.5646  0.1657
 2660SOL     OW19438   1.280   0.638   9.326  0.0888  0.1900 -0.0049
 2660SOL    HW119439   1.329   0.556   9.319 -0.6792 -0.2111 -0.6233
 2660SOL    HW219440   1.307   0.687   9.248 -0.1365  1.2162  0.5564
 2661SOL     OW19441   3.423   0.782  11.280 -0.2515  0.4370 -0.3069
 2661SOL    HW119442   3.398   0.866  11.317 -1.1959  0.1782 -0.3393
 2661SOL    HW219443   3.486   0.758  11.347 -0.1232 -3.2754 -1.7447
 2662SOL     OW19444   1.677   2.296   6.838  0.2061 -0.2646  0.6013
 2662SOL    HW119445   1.632   2.251   6.766 -0.4180 -0.4949  1.1316
 2662SOL    HW219446   1.737   2.230   6.873  0.9380 -0.3685 -0.8943
 2663SOL     OW19447   0.777   3.660  11.713  0.0304 -0.3350 -0.4140
 2663SOL    HW119448   0.689   3.632  11.740 -0.1902  0.4660 -0.2856
 2663SOL    HW219449   0.758   3.690  11.624  0.7830 -0.0707 -0.4887
 2664SOL     OW19450   4.636   2.349   5.781  0.6701  0.3361 -0.5648
 2664SOL    HW119451   4.551   2.383   5.751  0.1108 -1.2209 -0.7432
 2664SOL    HW219452   4.684   2.409   5.724  1.8959 -1.1030 -1.0315
 2665SOL     OW19453   3.581   4.424   7.820  0.1511  0.2610  0.4092
 2665SOL    HW119454   3.615   4.349   7.869  1.7690 -0.1046 -1.2528
 2665SOL    HW219455   3.669   4.451   7.794 -0.6992 -0.0223 -2.7278
 2666SOL     OW19456   4.064   2.687   9.940 -0.2474 -1.0042  0.1329
 2666SOL    HW119457   4.044   2.650   9.854  0.1168 -1.9324  0.4500
 2666SOL    HW219458   4.121   2.764   9.935 -0.9744 -0.5686 -1.4877
 2667SOL     OW19459   1.493   1.101   2.897 -0.1640  0.0050 -0.0312
 2667SOL    HW119460   1.457   1.160   2.831  1.4253 -0.2985 -1.1414
 2667SOL    HW219461   1.580   1.085   2.863  1.5268  2.6587  3.0637
 2668SOL     OW19462   0.720   3.240   8.964  0.2685  0.4924 -0.1415
 2668SOL    HW119463   0.706   3.236   9.059 -0.9477 -0.0211 -0.3423
 2668SOL    HW219464   0.644   3.296   8.948 -0.1149  0.2839  0.9669
 2669SOL     OW19465   1.190   0.666   6.449  0.1975 -0.1884  0.2230
 2669SOL    HW119466   1.113   0.670   6.505 -1.2323  0.0790 -1.7624
 2669SOL    HW219467   1.263   0.655   6.509 -0.3270  0.4350  0.9698
 2670SOL     OW19468   4.161   0.016  14.796 -0.4491 -0.0398 -0.0228
 2670SOL    HW119469   4.132   0.097  14.754  1.5952  0.9296  0.4505
 2670SOL    HW219470   4.256   0.010  14.784 -0.6035 -0.1194 -1.1542
 2671SOL     OW19471   0.361   1.299   3.814  0.6861 -0.2528 -0.3930
 2671SOL    HW119472   0.340   1.206   3.819 -0.0437 -0.0703 -0.0475
 2671SOL    HW219473   0.379   1.334   3.901  1.3853  0.1723 -0.7107
 2672SOL     OW19474   0.493   3.051  16.870  0.5594  0.2268  0.1711
 2672SOL    HW119475   0.479   3.091  16.784  1.4136 -0.6244 -0.3626
 2672SOL    HW219476   0.448   3.117  16.923 -1.6746 -0.6269 -0.6511
 2673SOL     OW19477   1.806   2.777   9.219 -0.1680  0.1474 -0.1330
 2673SOL    HW119478   1.739   2.724   9.175 -1.1991  0.2051  1.3852
 2673SOL    HW219479   1.751   2.829   9.277 -0.3551 -0.4420  0.2259
 2674SOL     OW19480   3.895   1.997  11.452 -0.3801  0.7918 -0.0803
 2674SOL    HW119481   3.929   2.073  11.405 -1.3879  0.6394 -1.0498
 2674SOL    HW219482   3.863   1.954  11.372 -0.1845  0.9038 -0.2190
 2675SOL     OW19483   3.527   3.790  12.952 -0.1070  0.3325  0.0988
 2675SOL    HW119484   3.587   3.768  13.024 -2.5769 -1.5734  1.5447
 2675SOL    HW219485   3.447   3.816  12.997  0.3910 -0.4229  1.4431
 2676SOL     OW19486   2.587   4.180   4.997 -0.2801 -0.0304  0.3024
 2676SOL    HW119487   2.575   4.092   4.960 -0.9929  0.7198 -1.2594
 2676SOL    HW219488   2.674   4.207   4.966 -0.9194  0.9614 -0.5982
 2677SOL     OW19489   2.085   2.456   4.209 -0.7830 -0.5374 -0.2375
 2677SOL    HW119490   2.162   2.459   4.151 -0.1630  0.0788  0.6143
 2677SOL    HW219491   2.092   2.362   4.228 -0.3488 -0.4013  0.2717
 2678SOL     OW19492   2.998   1.948   8.106  0.3217 -0.5713 -0.2454
 2678SOL    HW119493   2.908   1.967   8.079  0.7485  2.8867  0.6964
 2678SOL    HW219494   2.997   1.853   8.112  0.2924 -0.4799  1.2892
 2679SOL     OW19495   0.093   3.470   8.270  0.3504  0.1233 -0.1107
 2679SOL    HW119496   0.105   3.554   8.227 -1.6502  0.5315  0.1409
 2679SOL    HW219497   0.148   3.478   8.348  1.7569  0.7899 -1.1885
 2680SOL     OW19498   2.967   1.789  13.662  0.3881 -0.4519 -0.1858
 2680SOL    HW119499   3.017   1.841  13.599  1.5269  0.5224  1.5385
 2680SOL    HW219500   2.989   1.699  13.638  0.1864 -0.4746 -0.2909
 2681SOL     OW19501   3.463   3.966  16.191  0.5604  0.2212  0.2480
 2681SOL    HW119502   3.471   4.044  16.136 -1.9669 -0.2786 -0.8014
 2681SOL    HW219503   3.509   3.897  16.143  0.4891  1.4307 -1.5415
 2682SOL     OW19504   1.744   1.900   4.062  0.3415 -0.3731  0.0290
 2682SOL    HW119505   1.761   1.909   3.968 -0.9848 -1.0542 -0.2817
 2682SOL    HW219506   1.693   1.819   4.056  1.1538 -0.9829  1.4423
 2683SOL     OW19507   4.591   3.359  11.300  0.1173  0.4485 -0.4400
 2683SOL    HW119508   4.589   3.423  11.371 -3.2952  0.1624 -0.2886
 2683SOL    HW219509   4.516   3.386  11.247 -1.8027 -0.4112  1.8747
 2684SOL     OW19510   3.399   4.168  16.603  0.5972  0.1200  0.0474
 2684SOL    HW119511   3.413   4.165  16.697 -1.1040 -0.1150  0.2845
 2684SOL    HW219512   3.388   4.075  16.583  1.9952  0.1392 -0.8518
 2685SOL     OW19513   4.538   2.320   2.551  0.6002  0.5476 -0.3384
 2685SOL    HW119514   4.517   2.239   2.597 -1.4570  0.3304 -1.6634
 2685SOL    HW219515   4.580   2.277   2.477 -0.1175  2.2251 -1.7387
 2686SOL     OW19516   3.630   3.335   2.806  0.1245  0.8807 -0.1864
 2686SOL    HW119517   3.535   3.329   2.794 -0.1718  1.4058  1.8092
 2686SOL    HW219518   3.646   3.413   2.858  0.4127  0.1611  0.8181
 2687SOL     OW19519   1.919   2.934   7.555 -1.0831 -0.3146  0.0259
 2687SOL    HW119520   1.853   2.999   7.580  0.5655  1.2875  0.2719
 2687SOL    HW219521   1.968   2.987   7.493  0.6248  0.5443  2.0931
 2688SOL     OW19522   0.454   3.309  10.093  0.4766 -0.5129  0.5117
 2688SOL    HW119523   0.536   3.331  10.137  0.3715 -1.5138  1.2059
 2688SOL    HW219524   0.406   3.392  10.088 -0.2084 -0.8539  1.4166
 2689SOL     OW19525   2.782   3.955  13.190  0.5766 -0.0697  0.5904
 2689SOL    HW119526   2.759   3.867  13.162  0.8479  0.2207 -0.5340
 2689SOL    HW219527   2.693   3.977  13.218  0.8406 -0.3715  1.6902
 2690SOL     OW19528   0.067   0.008   5.916  0.1969  0.5212  0.0672
 2690SOL    HW119529   0.120   0.068   5.969 -0.4763  0.6514  0.5903
 2690SOL    HW219530   0.041   0.057   5.838  1.2830  3.5507  1.6047
 2691SOL     OW19531   1.477   0.491   4.485 -0.5860  0.6448 -0.7208
 2691SOL    HW119532   1.440   0.576   4.510 -0.8345 -0.1854  1.7763
 2691SOL    HW219533   1.489   0.502   4.391  0.9641 -0.0409 -0.6051
 2692SOL     OW19534   4.634   3.032   3.495  0.3612  0.1570  0.2789
 2692SOL    HW119535   4.697   3.053   3.426 -0.9954 -0.6987 -1.2055
 2692SOL    HW219536   4.564   2.993   3.443  1.8529 -1.5122 -0.4950
 2693SOL     OW19537   4.096   3.434  11.184 -0.1312 -0.0764  0.3133
 2693SOL    HW119538   4.050   3.351  11.191 -0.2486  0.1683  2.4871
 2693SOL    HW219539   4.030   3.499  11.158  1.3211  0.7998 -1.2153
 2694SOL     OW19540   3.625   1.907   4.600 -0.0454 -0.0381  0.3369
 2694SOL    HW119541   3.720   1.896   4.601 -0.0558 -0.0518  1.0495
 2694SOL    HW219542   3.597   1.872   4.516 -0.1659 -0.1314  0.4170
 2695SOL     OW19543   4.273   0.481   7.932 -0.3848  0.0404  0.2711
 2695SOL    HW119544   4.241   0.568   7.952 -0.8775 -0.0567 -0.1110
 2695SOL    HW219545   4.218   0.451   7.860  1.2058  0.2347 -1.0400
 2696SOL     OW19546   1.338   1.620   3.565  0.1333  0.5317  0.1087
 2696SOL    HW119547   1.407   1.685   3.553  0.6765  0.2782  1.8550
 2696SOL    HW219548   1.346   1.563   3.488  2.0503 -0.3245  0.9484
 2697SOL     OW19549   2.105   1.755   2.576 -0.4441 -0.5148  0.5541
 2697SOL    HW119550   2.083   1.758   2.483  0.2727  0.1872  0.4040
 2697SOL    HW219551   2.080   1.844   2.602  1.6783  0.1260  0.4614
 2698SOL     OW19552   0.348   3.261   3.942 -0.4194  0.0228 -0.2058
 2698SOL    HW119553   0.284   3.332   3.940 -0.6263 -0.0648  2.3207
 2698SOL    HW219554   0.352   3.232   3.851  0.5800 -0.1021 -0.1267
 2699SOL     OW19555   1.059   1.609   5.790  0.0929  0.5703  0.1547
 2699SOL    HW119556   0.984   1.608   5.849 -1.5752  0.2811 -2.0052
 2699SOL    HW219557   1.077   1.703   5.785  0.3502  0.4460 -1.0744
 2700SOL     OW19558   1.851   3.831   1.453 -0.5018 -0.1746  0.1116
 2700SOL    HW119559   1.761   3.858   1.438 -0.3442  0.4832  0.3491
 2700SOL    HW219560   1.831   3.773   1.526  1.7434 -2.2911 -0.9366
 2701SOL     OW19561   0.426   1.041   9.734 -0.0834 -0.2853 -0.1924
 2701SOL    HW119562   0.470   0.986   9.798 -1.1905 -0.2292  0.6066
 2701SOL    HW219563   0.493   1.037   9.666 -0.5560  1.3257 -0.7698
 2702SOL     OW19564   1.869   4.074   0.875  0.7723 -0.1843 -0.2658
 2702SOL    HW119565   1.871   4.055   0.781 -0.5655 -2.5649  0.1667
 2702SOL    HW219566   1.874   3.983   0.905 -0.5590 -0.3493 -0.5226
 2703SOL     OW19567   2.847   3.369   3.829 -0.1010 -0.1659  0.4258
 2703SOL    HW119568   2.840   3.303   3.760 -0.0586  0.2938 -0.0164
 2703SOL    HW219569   2.943   3.368   3.831 -0.0596  0.1513 -2.9226
 2704SOL     OW19570   2.725   2.379   6.877 -0.5455 -0.0070 -0.2838
 2704SOL    HW119571   2.807   2.364   6.830 -2.1334 -1.6481 -2.5142
 2704SOL    HW219572   2.706   2.291   6.910  3.0138 -0.4847  0.5280
 2705SOL     OW19573   3.113   3.064   2.507 -0.0795  0.4941 -0.0908
 2705SOL    HW119574   3.114   2.969   2.523  0.5999 -0.1631 -4.0826
 2705SOL    HW219575   3.193   3.083   2.458 -0.4420  0.7087 -0.5997
 2706SOL     OW19576   3.591   1.897  15.120 -0.8060  0.2796  0.1181
 2706SOL    HW119577   3.565   1.967  15.180 -0.1188  0.3868  0.2930
 2706SOL    HW219578   3.586   1.820  15.176  1.6774  0.8152  1.0639
 2707SOL     OW19579   0.891   2.310   5.424  0.0176 -0.1701  0.2324
 2707SOL    HW119580   0.835   2.385   5.405  1.0382  0.3153 -0.8457
 2707SOL    HW219581   0.827   2.242   5.448 -0.9155  0.8999  0.7684
 2708SOL     OW19582   1.722   4.187   4.684 -0.1383 -0.2179  0.0439
 2708SOL    HW119583   1.730   4.200   4.590 -0.9002 -2.9000 -0.3847
 2708SOL    HW219584   1.770   4.260   4.723  0.0297  0.0012 -0.5662
 2709SOL     OW19585   1.396   3.319   6.287 -0.4737  0.5260 -0.7574
 2709SOL    HW119586   1.471   3.338   6.343 -1.6419 -0.4505  1.1645
 2709SOL    HW219587   1.350   3.403   6.284 -1.5404  0.0015  0.6640
 2710SOL     OW19588   2.874   2.085   2.737 -0.2283 -0.0151 -0.0860
 2710SOL    HW119589   2.966   2.089   2.711  0.2325 -1.3765  1.3334
 2710SOL    HW219590   2.855   1.994   2.713 -0.7312  0.2107 -0.5479
 2711SOL     OW19591   3.442   4.516   7.533 -0.5811  0.4021 -0.0973
 2711SOL    HW119592   3.414   4.605   7.510  1.0273  0.9894  0.1517
 2711SOL    HW219593   3.534   4.542   7.545 -0.6623  0.6475 -0.0187
 2712SOL     OW19594   3.399   4.073   2.535 -0.2335  0.0579  0.1534
 2712SOL    HW119595   3.482   4.087   2.581 -0.8702 -0.4922  1.4852
 2712SOL    HW219596   3.429   4.011   2.469  0.1710 -3.0714  3.2501
 2713SOL     OW19597   0.190   0.382   5.547 -0.3432  0.7165  0.7399
 2713SOL    HW119598   0.270   0.331   5.557 -1.2344 -0.3028  2.6359
 2713SOL    HW219599   0.221   0.457   5.597 -0.7457 -0.9191  3.4493
 2714SOL     OW19600   2.979   2.037  16.215  0.2377 -0.3446  0.9222
 2714SOL    HW119601   3.018   1.972  16.156 -1.8880 -0.3602 -0.4706
 2714SOL    HW219602   2.911   1.984  16.257 -1.5923  1.2966  0.0212
 2715SOL     OW19603   3.971   2.332  13.958  0.2664  0.1229 -0.2777
 2715SOL    HW119604   3.960   2.257  14.015 -0.9038  0.9413  0.5845
 2715SOL    HW219605   3.981   2.403  14.021 -1.2477 -0.2270  0.3510
 2716SOL     OW19606   2.360   3.567   6.868  0.0652 -0.2284  0.2638
 2716SOL    HW119607   2.291   3.628   6.896 -1.2767 -1.8824  0.5387
 2716SOL    HW219608   2.438   3.588   6.918 -0.3671  0.0140  0.8426
 2717SOL     OW19609   4.222   3.681  12.288 -0.5062 -0.0894 -0.1775
 2717SOL    HW119610   4.275   3.614  12.332  0.3577  0.5116 -0.3160
 2717SOL    HW219611   4.145   3.625  12.278 -1.2917  0.8434  0.7197
 2718SOL     OW19612   2.946   2.977   2.894  0.4193 -0.0872  0.2478
 2718SOL    HW119613   3.032   2.980   2.852 -0.1743  0.7561 -0.9100
 2718SOL    HW219614   2.939   2.884   2.915  0.0099 -0.6642 -2.4191
 2719SOL     OW19615   1.010   4.361   9.047 -0.2739  0.4159  0.3254
 2719SOL    HW119616   1.091   4.403   9.019 -1.1119  1.5350 -0.4339
 2719SOL    HW219617   0.978   4.414   9.120  1.9176  1.9546  0.1629
 2720SOL     OW19618   0.507   0.437   4.807 -0.0992  0.0857  0.3282
 2720SOL    HW119619   0.569   0.500   4.771 -2.4172  1.8726 -0.5385
 2720SOL    HW219620   0.445   0.503   4.837  0.4105 -0.1241  1.8322
 2721SOL     OW19621   0.480   3.498   8.205 -0.0724 -0.3094  0.7474
 2721SOL    HW119622   0.471   3.404   8.217 -1.7031 -0.0938  1.1370
 2721SOL    HW219623   0.471   3.519   8.298 -1.5041 -0.5295  0.6604
 2722SOL     OW19624   1.743   3.181  14.693  0.0723 -0.0200 -0.0083
 2722SOL    HW119625   1.757   3.245  14.763 -4.3054  1.1652 -0.1972
 2722SOL    HW219626   1.833   3.173  14.661 -0.1128  0.4286 -0.6238
 2723SOL     OW19627   1.303   1.174   0.801  0.2514  0.0804  0.4293
 2723SOL    HW119628   1.308   1.214   0.888 -2.6346  0.9616  0.1912
 2723SOL    HW219629   1.354   1.096   0.819  0.9181  0.6889  1.1830
 2724SOL     OW19630   2.669   1.248  12.508  0.0135 -0.1404  0.0184
 2724SOL    HW119631   2.740   1.256  12.571 -0.9108 -0.9573  1.1617
 2724SOL    HW219632   2.679   1.164  12.462 -0.7819  0.0563 -0.5202
 2725SOL     OW19633   3.991   3.043   4.085  0.5063 -0.1418  0.3145
 2725SOL    HW119634   4.028   2.954   4.087  0.1761 -0.2291  2.6865
 2725SOL    HW219635   3.913   3.032   4.139 -0.5166  0.4674 -1.0518
 2726SOL     OW19636   4.009   0.938   0.964  0.3413  0.2032 -0.1806
 2726SOL    HW119637   4.007   0.897   0.878 -1.8162  1.5749 -0.7944
 2726SOL    HW219638   3.948   1.012   0.957 -2.2121 -1.7790  1.3333
 2727SOL     OW19639   3.891   0.902   7.311 -0.7964 -0.0606 -0.3490
 2727SOL    HW119640   3.906   0.814   7.279  0.5728  0.0189  0.0699
 2727SOL    HW219641   3.960   0.942   7.258 -0.0577 -0.0785  0.5958
 2728SOL     OW19642   3.710   1.112   7.329 -0.0589 -0.8911 -0.0326
 2728SOL    HW119643   3.758   1.030   7.323 -0.0593 -0.7936 -1.4197
 2728SOL    HW219644   3.775   1.168   7.372 -3.1733  1.9180  1.0297
 2729SOL     OW19645   1.931   0.984   4.932  0.0275  0.1300 -0.5956
 2729SOL    HW119646   2.020   0.969   4.902  0.8000  1.2606  1.1471
 2729SOL    HW219647   1.895   1.042   4.864  0.7995  1.6322  0.2808
 2730SOL     OW19648   0.748   2.845  10.949 -0.3102  0.1906 -0.2012
 2730SOL    HW119649   0.683   2.789  10.990  1.0358 -0.1156  1.5439
 2730SOL    HW219650   0.797   2.785  10.893  0.8431  0.8207  0.1280
 2731SOL     OW19651   2.491   2.414   7.280 -0.6896  0.3459  1.0262
 2731SOL    HW119652   2.483   2.507   7.259 -0.4147  0.5246  1.7394
 2731SOL    HW219653   2.428   2.398   7.350 -0.6923 -1.2633  0.6615
 2732SOL     OW19654   2.368   3.225   5.839 -0.1854 -0.1512  0.9661
 2732SOL    HW119655   2.413   3.286   5.781  0.1254  0.9064  2.3150
 2732SOL    HW219656   2.441   3.191   5.891 -0.0036 -0.5400  0.4576
 2733SOL     OW19657   1.053   1.597   7.111  0.0792  0.6147 -0.2493
 2733SOL    HW119658   1.066   1.689   7.134  1.7185  0.3566 -0.0935
 2733SOL    HW219659   1.142   1.563   7.105 -0.7638 -1.5243 -0.6113
 2734SOL     OW19660   3.300   3.909   6.887 -0.2762 -0.9248  0.7065
 2734SOL    HW119661   3.306   3.854   6.965 -2.5821 -0.0252  1.5357
 2734SOL    HW219662   3.274   3.841   6.826  0.8339 -0.4089 -0.3370
 2735SOL     OW19663   1.824   2.222   5.090  0.2467  0.1100  0.0632
 2735SOL    HW119664   1.882   2.148   5.104  0.5269  0.6898  1.9540
 2735SOL    HW219665   1.758   2.204   5.156 -1.5308 -1.2797 -2.0685
 2736SOL     OW19666   2.767   4.292   5.907 -0.3095 -0.0313 -0.2765
 2736SOL    HW119667   2.754   4.229   5.837  0.5584  1.7722 -2.0760
 2736SOL    HW219668   2.810   4.361   5.856  0.6582  0.7798  1.6254
 2737SOL     OW19669   4.260   4.309   0.527  1.2062 -0.2499  0.0490
 2737SOL    HW119670   4.168   4.315   0.500  0.7786 -0.6122  1.4331
 2737SOL    HW219671   4.277   4.215   0.525  2.2965 -0.0313 -0.9736
 2738SOL     OW19672   1.489   0.762   3.473  0.0341  0.1261  0.0753
 2738SOL    HW119673   1.577   0.728   3.490 -0.0541 -0.7074 -1.0998
 2738SOL    HW219674   1.493   0.742   3.379  0.0309 -0.8092  0.2738
 2739SOL     OW19675   0.397   2.412   7.114 -0.0897 -0.4631 -0.2199
 2739SOL    HW119676   0.407   2.478   7.183 -2.8556 -1.3712  1.0444
 2739SOL    HW219677   0.323   2.360   7.144  0.2492 -1.9605 -1.9545
 2740SOL     OW19678   2.660   3.390   5.388 -0.4102  0.3744 -0.4543
 2740SOL    HW119679   2.603   3.466   5.399 -3.4745 -1.7089 -1.7938
 2740SOL    HW219680   2.702   3.386   5.474 -2.0495 -1.3537  0.2576
 2741SOL     OW19681   0.479   3.893   2.699  0.2852  0.0270  0.1855
 2741SOL    HW119682   0.527   3.869   2.778  2.0876  0.4059 -0.7893
 2741SOL    HW219683   0.387   3.907   2.722  0.7318 -1.5671  2.9069
 2742SOL     OW19684   0.059   1.625   5.071  0.2347 -0.3353 -0.2165
 2742SOL    HW119685   0.014   1.552   5.028  1.6620 -0.4013 -1.5882
 2742SOL    HW219686   0.002   1.700   5.055 -1.5524 -1.2240  1.9086
 2743SOL     OW19687   0.742   3.639   3.756  0.0905  0.1119  0.0608
 2743SOL    HW119688   0.701   3.703   3.815  0.2730 -0.4386  0.7926
 2743SOL    HW219689   0.654   3.610   3.730 -0.1522 -0.6249  1.6288
 2744SOL     OW19690   1.464   1.274   2.664  0.2275  0.0557  0.0489
 2744SOL    HW119691   1.453   1.368   2.651  0.5849  0.1797  0.6504
 2744SOL    HW219692   1.410   1.244   2.591  0.9642  3.5692 -1.9083
 2745SOL     OW19693   1.164   1.924   1.709 -0.3080 -0.2566  0.3938
 2745SOL    HW119694   1.092   1.860   1.703  0.2662 -1.0105  1.6190
 2745SOL    HW219695   1.139   1.985   1.778  0.1883 -0.9785  1.2091
 2746SOL     OW19696   3.039   2.241   8.727 -0.0641  0.0366 -0.6287
 2746SOL    HW119697   3.037   2.334   8.705 -0.8498  0.3461  0.7536
 2746SOL    HW219698   2.998   2.245   8.813 -0.0080 -0.8992 -0.5629
 2747SOL     OW19699   3.155   2.065   4.060 -0.4426 -0.1256 -0.6553
 2747SOL    HW119700   3.183   2.107   3.979 -0.0633 -2.4477 -1.7095
 2747SOL    HW219701   3.066   2.097   4.074  0.5313  1.8222  1.1611
 2748SOL     OW19702   2.039   1.692   7.174 -0.5681 -0.5590  0.3993
 2748SOL    HW119703   2.070   1.769   7.223  0.7653 -0.3826 -0.7171
 2748SOL    HW219704   2.059   1.627   7.241 -2.8563 -0.7716  0.8731
 2749SOL     OW19705   3.249   0.726  12.364 -0.2484  0.2324 -0.1681
 2749SOL    HW119706   3.241   0.814  12.330  0.3962 -0.7237 -2.7627
 2749SOL    HW219707   3.246   0.751  12.457  0.8742  1.7240 -0.5326
 2750SOL     OW19708   2.261   0.367   6.215  0.7008  0.6354 -0.5188
 2750SOL    HW119709   2.292   0.352   6.126 -0.9359  1.0478 -1.1595
 2750SOL    HW219710   2.338   0.377   6.271  1.0188  0.7668 -0.9808
 2751SOL     OW19711   2.898   0.653   7.116 -0.5487 -0.0287  0.0739
 2751SOL    HW119712   2.821   0.708   7.101  0.2053  0.3040 -2.5326
 2751SOL    HW219713   2.948   0.646   7.035 -0.8728 -1.6497  0.0081
 2752SOL     OW19714   3.946   2.838   8.650  0.2445  0.2427  0.6448
 2752SOL    HW119715   3.943   2.913   8.591 -1.5227  0.9309  1.6016
 2752SOL    HW219716   4.039   2.840   8.670  0.0833  1.0503  1.3173
 2753SOL     OW19717   1.336   2.000   5.867  0.1857 -0.2014  0.4228
 2753SOL    HW119718   1.396   2.006   5.793 -0.0018  1.9903  0.4568
 2753SOL    HW219719   1.396   1.969   5.936 -0.6157 -2.1281  0.2519
 2754SOL     OW19720   0.377   4.353  11.226  0.2697 -0.1601  0.4951
 2754SOL    HW119721   0.365   4.431  11.280  1.3538  0.0773  0.3837
 2754SOL    HW219722   0.385   4.292  11.299 -0.3125 -1.1412 -0.2628
 2755SOL     OW19723   4.444   4.441   4.064 -0.2826  0.6195 -0.9791
 2755SOL    HW119724   4.385   4.512   4.038  0.6090  1.7303  0.0470
 2755SOL    HW219725   4.392   4.365   4.041 -0.4327  1.0714 -2.1356
 2756SOL     OW19726   0.030   2.491  16.299 -0.0415 -0.5305  0.2034
 2756SOL    HW119727   0.107   2.533  16.337 -0.2465 -0.1358  0.1925
 2756SOL    HW219728   0.022   2.554  16.226 -0.7510 -0.7287  0.1064
 2757SOL     OW19729   2.724   4.704   8.388  0.4958 -0.1002 -0.4508
 2757SOL    HW119730   2.748   4.629   8.443 -0.5388  0.4767  0.8094
 2757SOL    HW219731   2.661   0.025   8.446  1.5043  1.9452 -0.8825
 2758SOL     OW19732   3.162   1.001   9.018 -0.2611  0.0165 -0.2386
 2758SOL    HW119733   3.257   0.996   9.028 -0.1367  0.3408 -1.2660
 2758SOL    HW219734   3.128   1.073   9.071  2.5043  0.0474  1.4945
 2759SOL     OW19735   4.594   2.512   5.552 -0.1175  0.2738 -0.1871
 2759SOL    HW119736   4.572   2.601   5.524 -2.3198 -0.6402 -1.4358
 2759SOL    HW219737   4.594   2.471   5.465 -1.0925  2.0046 -0.9952
 2760SOL     OW19738   2.589   3.944   0.055 -0.1728  0.6749 -0.0507
 2760SOL    HW119739   2.675   3.972   0.023 -0.6494  0.5318 -1.4972
 2760SOL    HW219740   2.532   3.968  17.672 -1.8728 -2.4787  0.2461
 2761SOL     OW19741   0.037   1.881   8.451  0.1979  0.3889 -0.2851
 2761SOL    HW119742   0.004   1.795   8.477 -1.0121  0.8549 -0.2940
 2761SOL    HW219743   4.679   1.926   8.476 -0.7448 -1.2444 -0.4204
 2762SOL     OW19744   2.238   1.794  14.555 -0.2130 -0.5922 -0.1778
 2762SOL    HW119745   2.193   1.714  14.583 -0.2810 -0.3141  0.5092
 2762SOL    HW219746   2.217   1.840  14.636  1.7066  1.4216 -0.8184
 2763SOL     OW19747   0.946   2.004   2.607  0.2981 -0.5938  0.2398
 2763SOL    HW119748   1.030   2.048   2.603 -0.5621  0.8111 -2.1634
 2763SOL    HW219749   0.982   1.916   2.595 -0.3573 -0.4166 -2.8048
 2764SOL     OW19750   0.816   2.213   8.808  0.2559 -0.0710  0.3867
 2764SOL    HW119751   0.761   2.272   8.859 -0.1372 -0.5366  0.4989
 2764SOL    HW219752   0.761   2.136   8.797  0.0879  0.2605 -1.1048
 2765SOL     OW19753   4.511   0.166  12.249  0.0394 -0.1612 -0.3156
 2765SOL    HW119754   4.534   0.078  12.279 -0.2441 -0.4848 -1.0523
 2765SOL    HW219755   4.529   0.174  12.156  0.1873  1.6998 -0.1355
 2766SOL     OW19756   3.751   1.280   7.756  0.1270  0.5730  0.0942
 2766SOL    HW119757   3.827   1.331   7.728  0.3432  1.1251  1.6856
 2766SOL    HW219758   3.772   1.258   7.847  0.5321  0.3115 -0.0651
 2767SOL     OW19759   3.496   4.033  10.775  0.0725 -0.1385  0.7624
 2767SOL    HW119760   3.510   3.939  10.783 -3.1952 -0.5566  1.6321
 2767SOL    HW219761   3.401   4.033  10.761  0.1661 -1.2592  0.0853
 2768SOL     OW19762   1.803   1.868   6.542 -0.5378  0.0431 -0.2695
 2768SOL    HW119763   1.821   1.786   6.496  1.5172  0.5263 -0.3137
 2768SOL    HW219764   1.876   1.918   6.507 -0.6358 -0.0113 -0.5549
 2769SOL     OW19765   4.459   4.439   8.670 -0.0951  0.2418  0.0488
 2769SOL    HW119766   4.424   4.450   8.582  0.0664  1.4796  0.1474
 2769SOL    HW219767   4.396   4.488   8.723  1.3425  0.4408  1.6001
 2770SOL     OW19768   4.138   4.123   6.667 -0.0897 -0.4998 -0.0566
 2770SOL    HW119769   4.134   4.050   6.728 -3.2882 -0.5742 -0.3542
 2770SOL    HW219770   4.104   4.201   6.711 -1.7581 -0.6398 -1.0697
 2771SOL     OW19771   0.695   0.052   3.542  0.0883 -0.0237 -0.6715
 2771SOL    HW119772   0.698   0.098   3.458 -0.1256  0.9423 -0.1412
 2771SOL    HW219773   0.637   0.118   3.580  1.2136  0.2404  0.5756
 2772SOL     OW19774   0.881   1.124   2.533  0.6669 -0.7659  0.2270
 2772SOL    HW119775   0.796   1.143   2.493  0.4904 -1.9940  0.0007
 2772SOL    HW219776   0.858   1.051   2.590 -1.7924 -1.1697 -1.2339
 2773SOL     OW19777   0.227   2.649   4.596  0.1978 -0.0899 -0.1958
 2773SOL    HW119778   0.308   2.677   4.552 -0.1865  0.6220 -0.4484
 2773SOL    HW219779   0.167   2.720   4.572  1.1995  0.6292 -0.5781
 2774SOL     OW19780   0.608   1.388  17.510  0.4122 -0.5658  0.9197
 2774SOL    HW119781   0.661   1.468  17.511  0.0953 -0.3474  0.1482
 2774SOL    HW219782   0.564   1.392  17.595  0.7834 -0.0773  1.0935
 2775SOL     OW19783   4.372   1.679  11.328 -0.0147  0.4098  0.0289
 2775SOL    HW119784   4.307   1.711  11.265 -0.2206  2.4441  1.2477
 2775SOL    HW219785   4.426   1.756  11.344  1.9870 -0.9957 -0.1061
 2776SOL     OW19786   3.180   3.642   7.783  0.0880 -0.9023  0.4476
 2776SOL    HW119787   3.248   3.673   7.842  0.3067  1.9581 -1.3402
 2776SOL    HW219788   3.211   3.553   7.767 -1.6509 -1.1664 -1.4322
 2777SOL     OW19789   2.520   0.987   8.238  0.0285 -0.3920 -0.6068
 2777SOL    HW119790   2.601   0.992   8.288  0.6022  0.9829 -1.6945
 2777SOL    HW219791   2.478   0.905   8.265 -0.8419  0.0629 -0.5783
 2778SOL     OW19792   2.265   2.826  10.032 -0.1229 -0.3791  0.3935
 2778SOL    HW119793   2.290   2.739  10.000  1.0458  0.0350  0.1927
 2778SOL    HW219794   2.234   2.870   9.954  0.5548 -1.5250 -0.5295
 2779SOL     OW19795   4.403   0.937   9.575  0.5554 -0.4888 -0.9214
 2779SOL    HW119796   4.438   0.849   9.564 -3.5827 -2.1525 -0.7707
 2779SOL    HW219797   4.314   0.902   9.577  0.2286  0.3583 -0.3782
 2780SOL     OW19798   3.442   4.640   6.860 -0.3166 -0.4993 -0.0613
 2780SOL    HW119799   3.349   4.625   6.842 -0.0129 -0.3229 -1.8182
 2780SOL    HW219800   3.479   4.634   6.772 -0.8765 -1.4349 -0.2387
 2781SOL     OW19801   0.713   3.855   6.742 -0.4282  0.3537 -0.6284
 2781SOL    HW119802   0.733   3.946   6.763 -1.7780  0.1117  1.7158
 2781SOL    HW219803   0.773   3.809   6.800 -0.1574  2.5271  0.8380
 2782SOL     OW19804   0.905   0.768   8.528 -0.2507  0.2981  0.1460
 2782SOL    HW119805   0.816   0.805   8.529  0.0562  1.0668 -0.8181
 2782SOL    HW219806   0.936   0.808   8.446 -0.6803  0.8141  0.2314
 2783SOL     OW19807   2.259   3.397  14.711 -0.0739  0.2463  0.0203
 2783SOL    HW119808   2.256   3.315  14.662 -2.5092  1.2652 -1.5019
 2783SOL    HW219809   2.178   3.387  14.760 -0.5718  1.9465 -0.4522
 2784SOL     OW19810   3.431   0.825   2.332 -0.4621  0.3225 -0.2780
 2784SOL    HW119811   3.517   0.809   2.371 -1.2778 -2.7916  0.2364
 2784SOL    HW219812   3.433   0.900   2.272  1.0111 -0.3855 -1.0875
 2785SOL     OW19813   3.186   0.112   3.193 -0.0359  0.2892  1.3119
 2785SOL    HW119814   3.117   0.156   3.243  0.0221  0.0356  1.6158
 2785SOL    HW219815   3.189   0.159   3.110  1.8320  1.7190  2.1986
 2786SOL     OW19816   2.938   4.382  10.770 -0.5297  0.0234  0.3396
 2786SOL    HW119817   3.006   4.446  10.748 -1.1523  0.6388  0.2087
 2786SOL    HW219818   2.902   4.373  10.682  1.0566  0.0165 -0.3131
 2787SOL     OW19819   4.211   3.145   6.861 -0.1416 -0.3838  0.3318
 2787SOL    HW119820   4.142   3.083   6.837  0.1165  0.4085 -2.4909
 2787SOL    HW219821   4.273   3.118   6.794  1.1186  0.2971  1.2279
 2788SOL     OW19822   3.788   0.610  17.367  0.6287  0.3306  0.3244
 2788SOL    HW119823   3.701   0.571  17.357  0.1833  1.2087  0.7605
 2788SOL    HW219824   3.829   0.525  17.382  0.6348  0.4256  0.8561
 2789SOL     OW19825   3.056   2.903   6.107  0.0925 -0.2213  0.2656
 2789SOL    HW119826   3.027   2.917   6.197 -0.9601  2.3294 -0.4831
 2789SOL    HW219827   3.083   2.994   6.094  1.6674 -0.6555  0.5293
 2790SOL     OW19828   3.354   4.634   7.868 -0.1707  0.4844  0.4730
 2790SOL    HW119829   3.409   4.579   7.812 -0.9121  1.9569 -1.7461
 2790SOL    HW219830   3.360   4.586   7.950 -2.0309 -1.4812 -0.5579
 2791SOL     OW19831   2.060   1.258   5.419 -1.2783  0.8264  0.0105
 2791SOL    HW119832   2.061   1.279   5.513 -0.6177 -0.2562  0.2464
 2791SOL    HW219833   2.146   1.282   5.386 -0.1206 -2.4730  0.6922
 2792SOL     OW19834   0.552   2.053   8.809  0.2461 -0.2056  0.0491
 2792SOL    HW119835   0.512   2.132   8.771 -1.7413 -1.4291 -0.4070
 2792SOL    HW219836   0.556   2.075   8.902 -0.6165  1.9732 -0.4148
 2793SOL     OW19837   0.106   3.624   1.617  0.3225 -0.3664 -0.4784
 2793SOL    HW119838   0.099   3.714   1.650  2.3678  0.1003 -1.3629
 2793SOL    HW219839   0.115   3.652   1.526  0.6946 -1.5943 -0.8078
 2794SOL     OW19840   0.625   0.895   9.922 -0.3815 -0.2469  0.0343
 2794SOL    HW119841   0.614   0.850  10.006  0.8519  1.4631  1.1088
 2794SOL    HW219842   0.652   0.823   9.866  0.7708  1.7570 -1.9895
 2795SOL     OW19843   1.137   3.799   3.171 -0.0594 -0.3324  0.3517
 2795SOL    HW119844   1.232   3.801   3.167 -0.1242  0.4814 -0.8019
 2795SOL    HW219845   1.105   3.869   3.114 -0.6051  0.8231  2.0922
 2796SOL     OW19846   4.367   4.626   2.369  0.0087  0.1384 -0.5045
 2796SOL    HW119847   4.298   4.564   2.346  1.1263 -0.5779 -1.9051
 2796SOL    HW219848   4.414   4.587   2.442  2.0023 -0.4897 -2.1410
 2797SOL     OW19849   4.181   2.948  10.935  0.7049 -0.1788  0.1075
 2797SOL    HW119850   4.088   2.930  10.918  1.3898 -2.2636 -1.5417
 2797SOL    HW219851   4.224   2.894  10.868 -0.0852  0.1981 -0.7153
 2798SOL     OW19852   3.966   2.562   1.248  0.0216 -0.2971 -0.3354
 2798SOL    HW119853   4.003   2.572   1.160 -0.5321 -2.1314 -0.7795
 2798SOL    HW219854   4.037   2.589   1.307 -1.6858  0.4215  1.3803
 2799SOL     OW19855   4.043   1.780   5.166 -0.2369 -0.0153  0.0257
 2799SOL    HW119856   3.955   1.754   5.138 -0.3081 -0.2280  0.4554
 2799SOL    HW219857   4.016   1.857   5.215  0.1682  2.2985 -3.3827
 2800SOL     OW19858   2.490   0.804   0.110  0.3900 -0.3416  0.0502
 2800SOL    HW119859   2.539   0.780   0.032  3.0581  0.5048  1.4742
 2800SOL    HW219860   2.530   0.742   0.171  0.2994 -0.5247 -0.0762
 2801SOL     OW19861   1.883   3.034  10.030  0.0344  0.9876 -0.3795
 2801SOL    HW119862   1.828   2.971   9.983 -0.7819  1.0300  0.5199
 2801SOL    HW219863   1.919   3.085   9.958  1.1221 -0.6270 -0.9810
 2802SOL     OW19864   4.518   0.381   7.932  0.4305 -0.1009  0.1549
 2802SOL    HW119865   4.432   0.424   7.934 -0.3223 -1.5572 -0.9773
 2802SOL    HW219866   4.565   0.464   7.917 -0.3594  0.5199  1.1285
 2803SOL     OW19867   3.599   0.219   8.032  0.1626 -0.6455 -0.6344
 2803SOL    HW119868   3.568   0.213   7.941 -0.1416  3.3172 -0.7952
 2803SOL    HW219869   3.513   0.219   8.073  1.1163  0.1678  1.3445
 2804SOL     OW19870   4.689   0.535  17.099 -0.0200 -0.8320  0.0325
 2804SOL    HW119871   4.612   0.553  17.154 -0.2446 -0.5929 -0.3609
 2804SOL    HW219872   4.693   0.440  17.090  0.8602 -0.8681  0.7895
 2805SOL     OW19873   3.881   0.167   5.931  0.1452 -0.0195 -0.3959
 2805SOL    HW119874   3.883   0.256   5.897 -2.6193 -0.0451 -0.6297
 2805SOL    HW219875   3.800   0.160   5.982 -1.6547  2.4597 -2.9412
 2806SOL     OW19876   1.403   3.950  10.885 -0.4697  1.0356  0.4221
 2806SOL    HW119877   1.441   3.994  10.960  0.8432  0.8664 -0.1413
 2806SOL    HW219878   1.478   3.920  10.833 -1.6599  0.0779 -0.7542
 2807SOL     OW19879   4.172   2.290  16.170  0.3959 -0.9661  0.0667
 2807SOL    HW119880   4.184   2.328  16.084  1.1614 -0.5798  0.3461
 2807SOL    HW219881   4.117   2.358  16.210 -1.0506 -0.5440 -2.6675
 2808SOL     OW19882   3.792   3.580  15.039 -0.1210  0.0910 -0.1583
 2808SOL    HW119883   3.810   3.651  14.977 -1.9822  2.3169  1.8510
 2808SOL    HW219884   3.730   3.622  15.099  0.5333 -1.0486  1.2928
 2809SOL     OW19885   1.879   4.695   3.717 -0.2238 -0.2973 -0.4522
 2809SOL    HW119886   1.866   4.612   3.672 -2.6297  0.2792 -0.7959
 2809SOL    HW219887   1.884   0.034   3.643 -1.7113  0.3931  0.0165
 2810SOL     OW19888   3.937   3.673   3.534 -0.2670  0.4051 -0.5182
 2810SOL    HW119889   3.980   3.758   3.524 -0.3485  0.5267  0.1537
 2810SOL    HW219890   3.935   3.652   3.441  0.4546 -0.6037 -0.3110
 2811SOL     OW19891   3.786   4.339  11.876 -0.0276  0.0355  0.0472
 2811SOL    HW119892   3.826   4.324  11.962  1.0623 -0.5288 -0.5573
 2811SOL    HW219893   3.860   4.373  11.826  1.3765 -0.2098  1.9672
 2812SOL     OW19894   3.209   1.198   3.213 -0.8019 -0.0370  0.1620
 2812SOL    HW119895   3.235   1.267   3.153  0.8358 -1.9822 -1.3927
 2812SOL    HW219896   3.133   1.155   3.174  0.0484  1.2237 -2.8385
 2813SOL     OW19897   0.436   0.899   2.755  0.7544  0.1885 -0.8784
 2813SOL    HW119898   0.356   0.949   2.735  0.2529 -0.1441  0.2853
 2813SOL    HW219899   0.470   0.956   2.825  2.4359 -0.4180 -1.2112
 2814SOL     OW19900   0.226   0.412   2.395 -0.0470 -0.1350  0.1889
 2814SOL    HW119901   0.192   0.501   2.391 -1.4331 -0.7920 -2.5372
 2814SOL    HW219902   0.144   0.365   2.412  0.6532 -1.9996 -1.5251
 2815SOL     OW19903   3.241   1.317   9.511  0.2058 -0.0199 -0.2570
 2815SOL    HW119904   3.229   1.389   9.573 -1.0882  1.6466 -2.4686
 2815SOL    HW219905   3.301   1.265   9.564 -0.0396  2.2594  2.2583
 2816SOL     OW19906   3.317   0.359  12.125  0.2744  0.2553 -0.0534
 2816SOL    HW119907   3.273   0.379  12.042 -2.9761  0.2400  1.6755
 2816SOL    HW219908   3.261   0.405  12.188  2.0484  0.7242  1.1876
 2817SOL     OW19909   2.386   1.925   4.324 -0.2747 -0.3410 -0.8117
 2817SOL    HW119910   2.467   1.894   4.283  1.0898 -0.1126  1.7434
 2817SOL    HW219911   2.427   1.985   4.386 -0.1663 -0.7520 -0.4877
 2818SOL     OW19912   2.794   0.905   2.748 -0.6945  0.1727 -0.4136
 2818SOL    HW119913   2.782   0.986   2.797 -1.6023  0.8596 -1.7912
 2818SOL    HW219914   2.763   0.938   2.664 -0.0489  0.9956 -0.3206
 2819SOL     OW19915   0.893   2.692   7.799 -0.2149  0.0149 -0.4070
 2819SOL    HW119916   0.982   2.724   7.781 -0.0671  0.0014  0.3024
 2819SOL    HW219917   0.866   2.754   7.866 -0.4541 -0.3933 -0.1266
 2820SOL     OW19918   4.303   0.596   5.036  0.0440 -0.0258  0.4647
 2820SOL    HW119919   4.384   0.545   5.035  0.7548  1.1257 -0.5253
 2820SOL    HW219920   4.248   0.552   5.101 -1.2208 -0.7002 -1.0754
 2821SOL     OW19921   2.464   3.024   8.036 -0.5668  0.1268 -0.6778
 2821SOL    HW119922   2.488   3.057   7.950  0.2436  0.8720 -0.1620
 2821SOL    HW219923   2.418   2.945   8.006 -1.3902  0.7021 -0.9114
 2822SOL     OW19924   0.176   3.027  13.309 -0.4335  0.5440  0.3927
 2822SOL    HW119925   0.270   3.044  13.312 -0.2129 -0.9229  1.7652
 2822SOL    HW219926   0.147   3.091  13.374  2.2367  1.2838  0.8567
 2823SOL     OW19927   4.246   2.731   6.646 -0.5818  0.5040 -0.1519
 2823SOL    HW119928   4.336   2.723   6.613 -0.4190 -3.8217  1.2599
 2823SOL    HW219929   4.200   2.668   6.590 -1.5230 -1.1899  2.5347
 2824SOL     OW19930   4.674   1.246   6.979  0.3540 -0.2483 -0.1475
 2824SOL    HW119931   4.665   1.339   6.996  1.8164  0.2196 -2.0325
 2824SOL    HW219932   4.620   1.211   7.051 -0.6859  1.8870  0.1045
 2825SOL     OW19933   4.717   4.381   2.779  0.0179 -0.0902  0.1042
 2825SOL    HW119934   0.019   4.473   2.783 -0.6753  0.1791 -2.1497
 2825SOL    HW219935   4.636   4.366   2.828  0.5780  1.1779  1.4196
 2826SOL     OW19936   3.261   4.060  16.928  0.2677 -0.5338 -0.0087
 2826SOL    HW119937   3.207   4.132  16.962  0.5466 -0.2120 -0.2556
 2826SOL    HW219938   3.341   4.105  16.902  0.7853 -1.6889 -0.4462
 2827SOL     OW19939   0.976   2.464   1.558  0.0477  0.4404  0.0816
 2827SOL    HW119940   0.912   2.533   1.578 -0.2141  0.7356 -1.7829
 2827SOL    HW219941   1.062   2.501   1.540 -0.5686  0.9224 -1.8038
 2828SOL     OW19942   0.450   3.284   0.592  0.0541 -0.5687  0.6511
 2828SOL    HW119943   0.432   3.322   0.506 -2.4893 -1.1901  0.9204
 2828SOL    HW219944   0.418   3.342   0.661 -1.4918 -3.5824  2.4703
 2829SOL     OW19945   4.034   4.510   6.343  0.6493  0.2666 -0.5542
 2829SOL    HW119946   4.040   4.558   6.425  0.4383  1.6860 -1.3534
 2829SOL    HW219947   4.056   4.418   6.354 -1.2732 -0.2196 -0.7099
 2830SOL     OW19948   0.555   2.319   2.391  0.1609 -0.1650  0.0274
 2830SOL    HW119949   0.625   2.278   2.442 -0.2429 -1.1724 -0.2115
 2830SOL    HW219950   0.610   2.385   2.351 -0.0195  0.4310  0.7769
 2831SOL     OW19951   4.371   3.498   2.465 -0.1149 -0.2833 -0.1015
 2831SOL    HW119952   4.302   3.434   2.451 -0.2154 -0.4627  1.2455
 2831SOL    HW219953   4.391   3.543   2.382 -2.3877  2.6526  0.9649
 2832SOL     OW19954   3.220   1.646  16.942  0.6582  0.2860 -0.5892
 2832SOL    HW119955   3.213   1.659  17.037 -1.6871 -0.0623 -0.7111
 2832SOL    HW219956   3.248   1.735  16.924  1.4553 -0.0918 -1.1973
 2833SOL     OW19957   2.263   3.940  15.234  0.2504 -0.0321  0.2040
 2833SOL    HW119958   2.341   3.939  15.179 -0.0443  1.3389 -0.2268
 2833SOL    HW219959   2.203   3.962  15.163  0.5377  2.4208  0.7356
 2834SOL     OW19960   0.165   1.018   9.647 -0.4307  0.7441 -0.0700
 2834SOL    HW119961   0.163   0.923   9.637 -2.0026  0.9233 -1.4037
 2834SOL    HW219962   0.257   1.040   9.665 -0.7131 -1.1706  3.5777
 2835SOL     OW19963   1.819   3.175  15.473  0.3200  0.1673 -0.2343
 2835SOL    HW119964   1.854   3.188  15.561  0.0964 -2.2854  0.2125
 2835SOL    HW219965   1.742   3.121  15.490 -2.2457  3.1242 -2.3854
 2836SOL     OW19966   1.957   4.602   8.331 -0.0578  0.6033 -0.2494
 2836SOL    HW119967   1.909   4.685   8.336  0.9561  1.2123 -0.6989
 2836SOL    HW219968   2.000   4.616   8.415  0.0166  0.0482 -0.1899
 2837SOL     OW19969   2.368   1.608  11.069  0.3930 -0.1887 -0.2554
 2837SOL    HW119970   2.311   1.638  10.998  2.1517  0.1369 -1.5398
 2837SOL    HW219971   2.392   1.518  11.046  1.4162  0.3762 -1.4157
 2838SOL     OW19972   3.556   4.449   7.006  0.0781 -0.1727  0.2620
 2838SOL    HW119973   3.509   4.508   6.948  1.5558  0.0406 -0.7256
 2838SOL    HW219974   3.541   4.493   7.090 -1.9737  1.6246 -1.0417
 2839SOL     OW19975   3.726   1.310   5.543 -0.3691 -0.1928 -0.0096
 2839SOL    HW119976   3.801   1.297   5.485  0.8470  1.2633  1.2119
 2839SOL    HW219977   3.678   1.375   5.492 -1.0462 -0.6981 -0.0190
 2840SOL     OW19978   3.924   0.332   8.663  0.1823 -0.1564  0.1477
 2840SOL    HW119979   3.989   0.266   8.639 -0.0751  0.0606 -1.1465
 2840SOL    HW219980   3.961   0.375   8.740  1.3463 -2.1785  0.6922
 2841SOL     OW19981   0.458   0.933   5.068  0.1838  0.1069 -0.6983
 2841SOL    HW119982   0.443   0.901   4.979  0.3376  1.6400 -1.2651
 2841SOL    HW219983   0.378   0.975   5.098  0.8247  1.0779 -0.3603
 2842SOL     OW19984   1.424   2.481   2.720  0.1593  0.0501  0.4436
 2842SOL    HW119985   1.506   2.529   2.732  1.2598 -1.5764 -0.6257
 2842SOL    HW219986   1.361   2.551   2.738  0.0524  0.1804 -0.4345
 2843SOL     OW19987   2.387   2.110   3.186 -0.2936  0.2054 -0.4749
 2843SOL    HW119988   2.336   2.187   3.208 -1.0175 -0.5587  0.5568
 2843SOL    HW219989   2.321   2.043   3.205  0.6505 -0.7726 -0.6342
 2844SOL     OW19990   3.634   1.589   6.942  0.1549 -0.2814 -0.1535
 2844SOL    HW119991   3.676   1.596   7.027  1.1374  1.3661 -0.7597
 2844SOL    HW219992   3.616   1.496   6.955  2.8024 -0.5502  1.4515
 2845SOL     OW19993   3.263   4.619  13.354 -0.1976 -0.4999 -0.5216
 2845SOL    HW119994   3.219   4.534  13.357 -2.8742  0.9132 -0.1262
 2845SOL    HW219995   3.322   4.607  13.279 -1.1309 -0.2339 -1.2997
 2846SOL     OW19996   3.937   1.235   5.741  0.6459  0.6122  0.7791
 2846SOL    HW119997   3.977   1.279   5.666 -0.5260 -0.0072 -0.2174
 2846SOL    HW219998   3.848   1.229   5.707  1.3593 -1.4958 -0.7690
 2847SOL     OW19999   2.602   2.139  13.563 -0.1977 -0.0837  0.7394
 2847SOL    HW120000   2.525   2.103  13.519  1.3816 -1.9676 -0.4862
 2847SOL    HW220001   2.557   2.210  13.607 -2.8668 -0.1602 -1.8178
 2848SOL     OW20002   3.260   0.223  13.887 -0.6407  0.7454 -0.0488
 2848SOL    HW120003   3.262   0.315  13.913 -0.7044  0.8645 -0.4708
 2848SOL    HW220004   3.208   0.187  13.959  0.1798 -2.5037 -1.0593
 2849SOL     OW20005   2.762   4.171  14.843 -0.4333  0.3131 -0.2666
 2849SOL    HW120006   2.846   4.182  14.889 -0.0750  0.1549 -0.8811
 2849SOL    HW220007   2.695   4.205  14.902 -1.2431 -2.2620  0.2929
 2850SOL     OW20008   2.377   0.064   3.256  0.0494 -0.5189 -0.0748
 2850SOL    HW120009   2.314   0.012   3.306 -0.2188 -1.2848 -1.2195
 2850SOL    HW220010   2.340   0.058   3.168 -0.8756 -0.6972  0.3253
 2851SOL     OW20011   4.689   0.432   1.808  0.0327 -0.0160 -0.3680
 2851SOL    HW120012   4.682   0.526   1.820 -0.6271  0.1575 -2.0534
 2851SOL    HW220013   4.651   0.435   1.720  0.9251  2.2133 -0.6670
 2852SOL     OW20014   0.623   3.848   5.327 -0.3376  0.0172 -0.2121
 2852SOL    HW120015   0.707   3.893   5.336 -1.8272  2.4852  1.3055
 2852SOL    HW220016   0.560   3.913   5.357 -0.1071  0.1303  0.0308
 2853SOL     OW20017   3.677   2.250   7.707  0.0390 -0.4615  0.6785
 2853SOL    HW120018   3.616   2.201   7.761 -1.5075 -0.3939 -1.0143
 2853SOL    HW220019   3.743   2.270   7.774  2.1567 -1.2456 -1.1856
 2854SOL     OW20020   4.622   1.372  15.565  0.0571 -0.5047  0.1632
 2854SOL    HW120021   4.651   1.283  15.586 -0.3659 -0.4704  0.8794
 2854SOL    HW220022   4.641   1.376  15.471  1.3437  2.3358  0.5541
 2855SOL     OW20023   0.841   1.508   0.748 -0.0573 -0.2807 -0.8932
 2855SOL    HW120024   0.883   1.451   0.683  1.5768  0.3332 -0.3746
 2855SOL    HW220025   0.907   1.561   0.792 -0.4663 -0.0526 -0.5577
 2856SOL     OW20026   1.764   3.920   3.653  0.0901  0.3236 -0.6361
 2856SOL    HW120027   1.833   3.906   3.717 -0.9960  1.3332  0.7567
 2856SOL    HW220028   1.822   3.912   3.577 -0.6332 -1.7057 -0.9587
 2857SOL     OW20029   4.147   2.159   8.550 -0.0248 -0.2995 -0.2725
 2857SOL    HW120030   4.205   2.108   8.607 -0.3292 -1.5555 -1.0665
 2857SOL    HW220031   4.068   2.172   8.603 -0.7117 -1.3093 -1.0425
 2858SOL     OW20032   1.451   0.175  15.707 -0.1030  0.7280  0.1679
 2858SOL    HW120033   1.508   0.241  15.747  0.1122  0.0344  1.0010
 2858SOL    HW220034   1.496   0.142  15.629 -1.8241  0.1037 -0.5462
 2859SOL     OW20035   2.890   4.072   7.408 -0.1094  0.4559 -0.2984
 2859SOL    HW120036   2.968   4.023   7.383  0.3707 -0.0152  2.1341
 2859SOL    HW220037   2.901   4.156   7.365  1.0755 -1.4040 -3.6109
 2860SOL     OW20038   3.173   2.014  14.984  0.6824  0.0212  0.0404
 2860SOL    HW120039   3.139   2.059  14.906  1.7686 -1.0071 -1.0247
 2860SOL    HW220040   3.092   1.987  15.027  1.7711  0.9472  2.6185
 2861SOL     OW20041   4.707   2.160  13.136  0.8747 -0.1596 -0.1218
 2861SOL    HW120042   4.710   2.218  13.060  1.3266 -0.0772 -0.0383
 2861SOL    HW220043   4.689   2.228  13.200 -0.1172 -0.8071  0.2853
 2862SOL     OW20044   3.451   0.514   8.095 -0.0835  0.1594 -0.0447
 2862SOL    HW120045   3.380   0.529   8.032  1.5267  0.5652 -1.7863
 2862SOL    HW220046   3.394   0.505   8.171  0.6135  0.0271  0.4539
 2863SOL     OW20047   0.414   1.712   6.437  0.4885  0.5260  0.5098
 2863SOL    HW120048   0.455   1.796   6.458  1.5457 -0.2492  1.5430
 2863SOL    HW220049   0.364   1.740   6.360  0.7916  0.3446  0.2451
 2864SOL     OW20050   4.137   2.119  15.531  0.1306 -0.0420 -0.2457
 2864SOL    HW120051   4.219   2.138  15.487 -0.1764  1.2858 -0.2256
 2864SOL    HW220052   4.166   2.106  15.622  0.7953  1.8795 -0.1951
 2865SOL     OW20053   2.404   3.848   2.325 -0.7510  0.5413  0.1165
 2865SOL    HW120054   2.456   3.774   2.356 -0.6865  0.1918 -0.8351
 2865SOL    HW220055   2.313   3.820   2.330 -0.7552  0.2889 -1.5060
 2866SOL     OW20056   0.673   3.491  13.245 -0.1173  0.0137 -0.6985
 2866SOL    HW120057   0.615   3.445  13.307  2.1952  2.5892  3.4146
 2866SOL    HW220058   0.748   3.514  13.300 -1.2604  0.1934  0.7898
 2867SOL     OW20059   1.343   0.368   6.283 -0.1507 -0.1478 -0.2350
 2867SOL    HW120060   1.360   0.356   6.376 -1.0439 -0.6955 -0.1465
 2867SOL    HW220061   1.408   0.439   6.275  0.7506 -1.1016 -1.4409
 2868SOL     OW20062   4.616   1.306   5.611  0.2286 -0.0213 -0.2798
 2868SOL    HW120063   4.639   1.281   5.701  0.6084 -0.8401 -0.6038
 2868SOL    HW220064   4.629   1.223   5.566 -0.8183 -0.2539 -0.1583
 2869SOL     OW20065   1.782   4.469   1.637  0.5482 -0.1498 -0.2328
 2869SOL    HW120066   1.788   4.430   1.724  0.8264  0.6832  0.1222
 2869SOL    HW220067   1.874   4.495   1.630  0.2757  0.4714 -1.5350
 2870SOL     OW20068   0.410   1.430   0.014  0.2774  0.5755  0.0085
 2870SOL    HW120069   0.390   1.505   0.070  3.3631  1.2287  0.2084
 2870SOL    HW220070   0.385   1.361   0.076 -2.1317  1.6862  0.2594
 2871SOL     OW20071   4.120   4.088   4.863  0.2211  0.2814 -0.4037
 2871SOL    HW120072   4.038   4.082   4.812  0.6462  1.6371 -1.2531
 2871SOL    HW220073   4.176   4.146   4.812  3.1775 -0.9075  1.4845
 2872SOL     OW20074   1.541   4.405   5.670  0.2429 -0.3478  0.3511
 2872SOL    HW120075   1.562   4.404   5.764 -0.5947  0.2441  0.5386
 2872SOL    HW220076   1.600   4.333   5.647  0.9704  0.1109  0.7512
 2873SOL     OW20077   3.109   3.805   2.290  0.2450 -0.2367 -0.3786
 2873SOL    HW120078   3.183   3.744   2.285 -0.5864 -1.2370 -0.4158
 2873SOL    HW220079   3.129   3.855   2.369  0.1692  1.5552 -1.5038
 2874SOL     OW20080   3.350   2.577   5.011 -0.0135 -0.1866  0.2245
 2874SOL    HW120081   3.302   2.655   5.037 -1.7386 -0.9194 -0.7809
 2874SOL    HW220082   3.290   2.527   4.956 -1.2965 -0.6913  2.0607
 2875SOL     OW20083   0.098   4.562   0.358  0.0092 -0.0767 -0.4015
 2875SOL    HW120084   0.118   4.633   0.297  0.3441  1.2055  1.1866
 2875SOL    HW220085   0.004   4.558   0.342  0.1282  0.0093 -1.1192
 2876SOL     OW20086   0.660   0.557  16.343 -0.0544  0.1139 -0.1112
 2876SOL    HW120087   0.643   0.594  16.256 -1.2998 -0.0939  0.0417
 2876SOL    HW220088   0.656   0.465  16.317  0.6873 -0.2713  1.1329
 2877SOL     OW20089   4.177   0.312   6.404  0.0659 -0.0191  0.2880
 2877SOL    HW120090   4.140   0.258   6.334  0.1879  1.9864 -1.3055
 2877SOL    HW220091   4.134   0.273   6.480  0.0498 -2.2812 -0.8558
 2878SOL     OW20092   0.067   4.017   5.733  0.0668 -0.1695  0.1889
 2878SOL    HW120093   0.098   4.045   5.819 -0.2198 -0.7746  0.4900
 2878SOL    HW220094   0.013   3.942   5.758 -1.7282  1.1988  0.4263
 2879SOL     OW20095   3.270   3.715  15.023 -0.2566 -0.1146 -0.2114
 2879SOL    HW120096   3.251   3.631  15.063  2.3301 -0.6375 -0.1264
 2879SOL    HW220097   3.205   3.738  14.956 -0.9352  1.0660  0.8365
 2880SOL     OW20098   2.808   2.496  13.097  0.4532  0.2829  0.1879
 2880SOL    HW120099   2.833   2.417  13.144  2.4864  1.1269  0.5139
 2880SOL    HW220100   2.894   2.537  13.098  1.2518 -1.3651  0.2567
 2881SOL     OW20101   3.628   1.871   7.872 -0.3135 -0.1717 -0.3079
 2881SOL    HW120102   3.627   1.882   7.967 -1.8446  1.7223 -0.5341
 2881SOL    HW220103   3.724   1.865   7.865 -0.2597  1.3403 -0.9264
 2882SOL     OW20104   1.653   0.422   4.182  0.1138 -0.2839 -0.4346
 2882SOL    HW120105   1.739   0.462   4.168 -1.2180  2.4116 -0.8704
 2882SOL    HW220106   1.601   0.426   4.101 -0.3511  1.2253 -0.0525
 2883SOL     OW20107   1.973   0.383   8.481  0.2236  0.2255  0.3100
 2883SOL    HW120108   1.932   0.469   8.472 -1.7741 -0.8367 -0.7744
 2883SOL    HW220109   2.026   0.390   8.560  0.8366  0.0773 -0.0904
 2884SOL     OW20110   0.455   1.659   9.826 -0.2728  0.0052  0.0645
 2884SOL    HW120111   0.541   1.666   9.786 -1.1142  2.2791 -1.3517
 2884SOL    HW220112   0.463   1.584   9.886 -1.2103 -0.9753 -1.0337
 2885SOL     OW20113   4.599   1.696   5.683 -0.6069 -0.5455 -0.0191
 2885SOL    HW120114   4.653   1.663   5.755 -0.6948 -0.6334  0.0062
 2885SOL    HW220115   4.671   1.704   5.621  2.0432  0.5073  3.2102
 2886SOL     OW20116   2.561   0.680  13.942 -0.2909  0.3637 -0.2750
 2886SOL    HW120117   2.654   0.672  13.962 -0.4887 -1.0438  0.0885
 2886SOL    HW220118   2.563   0.739  13.867  0.8369  0.1505 -0.4176
 2887SOL     OW20119   1.913   4.317  15.012  0.1626 -0.2740  0.4237
 2887SOL    HW120120   1.883   4.329  14.922 -1.6645 -1.5502  0.8628
 2887SOL    HW220121   1.959   4.400  15.025  1.8857 -0.6672 -3.1556
 2888SOL     OW20122   3.486   0.948   1.523 -0.0931  0.1441  0.0431
 2888SOL    HW120123   3.581   0.964   1.518 -0.0657  0.0747  0.3960
 2888SOL    HW220124   3.482   0.854   1.539  2.5180  0.4345  2.4009
 2889SOL     OW20125   3.252   1.199   5.863  0.4583 -0.6448  0.4692
 2889SOL    HW120126   3.240   1.111   5.825  1.1897 -0.7206  0.4079
 2889SOL    HW220127   3.301   1.168   5.939  2.0269  0.5177 -0.0697
 2890SOL     OW20128   2.265   1.282  13.103 -0.3902  0.5324  0.0442
 2890SOL    HW120129   2.222   1.358  13.142  0.2419 -0.1652  2.0930
 2890SOL    HW220130   2.351   1.290  13.143  0.0231 -0.6257 -0.6167
 2891SOL     OW20131   1.458   4.313  17.227  0.1903  0.1451 -0.3517
 2891SOL    HW120132   1.390   4.288  17.289 -1.9270  0.6732 -2.4267
 2891SOL    HW220133   1.402   4.352  17.160  0.8310 -0.1267 -1.0523
 2892SOL     OW20134   4.461   2.573  16.663  0.1243 -0.1597 -0.0437
 2892SOL    HW120135   4.453   2.478  16.660 -0.0056 -0.1225 -0.8483
 2892SOL    HW220136   4.425   2.611  16.583 -0.1625 -0.6136 -0.1291
 2893SOL     OW20137   2.525   4.555  15.558  0.2345  0.0240 -0.8810
 2893SOL    HW120138   2.615   4.588  15.556  0.8656 -1.5889  1.0286
 2893SOL    HW220139   2.513   4.514  15.473 -1.8582 -1.1558 -0.0219
 2894SOL     OW20140   3.584   2.378   3.159  0.1356  0.3749  0.0557
 2894SOL    HW120141   3.601   2.290   3.194  2.9103  0.2180 -1.7418
 2894SOL    HW220142   3.674   2.410   3.160 -0.1771  1.2164  0.7809
 2895SOL     OW20143   4.057   2.869   7.038  0.4515 -0.1276  0.1082
 2895SOL    HW120144   4.091   2.870   6.949  0.5209 -4.0403  0.1237
 2895SOL    HW220145   4.030   2.961   7.033 -1.0408 -0.5557  0.0867
 2896SOL     OW20146   3.390   3.042   5.261  0.4599 -0.1025 -0.0001
 2896SOL    HW120147   3.411   3.075   5.173 -0.2999  1.0740  0.2565
 2896SOL    HW220148   3.312   3.092   5.286  1.4092  0.8704  0.9618
 2897SOL     OW20149   1.106   0.337   8.424 -0.4850 -0.3302 -0.1406
 2897SOL    HW120150   1.131   0.319   8.334 -2.8369  3.4982 -1.5439
 2897SOL    HW220151   1.014   0.360   8.411 -0.3493  0.2741 -0.0270
 2898SOL     OW20152   3.289   4.431  17.008  0.5089 -0.5132 -0.2679
 2898SOL    HW120153   3.315   4.506  17.060 -1.5784 -1.7673  2.5765
 2898SOL    HW220154   3.307   4.365  17.075 -1.8242  0.5688  1.4164
 2899SOL     OW20155   4.293   4.155  13.397  0.3561  0.1672  0.2211
 2899SOL    HW120156   4.342   4.074  13.412  2.5539  1.1597 -1.5804
 2899SOL    HW220157   4.259   4.120  13.315  1.0861  0.7775 -0.3382
 2900SOL     OW20158   0.874   2.191   1.596  0.3129  0.2156  0.6096
 2900SOL    HW120159   0.873   2.285   1.576 -2.1748 -0.5726 -3.0016
 2900SOL    HW220160   0.823   2.192   1.677  1.0288 -1.3691  1.0628
 2901SOL     OW20161   0.714   2.466   3.117  0.2905  0.9550 -0.4794
 2901SOL    HW120162   0.777   2.395   3.111 -0.1834  0.6644 -2.2015
 2901SOL    HW220163   0.667   2.434   3.194  2.7749 -0.0162  0.6040
 2902SOL     OW20164   2.233   0.406   4.203 -0.3744 -0.6200  0.3689
 2902SOL    HW120165   2.295   0.442   4.139 -0.4137  1.8492  1.7133
 2902SOL    HW220166   2.210   0.483   4.255  0.8871  0.0965 -0.1365
 2903SOL     OW20167   4.302   2.610   2.189 -0.2203  0.3967 -0.2065
 2903SOL    HW120168   4.299   2.648   2.101 -3.6028 -1.6475 -0.9947
 2903SOL    HW220169   4.362   2.672   2.228  0.3336  0.6020 -1.3844
 2904SOL     OW20170   1.755   4.579  11.248  0.1351 -0.1559  0.3827
 2904SOL    HW120171   1.838   4.626  11.255 -0.6801  1.4706 -0.7728
 2904SOL    HW220172   1.696   4.651  11.269 -0.0288 -0.1785  0.0091
 2905SOL     OW20173   3.682   0.400   6.365  0.2623 -0.0837 -0.0527
 2905SOL    HW120174   3.595   0.435   6.384  0.1302 -0.1605 -0.5270
 2905SOL    HW220175   3.728   0.447   6.434 -0.4684 -0.7303  0.8806
 2906SOL     OW20176   2.009   0.451   2.702 -0.1065 -0.2256  0.1310
 2906SOL    HW120177   2.011   0.368   2.749 -0.0522 -0.8325 -0.9348
 2906SOL    HW220178   2.097   0.488   2.714  0.3417 -0.5866 -2.0559
 2907SOL     OW20179   0.461   1.568   2.098 -0.8726 -0.1736 -0.0509
 2907SOL    HW120180   0.389   1.547   2.158  0.1369  0.9296  1.5635
 2907SOL    HW220181   0.492   1.652   2.133  1.2706 -0.7646 -0.5439
 2908SOL     OW20182   3.993   0.769   9.625  0.5445  0.2294  0.5217
 2908SOL    HW120183   3.929   0.833   9.593  0.3543  0.0890  0.6172
 2908SOL    HW220184   4.074   0.819   9.617  1.0471 -0.5138  0.9750
 2909SOL     OW20185   0.086   1.888   7.323 -0.2464  0.1769 -0.1983
 2909SOL    HW120186   0.151   1.861   7.259  0.1354 -1.0826  0.7178
 2909SOL    HW220187   0.103   1.982   7.331 -1.5334  0.3811  0.2018
 2910SOL     OW20188   0.545   0.281  11.972  0.2256 -0.4666 -0.7308
 2910SOL    HW120189   0.469   0.230  12.001  0.8705 -0.6237  0.6555
 2910SOL    HW220190   0.556   0.262  11.879  2.5442  0.7491 -0.6914
 2911SOL     OW20191   1.691   0.448   7.191 -0.2726 -0.3339  0.2510
 2911SOL    HW120192   1.652   0.395   7.260 -0.6409 -0.4180 -0.0215
 2911SOL    HW220193   1.733   0.513   7.247 -1.6168  1.6554 -1.0670
 2912SOL     OW20194   4.348   3.775   6.273 -0.4078  0.3729 -0.2887
 2912SOL    HW120195   4.375   3.759   6.363 -0.1458  0.1163 -0.4147
 2912SOL    HW220196   4.331   3.688   6.238 -1.1263 -0.1625  1.4249
 2913SOL     OW20197   3.392   2.604   2.091 -0.0113 -1.2129 -0.0398
 2913SOL    HW120198   3.341   2.685   2.084 -0.0182 -1.2442 -0.3864
 2913SOL    HW220199   3.475   2.645   2.068 -0.6320  0.0732 -0.0020
 2914SOL     OW20200   0.417   3.927   8.754  0.5570  0.5610  0.0965
 2914SOL    HW120201   0.467   3.990   8.806 -1.3036  0.4416  2.0241
 2914SOL    HW220202   0.367   3.887   8.825 -0.2377  2.2977  0.5086
 2915SOL     OW20203   3.515   4.122   6.438  0.0187 -0.4937 -0.4742
 2915SOL    HW120204   3.451   4.071   6.389 -0.5357 -2.3730  2.2110
 2915SOL    HW220205   3.487   4.100   6.528  2.5514 -1.8269 -0.0186
 2916SOL     OW20206   2.937   3.222   8.062 -0.2229 -0.6787 -0.2336
 2916SOL    HW120207   2.959   3.211   8.154  0.7942  1.5256 -0.2145
 2916SOL    HW220208   2.895   3.138   8.043  2.0208 -1.9339  0.3464
 2917SOL     OW20209   4.010   3.825   6.436  0.6449 -0.2321  0.2869
 2917SOL    HW120210   4.029   3.779   6.518 -1.5480 -0.9851  0.3787
 2917SOL    HW220211   3.920   3.854   6.452  1.0695  0.9384  0.5925
 2918SOL     OW20212   0.113   3.083   1.346 -0.2448 -0.3239  0.0554
 2918SOL    HW120213   0.057   3.007   1.363  2.5898 -2.4760 -0.2915
 2918SOL    HW220214   0.053   3.158   1.343  0.6645  0.4042 -0.2318
 2919SOL     OW20215   1.496   2.333   5.821 -0.1262 -0.0895 -0.2478
 2919SOL    HW120216   1.420   2.297   5.776 -0.5271  0.0736  0.3086
 2919SOL    HW220217   1.490   2.426   5.800 -0.9422  0.1219  0.9277
 2920SOL     OW20218   3.806   3.398   2.153 -0.6198 -0.1948 -0.1681
 2920SOL    HW120219   3.858   3.478   2.145 -0.9955  0.1106  0.4490
 2920SOL    HW220220   3.802   3.381   2.247 -2.0703  2.1196  0.1777
 2921SOL     OW20221   0.848   2.249  10.286  0.3039 -0.3170 -0.5150
 2921SOL    HW120222   0.775   2.188  10.279 -0.7026  0.6779  1.5195
 2921SOL    HW220223   0.825   2.330  10.243 -3.0249 -1.1865 -0.3298
 2922SOL     OW20224   1.990   0.183   7.616 -0.8831 -0.7539 -0.2352
 2922SOL    HW120225   2.070   0.154   7.661  0.0353  0.6828 -0.9591
 2922SOL    HW220226   1.922   0.172   7.683  0.2765  0.7233  1.1807
 2923SOL     OW20227   1.449   0.159   6.112  0.1076 -0.8400 -0.0149
 2923SOL    HW120228   1.375   0.218   6.118  1.0262  0.2715  0.3492
 2923SOL    HW220229   1.451   0.119   6.199 -1.5105  0.5410  0.6488
 2924SOL     OW20230   3.874   4.118   8.523  0.1135 -0.0717  0.5996
 2924SOL    HW120231   3.904   4.184   8.460  1.7963 -1.0333  0.3879
 2924SOL    HW220232   3.860   4.167   8.604 -3.2738 -1.8572  1.0744
 2925SOL     OW20233   4.122   0.092   1.496  0.5858  0.2119 -0.2945
 2925SOL    HW120234   4.144   0.016   1.442  0.1387  0.1692 -0.4172
 2925SOL    HW220235   4.027   0.080   1.501  0.2624  3.2426  0.6602
 2926SOL     OW20236   0.220   4.069   2.413 -0.0199 -0.1023 -0.4102
 2926SOL    HW120237   0.228   4.140   2.477  0.8869  2.1243 -2.9505
 2926SOL    HW220238   0.313   4.046   2.417  0.3055  1.4598  0.9645
 2927SOL     OW20239   2.875   3.235   7.233 -0.2094  0.2613 -0.2161
 2927SOL    HW120240   2.961   3.266   7.204 -0.4972  0.0825 -1.2720
 2927SOL    HW220241   2.831   3.320   7.230 -0.6552  0.1342  2.8332
 2928SOL     OW20242   0.625   4.350   1.602  0.0315  0.5491  0.1755
 2928SOL    HW120243   0.654   4.319   1.688  2.2680  0.1897 -0.6920
 2928SOL    HW220244   0.544   4.304   1.582  1.3124 -2.0870  1.1565
 2929SOL     OW20245   1.573   0.887  17.024 -0.1341  0.6444  0.1893
 2929SOL    HW120246   1.584   0.866  16.931 -0.0551 -2.1328  0.8080
 2929SOL    HW220247   1.657   0.926  17.048  0.3883 -0.7322  0.6130
 2930SOL     OW20248   3.433   4.580   5.095  0.2704 -0.7731 -0.6899
 2930SOL    HW120249   3.412   4.615   5.182 -0.5914 -0.5170 -0.9987
 2930SOL    HW220250   3.399   4.492   5.113  0.3864 -0.2752  1.9838
 2931SOL     OW20251   4.711   0.023   4.653  0.0849  0.0890  0.0396
 2931SOL    HW120252   4.717   4.650   4.661 -2.9012 -0.2132 -1.4199
 2931SOL    HW220253   4.633   0.032   4.597  1.8018  1.2158 -2.1556
 2932SOL     OW20254   2.759   1.030   6.805 -0.1395 -0.4513 -0.0660
 2932SOL    HW120255   2.678   1.077   6.786  0.0456 -0.2971 -0.4760
 2932SOL    HW220256   2.744   1.002   6.895  1.5467  1.4726  0.8116
 2933SOL     OW20257   4.067   1.071   5.482 -0.2039  0.0531  0.2942
 2933SOL    HW120258   4.111   1.139   5.432 -1.1633  1.4453  1.3526
 2933SOL    HW220259   4.026   1.029   5.406  2.4244 -1.8574 -0.0477
 2934SOL     OW20260   0.868   0.701   0.922 -0.2164  0.1129 -0.1359
 2934SOL    HW120261   0.781   0.675   0.951  0.6249 -2.6054 -0.0541
 2934SOL    HW220262   0.915   0.678   1.002 -1.4122  0.8258  0.7546
 2935SOL     OW20263   4.607   0.476   4.167  0.0305 -0.0074 -0.0892
 2935SOL    HW120264   4.557   0.427   4.233 -1.2256  1.1403 -0.2009
 2935SOL    HW220265   4.675   0.413   4.140 -0.1228 -0.3185  0.2502
 2936SOL     OW20266   2.694   1.381   5.098 -0.1773  0.3599 -0.1168
 2936SOL    HW120267   2.758   1.316   5.068  1.3886  1.8908 -0.1474
 2936SOL    HW220268   2.742   1.423   5.169  1.8305  0.3359 -1.4411
 2937SOL     OW20269   0.453   3.624  11.537  0.5108  0.2428  0.4078
 2937SOL    HW120270   0.475   3.611  11.629 -0.8284  0.3036  0.7392
 2937SOL    HW220271   0.529   3.670  11.503  0.8572 -1.5316 -1.2185
 2938SOL     OW20272   0.731   4.116   3.926  0.7455  0.2168 -0.0253
 2938SOL    HW120273   0.666   4.140   3.992 -0.7365 -0.5544 -1.1901
 2938SOL    HW220274   0.694   4.146   3.843  2.6307  1.8351 -0.2905
 2939SOL     OW20275   2.195   1.410   1.143 -0.0718 -0.6258  0.0813
 2939SOL    HW120276   2.278   1.382   1.105  0.6127  1.5392 -0.0126
 2939SOL    HW220277   2.184   1.487   1.087 -0.2446 -0.6234  0.1178
 2940SOL     OW20278   0.709   3.728  11.426  0.3996  0.9058 -0.4167
 2940SOL    HW120279   0.773   3.657  11.426 -1.0496 -0.4257  0.1204
 2940SOL    HW220280   0.714   3.764  11.338  2.4027 -1.8605 -1.4583
 2941SOL     OW20281   1.201   1.061   2.092 -0.0362  0.2656  0.5356
 2941SOL    HW120282   1.248   1.132   2.136  1.0623 -0.4812  0.5353
 2941SOL    HW220283   1.136   1.110   2.041  0.2274  1.0942  0.9868
 2942SOL     OW20284   1.388   2.095   1.894  0.6559 -0.2128  0.2886
 2942SOL    HW120285   1.368   2.108   1.987 -0.5829 -0.1210 -0.0043
 2942SOL    HW220286   1.390   1.999   1.885  0.4847 -0.3156  1.3489
 2943SOL     OW20287   4.570   1.262   0.825 -0.0620  0.7689  0.1615
 2943SOL    HW120288   4.657   1.272   0.863  0.9730 -1.3162 -1.6968
 2943SOL    HW220289   4.502   1.295   0.885 -1.2015  1.8075 -1.7179
 2944SOL     OW20290   1.866   0.790  16.670  0.6282  0.7863  0.1184
 2944SOL    HW120291   1.815   0.862  16.634  0.8133 -0.4087 -2.6102
 2944SOL    HW220292   1.804   0.741  16.724 -1.1507  1.9539 -0.8647
 2945SOL     OW20293   0.961   2.533  17.095  0.4903  0.8414 -0.6055
 2945SOL    HW120294   1.019   2.537  17.019 -0.1071 -0.7439 -1.1393
 2945SOL    HW220295   0.887   2.578  17.054 -1.4375 -1.0356  0.8178
 2946SOL     OW20296   0.295   0.681   5.434 -0.7484  0.0878  0.0940
 2946SOL    HW120297   0.306   0.774   5.413 -0.5371 -0.1902 -1.0141
 2946SOL    HW220298   0.200   0.671   5.430 -0.8275  1.5840 -1.7454
 2947SOL     OW20299   4.298   1.802   4.248 -0.0058 -0.0388  0.0527
 2947SOL    HW120300   4.390   1.798   4.222  0.5051 -1.5182  2.0712
 2947SOL    HW220301   4.309   1.732   4.313  1.0098 -1.4680 -1.6894
 2948SOL     OW20302   2.916   0.909   6.269  0.3370  0.8035  0.0357
 2948SOL    HW120303   2.936   1.002   6.275 -0.9478  0.9918  1.2876
 2948SOL    HW220304   2.832   0.899   6.315 -0.2729 -0.3333 -1.2966
 2949SOL     OW20305   1.907   1.725   8.143  0.5092  0.2060 -0.8238
 2949SOL    HW120306   1.971   1.654   8.152  0.2314 -0.0336 -0.7553
 2949SOL    HW220307   1.951   1.798   8.099  1.0692  0.9299  0.9760
 2950SOL     OW20308   2.774   1.405   3.619 -0.7728  0.1012  0.6566
 2950SOL    HW120309   2.706   1.437   3.560 -0.3111 -0.4874 -0.1863
 2950SOL    HW220310   2.737   1.416   3.707  0.5987  1.6163  1.0406
 2951SOL     OW20311   1.481   0.472   9.120 -0.4742 -0.6220  0.2618
 2951SOL    HW120312   1.441   0.463   9.033 -0.7407  0.2617  0.2926
 2951SOL    HW220313   1.423   0.417   9.173 -2.4573  2.1481  0.9561
 2952SOL     OW20314   1.135   4.022   5.941 -0.0780  0.2468 -0.2920
 2952SOL    HW120315   1.127   3.969   5.862 -3.6643  0.8002 -0.2885
 2952SOL    HW220316   1.224   4.053   5.925  1.8270 -5.0289 -0.0403
 2953SOL     OW20317   0.447   0.053   4.804  0.3502  0.5643  0.2136
 2953SOL    HW120318   0.371   0.001   4.830  1.4129 -1.3687 -0.5683
 2953SOL    HW220319   0.404   0.106   4.736  0.2400 -1.8553 -1.6021
 2954SOL     OW20320   2.716   3.328  13.203  0.3272 -0.0236 -0.3129
 2954SOL    HW120321   2.750   3.400  13.256 -0.0771 -0.3023  0.3228
 2954SOL    HW220322   2.686   3.374  13.124 -0.0888  1.2821  0.6106
 2955SOL     OW20323   2.920   1.616  11.684  0.3676  0.0316  0.2626
 2955SOL    HW120324   2.910   1.523  11.703 -1.5134 -0.5127 -3.4723
 2955SOL    HW220325   2.979   1.646  11.754 -2.1094  1.9263  1.5287
 2956SOL     OW20326   3.449   3.623   3.644  0.5437  0.4583  0.6984
 2956SOL    HW120327   3.491   3.680   3.580  0.2117 -0.4036 -0.2857
 2956SOL    HW220328   3.493   3.544   3.614 -0.3031  0.6096 -0.9716
 2957SOL     OW20329   2.228   0.073  15.823  0.2791 -0.7206 -0.4660
 2957SOL    HW120330   2.183   0.157  15.827  2.9752  0.7105 -0.1654
 2957SOL    HW220331   2.238   0.061  15.729  0.3197 -1.4071 -0.3729
 2958SOL     OW20332   4.459   0.949   3.404 -0.6030 -0.0714 -0.0749
 2958SOL    HW120333   4.541   0.915   3.370 -0.5594 -1.1306  1.0751
 2958SOL    HW220334   4.444   1.024   3.346  0.3973  0.6706  0.6280
 2959SOL     OW20335   1.536   0.566   7.455 -0.0959  0.6159  0.2448
 2959SOL    HW120336   1.469   0.634   7.448 -1.5295 -0.6803  1.3657
 2959SOL    HW220337   1.611   0.626   7.456  0.7048 -0.4219  2.4262
 2960SOL     OW20338   0.103   1.476   5.452  0.5180  0.1147 -0.4335
 2960SOL    HW120339   0.147   1.469   5.537  1.7985 -0.7224 -1.1780
 2960SOL    HW220340   0.022   1.428   5.471  0.4666  1.3173  2.4976
 2961SOL     OW20341   2.889   2.004  13.849  0.2860 -0.0469 -0.2453
 2961SOL    HW120342   2.939   1.972  13.923  1.7402  3.5254  0.2559
 2961SOL    HW220343   2.912   1.929  13.794  2.1264 -1.5338  2.5553
 2962SOL     OW20344   0.428   3.048   3.141  0.2038  0.1249  0.6790
 2962SOL    HW120345   0.387   3.102   3.209 -2.2887  2.0781 -2.3910
 2962SOL    HW220346   0.500   3.001   3.183  1.3574  0.5039 -0.9120
 2963SOL     OW20347   2.796   3.470   5.158  0.2340  0.0500  0.1876
 2963SOL    HW120348   2.770   3.563   5.159 -2.9477 -0.8339  0.7692
 2963SOL    HW220349   2.753   3.444   5.239  0.0769  2.6809  0.9569
 2964SOL     OW20350   0.429   1.723   5.445 -0.4847  0.9744  0.2608
 2964SOL    HW120351   0.429   1.660   5.373  0.1769  0.3422  0.8232
 2964SOL    HW220352   0.510   1.771   5.424 -0.2452  1.4066  2.1885
 2965SOL     OW20353   2.512   2.595   6.188 -0.2796 -0.0863 -0.4090
 2965SOL    HW120354   2.563   2.585   6.108 -1.0997  0.1294 -0.9500
 2965SOL    HW220355   2.583   2.591   6.252 -0.8753  0.7597  0.3106
 2966SOL     OW20356   3.696   2.965  12.877  0.3595  0.3456 -0.4428
 2966SOL    HW120357   3.632   2.904  12.913  1.0705 -0.9601 -1.3747
 2966SOL    HW220358   3.645   3.045  12.871  2.0644  1.5430  1.1998
 2967SOL     OW20359   0.494   2.349   5.968  0.4220  0.8679  0.3231
 2967SOL    HW120360   0.409   2.385   5.995 -0.2257 -0.7134  0.3485
 2967SOL    HW220361   0.536   2.323   6.050  0.9460 -1.1209 -0.5864
 2968SOL     OW20362   3.138   3.976   7.397 -1.2837  0.4724  0.0958
 2968SOL    HW120363   3.185   3.915   7.454 -2.0860 -1.1908 -1.0333
 2968SOL    HW220364   3.208   4.025   7.354  0.0841 -0.7279  0.9513
 2969SOL     OW20365   1.619   0.878   8.670  0.3582 -0.5231  0.2293
 2969SOL    HW120366   1.559   0.815   8.631  0.1839 -0.3944  0.2897
 2969SOL    HW220367   1.564   0.907   8.743  1.3029  2.4129 -0.2152
 2970SOL     OW20368   2.047   4.505   7.734  0.0841  0.0445 -0.3671
 2970SOL    HW120369   1.994   4.578   7.766  1.4400  0.3334  1.1944
 2970SOL    HW220370   2.130   4.552   7.732  0.0349  0.1604  0.3489
 2971SOL     OW20371   1.427   1.708   7.468 -0.1630 -0.2238 -0.1117
 2971SOL    HW120372   1.481   1.739   7.541 -0.7769 -0.2611  0.3621
 2971SOL    HW220373   1.342   1.724   7.510 -0.1224  1.3655 -0.6520
 2972SOL     OW20374   1.139   1.397   3.306  0.1412  0.1805  0.3493
 2972SOL    HW120375   1.161   1.309   3.275 -1.7473  0.0854 -0.6959
 2972SOL    HW220376   1.225   1.432   3.329 -0.6344  2.2883  0.1158
 2973SOL     OW20377   3.939   0.032  16.552 -0.6919 -0.0754 -0.3718
 2973SOL    HW120378   3.855   0.072  16.530 -1.1357  0.5506  2.4538
 2973SOL    HW220379   3.913   4.666  16.525  0.4588  0.0187 -1.7957
 2974SOL     OW20380   0.690   1.699   5.046 -0.0532 -0.6661 -0.1842
 2974SOL    HW120381   0.776   1.721   5.009 -1.7340  2.6556 -2.0954
 2974SOL    HW220382   0.647   1.627   5.001 -1.6217 -0.0870  0.3977
 2975SOL     OW20383   2.308   4.437   8.346  0.2150 -0.2156 -0.8198
 2975SOL    HW120384   2.225   4.444   8.298 -0.3735 -1.6079 -0.0034
 2975SOL    HW220385   2.336   4.527   8.364  0.2087 -0.2437 -0.6686
 2976SOL     OW20386   2.991   1.519   3.518  0.1003  0.4454  0.0162
 2976SOL    HW120387   3.040   1.458   3.573  0.8285 -0.6961 -1.9437
 2976SOL    HW220388   2.909   1.478   3.544 -0.1902  0.8449 -0.2848
 2977SOL     OW20389   0.419   2.349   5.291 -0.0816  0.1868  0.2714
 2977SOL    HW120390   0.371   2.346   5.209  1.0857  0.6394 -0.4249
 2977SOL    HW220391   0.437   2.255   5.293  0.8901  0.3873  0.7844
 2978SOL     OW20392   4.211   1.129   4.511  0.5687  0.1675 -0.2076
 2978SOL    HW120393   4.215   1.092   4.599 -0.1961 -0.0896 -0.2817
 2978SOL    HW220394   4.242   1.056   4.457  0.7986 -2.3350  3.3351
 2979SOL     OW20395   4.386   3.588   7.266 -0.1444  0.7101 -0.3445
 2979SOL    HW120396   4.449   3.608   7.335 -0.3309  0.5391 -0.1235
 2979SOL    HW220397   4.451   3.598   7.197 -0.0142 -0.4033 -0.3810
 2980SOL     OW20398   1.904   3.165   0.346 -0.0356  0.3335  0.2216
 2980SOL    HW120399   1.901   3.207   0.432  1.2391  0.9572 -0.0326
 2980SOL    HW220400   1.866   3.080   0.366  1.1603  0.0993  1.5189
 2981SOL     OW20401   0.892   0.939   9.427  0.0677  0.3605 -0.1000
 2981SOL    HW120402   0.870   0.869   9.488 -1.8796 -0.5099 -1.7740
 2981SOL    HW220403   0.869   0.892   9.346 -0.4741 -1.9119  1.3822
 2982SOL     OW20404   1.268   3.916   1.900 -0.2934  0.0781  0.3622
 2982SOL    HW120405   1.245   3.828   1.931  1.3406 -1.3640 -2.4670
 2982SOL    HW220406   1.185   3.950   1.869 -0.6804  0.0093  1.3076
 2983SOL     OW20407   3.304   3.304   8.534 -0.4282 -0.1896 -0.3079
 2983SOL    HW120408   3.262   3.243   8.474 -3.5262  0.7806  0.8232
 2983SOL    HW220409   3.283   3.261   8.618 -2.2239 -0.3187 -0.8073
 2984SOL     OW20410   2.040   3.568   0.910  0.2426 -0.4799  0.2374
 2984SOL    HW120411   2.037   3.499   0.845  2.2859 -0.5760  0.2352
 2984SOL    HW220412   2.066   3.521   0.990  1.0796  1.0126  0.8566
 2985SOL     OW20413   4.629   3.751   7.768  0.2366 -0.0671 -0.3535
 2985SOL    HW120414   4.551   3.780   7.816  0.5349 -0.2608  0.2506
 2985SOL    HW220415   4.659   3.840   7.748  1.8008 -0.5440 -0.1457
 2986SOL     OW20416   0.841   1.404   4.804  0.6091  0.5597  0.2526
 2986SOL    HW120417   0.895   1.392   4.882  2.2278  1.2288 -0.7601
 2986SOL    HW220418   0.902   1.429   4.734  0.8644 -1.3154 -0.2031
 2987SOL     OW20419   0.972   4.072   3.590 -0.3376  0.1845  0.1384
 2987SOL    HW120420   1.049   4.024   3.557 -1.7519 -0.4463 -2.2276
 2987SOL    HW220421   0.919   3.992   3.594 -1.1363  0.7625  0.8350
 2988SOL     OW20422   0.682   1.599   8.345 -0.1660 -0.1732  0.0395
 2988SOL    HW120423   0.715   1.672   8.293  0.3388 -0.7925 -0.5164
 2988SOL    HW220424   0.617   1.554   8.290 -0.4689 -0.8498  0.9461
 2989SOL     OW20425   1.707   2.395   4.495 -0.3488  0.0587  0.0418
 2989SOL    HW120426   1.659   2.472   4.528 -0.1060  0.2048  0.0544
 2989SOL    HW220427   1.659   2.329   4.545  0.5015 -1.2764 -0.9416
 2990SOL     OW20428   4.602   3.676   1.209 -0.0061  0.3278  0.2826
 2990SOL    HW120429   4.652   3.756   1.195  1.6107 -0.4115  1.8861
 2990SOL    HW220430   4.512   3.710   1.201  0.4458  1.1796 -1.0839
 2991SOL     OW20431   4.249   4.556   8.800  0.5189  0.2119  0.1089
 2991SOL    HW120432   4.162   4.535   8.766 -0.4392  3.6448  0.4396
 2991SOL    HW220433   4.239   4.650   8.787 -2.0528 -0.2187 -0.9707
 2992SOL     OW20434   3.591   3.076   2.903  0.3093 -0.5085 -0.5770
 2992SOL    HW120435   3.618   3.166   2.886 -2.8903 -0.0819 -3.1757
 2992SOL    HW220436   3.680   3.042   2.888  0.4589  0.2583 -1.3903
 2993SOL     OW20437   0.927   4.152   8.884  0.1106  0.4866  0.3224
 2993SOL    HW120438   0.994   4.093   8.919 -0.3179  0.1460  0.5688
 2993SOL    HW220439   0.948   4.228   8.938 -0.2680  1.2603 -0.6145
 2994SOL     OW20440   2.172   1.332   3.640 -0.3176 -0.3463 -0.4821
 2994SOL    HW120441   2.267   1.338   3.634 -0.2858 -0.6057 -0.2013
 2994SOL    HW220442   2.157   1.264   3.574  1.0828 -0.1461 -1.0037
 2995SOL     OW20443   2.047   1.176   3.060 -0.2224 -0.2807  0.0024
 2995SOL    HW120444   1.974   1.151   3.117 -0.4129 -0.0596 -0.1428
 2995SOL    HW220445   2.102   1.214   3.128 -0.4065  0.2316 -0.1361
 2996SOL     OW20446   0.696   3.481   5.643  0.2864  0.0279 -0.4969
 2996SOL    HW120447   0.679   3.387   5.645  1.8751 -0.2582 -0.4934
 2996SOL    HW220448   0.616   3.522   5.676 -0.1845  0.7179 -2.5182
 2997SOL     OW20449   1.479   1.911   7.006  0.1412  0.3680 -1.0440
 2997SOL    HW120450   1.433   1.849   7.062  0.8977  0.4560 -0.3357
 2997SOL    HW220451   1.481   1.867   6.920  1.2518 -0.5054 -0.5679
 2998SOL     OW20452   2.245   4.169   8.739  0.6278  0.2825 -0.3930
 2998SOL    HW120453   2.240   4.223   8.818 -0.3150 -0.3894  0.0050
 2998SOL    HW220454   2.303   4.232   8.696 -1.1765  1.5582 -0.9571
 2999SOL     OW20455   1.365   1.816   1.990 -0.6268 -0.3376 -0.6926
 2999SOL    HW120456   1.279   1.827   2.031  0.0673  0.3532  0.5491
 2999SOL    HW220457   1.336   1.753   1.924  0.3380  1.1902 -2.5565
 3000SOL     OW20458   0.578   4.524  11.771 -0.2542 -0.4380 -0.4039
 3000SOL    HW120459   0.596   4.583  11.844  1.3645 -0.6843 -0.6236
 3000SOL    HW220460   0.548   4.586  11.705  0.8712  0.6317  0.0933
 3001SOL     OW20461   1.793   3.599  10.139  0.2407  0.5891  0.2368
 3001SOL    HW120462   1.859   3.650  10.187 -0.1219  1.5791 -0.3167
 3001SOL    HW220463   1.722   3.661  10.121  0.6131  1.1813  0.7848
 3002SOL     OW20464   2.677   0.060   3.293 -0.0339 -0.2609 -0.1006
 3002SOL    HW120465   2.585   0.046   3.270 -0.2381  1.6020 -0.4294
 3002SOL    HW220466   2.702   0.126   3.229  2.0468  0.0506  1.0329
 3003SOL     OW20467   2.246   1.883  14.312  0.3288 -0.0509  0.0544
 3003SOL    HW120468   2.250   1.872  14.407 -0.9070 -2.3997 -0.1418
 3003SOL    HW220469   2.341   1.889  14.297  0.1827  3.2096  0.5962
 3004SOL     OW20470   1.063   2.774   3.851 -0.1624  0.6135 -0.4044
 3004SOL    HW120471   1.133   2.746   3.910  0.1259  1.1182 -0.5069
 3004SOL    HW220472   1.005   2.828   3.906 -3.0608 -0.9253 -1.9681
 3005SOL     OW20473   0.558   3.818   4.960 -0.7260 -0.6117  0.6030
 3005SOL    HW120474   0.544   3.890   4.899  0.2399 -0.6655  0.3266
 3005SOL    HW220475   0.651   3.801   4.945 -0.4769  1.7009 -0.5032
 3006SOL     OW20476   3.935   1.548   3.971  0.0132  0.6441  0.2095
 3006SOL    HW120477   4.027   1.552   3.945  0.3080  1.6701  1.4048
 3006SOL    HW220478   3.929   1.594   4.054  0.6228  0.5706  0.2951
 3007SOL     OW20479   2.025   3.647   7.275 -0.1474  0.2224 -0.1178
 3007SOL    HW120480   2.035   3.737   7.246 -1.7657  1.3261  2.7844
 3007SOL    HW220481   1.957   3.660   7.341 -0.4445  1.2017 -0.6313
 3008SOL     OW20482   1.591   0.470   4.756  0.1428  0.4603 -0.0096
 3008SOL    HW120483   1.679   0.494   4.727 -0.2196  0.4450 -1.0914
 3008SOL    HW220484   1.538   0.468   4.676  0.4200 -0.4604 -0.1727
 3009SOL     OW20485   2.206   1.670  16.682 -0.3163 -0.0017 -0.3586
 3009SOL    HW120486   2.280   1.725  16.658  0.1099 -0.9639 -1.2496
 3009SOL    HW220487   2.168   1.651  16.596  0.2420 -1.6051 -0.2513
 3010SOL     OW20488   0.977   1.958  14.673 -0.2456 -0.2858 -0.1284
 3010SOL    HW120489   0.985   2.045  14.633 -0.7611 -1.3054 -2.4306
 3010SOL    HW220490   0.908   1.913  14.625  1.1305 -2.0594 -0.4374
 3011SOL     OW20491   4.544   1.148  14.760  0.4591 -0.5841 -0.2289
 3011SOL    HW120492   4.574   1.109  14.842 -0.9899 -0.2246  0.4734
 3011SOL    HW220493   4.628   1.139  14.715  0.7890  1.3307 -0.0157
 3012SOL     OW20494   0.681   0.161   4.899  0.1961  0.2117  0.3321
 3012SOL    HW120495   0.601   0.115   4.874  0.0399 -0.3036  1.8310
 3012SOL    HW220496   0.650   0.246   4.867 -1.8396 -0.1227  1.4102
 3013SOL     OW20497   3.528   4.110   4.439 -0.7706  0.4214 -0.2538
 3013SOL    HW120498   3.433   4.117   4.428 -0.7048  1.5586 -0.0914
 3013SOL    HW220499   3.548   4.034   4.386  2.3335 -0.2015  1.7784
 3014SOL     OW20500   1.215   3.245   8.073 -0.6135 -0.2271 -0.4907
 3014SOL    HW120501   1.288   3.207   8.024 -2.0354 -1.2038 -1.8870
 3014SOL    HW220502   1.194   3.313   8.010  1.8321 -0.6568 -1.7641
 3015SOL     OW20503   2.291   3.091   7.364 -0.4776  0.2072  0.0871
 3015SOL    HW120504   2.226   3.132   7.420 -1.7060 -2.7728  0.8201
 3015SOL    HW220505   2.296   3.156   7.294  1.8127 -0.3989 -0.3177
 3016SOL     OW20506   2.712   3.882   7.157  0.4089  0.6109  0.1355
 3016SOL    HW120507   2.800   3.875   7.119 -0.4461  2.4517 -2.1391
 3016SOL    HW220508   2.735   3.918   7.242 -1.5364 -0.2437  1.0040
 3017SOL     OW20509   2.378   2.392   1.661  0.5607 -0.0262 -0.2608
 3017SOL    HW120510   2.397   2.389   1.755 -0.8760 -1.4674 -0.0148
 3017SOL    HW220511   2.464   2.404   1.621  0.2810  2.7314 -0.0594
 3018SOL     OW20512   3.268   1.441  14.012  0.2452 -0.0733 -0.3861
 3018SOL    HW120513   3.321   1.404  13.942  0.1155  0.2974 -0.6786
 3018SOL    HW220514   3.312   1.393  14.082 -0.0266  0.5483  0.2106
 3019SOL     OW20515   0.572   1.675  12.518 -0.0788  0.2918 -0.1026
 3019SOL    HW120516   0.567   1.725  12.437  0.6032  1.1704  0.4011
 3019SOL    HW220517   0.616   1.593  12.495 -0.7793 -0.3436  0.8149
 3020SOL     OW20518   2.606   4.494  11.348 -0.5570 -0.6332  0.0796
 3020SOL    HW120519   2.697   4.468  11.359 -0.6778  0.4751  3.4949
 3020SOL    HW220520   2.572   4.422  11.295 -1.1453  0.5799 -1.2182
 3021SOL     OW20521   2.621   4.238  13.851 -0.2252  0.2242 -0.2245
 3021SOL    HW120522   2.709   4.264  13.878 -1.0398 -1.0764  3.7050
 3021SOL    HW220523   2.575   4.279  13.925 -1.8628 -0.7340 -0.7082
 3022SOL     OW20524   3.682   2.706  11.613  0.3221 -0.1367  0.4432
 3022SOL    HW120525   3.649   2.786  11.573  0.4913  0.0181  0.6129
 3022SOL    HW220526   3.720   2.743  11.693 -0.6548 -0.1388  0.9029
 3023SOL     OW20527   1.070   2.839   9.513  0.3727  0.0564  0.1351
 3023SOL    HW120528   1.085   2.881   9.428 -1.0090 -1.2852 -0.7762
 3023SOL    HW220529   1.041   2.753   9.484 -0.3000  0.0908  0.7249
 3024SOL     OW20530   3.608   0.669   2.906 -0.6392 -0.2425 -0.4206
 3024SOL    HW120531   3.530   0.649   2.958 -0.7607  1.9486  0.2411
 3024SOL    HW220532   3.578   0.747   2.859 -0.0283  0.3437  0.1640
 3025SOL     OW20533   3.469   0.774  16.939 -0.0410 -0.0166 -0.5073
 3025SOL    HW120534   3.493   0.856  16.895 -0.3815  0.8283  0.8890
 3025SOL    HW220535   3.376   0.793  16.952  0.0442 -0.2016  0.3754
 3026SOL     OW20536   3.775   3.237  16.289 -0.0895  0.1645  0.2907
 3026SOL    HW120537   3.773   3.294  16.366 -3.4101 -0.3412  0.5576
 3026SOL    HW220538   3.744   3.303  16.226 -0.5848 -1.1726 -0.8589
 3027SOL     OW20539   1.760   4.349  17.176  0.5597  0.2071 -0.2295
 3027SOL    HW120540   1.713   4.428  17.150 -1.5605 -0.7018  0.8303
 3027SOL    HW220541   1.757   4.362  17.271  1.0583  1.9639 -0.4518
 3028SOL     OW20542   0.858   4.591   3.400  0.4113  0.5178  0.2787
 3028SOL    HW120543   0.813   4.652   3.458 -0.1375 -1.3947  1.8865
 3028SOL    HW220544   0.896   4.521   3.453 -0.1587 -0.0052 -0.0094
 3029SOL     OW20545   2.571   1.687   2.804  0.7378 -0.5173 -0.6162
 3029SOL    HW120546   2.530   1.694   2.890 -2.4206 -0.7875 -2.1213
 3029SOL    HW220547   2.615   1.772   2.798 -0.3210  0.0874  0.0639
 3030SOL     OW20548   2.756   0.429   0.311  0.2947  0.2640 -0.4809
 3030SOL    HW120549   2.772   0.335   0.314 -1.9602 -0.1328 -1.0534
 3030SOL    HW220550   2.808   0.457   0.386 -1.7812 -0.5435  1.2740
 3031SOL     OW20551   4.646   0.672   4.750 -0.8682 -0.1989 -0.0125
 3031SOL    HW120552   4.634   0.577   4.753 -2.3032 -0.0084  0.3081
 3031SOL    HW220553   4.637   0.699   4.842 -0.8307 -2.1051  0.5569
 3032SOL     OW20554   2.731   4.692   1.163  0.5975 -0.6254 -0.4393
 3032SOL    HW120555   2.663   4.628   1.142 -1.6504  0.9054  2.2028
 3032SOL    HW220556   2.771   4.654   1.241  0.3074 -0.9272 -0.4387
 3033SOL     OW20557   0.960   3.641   5.433  0.2504 -0.4788  0.5012
 3033SOL    HW120558   0.983   3.564   5.382  0.5719  0.7516 -1.2304
 3033SOL    HW220559   0.971   3.711   5.369  1.3164  1.2599  2.5766
 3034SOL     OW20560   0.168   1.592   6.513  0.0879  0.4356  0.4039
 3034SOL    HW120561   0.192   1.524   6.449  2.4512 -0.3763  2.1257
 3034SOL    HW220562   0.241   1.650   6.493  1.1792 -0.1828  2.6013
 3035SOL     OW20563   0.579   4.240   1.258 -0.1428  0.1054 -0.0783
 3035SOL    HW120564   0.579   4.166   1.319  0.8349 -1.5664 -2.1213
 3035SOL    HW220565   0.495   4.238   1.213  0.9948  1.6234 -2.2517
 3036SOL     OW20566   2.529   2.667   7.863  0.3340  0.1887  1.1008
 3036SOL    HW120567   2.596   2.728   7.829 -0.7271 -1.3654 -3.8065
 3036SOL    HW220568   2.582   2.590   7.885  0.5098 -0.0331 -0.0979
 3037SOL     OW20569   3.854   2.429  11.605  0.2895  0.7843 -0.2775
 3037SOL    HW120570   3.892   2.361  11.661 -0.2988 -1.7142 -2.9151
 3037SOL    HW220571   3.906   2.413  11.526 -1.1413 -0.0294 -1.0629
 3038SOL     OW20572   2.065   3.878   4.645 -0.2638 -0.6169  0.1276
 3038SOL    HW120573   2.049   3.794   4.600 -1.3350 -1.0542  1.3347
 3038SOL    HW220574   2.059   3.843   4.734  2.1047 -0.7574  0.2361
 3039SOL     OW20575   1.301   1.291   8.334  0.2081 -0.0445  0.2459
 3039SOL    HW120576   1.388   1.259   8.358 -0.8597 -1.6731  1.9277
 3039SOL    HW220577   1.281   1.219   8.274  1.1979 -0.4795  0.4366
 3040SOL     OW20578   2.086   3.017  13.453  0.5261 -0.5225  0.1909
 3040SOL    HW120579   2.118   3.005  13.542  1.0777  1.5343  0.2723
 3040SOL    HW220580   2.104   3.108  13.429  0.3331 -0.9028 -1.4041
 3041SOL     OW20581   0.628   0.265   7.370 -0.2837 -0.4827 -0.4552
 3041SOL    HW120582   0.617   0.179   7.410 -0.7973 -1.2018 -2.1437
 3041SOL    HW220583   0.713   0.258   7.327  0.5101 -1.1651  1.1959
 3042SOL     OW20584   3.449   1.315  13.855  0.1415 -0.2545 -1.1033
 3042SOL    HW120585   3.516   1.276  13.799 -0.0549  0.0346 -1.5339
 3042SOL    HW220586   3.396   1.235  13.863 -0.3029  0.0866 -0.6617
 3043SOL     OW20587   2.687   0.260   6.394 -0.3614 -0.2547  0.3816
 3043SOL    HW120588   2.603   0.305   6.399 -0.7083 -0.9617  0.8219
 3043SOL    HW220589   2.740   0.322   6.446  0.9355  0.2036 -1.4917
 3044SOL     OW20590   3.032   0.753  12.762 -0.3640  0.4086 -0.1795
 3044SOL    HW120591   3.046   0.699  12.840  0.9900 -0.5172 -1.0591
 3044SOL    HW220592   2.950   0.726  12.722  0.0609 -1.5183  0.2867
 3045SOL     OW20593   4.715   0.383  10.982 -0.7600  0.0582 -0.0792
 3045SOL    HW120594   0.036   0.370  10.897  0.7542  0.5043  0.6113
 3045SOL    HW220595   4.681   0.470  10.962 -0.2134  0.3979  0.4507
 3046SOL     OW20596   1.980   1.298   0.490  0.4295  0.0628 -0.1513
 3046SOL    HW120597   2.066   1.336   0.506  1.3448 -1.1236 -2.1852
 3046SOL    HW220598   1.996   1.205   0.508  2.7792  0.8366  1.6874
 3047SOL     OW20599   3.425   3.025   4.418 -0.0837  0.8375 -0.4414
 3047SOL    HW120600   3.425   3.121   4.413 -0.3968  0.8016 -1.2135
 3047SOL    HW220601   3.465   3.003   4.333  1.8425  1.1093  0.3933
 3048SOL     OW20602   4.145   3.455   8.573 -0.0295  0.1540  0.8848
 3048SOL    HW120603   4.057   3.466   8.609 -0.5909  1.1820 -0.7989
 3048SOL    HW220604   4.134   3.501   8.490  0.4965  0.3880  0.9426
 3049SOL     OW20605   1.404   3.401   7.389 -0.1736 -0.0770  0.3049
 3049SOL    HW120606   1.425   3.333   7.452 -0.3145  1.4551  1.9923
 3049SOL    HW220607   1.384   3.471   7.451  1.0850  0.0181  0.6079
 3050SOL     OW20608   2.178   3.250   4.758  0.0977  0.8627 -0.6394
 3050SOL    HW120609   2.200   3.163   4.727  0.0552  1.1156 -1.3968
 3050SOL    HW220610   2.092   3.223   4.790  0.0768  0.6424 -0.8816
 3051SOL     OW20611   3.664   0.903   8.904  0.0677  0.0783  0.0499
 3051SOL    HW120612   3.725   0.906   8.830  0.9757  1.7965  0.8616
 3051SOL    HW220613   3.715   0.839   8.953 -2.1971  0.2917  2.6711
 3052SOL     OW20614   2.708   2.678   7.504 -0.1090 -0.8099  0.2464
 3052SOL    HW120615   2.617   2.692   7.529 -0.5247 -1.6711 -0.7902
 3052SOL    HW220616   2.747   2.680   7.592 -4.0006 -2.1243  2.0242
 3053SOL     OW20617   1.934   3.718   4.059  0.4358 -0.2469  0.5673
 3053SOL    HW120618   1.968   3.778   4.124  0.8248 -0.8317  0.9043
 3053SOL    HW220619   1.842   3.714   4.087  0.2348  0.4290  0.0035
 3054SOL     OW20620   4.281   3.220  10.796  0.0894  0.1278 -0.2711
 3054SOL    HW120621   4.319   3.171  10.723 -1.3324  0.6002 -1.3217
 3054SOL    HW220622   4.252   3.151  10.856  0.2160  0.0068 -0.3495
 3055SOL     OW20623   0.855   0.473   8.354 -0.4783  0.2685 -0.8550
 3055SOL    HW120624   0.921   0.528   8.310  1.4878 -2.2928 -1.1252
 3055SOL    HW220625   0.773   0.510   8.321 -0.1092 -1.6704 -3.8679
 3056SOL     OW20626   2.573   4.516   6.503 -0.1034  0.4232  0.4272
 3056SOL    HW120627   2.624   4.564   6.569  1.4156  1.1816 -1.3190
 3056SOL    HW220628   2.583   4.567   6.423  1.2107  1.3907  1.2102
 3057SOL     OW20629   4.342   2.459   9.868 -0.7583 -0.3413  0.3414
 3057SOL    HW120630   4.343   2.500   9.782  1.4144 -2.4555 -0.6146
 3057SOL    HW220631   4.373   2.370   9.855  0.5915  0.2405 -0.4062
 3058SOL     OW20632   4.144   2.383  16.943  0.0599  0.4353 -0.1428
 3058SOL    HW120633   4.115   2.420  17.027 -0.2910 -2.1596  0.8848
 3058SOL    HW220634   4.200   2.308  16.963 -0.0196 -0.5581 -3.8295
 3059SOL     OW20635   0.134   1.376   1.458 -0.4480 -0.1077  0.3833
 3059SOL    HW120636   0.043   1.350   1.466 -0.1096 -2.0854 -2.0156
 3059SOL    HW220637   0.143   1.450   1.517 -1.3508 -0.2181  0.6486
 3060SOL     OW20638   1.994   3.732  10.272 -0.7126  0.0614 -0.3308
 3060SOL    HW120639   2.066   3.674  10.299 -0.5238  0.1532 -0.6338
 3060SOL    HW220640   1.951   3.740  10.357  0.6864 -2.8909  0.6780
 3061SOL     OW20641   2.675   0.700   7.823  0.4903  0.5548  0.6518
 3061SOL    HW120642   2.643   0.656   7.902 -0.6286  0.2090  0.0005
 3061SOL    HW220643   2.596   0.744   7.792  0.5569  1.3841  1.6419
 3062SOL     OW20644   1.996   0.679   3.156 -0.2646 -0.3760  0.5385
 3062SOL    HW120645   2.010   0.635   3.240 -0.7196 -0.5357  0.5347
 3062SOL    HW220646   2.087   0.680   3.128 -0.8048  2.5764 -1.1293
 3063SOL     OW20647   0.434   3.087  10.242 -0.2641 -0.1512 -0.0906
 3063SOL    HW120648   0.394   3.117  10.324  1.3402  0.5692  0.4378
 3063SOL    HW220649   0.415   3.155  10.178 -0.6227 -0.7992 -0.6679
 3064SOL     OW20650   2.917   3.073   6.514 -0.8036  0.1219  0.6331
 3064SOL    HW120651   2.995   3.126   6.528  0.3851 -1.0796 -1.5355
 3064SOL    HW220652   2.851   3.137   6.541  0.3325  1.2893  0.6543
 3065SOL     OW20653   3.385   2.597   6.944  0.1558 -0.1136  0.5842
 3065SOL    HW120654   3.290   2.606   6.931  0.1516 -0.6135  0.2768
 3065SOL    HW220655   3.407   2.683   6.978  1.2187 -0.7101  1.3989
 3066SOL     OW20656   1.665   2.128  16.485 -0.1102  0.0673  0.4126
 3066SOL    HW120657   1.639   2.205  16.435  0.7421  1.4788  2.1664
 3066SOL    HW220658   1.660   2.065  16.413  0.6615 -1.3449  1.5893
 3067SOL     OW20659   2.669   3.766  12.138 -0.0247  0.0738 -0.2527
 3067SOL    HW120660   2.654   3.860  12.141  0.1199 -0.0233  3.2210
 3067SOL    HW220661   2.743   3.769  12.078  1.5078 -3.0961  1.4635
 3068SOL     OW20662   0.840   0.122   1.569  0.4356 -0.1453  0.2665
 3068SOL    HW120663   0.749   0.096   1.556 -0.1135  0.4014  3.1107
 3068SOL    HW220664   0.879   0.035   1.584  1.0230  0.3308  1.4867
 3069SOL     OW20665   0.835   3.780  12.475  0.0460 -0.5406  0.0810
 3069SOL    HW120666   0.887   3.737  12.543  1.2863 -0.4468 -0.8063
 3069SOL    HW220667   0.771   3.819  12.534  0.5895  0.2419  0.1538
 3070SOL     OW20668   2.141   4.722   4.003  0.0732 -0.7534  0.0641
 3070SOL    HW120669   2.139   4.684   4.091 -1.9624 -0.5571  0.0949
 3070SOL    HW220670   2.109   0.088   4.021  1.0021 -0.7538  1.7568
 3071SOL     OW20671   2.593   0.164   0.568 -0.1126 -0.0716 -0.0090
 3071SOL    HW120672   2.512   0.160   0.619  1.0557 -0.2049  1.8332
 3071SOL    HW220673   2.627   0.251   0.591 -0.8268 -0.0252  0.8942
 3072SOL     OW20674   4.646   3.284   2.552 -0.4179  0.2638 -0.0828
 3072SOL    HW120675   4.581   3.246   2.611 -0.3528  2.0252  1.1491
 3072SOL    HW220676   0.000   3.230   2.570 -0.1020  0.7201 -0.0569
 3073SOL     OW20677   0.059   3.657   3.490  0.3677 -0.3185  0.1320
 3073SOL    HW120678   0.128   3.623   3.433 -0.0725 -1.6385  0.3788
 3073SOL    HW220679   0.004   3.578   3.491  1.5500 -1.1353  0.9780
 3074SOL     OW20680   2.962   1.522   6.387  0.1978  0.6613 -0.7836
 3074SOL    HW120681   2.894   1.546   6.325  1.7272 -0.7379 -3.0006
 3074SOL    HW220682   2.906   1.515   6.465 -0.7335 -1.5154 -1.6345
 3075SOL     OW20683   0.095   1.016   2.003  0.0104  0.6180 -0.9719
 3075SOL    HW120684   0.036   1.058   1.941  0.3439 -0.4568 -2.0202
 3075SOL    HW220685   0.179   1.036   1.961  0.0797 -0.9443 -1.5832
 3076SOL     OW20686   3.325   2.292  15.423  0.2874 -0.1032  0.3223
 3076SOL    HW120687   3.367   2.313  15.506 -1.2442 -0.3870  1.1619
 3076SOL    HW220688   3.309   2.379  15.386 -0.0890  0.9384  2.9544
 3077SOL     OW20689   1.619   4.398   1.436 -0.7707  0.3950 -0.4623
 3077SOL    HW120690   1.703   4.411   1.391  0.8901  0.3608  2.5998
 3077SOL    HW220691   1.639   4.426   1.526  0.0327  2.4326 -1.2731
 3078SOL     OW20692   2.455   1.842   8.514  0.2357  0.4970  0.0237
 3078SOL    HW120693   2.491   1.846   8.602 -0.0170  1.1580  0.0990
 3078SOL    HW220694   2.403   1.763   8.531  0.2317  0.6878  0.9181
 3079SOL     OW20695   1.253   2.131   7.182  0.0130 -0.4808  0.4774
 3079SOL    HW120696   1.288   2.113   7.095 -2.3093 -2.6738 -0.0145
 3079SOL    HW220697   1.208   2.049   7.206  1.4615 -1.2850  0.4449
 3080SOL     OW20698   4.393   1.126  12.081  0.1607 -0.1324  0.0077
 3080SOL    HW120699   4.473   1.169  12.053 -0.2772  0.8190  0.2192
 3080SOL    HW220700   4.343   1.128  11.999  1.2973 -0.0507 -0.6806
 3081SOL     OW20701   0.757   0.267  17.636  0.0485  0.4001 -0.0544
 3081SOL    HW120702   0.744   0.248   0.038  1.3407 -1.2704 -0.2132
 3081SOL    HW220703   0.672   0.238  17.600  1.0465 -1.5220 -0.8676
 3082SOL     OW20704   3.661   4.076   1.160 -0.0704  0.1227 -0.0351
 3082SOL    HW120705   3.683   3.985   1.180  1.0802  0.6052  0.9282
 3082SOL    HW220706   3.574   4.059   1.125 -0.6802 -0.5425  1.7783
 3083SOL     OW20707   2.503   4.282  14.980 -0.2914 -0.5230 -0.3109
 3083SOL    HW120708   2.425   4.326  14.947 -1.3511 -0.7683  1.8917
 3083SOL    HW220709   2.483   4.294  15.073  0.1059 -0.6723 -0.2054
 3084SOL     OW20710   0.106   2.626   2.206 -0.0492 -0.2131  0.3380
 3084SOL    HW120711   0.120   2.622   2.112  0.0900 -0.8586  0.3842
 3084SOL    HW220712   0.023   2.670   2.222  0.3078 -0.4772  3.0101
 3085SOL     OW20713   2.690   1.619   8.678 -0.2284  0.3457  0.1224
 3085SOL    HW120714   2.771   1.667   8.697  0.0611 -0.4887  1.0216
 3085SOL    HW220715   2.624   1.632   8.747  1.3170  0.7455  1.5194
 3086SOL     OW20716   3.379   3.386  16.012  0.0436 -0.0320 -0.0970
 3086SOL    HW120717   3.438   3.351  16.078  1.6573 -2.2658 -2.7241
 3086SOL    HW220718   3.298   3.356  16.052 -0.6135  0.9794 -0.6689
 3087SOL     OW20719   1.092   2.561   4.804  0.0035  0.1347 -0.3149
 3087SOL    HW120720   1.009   2.514   4.808  0.1839 -0.2597 -1.1948
 3087SOL    HW220721   1.068   2.631   4.743  1.8061  0.6097 -0.4715
 3088SOL     OW20722   0.746   3.490   4.539 -0.3064  0.0782  0.3185
 3088SOL    HW120723   0.672   3.435   4.513  0.7295 -0.9962 -0.3501
 3088SOL    HW220724   0.738   3.471   4.632 -0.2315 -0.4615  0.2165
 3089SOL     OW20725   1.844   2.150   2.597 -0.2856  0.3448 -0.3958
 3089SOL    HW120726   1.800   2.234   2.609  0.2412  0.5891 -0.2158
 3089SOL    HW220727   1.771   2.094   2.624  0.2296  0.5559  1.4287
 3090SOL     OW20728   0.064   0.095   5.313 -0.4179 -0.4326  0.3468
 3090SOL    HW120729   0.148   0.084   5.355  0.7355  0.0078 -1.8300
 3090SOL    HW220730   4.720   0.101   5.383  1.7015 -0.0514  2.2957
 3091SOL     OW20731   4.278   3.769   7.910  0.1897  0.2185  0.0456
 3091SOL    HW120732   4.201   3.739   7.862 -0.1255 -0.8311  1.1970
 3091SOL    HW220733   4.313   3.832   7.846 -2.3919 -0.0186 -1.5923
 3092SOL     OW20734   0.866   4.653   4.010  0.7757  0.6501 -0.3495
 3092SOL    HW120735   0.823   4.596   3.947  0.3036  1.4588 -0.7509
 3092SOL    HW220736   0.833   0.020   3.996  0.8428  0.7348  0.0134
 3093SOL     OW20737   0.796   3.794   3.137  0.0096 -0.2335 -0.5213
 3093SOL    HW120738   0.809   3.854   3.210 -1.0907  1.4206 -1.6561
 3093SOL    HW220739   0.702   3.782   3.148  0.3024 -0.4288  1.6173
 3094SOL     OW20740   2.519   2.127   8.600  0.1325  0.3087  0.2012
 3094SOL    HW120741   2.447   2.189   8.593  0.5145  1.3245  4.8517
 3094SOL    HW220742   2.486   2.038   8.589  0.4902 -0.2318  3.5010
 3095SOL     OW20743   4.602   3.605   3.903 -0.6231 -0.1420 -0.2282
 3095SOL    HW120744   4.592   3.511   3.884 -1.5616  0.1249 -1.0909
 3095SOL    HW220745   4.682   3.603   3.955  0.5305  0.6260 -1.9826
 3096SOL     OW20746   0.619   0.623   0.562 -0.0579  0.1281 -0.4890
 3096SOL    HW120747   0.565   0.638   0.485 -2.2020  0.3602  1.0523
 3096SOL    HW220748   0.701   0.635   0.514 -1.5959 -0.3310 -3.1794
 3097SOL     OW20749   2.594   0.106   8.743  0.1606 -0.2206  0.1907
 3097SOL    HW120750   2.587   0.012   8.759  1.1926 -0.0982  1.3728
 3097SOL    HW220751   2.670   0.126   8.797 -0.1202 -0.7966  0.7955
 3098SOL     OW20752   1.756   2.078   4.692 -0.2434  0.5166  0.1129
 3098SOL    HW120753   1.838   2.118   4.722  0.5530 -1.5133  0.6653
 3098SOL    HW220754   1.707   2.077   4.774  1.7601  1.4139  1.3330
 3099SOL     OW20755   2.770   0.386   8.961 -0.3867  1.1276  0.2206
 3099SOL    HW120756   2.853   0.380   8.914 -0.5397  2.6230 -0.2233
 3099SOL    HW220757   2.716   0.400   8.883 -0.4435 -2.4672 -0.3817
 3100SOL     OW20758   0.368   1.269   8.313 -0.3363 -0.0126 -0.6834
 3100SOL    HW120759   0.330   1.338   8.258 -1.5228  2.2220  2.9407
 3100SOL    HW220760   0.296   1.205   8.313  0.2857 -0.7203  1.2141
 3101SOL     OW20761   1.474   4.521   7.476  0.1088  0.1825  0.3767
 3101SOL    HW120762   1.420   4.510   7.554 -0.5300  4.1326  0.4738
 3101SOL    HW220763   1.557   4.530   7.523  0.8504 -1.8399 -0.5305
 3102SOL     OW20764   2.438   3.579   7.419  0.6469 -0.0777  0.2247
 3102SOL    HW120765   2.414   3.665   7.452  1.0691  0.3670 -0.6379
 3102SOL    HW220766   2.358   3.527   7.426 -0.1127  1.1745  0.9012
 3103SOL     OW20767   4.433   3.544   1.636 -0.0137 -0.0549 -0.5242
 3103SOL    HW120768   4.381   3.480   1.588  0.6132  0.4806 -1.8944
 3103SOL    HW220769   4.367   3.578   1.698  0.8262 -1.3278  1.0692
 3104SOL     OW20770   3.865   3.756   5.189  0.7618  0.8261 -0.0738
 3104SOL    HW120771   3.839   3.672   5.151  2.3349 -0.0529  0.7554
 3104SOL    HW220772   3.887   3.719   5.275 -0.7181  0.1896  0.0197
 3105SOL     OW20773   3.153   4.443   2.158 -0.0022 -0.2498  0.1407
 3105SOL    HW120774   3.174   4.437   2.065 -0.1685  2.9337 -0.0910
 3105SOL    HW220775   3.125   4.534   2.161  1.2799  0.0970  2.0322
 3106SOL     OW20776   0.246   4.722   3.101 -0.1699 -0.2642  0.1642
 3106SOL    HW120777   0.197   4.681   3.173  0.1935  0.4581  0.8166
 3106SOL    HW220778   0.190   0.070   3.067  0.2868 -0.3830 -0.8075
 3107SOL     OW20779   1.534   2.573   5.714 -0.4777  0.4377  0.0876
 3107SOL    HW120780   1.544   2.664   5.742 -0.9985 -0.2570  2.5666
 3107SOL    HW220781   1.590   2.584   5.637 -2.7421  0.5861 -1.5293
 3108SOL     OW20782   2.475   0.216   9.504  0.7598 -0.3387 -0.2260
 3108SOL    HW120783   2.383   0.190   9.512 -0.1354  2.4600 -1.0812
 3108SOL    HW220784   2.483   0.254   9.591  1.0755  0.2908 -0.5251
 3109SOL     OW20785   2.258   4.104   5.928 -0.5662 -0.2068 -0.0327
 3109SOL    HW120786   2.283   4.097   6.021 -0.2208  0.8036 -0.0532
 3109SOL    HW220787   2.288   4.190   5.901  1.2753 -0.7954  0.1053
 3110SOL     OW20788   0.169   3.811   9.221 -0.1209  0.0019 -0.3287
 3110SOL    HW120789   0.135   3.757   9.150  3.4571 -1.4175 -0.9651
 3110SOL    HW220790   0.226   3.752   9.269 -0.0584  0.0448 -0.3503
 3111SOL     OW20791   4.297   2.588  11.401  0.1572  0.8721  0.3073
 3111SOL    HW120792   4.297   2.591  11.497  0.2707 -0.0815  0.3373
 3111SOL    HW220793   4.324   2.676  11.375  1.2159  1.0014  1.8178
 3112SOL     OW20794   2.569   0.660   7.336  0.0490  0.0437 -0.0730
 3112SOL    HW120795   2.630   0.707   7.393 -0.6817 -0.4709  1.1562
 3112SOL    HW220796   2.498   0.635   7.396 -0.2709 -0.3957 -0.6361
 3113SOL     OW20797   4.046   3.569   1.881  0.0001  0.3131  0.2880
 3113SOL    HW120798   4.061   3.480   1.849  0.3548  0.1537  0.8853
 3113SOL    HW220799   3.975   3.595   1.822 -2.6357  0.4970  3.4896
 3114SOL     OW20800   1.576   2.858   9.343 -0.1711 -0.5147  0.7919
 3114SOL    HW120801   1.563   2.802   9.267 -0.0734 -0.5240  0.7819
 3114SOL    HW220802   1.516   2.932   9.330 -2.0896 -2.1312  0.5440
 3115SOL     OW20803   4.156   0.656   6.080  0.1808  0.4442  0.1531
 3115SOL    HW120804   4.079   0.704   6.049 -1.0558 -0.7742  1.3066
 3115SOL    HW220805   4.183   0.628   5.993  1.8520 -0.8318  1.0881
 3116SOL     OW20806   1.766   3.623   7.445  0.9959  0.4438 -0.7083
 3116SOL    HW120807   1.735   3.580   7.365  1.9280  0.7661 -1.2383
 3116SOL    HW220808   1.734   3.713   7.444  0.8912  0.4285  0.3442
 3117SOL     OW20809   0.718   1.481   3.247 -0.0294  0.6787 -0.0251
 3117SOL    HW120810   0.657   1.462   3.175 -0.0038 -1.3940  0.5097
 3117SOL    HW220811   0.703   1.410   3.309  4.1104 -0.1972  0.0009
 3118SOL     OW20812   1.112   3.120   3.936  0.1430 -0.4507 -0.5887
 3118SOL    HW120813   1.126   3.194   3.877 -0.0822 -0.3284 -0.4907
 3118SOL    HW220814   1.044   3.072   3.889 -1.5309 -0.2669  1.6443
 3119SOL     OW20815   1.744   2.060  16.733  0.0075  0.1849 -0.0938
 3119SOL    HW120816   1.664   2.106  16.760  0.8585  2.4855 -1.4541
 3119SOL    HW220817   1.732   2.071  16.639  0.4260  2.0296  0.0688
 3120SOL     OW20818   3.666   1.171   6.520  0.3287 -0.0576 -0.4068
 3120SOL    HW120819   3.612   1.219   6.583  0.3037  0.9600 -1.2161
 3120SOL    HW220820   3.689   1.240   6.459  0.5835  0.8606  0.7308
 3121SOL     OW20821   3.869   2.657  10.398 -0.0187 -0.3441 -0.3553
 3121SOL    HW120822   3.832   2.588  10.343 -0.7579 -0.6646  0.5453
 3121SOL    HW220823   3.875   2.727  10.333  2.3503  1.6459  2.0102
 3122SOL     OW20824   3.092   2.584   9.841 -0.2970 -0.3754  0.3202
 3122SOL    HW120825   3.012   2.592   9.894 -1.1860  1.2220 -1.2860
 3122SOL    HW220826   3.077   2.497   9.803  2.1039 -1.5609  2.0383
 3123SOL     OW20827   2.467   0.140  16.743  0.3585 -0.2549  0.1748
 3123SOL    HW120828   2.540   0.142  16.805  0.1393 -0.2944  0.4391
 3123SOL    HW220829   2.493   0.092  16.665  0.8250  0.5947 -0.1949
 3124SOL     OW20830   0.079   3.116   5.487  0.6234  0.4018 -0.5550
 3124SOL    HW120831   0.021   3.135   5.413 -1.8227 -3.1193  0.4430
 3124SOL    HW220832   0.015   3.111   5.558  2.1524 -0.1639  0.7895
 3125SOL     OW20833   4.076   3.582   7.820 -0.1417  0.7021 -0.1773
 3125SOL    HW120834   4.083   3.503   7.767  1.5196  1.2132 -0.7177
 3125SOL    HW220835   4.006   3.627   7.773 -1.4497 -1.3483 -0.1844
 3126SOL     OW20836   1.037   2.287  17.205  0.3293 -0.4743  0.0137
 3126SOL    HW120837   0.994   2.303  17.288 -0.4832 -2.1702 -0.0724
 3126SOL    HW220838   1.012   2.361  17.150 -2.4884 -1.7819 -0.4351
 3127SOL     OW20839   4.709   3.864   8.555  0.7898 -0.2063  0.4237
 3127SOL    HW120840   4.644   3.794   8.545 -0.2515  0.4306  2.5449
 3127SOL    HW220841   0.016   3.881   8.466 -1.6992 -0.4406 -0.4333
 3128SOL     OW20842   0.424   3.149  13.374  0.0517  0.4168  0.2239
 3128SOL    HW120843   0.503   3.109  13.337 -1.2544 -2.8242  0.8778
 3128SOL    HW220844   0.449   3.240  13.386 -0.0828  0.5112 -0.1960
 3129SOL     OW20845   2.095   3.117  12.934  0.1727 -0.0000  0.1083
 3129SOL    HW120846   2.121   3.104  13.025 -0.1080  0.7953  0.3047
 3129SOL    HW220847   2.059   3.206  12.934  2.0789  0.7823 -0.3318
 3130SOL     OW20848   2.574   2.638   3.140  0.0226  0.1862 -0.8084
 3130SOL    HW120849   2.655   2.598   3.109 -1.0797 -2.3670 -0.3818
 3130SOL    HW220850   2.586   2.720   3.092 -1.7825  0.6633 -0.4127
 3131SOL     OW20851   3.098   3.372   7.908 -0.3865  0.4754 -0.3282
 3131SOL    HW120852   3.045   3.300   7.941 -2.0013  1.1325 -1.5276
 3131SOL    HW220853   3.183   3.356   7.950 -0.3965 -0.3083 -0.6088
 3132SOL     OW20854   1.383   0.244   7.913 -0.1642  0.2271 -0.4496
 3132SOL    HW120855   1.397   0.336   7.935 -0.5603  0.0124  0.6847
 3132SOL    HW220856   1.293   0.242   7.878  0.9191 -2.3804 -3.1075
 3133SOL     OW20857   1.214   1.696   3.229 -0.1438  0.2277 -0.0129
 3133SOL    HW120858   1.173   1.765   3.178  0.1975 -0.4130 -1.1512
 3133SOL    HW220859   1.221   1.619   3.172  3.7878 -1.0958  2.2502
 3134SOL     OW20860   4.665   4.012   7.770 -0.2045  0.2941  0.0030
 3134SOL    HW120861   4.592   4.070   7.791  2.5017  3.5981  0.3417
 3134SOL    HW220862   0.008   4.082   7.759 -1.2408  0.7265 -3.5550
 3135SOL     OW20863   0.533   4.227   4.135 -0.2377 -0.1651  0.3233
 3135SOL    HW120864   0.536   4.305   4.080 -2.1737  1.2585  2.2678
 3135SOL    HW220865   0.516   4.274   4.216 -0.1975 -2.3890  1.6104
 3136SOL     OW20866   0.446   4.018   5.412  0.5232 -0.7467  0.2602
 3136SOL    HW120867   0.415   4.099   5.453  1.0917 -1.2495  1.6941
 3136SOL    HW220868   0.376   3.957   5.434  0.1325 -0.2439  0.4228
 3137SOL     OW20869   1.283   0.081   5.568 -0.2814  0.4289 -0.4160
 3137SOL    HW120870   1.309   0.029   5.645  0.1606  1.3286  0.0491
 3137SOL    HW220871   1.361   0.084   5.513 -0.5635 -2.5293 -0.9422
 3138SOL     OW20872   3.597   0.317   9.478 -0.1400 -0.1686  0.0415
 3138SOL    HW120873   3.607   0.383   9.409 -1.2034  1.4287  1.4206
 3138SOL    HW220874   3.605   0.228   9.444 -0.4564 -0.0933 -0.2296
 3139SOL     OW20875   2.543   0.353   0.877  0.3623  0.0923  0.6362
 3139SOL    HW120876   2.622   0.354   0.932  1.5390 -4.6100 -0.9665
 3139SOL    HW220877   2.590   0.361   0.794  1.3952  2.3434  1.4484
 3140SOL     OW20878   0.994   0.149  16.538  0.2363 -0.5574 -0.4231
 3140SOL    HW120879   1.054   0.074  16.532  0.1989 -0.3407 -3.2889
 3140SOL    HW220880   1.040   0.223  16.499 -1.4824  1.0005  0.5005
 3141SOL     OW20881   3.284   3.949   9.337 -0.0132  0.7015  0.3347
 3141SOL    HW120882   3.195   3.962   9.305  0.0163 -2.0189 -0.8805
 3141SOL    HW220883   3.306   4.035   9.374  2.0347 -0.2951  1.4430
 3142SOL     OW20884   2.565   0.628   6.867 -0.2748 -0.0241 -0.5610
 3142SOL    HW120885   2.609   0.696   6.918 -2.0113  0.0118  0.8807
 3142SOL    HW220886   2.514   0.580   6.932 -0.2740  0.6861 -0.0299
 3143SOL     OW20887   4.487   3.252   1.646 -0.4738  0.0083  0.0125
 3143SOL    HW120888   4.418   3.206   1.694  1.2451 -1.6259  0.9265
 3143SOL    HW220889   4.540   3.288   1.717 -1.2088  1.7548 -0.3334
 3144SOL     OW20890   0.574   0.287   1.690 -0.0665  0.6230 -0.2036
 3144SOL    HW120891   0.511   0.359   1.687  0.1166  0.7621 -0.6949
 3144SOL    HW220892   0.577   0.281   1.594 -2.8449  1.6158 -0.3579
 3145SOL     OW20893   2.176   2.322   3.568  0.1922  0.2189 -0.3157
 3145SOL    HW120894   2.086   2.320   3.600  0.7871  0.3232  1.3805
 3145SOL    HW220895   2.176   2.239   3.521 -3.3534 -0.2015  0.4589
 3146SOL     OW20896   4.701   1.818  15.065  0.1743  0.3362 -0.2112
 3146SOL    HW120897   4.714   1.895  15.009  1.6778  0.3368  0.1199
 3146SOL    HW220898   0.020   1.748  15.015 -1.9153 -0.4497 -0.7962
 3147SOL     OW20899   4.296   3.432   4.586 -0.4592  0.2318 -0.3308
 3147SOL    HW120900   4.201   3.425   4.588 -0.4576  0.3421  0.1336
 3147SOL    HW220901   4.309   3.366   4.655  1.1575  0.7464 -0.1420
 3148SOL     OW20902   2.886   3.211   2.479 -0.3397 -0.1491  0.0361
 3148SOL    HW120903   2.844   3.133   2.515  0.3145 -0.2800  0.5326
 3148SOL    HW220904   2.975   3.174   2.483  0.4730  1.5980 -1.9959
 3149SOL     OW20905   2.468   2.768  17.405  0.0774  0.7301 -0.3545
 3149SOL    HW120906   2.381   2.800  17.430 -0.3796 -0.1029 -0.8959
 3149SOL    HW220907   2.522   2.789  17.481 -0.0266  0.6341 -0.2556
 3150SOL     OW20908   1.891   1.316   5.619 -0.4340 -0.3981  0.2434
 3150SOL    HW120909   1.891   1.274   5.704 -2.0913 -0.6982  0.1036
 3150SOL    HW220910   1.817   1.276   5.573  0.3584  0.0007 -1.3881
 3151SOL     OW20911   3.638   3.668  15.252  0.0982 -0.4884 -0.0202
 3151SOL    HW120912   3.593   3.585  15.268  0.9236 -1.0227 -0.4958
 3151SOL    HW220913   3.613   3.719  15.329  0.1311 -1.0286  0.3451
 3152SOL     OW20914   3.789   3.925   5.724 -0.3553 -0.2706 -0.1723
 3152SOL    HW120915   3.712   3.880   5.689 -0.3387 -1.0998  0.8450
 3152SOL    HW220916   3.808   3.982   5.650  1.6940 -2.4818 -1.3495
 3153SOL     OW20917   2.233   4.279   3.300 -0.6176  0.2831  0.0879
 3153SOL    HW120918   2.300   4.333   3.258  0.9957 -0.8223  1.2589
 3153SOL    HW220919   2.228   4.213   3.231 -2.2777 -1.0432  1.4824
 3154SOL     OW20920   3.586   4.220   8.109  0.0185  0.0798  0.6863
 3154SOL    HW120921   3.597   4.169   8.189  1.2534  0.6328  0.8628
 3154SOL    HW220922   3.653   4.173   8.058 -1.6600 -1.4992 -0.0721
 3155SOL     OW20923   1.632   2.203  12.266 -0.1267  0.1976 -0.1907
 3155SOL    HW120924   1.557   2.143  12.266  0.3122 -0.3504 -0.8204
 3155SOL    HW220925   1.713   2.167  12.301 -0.2119  1.0661  0.8807
 3156SOL     OW20926   3.908   2.308   2.567 -0.3484 -0.1054  0.2312
 3156SOL    HW120927   3.896   2.344   2.655  0.6843  1.9856 -0.4851
 3156SOL    HW220928   3.819   2.295   2.533 -0.0280 -0.8751 -0.3127
 3157SOL     OW20929   0.468   0.801   5.675 -0.3861 -0.7901  0.6313
 3157SOL    HW120930   0.550   0.774   5.633  0.8923  1.5597  1.6274
 3157SOL    HW220931   0.400   0.793   5.608  0.0340 -2.6104  0.4149
 3158SOL     OW20932   0.181   3.124   6.459 -0.5164 -0.1495  0.2998
 3158SOL    HW120933   0.145   3.051   6.410 -1.0522 -1.2896  2.3685
 3158SOL    HW220934   0.221   3.173   6.387  0.0157 -0.9356  0.0555
 3159SOL     OW20935   0.894   0.190   2.509 -0.3916 -0.4260 -0.6697
 3159SOL    HW120936   0.941   0.142   2.578 -0.1589 -2.5213 -2.2684
 3159SOL    HW220937   0.909   0.274   2.551 -0.6441 -0.6939 -0.0500
 3160SOL     OW20938   0.912   1.134  13.978  0.2258 -0.1984 -0.0422
 3160SOL    HW120939   0.934   1.212  14.028 -0.8128  0.3797 -0.4919
 3160SOL    HW220940   0.884   1.069  14.044  2.1213 -0.9831 -0.0222
 3161SOL     OW20941   3.030   3.983   7.762  0.5673  0.2476 -0.4592
 3161SOL    HW120942   3.083   4.061   7.745 -1.3406  1.9619  1.4278
 3161SOL    HW220943   3.077   3.940   7.834 -1.9420 -1.1360  0.3397
 3162SOL     OW20944   2.333   2.654  16.381 -0.2331  0.2454  0.7584
 3162SOL    HW120945   2.376   2.709  16.446 -0.3525 -1.5473  2.3374
 3162SOL    HW220946   2.258   2.713  16.368 -1.5789 -1.5711  0.3350
 3163SOL     OW20947   2.866   2.210   9.581  0.0822  0.7873  0.7375
 3163SOL    HW120948   2.871   2.219   9.486  2.1605  1.2994  0.8844
 3163SOL    HW220949   2.914   2.127   9.593 -1.0146  0.2650  1.5288
 3164SOL     OW20950   4.648   4.261   1.391  0.2304  0.2221 -0.0044
 3164SOL    HW120951   4.690   4.223   1.314  1.5382  4.0065 -1.1012
 3164SOL    HW220952   4.605   4.179   1.417 -1.6696  0.5854 -2.0103
 3165SOL     OW20953   2.399   1.963   8.025  0.8792 -0.0864 -0.6388
 3165SOL    HW120954   2.452   2.008   8.091  0.4005 -1.6288  0.7917
 3165SOL    HW220955   2.345   1.909   8.082  0.6524  1.1994  0.3659
 3166SOL     OW20956   0.544   4.360   2.806 -0.1614  0.0406 -0.3144
 3166SOL    HW120957   0.545   4.408   2.723 -1.0168  1.6293  0.6038
 3166SOL    HW220958   0.458   4.388   2.837 -0.2476 -1.0053  0.3957
 3167SOL     OW20959   2.809   4.080   4.623  0.0938  0.3426 -0.1470
 3167SOL    HW120960   2.802   4.133   4.702 -2.5872  1.3368 -1.0848
 3167SOL    HW220961   2.828   4.154   4.566 -0.2932  0.3097 -0.3172
 3168SOL     OW20962   0.190   4.622  11.241 -0.1839  0.3169  0.2127
 3168SOL    HW120963   0.123   4.668  11.291 -1.3325 -1.1609  0.0044
 3168SOL    HW220964   0.252   4.602  11.312 -1.3888  0.3617  1.2886
 3169SOL     OW20965   3.410   1.877  11.741  0.0924  0.2939  0.7785
 3169SOL    HW120966   3.428   1.879  11.835  1.6797  0.4302  0.4744
 3169SOL    HW220967   3.496   1.861  11.702 -1.5345 -2.3402 -1.7033
 3170SOL     OW20968   0.950   3.975   1.493 -0.1854 -0.1710  0.7703
 3170SOL    HW120969   0.883   3.932   1.546 -0.4048 -0.5598  0.1836
 3170SOL    HW220970   0.905   4.057   1.469 -0.8777 -1.2477 -1.6340
 3171SOL     OW20971   2.172   0.758   1.940 -0.0790  0.0251  0.1587
 3171SOL    HW120972   2.260   0.793   1.955  0.7345 -0.1323 -4.1391
 3171SOL    HW220973   2.123   0.838   1.956 -1.3835 -0.7825  0.1503
 3172SOL     OW20974   3.637   0.825   9.198 -0.4472 -0.6374 -0.3183
 3172SOL    HW120975   3.663   0.875   9.276  1.2377  0.1590 -1.4038
 3172SOL    HW220976   3.723   0.816   9.156 -1.0930  1.4713 -2.0876
 3173SOL     OW20977   3.491   1.613  12.946 -0.2775 -0.4859  0.2077
 3173SOL    HW120978   3.484   1.517  12.943  0.5392 -0.5701  0.9132
 3173SOL    HW220979   3.410   1.650  12.912  0.3988 -0.2482 -1.1681
 3174SOL     OW20980   4.615   0.148  14.492 -0.1973 -0.1548 -0.2326
 3174SOL    HW120981   4.623   0.161  14.586 -0.5849  0.8004 -0.3359
 3174SOL    HW220982   4.673   0.221  14.471 -0.6473  0.6730  1.4588
 3175SOL     OW20983   0.247   0.758   2.119 -0.4450 -0.3935  0.6053
 3175SOL    HW120984   0.191   0.830   2.089 -2.4248 -2.3846 -0.4816
 3175SOL    HW220985   0.262   0.719   2.032  2.3157 -0.7471  1.2589
 3176SOL     OW20986   4.413   4.600  13.565 -0.2444 -0.0117  0.2373
 3176SOL    HW120987   4.351   4.528  13.570 -1.4075  1.1552  2.2714
 3176SOL    HW220988   4.364   4.662  13.618 -0.8665 -0.1817 -0.1462
 3177SOL     OW20989   3.002   1.520  14.049 -0.3451 -0.5683  0.0715
 3177SOL    HW120990   2.944   1.466  13.996  1.4127 -0.1937 -2.2604
 3177SOL    HW220991   3.088   1.487  14.022 -0.1931 -0.0917 -0.0386
 3178SOL     OW20992   1.613   3.719  10.941  1.0943  0.1027  0.0101
 3178SOL    HW120993   1.675   3.789  10.961 -0.1224  1.8362 -2.2784
 3178SOL    HW220994   1.563   3.717  11.023  1.3324  1.5337  0.1954
 3179SOL     OW20995   0.189   2.966  15.257 -0.6155  0.6287  0.7899
 3179SOL    HW120996   0.137   3.036  15.219  0.1496  0.6095 -0.2828
 3179SOL    HW220997   0.210   2.997  15.346 -0.2497  1.0929  0.5407
 3180SOL     OW20998   4.096   2.452  13.471 -0.5911 -0.0035 -0.2419
 3180SOL    HW120999   4.132   2.372  13.510  1.6042  1.6491  1.0829
 3180SOL    HW221000   4.172   2.482  13.421 -1.4965  0.5274 -1.3101
 3181SOL     OW21001   3.577   4.282   5.467 -0.6542  0.6996  0.8480
 3181SOL    HW121002   3.539   4.232   5.540 -0.7361  0.0627  0.3722
 3181SOL    HW221003   3.666   4.250   5.481 -0.8831  0.1195  0.9937
 3182SOL     OW21004   4.074   3.885   5.575  0.6621  0.0031  0.2051
 3182SOL    HW121005   4.133   3.958   5.592 -0.5867  0.6341  1.8772
 3182SOL    HW221006   4.029   3.916   5.496  2.0808  3.4893  0.7747
 3183SOL     OW21007   2.686   0.840   6.396 -0.4794  0.0773 -0.7577
 3183SOL    HW121008   2.609   0.784   6.393 -1.4093  1.3993 -1.7374
 3183SOL    HW221009   2.646   0.918   6.357 -0.6442  0.4650  0.1883
 3184SOL     OW21010   1.206   2.538   9.592 -0.2950 -0.2101  0.0245
 3184SOL    HW121011   1.132   2.549   9.532 -0.1605 -1.3116 -0.3460
 3184SOL    HW221012   1.262   2.473   9.549 -0.1403  0.8760 -1.4357
 3185SOL     OW21013   0.932   0.062   3.225 -0.4229 -0.1417 -0.1574
 3185SOL    HW121014   0.838   0.078   3.229 -0.7252 -1.3236 -2.3075
 3185SOL    HW221015   0.945   4.708   3.281  0.1233  1.1165  1.4238
 3186SOL     OW21016   2.962   2.223   1.151  0.1476 -0.2222  0.1856
 3186SOL    HW121017   3.028   2.292   1.140 -1.7199  1.2063 -2.0508
 3186SOL    HW221018   3.001   2.170   1.081 -1.8247 -0.2901 -0.8628
 3187SOL     OW21019   4.048   2.295   5.508  0.3523  0.4899  0.1771
 3187SOL    HW121020   4.126   2.247   5.536  0.2232 -1.1644 -2.2668
 3187SOL    HW221021   4.005   2.296   5.594 -2.8391  1.5589 -1.4374
 3188SOL     OW21022   0.070   3.682   6.496  0.6132  0.2612 -0.2183
 3188SOL    HW121023   0.093   3.599   6.454  0.8324 -0.1721  0.7552
 3188SOL    HW221024   0.011   3.636   6.555  0.9210 -0.2085 -0.2780
 3189SOL     OW21025   2.942   1.697   6.924  0.4306 -0.4769  0.0595
 3189SOL    HW121026   2.897   1.731   6.847  0.9503 -0.1132 -0.0816
 3189SOL    HW221027   2.873   1.647   6.966  0.6811 -0.9234 -0.0662
 3190SOL     OW21028   3.468   2.488  13.869  0.4068  0.0912  0.0287
 3190SOL    HW121029   3.460   2.545  13.793  1.2271 -0.6722 -0.6338
 3190SOL    HW221030   3.563   2.474  13.871  0.2426 -1.2343 -1.4364
 3191SOL     OW21031   0.293   3.977   9.525 -0.2421  0.1273 -0.3887
 3191SOL    HW121032   0.351   3.946   9.456 -1.7548  1.4571 -2.2490
 3191SOL    HW221033   0.264   4.052   9.475 -0.2696  0.3061 -0.1054
 3192SOL     OW21034   4.459   1.051   0.569  0.2146 -0.9018  0.0854
 3192SOL    HW121035   4.528   1.016   0.626  2.6393  1.8144 -1.1943
 3192SOL    HW221036   4.498   1.056   0.482  1.7141  1.7697  0.9208
 3193SOL     OW21037   0.295   1.600   2.580 -0.0109  0.4468  0.1974
 3193SOL    HW121038   0.301   1.650   2.662 -1.4193 -2.3091  1.9877
 3193SOL    HW221039   0.379   1.559   2.559  0.1947  1.3352 -0.6892
 3194SOL     OW21040   3.768   0.102   7.159  0.0951 -0.1875 -0.2529
 3194SOL    HW121041   3.794   0.187   7.124 -0.1924 -0.6408 -1.5737
 3194SOL    HW221042   3.673   0.115   7.149  0.2566  0.7397 -0.6185
 3195SOL     OW21043   3.825   0.925   0.696  0.9347 -0.3816  0.0937
 3195SOL    HW121044   3.744   0.872   0.697  0.3560  0.5342  1.4952
 3195SOL    HW221045   3.785   1.011   0.709 -0.3463 -0.6345 -2.1814
 3196SOL     OW21046   0.229   4.320   3.339 -0.0930 -0.6675 -0.6340
 3196SOL    HW121047   0.185   4.300   3.421  1.2913  0.3149  0.3379
 3196SOL    HW221048   0.153   4.325   3.281  0.2082 -1.5658 -1.1094
 3197SOL     OW21049   1.744   0.486   0.526 -0.0496 -0.6596  0.1325
 3197SOL    HW121050   1.781   0.492   0.614  0.2610  0.1991 -0.0559
 3197SOL    HW221051   1.822   0.455   0.480 -0.6497 -1.7654 -0.1247
 3198SOL     OW21052   3.972   3.627  12.041 -0.6229 -0.3632  1.1042
 3198SOL    HW121053   3.951   3.715  12.074  1.5599  0.8786 -0.8343
 3198SOL    HW221054   3.885   3.600  12.013 -1.4670  0.6375  2.7464
 3199SOL     OW21055   4.646   3.793  13.399  0.2888 -0.2993 -0.6548
 3199SOL    HW121056   4.628   3.699  13.393 -0.5682 -0.2941  2.0995
 3199SOL    HW221057   4.668   3.810  13.490  0.9956 -2.8626 -0.3466
 3200SOL     OW21058   1.199   3.101   8.471 -0.3455  0.1161  0.1519
 3200SOL    HW121059   1.224   3.164   8.403 -2.8698 -0.6944 -1.5383
 3200SOL    HW221060   1.232   3.149   8.547 -0.2066 -0.7546  0.6316
 3201SOL     OW21061   2.180   0.712  14.356 -0.0714 -0.6669 -0.0785
 3201SOL    HW121062   2.274   0.728  14.362 -0.0323 -1.7903  2.5263
 3201SOL    HW221063   2.150   0.744  14.271  1.7283  2.2624  0.3786
 3202SOL     OW21064   0.852   3.031   4.222 -0.4188  0.2900 -0.2963
 3202SOL    HW121065   0.922   3.089   4.251 -0.5951 -0.1684  1.0373
 3202SOL    HW221066   0.782   3.064   4.278 -1.3884 -0.8203 -0.8330
 3203SOL     OW21067   2.711   1.659   4.074  0.1282  0.3874 -0.3353
 3203SOL    HW121068   2.688   1.579   4.121 -1.0776  1.3719  0.7688
 3203SOL    HW221069   2.747   1.621   3.994 -1.3867  0.4263 -1.0553
 3204SOL     OW21070   1.660   3.868   7.465 -0.2998 -0.2444  0.1491
 3204SOL    HW121071   1.700   3.935   7.522  0.1560 -0.1159 -0.3230
 3204SOL    HW221072   1.575   3.910   7.451 -0.1188 -0.1294 -0.6123
 3205SOL     OW21073   4.371   3.171  12.585 -0.4652  0.1515 -0.1603
 3205SOL    HW121074   4.466   3.170  12.595 -0.3869 -0.2533 -0.9404
 3205SOL    HW221075   4.336   3.165  12.674 -1.3487 -0.8858 -0.5675
 3206SOL     OW21076   3.954   1.733  11.495  0.6503 -0.2825 -0.1325
 3206SOL    HW121077   3.930   1.823  11.519  1.5131 -0.3936  1.1489
 3206SOL    HW221078   4.047   1.736  11.518  1.7243 -1.0874 -4.3730
 3207SOL     OW21079   1.768   0.515  17.303 -0.1779 -0.0022  0.1769
 3207SOL    HW121080   1.739   0.515  17.394  0.2621  3.3325  0.2998
 3207SOL    HW221081   1.863   0.501  17.303 -0.3470 -1.1376  0.0627
 3208SOL     OW21082   0.838   4.467   0.135  0.4163  0.8694 -0.3654
 3208SOL    HW121083   0.812   4.479   0.226  2.2438 -3.3149  0.6911
 3208SOL    HW221084   0.787   4.536   0.092 -0.1443 -0.3279 -1.6118
 3209SOL     OW21085   0.382   3.373   2.098  0.0737  0.0279  0.4569
 3209SOL    HW121086   0.375   3.378   2.193  3.6463 -2.0478  0.8466
 3209SOL    HW221087   0.300   3.415   2.072  0.9461  0.6895 -1.2528
 3210SOL     OW21088   4.472   0.207   4.716  0.4513 -0.0757  0.2009
 3210SOL    HW121089   4.517   0.132   4.753  0.1628 -1.0006 -1.2882
 3210SOL    HW221090   4.527   0.279   4.745  2.1686 -1.6419  0.7789
 3211SOL     OW21091   1.145   3.395  15.471 -0.0094  0.0924  0.0700
 3211SOL    HW121092   1.195   3.428  15.396  1.3456  0.9016  1.3340
 3211SOL    HW221093   1.066   3.360  15.431  0.1904 -0.7742  0.4294
 3212SOL     OW21094   3.993   0.063   3.499  0.7549  0.4963 -0.3617
 3212SOL    HW121095   4.064   4.720   3.505  0.7194  0.5411  0.5845
 3212SOL    HW221096   3.929   0.023   3.558  1.2051  0.1310 -0.1135
 3213SOL     OW21097   3.889   3.398  16.526  0.4886 -0.2705  0.3093
 3213SOL    HW121098   3.873   3.493  16.525  0.7670 -0.2242 -1.4877
 3213SOL    HW221099   3.979   3.386  16.494  0.3591  0.3168 -0.2714
 3214SOL     OW21100   1.551   0.171   0.487  0.0865  0.3448 -0.2780
 3214SOL    HW121101   1.504   0.254   0.485 -0.6583 -0.0357  1.4476
 3214SOL    HW221102   1.621   0.187   0.424 -0.0007 -1.1086 -0.7590
 3215SOL     OW21103   1.777   2.427   2.545  0.3576 -0.5760 -0.1900
 3215SOL    HW121104   1.691   2.400   2.512  0.2350 -0.8635  0.3642
 3215SOL    HW221105   1.825   2.471   2.475  0.2744 -2.3477 -1.3797
 3216SOL     OW21106   3.716   2.712   0.251  0.1319  0.1592  0.1272
 3216SOL    HW121107   3.659   2.636   0.263 -0.4597  0.4445 -0.8361
 3216SOL    HW221108   3.675   2.766   0.319 -0.3282  0.2052 -0.1920
 3217SOL     OW21109   3.813   3.387  11.400 -0.2855  0.0182  0.1694
 3217SOL    HW121110   3.727   3.417  11.371 -0.0841  1.3725  0.9561
 3217SOL    HW221111   3.869   3.436  11.340  0.0725 -0.7491 -0.1238
 3218SOL     OW21112   4.710   3.615   9.727  0.0564 -0.7857 -0.1825
 3218SOL    HW121113   4.702   3.520   9.732 -0.4897 -0.7508 -0.3710
 3218SOL    HW221114   0.079   3.629   9.751  0.4596 -1.6536 -1.2321
 3219SOL     OW21115   0.193   0.702   1.778 -0.6578  0.5056 -0.1719
 3219SOL    HW121116   0.280   0.731   1.750  0.0381 -0.2269  1.2288
 3219SOL    HW221117   0.214   0.609   1.789 -0.0928  0.6347 -0.1647
 3220SOL     OW21118   2.869   0.842  10.561 -0.1208 -0.2822 -0.4332
 3220SOL    HW121119   2.908   0.756  10.580 -1.7481 -1.5697 -2.9085
 3220SOL    HW221120   2.950   0.891  10.572  0.7074 -1.9311  0.7236
 3221SOL     OW21121   1.051   1.366   3.787  0.1456 -0.0583 -0.4598
 3221SOL    HW121122   1.007   1.282   3.803  0.3855  0.1205  1.1034
 3221SOL    HW221123   1.042   1.381   3.693 -0.1493  1.7916 -0.1284
 3222SOL     OW21124   1.725   0.394   6.522  0.1015  0.3162 -0.3574
 3222SOL    HW121125   1.771   0.471   6.490 -0.9151  0.8898 -0.4380
 3222SOL    HW221126   1.748   0.397   6.615  0.3897 -1.1325 -0.3881
 3223SOL     OW21127   4.332   0.448   3.212  0.1210 -0.1209  0.4925
 3223SOL    HW121128   4.407   0.461   3.270  1.2343  2.6281 -1.6242
 3223SOL    HW221129   4.383   0.452   3.132 -1.0089 -0.1074 -0.2315
 3224SOL     OW21130   1.511   0.599  16.323  0.4463  0.0701  0.1402
 3224SOL    HW121131   1.548   0.588  16.410 -0.2509 -0.4983  0.3668
 3224SOL    HW221132   1.578   0.641  16.269 -0.7518  0.2053 -1.2498
 3225SOL     OW21133   0.074   2.695  10.064 -0.8187  0.2515 -0.1192
 3225SOL    HW121134   0.034   2.770  10.020 -2.1342 -0.6897 -0.5409
 3225SOL    HW221135   0.024   2.624  10.023 -0.2001 -0.0518 -0.3471
 3226SOL     OW21136   2.544   0.283   3.931  0.1870  0.7628 -0.2737
 3226SOL    HW121137   2.589   0.270   3.848 -1.1067  0.5401 -0.9279
 3226SOL    HW221138   2.611   0.253   3.993  0.9990  1.5446 -0.7748
 3227SOL     OW21139   2.402   3.503   6.606 -0.3399 -0.3135  0.0625
 3227SOL    HW121140   2.400   3.536   6.696  1.9755 -0.9871  0.3423
 3227SOL    HW221141   2.468   3.567   6.580  2.2446 -2.6317  1.0031
 3228SOL     OW21142   1.754   4.414   8.284  0.3929  0.7841  0.0212
 3228SOL    HW121143   1.823   4.473   8.313  1.7013  0.1035 -1.7236
 3228SOL    HW221144   1.798   4.365   8.214  1.4318  0.2261  1.0704
 3229SOL     OW21145   1.808   2.278  14.886  0.3511 -0.3320 -0.2992
 3229SOL    HW121146   1.722   2.236  14.887 -0.1187  0.5987 -0.8284
 3229SOL    HW221147   1.788   2.365  14.921  1.4088 -0.7410  1.3498
 3230SOL     OW21148   3.140   3.356  12.119 -0.1046 -0.2860 -0.2418
 3230SOL    HW121149   3.047   3.348  12.138  0.4962  1.3966  3.4553
 3230SOL    HW221150   3.146   3.380  12.027  0.8381  0.9921  0.1505
 3231SOL     OW21151   4.408   4.076  10.053  0.4646 -0.4043 -0.0244
 3231SOL    HW121152   4.314   4.086  10.069  0.3783 -2.5849  0.7765
 3231SOL    HW221153   4.413   4.081   9.957  0.9217  1.6046  0.0978
 3232SOL     OW21154   1.202   2.767   2.630  0.4064 -0.4780 -0.3846
 3232SOL    HW121155   1.171   2.849   2.591 -3.4990 -1.9659 -0.4770
 3232SOL    HW221156   1.227   2.710   2.557 -2.4539 -0.7604 -1.1815
 3233SOL     OW21157   3.349   2.106   5.477  0.2367  1.0583 -0.2256
 3233SOL    HW121158   3.420   2.095   5.541  0.5251 -1.1297 -0.9146
 3233SOL    HW221159   3.395   2.115   5.393 -0.5668  1.8924 -0.5674
 3234SOL     OW21160   0.198   2.407  11.464 -0.0086  0.3962  0.8830
 3234SOL    HW121161   0.293   2.398  11.461 -0.0849  0.3772 -1.0075
 3234SOL    HW221162   0.197   2.475  11.532  0.3358  0.4842  0.8025
 3235SOL     OW21163   4.561   2.411   3.971  0.3572 -0.4647 -0.3605
 3235SOL    HW121164   4.578   2.438   3.881  2.2605 -2.2799 -0.5609
 3235SOL    HW221165   4.466   2.403   3.977  0.4890  0.3795  2.6396
 3236SOL     OW21166   1.178   3.941   8.653 -0.7135 -0.0130  0.1462
 3236SOL    HW121167   1.270   3.952   8.677 -0.7636 -0.0983  0.3771
 3236SOL    HW221168   1.163   4.031   8.626  2.3682  1.0337  1.9719
 3237SOL     OW21169   1.895   0.513   4.124  0.0975 -0.4564  0.1347
 3237SOL    HW121170   1.932   0.600   4.110 -0.3490  0.0367  1.9181
 3237SOL    HW221171   1.928   0.472   4.045 -0.2439  0.2784 -0.3858
 3238SOL     OW21172   2.584   4.459   1.054  0.8078 -0.0478  0.9505
 3238SOL    HW121173   2.594   4.538   1.000 -1.2359  1.2366  2.4377
 3238SOL    HW221174   2.499   4.421   1.032  1.1792  0.0135 -0.5761
 3239SOL     OW21175   4.300   3.433   6.650 -0.4013 -0.5430 -0.1061
 3239SOL    HW121176   4.255   3.470   6.726  1.9817 -0.8726  1.4443
 3239SOL    HW221177   4.369   3.378   6.686 -0.4021 -0.1439  0.4947
 3240SOL     OW21178   4.552   2.134  11.335  0.3501  0.2149 -0.2384
 3240SOL    HW121179   4.511   2.218  11.355  2.6632  1.0410  0.9589
 3240SOL    HW221180   4.572   2.152  11.243  0.2807  2.5054  0.1905
 3241SOL     OW21181   1.084   1.172   6.311 -0.0079 -0.0923  0.2272
 3241SOL    HW121182   1.175   1.151   6.291  0.4537  1.9710  0.1854
 3241SOL    HW221183   1.083   1.253   6.361 -0.1581  1.4573 -2.2895
 3242SOL     OW21184   3.986   4.612   6.601 -1.4712  0.0661 -0.5534
 3242SOL    HW121185   3.905   4.624   6.652  0.6429  2.5994  2.1971
 3242SOL    HW221186   4.045   4.671   6.647 -1.5075 -0.1844 -0.1760
 3243SOL     OW21187   3.903   0.940   2.239  0.0783 -0.3484  0.0727
 3243SOL    HW121188   3.871   1.029   2.227  2.8890  0.8951  1.5490
 3243SOL    HW221189   3.929   0.945   2.332  1.1708  0.8926 -0.2907
 3244SOL     OW21190   1.604   0.387  15.867 -0.3495 -1.3519  0.3705
 3244SOL    HW121191   1.688   0.428  15.884 -2.4580  2.6259  1.2533
 3244SOL    HW221192   1.574   0.448  15.800 -0.4421 -0.4998  1.1925
 3245SOL     OW21193   1.183   4.237  17.295  0.4287  0.5116  0.4606
 3245SOL    HW121194   1.144   4.159  17.255 -1.4675  0.5126  2.3161
 3245SOL    HW221195   1.105   4.281  17.329  0.0974  0.4512 -0.2061
 3246SOL     OW21196   1.776   0.647   3.520  0.4013 -0.0130 -0.1695
 3246SOL    HW121197   1.774   0.551   3.516  0.2730 -0.0510  0.8025
 3246SOL    HW221198   1.869   0.665   3.526  0.5701 -1.0539  0.3964
 3247SOL     OW21199   3.110   1.033  10.478 -0.1546  0.6837  0.2232
 3247SOL    HW121200   3.089   1.018  10.386  1.9330 -3.9898  0.5555
 3247SOL    HW221201   3.200   1.005  10.461 -0.3132 -0.1849  0.8335
 3248SOL     OW21202   1.935   2.624  13.425  0.5079 -0.2947  0.2162
 3248SOL    HW121203   2.024   2.589  13.436  0.4024 -0.3724  0.8032
 3248SOL    HW221204   1.915   2.604  13.334 -1.3286  1.7833  0.1663
 3249SOL     OW21205   2.378   1.418   6.285  0.2305  0.9847  0.3697
 3249SOL    HW121206   2.376   1.328   6.254  0.2960  1.0678  0.1204
 3249SOL    HW221207   2.394   1.390   6.375  2.2536  1.7141  0.2448
 3250SOL     OW21208   0.823   4.157   3.079  0.2437  0.0279  0.0402
 3250SOL    HW121209   0.754   4.107   3.123 -0.7542  0.7977 -0.6488
 3250SOL    HW221210   0.877   4.170   3.158 -0.1923  3.3984 -0.2001
 3251SOL     OW21211   1.422   2.333  15.749 -0.3254  0.8210 -0.1455
 3251SOL    HW121212   1.460   2.357  15.664 -2.3895 -0.1167 -1.3153
 3251SOL    HW221213   1.386   2.247  15.728  0.7154  0.4800 -0.5422
 3252SOL     OW21214   1.814   3.819   6.672  0.2988  0.2185  0.2247
 3252SOL    HW121215   1.896   3.860   6.699 -0.9236  1.5855  1.8125
 3252SOL    HW221216   1.838   3.820   6.579 -1.8404 -1.2941 -0.3437
 3253SOL     OW21217   2.788   1.838  11.757  0.1375  0.1424  0.2606
 3253SOL    HW121218   2.817   1.749  11.740 -0.3345 -0.5256  2.9665
 3253SOL    HW221219   2.693   1.830  11.756  0.0661  1.0871 -0.2048
 3254SOL     OW21220   1.606   3.416  10.262 -0.6696 -0.0492 -0.4741
 3254SOL    HW121221   1.529   3.469  10.243  0.4446  1.8541  0.3758
 3254SOL    HW221222   1.676   3.464  10.217  0.2952  0.5517  1.6562
 3255SOL     OW21223   2.558   1.293   5.812  0.3323  0.2776  0.4419
 3255SOL    HW121224   2.509   1.343   5.747 -0.5005  0.4978  1.2428
 3255SOL    HW221225   2.512   1.209   5.811 -0.3770  0.6905 -1.7066
 3256SOL     OW21226   4.584   0.798   4.367 -0.1771 -0.1613 -0.0894
 3256SOL    HW121227   4.532   0.726   4.401 -1.8229  1.4042  0.7108
 3256SOL    HW221228   4.672   0.760   4.375  0.4873  1.4722  0.4235
 3257SOL     OW21229   4.619   0.783   2.505 -0.3320 -0.5489 -0.1684
 3257SOL    HW121230   4.687   0.729   2.464  1.3348  0.7146  0.9443
 3257SOL    HW221231   4.546   0.722   2.500  0.3349 -1.1899 -2.2801
 3258SOL     OW21232   2.156   0.286   5.669  0.3693  0.7401 -0.5085
 3258SOL    HW121233   2.110   0.218   5.621  3.1321 -0.1113 -1.9764
 3258SOL    HW221234   2.145   0.355   5.603  0.3367  2.3162  1.1612
 3259SOL     OW21235   1.355   0.007   2.178 -0.6079  0.1119 -0.2359
 3259SOL    HW121236   1.317   4.644   2.202  0.1079 -0.0100  0.4831
 3259SOL    HW221237   1.300   0.064   2.231 -0.5529  0.9077 -1.0354
 3260SOL     OW21238   4.339   3.577  13.235  0.2372  0.0151  0.2790
 3260SOL    HW121239   4.337   3.489  13.198  1.7049 -0.0125  0.2752
 3260SOL    HW221240   4.421   3.570  13.284 -0.3505  1.2337  1.4695
 3261SOL     OW21241   2.148   2.468  17.052  0.0600  0.0111  0.8354
 3261SOL    HW121242   2.189   2.529  17.114  0.2126 -0.0137  0.7588
 3261SOL    HW221243   2.095   2.522  16.993  0.7325 -1.0420 -0.7098
 3262SOL     OW21244   0.328   0.859   6.595  0.9275  0.5361 -0.4494
 3262SOL    HW121245   0.301   0.770   6.618 -0.4580  1.6368  2.2576
 3262SOL    HW221246   0.372   0.888   6.675  0.0998  0.3172  0.0928
 3263SOL     OW21247   4.704   2.843   3.665 -0.5095 -0.7484 -0.3291
 3263SOL    HW121248   0.070   2.824   3.631 -0.0420  0.2418  0.3394
 3263SOL    HW221249   4.676   2.913   3.606 -1.1937  0.1287  1.0507
 3264SOL     OW21250   2.960   3.600   4.804  0.6893  0.3418 -0.1247
 3264SOL    HW121251   2.971   3.684   4.760 -1.6437  0.5763 -0.2420
 3264SOL    HW221252   2.889   3.623   4.864 -1.1308 -1.6028 -1.5287
 3265SOL     OW21253   0.303   3.449   2.609 -0.1552 -0.3073 -0.0327
 3265SOL    HW121254   0.302   3.361   2.648  2.8407 -0.6764 -0.7936
 3265SOL    HW221255   0.321   3.508   2.683  0.0698 -1.1349  0.5728
 3266SOL     OW21256   1.121   0.593   3.536 -0.6358  0.6680  0.5542
 3266SOL    HW121257   1.201   0.563   3.493 -1.0916 -0.5026  0.5184
 3266SOL    HW221258   1.151   0.679   3.567  1.1031  0.3080 -0.1084
 3267SOL     OW21259   0.456   1.251   6.081  0.4087  0.4194  0.5768
 3267SOL    HW121260   0.522   1.233   6.147 -1.0132  0.0961  1.9210
 3267SOL    HW221261   0.426   1.163   6.055  1.3893  0.5399 -0.9494
 3268SOL     OW21262   0.910   3.325  17.626 -0.2575  0.0998  0.8149
 3268SOL    HW121263   0.846   3.276  17.678 -0.0382 -0.7142  0.3194
 3268SOL    HW221264   0.857   3.403  17.609  0.0583  0.2399  0.4755
 3269SOL     OW21265   0.309   0.973   3.694  0.3567 -0.3372 -0.3162
 3269SOL    HW121266   0.238   0.925   3.739  0.8950 -1.9681 -1.1961
 3269SOL    HW221267   0.265   1.037   3.637  2.2567  1.4976  0.3203
 3270SOL     OW21268   2.135   0.826  13.458 -0.0208 -0.5747 -0.2669
 3270SOL    HW121269   2.065   0.776  13.417  0.1964  0.2221 -1.6170
 3270SOL    HW221270   2.081   0.868  13.525  1.2479 -0.4303  0.6776
 3271SOL     OW21271   0.596   0.086   0.349  0.1787  0.4110  0.0618
 3271SOL    HW121272   0.631   0.068   0.437  0.9520  1.3720 -0.0353
 3271SOL    HW221273   0.506   0.096   0.378  0.2957  0.7871  0.3116
 3272SOL     OW21274   1.279   0.531  12.905  0.2854  0.3853 -0.4279
 3272SOL    HW121275   1.374   0.522  12.903  0.4757  2.3345 -0.3688
 3272SOL    HW221276   1.270   0.619  12.942 -1.8766  1.1590 -2.8243
 3273SOL     OW21277   1.213   0.753   8.003 -0.0970 -0.1902 -0.4820
 3273SOL    HW121278   1.203   0.689   7.932  0.0707 -0.8433  0.0834
 3273SOL    HW221279   1.225   0.832   7.950  0.9164 -0.8726 -1.2529
 3274SOL     OW21280   3.164   1.140   4.124 -0.3105 -0.2598  0.3262
 3274SOL    HW121281   3.182   1.084   4.199 -0.3123  1.0337  1.3002
 3274SOL    HW221282   3.212   1.221   4.142 -0.4537 -0.1046  0.0172
 3275SOL     OW21283   3.139   3.764   5.702  0.1809  0.1920 -0.4754
 3275SOL    HW121284   3.174   3.823   5.636 -1.7167  0.2476 -1.4187
 3275SOL    HW221285   3.204   3.773   5.772  0.3399 -1.0583 -0.4498
 3276SOL     OW21286   3.102   1.138  15.387 -0.3423  0.0743 -0.0004
 3276SOL    HW121287   3.090   1.215  15.332  4.4807  0.5574 -0.4277
 3276SOL    HW221288   3.035   1.154  15.453  0.2183  0.5146  0.4583
 3277SOL     OW21289   1.297   2.294   5.618  0.1377 -0.0417  0.2574
 3277SOL    HW121290   1.278   2.387   5.604  0.4905  0.4442  3.0468
 3277SOL    HW221291   1.211   2.253   5.630  0.6561 -0.6764  1.7935
 3278SOL     OW21292   2.384   2.077  13.401 -0.2866  0.1935  0.6695
 3278SOL    HW121293   2.399   1.984  13.413  0.7929  0.5475  1.9982
 3278SOL    HW221294   2.308   2.081  13.343  0.7531 -2.4007 -0.8843
 3279SOL     OW21295   2.259   4.351  14.366  0.4485 -0.1526  0.1874
 3279SOL    HW121296   2.198   4.285  14.397  0.9974 -0.0957  1.3985
 3279SOL    HW221297   2.218   4.434  14.392  1.0669  0.0653  0.4654
 3280SOL     OW21298   3.122   0.150  13.677 -0.8150  0.5618 -0.0066
 3280SOL    HW121299   3.063   0.225  13.672  0.7643  1.8777  1.3999
 3280SOL    HW221300   3.181   0.167  13.751 -0.1233  1.9408 -0.8705
 3281SOL     OW21301   0.746   0.532   3.137 -0.1416 -0.3103  0.0740
 3281SOL    HW121302   0.746   0.542   3.232 -0.7612 -1.5363  0.1973
 3281SOL    HW221303   0.686   0.605   3.120 -0.7331 -1.0417 -1.0149
 3282SOL     OW21304   2.919   4.635   2.871 -0.0183 -0.3870  0.4729
 3282SOL    HW121305   2.979   4.706   2.848 -1.1507  0.0547 -1.1163
 3282SOL    HW221306   2.842   4.668   2.825 -0.0340 -0.5919  0.3506
 3283SOL     OW21307   0.161   2.649   1.657  0.4983 -0.4634 -0.2818
 3283SOL    HW121308   0.182   2.695   1.739  2.2688  0.1100 -1.0636
 3283SOL    HW221309   0.066   2.641   1.664  0.3818 -1.5492 -3.3304
 3284SOL     OW21310   2.175   4.558   2.507 -0.7766 -0.0254  0.1608
 3284SOL    HW121311   2.211   4.472   2.528 -0.5197 -0.3575 -1.6769
 3284SOL    HW221312   2.241   4.586   2.443  0.5901  0.0108  1.5782
 3285SOL     OW21313   1.197   2.979   7.358 -0.0288 -0.2681 -0.0061
 3285SOL    HW121314   1.248   2.972   7.439 -2.2678 -0.6988  1.3649
 3285SOL    HW221315   1.221   3.068   7.332 -1.5310 -0.1106 -0.8442
 3286SOL     OW21316   2.239   3.934  14.081 -0.1320 -0.2456  0.0158
 3286SOL    HW121317   2.331   3.946  14.105 -0.2704 -3.7966  2.3431
 3286SOL    HW221318   2.215   4.018  14.041 -1.6409  0.3342  2.0963
 3287SOL     OW21319   2.894   4.553   5.093  0.2353 -0.1963  0.1259
 3287SOL    HW121320   2.841   4.530   5.016  0.4057 -2.6389  0.7382
 3287SOL    HW221321   2.969   4.499   5.071 -0.0146 -0.5523  0.1385
 3288SOL     OW21322   1.592   2.895   6.145 -0.0952  0.0032 -0.2315
 3288SOL    HW121323   1.583   2.988   6.123  3.6718  0.3921 -0.0977
 3288SOL    HW221324   1.502   2.865   6.134 -0.1490 -0.6276  1.7727
 3289SOL     OW21325   2.529   0.338   9.278 -0.3250 -0.2273 -0.1438
 3289SOL    HW121326   2.509   0.266   9.218  1.0726  0.5744 -1.5698
 3289SOL    HW221327   2.481   0.303   9.353 -2.6193 -0.2991 -1.6499
 3290SOL     OW21328   4.510   4.042  10.941 -0.0147 -0.2010 -0.6361
 3290SOL    HW121329   4.493   4.136  10.946 -2.7073 -0.7276  0.1485
 3290SOL    HW221330   4.605   4.031  10.948  0.0798  0.6303 -0.5845
 3291SOL     OW21331   0.731   4.376  14.038  0.1922 -0.8399  0.6917
 3291SOL    HW121332   0.774   4.400  14.120 -0.0512  0.5470  0.4131
 3291SOL    HW221333   0.755   4.450  13.983  2.9088  0.7726  3.9936
 3292SOL     OW21334   2.545   2.487   8.563 -0.2725 -0.0274  0.1351
 3292SOL    HW121335   2.581   2.570   8.594  0.3764 -0.8178  1.4791
 3292SOL    HW221336   2.573   2.481   8.472 -0.2652 -2.7406  0.3169
 3293SOL     OW21337   2.573   0.590   3.099  0.0441  0.0719  0.2860
 3293SOL    HW121338   2.558   0.516   3.040  0.4147 -3.6999  4.9362
 3293SOL    HW221339   2.559   0.666   3.043 -1.0561  0.2597  0.8019
 3294SOL     OW21340   4.524   4.670   9.308  0.3826  0.0206 -1.1418
 3294SOL    HW121341   4.508   4.628   9.224 -3.2156 -1.6907  0.3801
 3294SOL    HW221342   4.620   4.666   9.307  0.4914  2.2378  0.2893
 3295SOL     OW21343   3.700   0.887   8.466  0.0738  0.3752  0.8013
 3295SOL    HW121344   3.727   0.969   8.507  0.6714  0.6886 -0.2366
 3295SOL    HW221345   3.764   0.826   8.502  1.2017  1.5253  0.7154
 3296SOL     OW21346   1.985   0.785  14.565 -0.6264 -0.3116  0.5455
 3296SOL    HW121347   2.030   0.755  14.486 -0.2030  0.0830  0.6347
 3296SOL    HW221348   2.030   0.734  14.633  2.4919  1.9733  0.1843
 3297SOL     OW21349   1.552   1.973  11.954  0.2431  0.2082  0.0314
 3297SOL    HW121350   1.488   1.984  12.024  0.0027  1.1871 -0.3309
 3297SOL    HW221351   1.505   1.969  11.871 -2.0394 -1.4582  1.4238
 3298SOL     OW21352   4.172   3.332   7.223  0.3154 -0.1612 -0.2650
 3298SOL    HW121353   4.166   3.361   7.313 -0.2435 -1.1823  0.0327
 3298SOL    HW221354   4.256   3.287   7.209  0.0229  0.2473 -3.4641
 3299SOL     OW21355   2.770   3.156   6.001 -0.0873 -0.2318  0.3827
 3299SOL    HW121356   2.751   3.064   5.985 -0.6400 -0.2527  1.1408
 3299SOL    HW221357   2.835   3.155   6.072  1.5367  0.1301 -1.1204
 3300SOL     OW21358   4.244   2.492   5.455 -0.0239  0.4773 -0.0612
 3300SOL    HW121359   4.244   2.445   5.539  2.9166 -0.3874 -0.5542
 3300SOL    HW221360   4.155   2.487   5.421  0.3361  1.1766 -1.1082
 3301SOL     OW21361   4.328   2.576  14.671 -0.1411  0.2643  0.5030
 3301SOL    HW121362   4.285   2.559  14.588 -0.7888  2.0572  0.4794
 3301SOL    HW221363   4.321   2.672  14.669 -1.0687  0.1945  0.3409
 3302SOL     OW21364   1.060   1.647  17.072  0.0435 -0.2640  0.7796
 3302SOL    HW121365   1.081   1.718  17.012 -1.5128  0.9679  1.7017
 3302SOL    HW221366   1.039   1.695  17.152  0.1255  2.0181 -0.5819
 3303SOL     OW21367   3.136   1.663   8.306  0.4975 -0.2061  0.1590
 3303SOL    HW121368   3.045   1.636   8.306  0.1069  1.0779  1.5260
 3303SOL    HW221369   3.145   1.688   8.398  1.6771  0.4987 -0.1370
 3304SOL     OW21370   3.824   2.495   7.352  0.4900 -0.5970 -0.5350
 3304SOL    HW121371   3.861   2.498   7.263  0.9848 -2.4291 -0.4084
 3304SOL    HW221372   3.830   2.588   7.374 -1.0570 -0.9225  1.2534
 3305SOL     OW21373   0.379   0.013   4.389  0.3452 -0.1458  0.4556
 3305SOL    HW121374   0.454   0.003   4.447 -0.4593  0.8587  1.7104
 3305SOL    HW221375   0.418   4.691   4.314  4.2423  2.1988  1.1000
 3306SOL     OW21376   0.267   4.539   7.634 -0.1137  0.3432  0.1293
 3306SOL    HW121377   0.263   4.569   7.544 -0.1576  2.4048  0.8097
 3306SOL    HW221378   0.264   4.626   7.675  0.7509 -0.0383  1.0131
 3307SOL     OW21379   4.574   3.965  15.501 -0.4170 -0.4808 -0.1750
 3307SOL    HW121380   4.555   3.872  15.490  1.4037 -0.7462 -1.0549
 3307SOL    HW221381   4.549   3.979  15.593 -0.5086 -0.5444 -0.1906
 3308SOL     OW21382   0.171   2.982   2.083  0.2338 -0.6222  0.3196
 3308SOL    HW121383   0.256   2.956   2.119  2.4343  0.1190 -4.3520
 3308SOL    HW221384   0.134   3.012   2.166  1.0445 -0.6619  0.7014
 3309SOL     OW21385   0.222   2.694   7.872 -0.6373 -0.4431 -0.6301
 3309SOL    HW121386   0.301   2.705   7.925 -0.8326 -3.8042  0.3165
 3309SOL    HW221387   0.232   2.604   7.843  3.7768 -0.7514  1.7539
 3310SOL     OW21388   1.909   3.005   7.962  0.0869 -0.0461 -0.9957
 3310SOL    HW121389   1.971   3.068   7.926  1.0569 -0.1977  0.3807
 3310SOL    HW221390   1.911   3.027   8.055 -1.0276 -3.3295 -0.1790
 3311SOL     OW21391   3.386   3.784   1.071 -0.2955 -0.1953 -0.1812
 3311SOL    HW121392   3.368   3.691   1.079  2.2838 -0.7347 -0.8713
 3311SOL    HW221393   3.480   3.770   1.061 -0.5894 -1.4982 -0.9879
 3312SOL     OW21394   2.856   0.321   5.596 -0.0241  0.0762 -0.4043
 3312SOL    HW121395   2.902   0.399   5.564  0.5676  0.2867  0.9788
 3312SOL    HW221396   2.786   0.368   5.642 -1.0016 -0.3788 -1.4207
 3313SOL     OW21397   2.913   3.390  15.968 -0.0993 -0.4160  0.8248
 3313SOL    HW121398   2.822   3.365  15.981  0.1537 -2.1415 -0.6665
 3313SOL    HW221399   2.915   3.409  15.874  2.0764 -2.7765  0.3841
 3314SOL     OW21400   3.266   2.963  12.317  0.4340  0.1287 -0.3833
 3314SOL    HW121401   3.207   2.924  12.382 -2.2491  2.7901 -1.2390
 3314SOL    HW221402   3.254   3.054  12.345 -0.0433 -0.3584  1.0243
 3315SOL     OW21403   3.839   3.533   7.319 -0.1713 -0.0560  0.4153
 3315SOL    HW121404   3.813   3.564   7.232 -1.7190 -1.5394  0.3536
 3315SOL    HW221405   3.774   3.466   7.341 -0.9732  1.0670  1.4933
 3316SOL     OW21406   2.212   1.671   9.176  0.1024  0.6161  0.1684
 3316SOL    HW121407   2.278   1.602   9.183 -2.1237 -1.5362 -0.1660
 3316SOL    HW221408   2.226   1.717   9.093 -3.3823 -0.1202 -0.8180
 3317SOL     OW21409   3.344   0.560   2.291  0.2852 -0.6884 -0.4737
 3317SOL    HW121410   3.388   0.523   2.368 -2.8835 -1.6713  0.8694
 3317SOL    HW221411   3.376   0.643   2.327  0.3519  0.0723 -2.3260
 3318SOL     OW21412   1.332   0.377  16.727  0.6170 -0.3501 -1.1259
 3318SOL    HW121413   1.350   0.471  16.729 -1.2231 -0.0724  1.4956
 3318SOL    HW221414   1.258   0.371  16.788  2.4700 -1.9683  0.9646
 3319SOL     OW21415   0.567   2.720   9.097  0.2755 -0.3703 -0.4506
 3319SOL    HW121416   0.642   2.767   9.060 -1.2968  2.2765 -0.2522
 3319SOL    HW221417   0.514   2.692   9.022 -1.8791 -0.0182  0.9409
 3320SOL     OW21418   1.859   3.597  11.753 -0.0215  0.1782 -0.2009
 3320SOL    HW121419   1.898   3.600  11.841  0.7305 -0.2260 -0.5199
 3320SOL    HW221420   1.921   3.534  11.715  0.4825  1.7480 -1.9727
 3321SOL     OW21421   1.304   0.076  15.948 -0.2329  0.1837  0.3679
 3321SOL    HW121422   1.348   0.102  15.868 -0.1614 -0.5206  0.1836
 3321SOL    HW221423   1.361   0.003  15.973 -2.3022 -0.4351  3.2972
 3322SOL     OW21424   4.303   4.309   7.952 -0.1410  0.3151  0.1822
 3322SOL    HW121425   4.219   4.341   7.985 -0.3247 -1.4706  1.4715
 3322SOL    HW221426   4.324   4.385   7.897  2.0593  0.1609  0.8142
 3323SOL     OW21427   2.065   3.013   2.403  0.1678  0.0467  0.1737
 3323SOL    HW121428   2.005   2.970   2.341  0.4199 -0.4603  0.2813
 3323SOL    HW221429   2.011   3.018   2.481  0.4763  2.1861  0.2406
 3324SOL     OW21430   1.631   3.597   8.500 -0.1727  0.2941  0.3680
 3324SOL    HW121431   1.720   3.626   8.523  0.7030 -0.8391 -1.5535
 3324SOL    HW221432   1.638   3.612   8.406  1.3906 -2.2886  0.0693
 3325SOL     OW21433   1.059   1.257  15.366  0.2392 -0.3351 -0.3812
 3325SOL    HW121434   1.041   1.315  15.292  0.6019 -0.0770 -0.2675
 3325SOL    HW221435   1.153   1.274  15.372  0.1712 -0.6166  1.5890
 3326SOL     OW21436   0.932   0.961  17.446 -0.0484 -0.1923 -0.0306
 3326SOL    HW121437   0.968   1.002  17.525 -0.3999  0.5619 -0.2623
 3326SOL    HW221438   0.871   1.030  17.419 -2.0466 -1.3100  1.6668
 3327SOL     OW21439   4.156   1.894   5.598 -0.3613  0.4669 -0.1908
 3327SOL    HW121440   4.100   1.836   5.546 -0.9141  1.7218 -0.9721
 3327SOL    HW221441   4.240   1.847   5.600 -0.1800  0.7642 -0.8120
 3328SOL     OW21442   3.559   0.045  12.156 -0.4333 -0.3289 -0.4066
 3328SOL    HW121443   3.643   0.048  12.110 -0.9269  0.5383 -1.2673
 3328SOL    HW221444   3.575   0.021  12.247  2.3672 -2.5870 -1.5199
 3329SOL     OW21445   0.225   0.634  17.322 -0.0710  0.2941 -1.0940
 3329SOL    HW121446   0.263   0.549  17.299 -1.8350 -0.5233 -0.9547
 3329SOL    HW221447   0.182   0.652  17.238 -1.9872 -0.4863 -0.2850
 3330SOL     OW21448   3.231   0.089  11.329  0.3863  0.1421 -0.2220
 3330SOL    HW121449   3.200   4.721  11.323  1.2630 -0.1369 -0.5071
 3330SOL    HW221450   3.234   0.106  11.424 -1.8912 -2.2955  0.2928
 3331SOL     OW21451   2.053   4.107   4.385 -0.9781  0.2441 -0.4956
 3331SOL    HW121452   2.070   4.071   4.471  2.3036  1.5218 -0.6160
 3331SOL    HW221453   1.965   4.146   4.394 -0.7343  1.3302 -2.8126
 3332SOL     OW21454   2.654   3.555   2.962  0.4427 -0.5341  0.1777
 3332SOL    HW121455   2.712   3.631   2.971  0.3985 -0.2871 -1.6744
 3332SOL    HW221456   2.680   3.527   2.874 -3.1561  1.6345 -1.5471
 3333SOL     OW21457   3.051   0.894   0.296 -0.1889  0.0733 -0.4493
 3333SOL    HW121458   3.102   0.926   0.222  1.3321 -0.1854  0.4833
 3333SOL    HW221459   3.013   0.822   0.246 -1.0625 -0.6571  1.2568
 3334SOL     OW21460   0.545   4.242  16.311 -0.5339  0.3249  0.1286
 3334SOL    HW121461   0.494   4.323  16.307 -1.1040 -0.0810 -0.7016
 3334SOL    HW221462   0.631   4.270  16.279 -0.0820  0.6675  1.6017
 3335SOL     OW21463   0.520   3.897  14.974 -0.1579  0.7865 -0.4124
 3335SOL    HW121464   0.560   3.814  14.948  1.0378  1.6954 -1.4704
 3335SOL    HW221465   0.431   3.880  14.943  0.2841 -2.4233  0.1308
 3336SOL     OW21466   3.420   0.545  16.173 -0.1307  0.5061  0.7081
 3336SOL    HW121467   3.335   0.565  16.134  0.7387  2.0836 -0.4012
 3336SOL    HW221468   3.437   0.623  16.225  2.0214  0.6341 -0.1965
 3337SOL     OW21469   1.789   4.144   8.788  0.3710  0.5423 -1.1876
 3337SOL    HW121470   1.803   4.239   8.780 -0.0105  0.6851 -0.1940
 3337SOL    HW221471   1.745   4.131   8.872  0.1752 -1.3990 -1.5949
 3338SOL     OW21472   0.131   3.135   3.340 -0.1814 -0.2092  0.3834
 3338SOL    HW121473   0.085   3.186   3.274 -0.6800  1.0721  1.7193
 3338SOL    HW221474   0.218   3.175   3.342  0.3592 -1.2354 -2.0522
 3339SOL     OW21475   1.476   0.110   5.849 -0.4569  0.2116 -0.0047
 3339SOL    HW121476   1.443   0.113   5.939  1.3226  0.5261  0.6429
 3339SOL    HW221477   1.433   0.032   5.815  1.2972 -1.4304  1.5847
 3340SOL     OW21478   1.155   2.410   7.177 -0.3301  0.4569 -0.0672
 3340SOL    HW121479   1.178   2.466   7.103  1.3021 -0.7707 -0.4899
 3340SOL    HW221480   1.201   2.327   7.169 -0.4113  0.2637  1.4181
 3341SOL     OW21481   3.123   4.171   2.113 -0.1422 -0.7139 -0.2208
 3341SOL    HW121482   3.118   4.264   2.136 -2.0353 -0.5553 -1.2683
 3341SOL    HW221483   3.184   4.138   2.179 -0.6442  2.0190  1.5933
 3342SOL     OW21484   3.248   2.014   6.864 -0.1551 -0.0322  0.0469
 3342SOL    HW121485   3.267   1.994   6.773  2.1773 -1.9108  0.9594
 3342SOL    HW221486   3.301   1.956   6.919 -0.8198 -0.4449  0.2459
 3343SOL     OW21487   1.322   4.085   4.324 -0.7229  0.0613  0.0976
 3343SOL    HW121488   1.295   4.084   4.232  2.9157  1.7977 -0.9909
 3343SOL    HW221489   1.414   4.061   4.328 -0.5820  0.5605 -0.1258
 3344SOL     OW21490   0.302   1.825   7.161  0.4820 -0.6393  0.2063
 3344SOL    HW121491   0.314   1.731   7.149  1.4841 -0.1959 -2.3911
 3344SOL    HW221492   0.332   1.848   7.249 -0.2527  1.4643 -0.0833
 3345SOL     OW21493   3.183   4.565   6.804  0.1833 -0.0024 -0.4992
 3345SOL    HW121494   3.109   4.520   6.845 -0.0535 -0.8017 -1.8161
 3345SOL    HW221495   3.129   4.616   6.745 -0.0684 -0.5460 -0.7387
 3346SOL     OW21496   1.884   0.271   7.146  0.5333 -0.4567  0.4795
 3346SOL    HW121497   1.819   0.341   7.147 -1.4180 -2.2587 -0.8581
 3346SOL    HW221498   1.919   0.271   7.057 -1.1103  0.0730 -0.1768
 3347SOL     OW21499   4.116   3.418   3.736  0.0693  0.4120 -0.3013
 3347SOL    HW121500   4.108   3.490   3.799  1.8163 -0.1939  0.6314
 3347SOL    HW221501   4.114   3.337   3.787 -0.2074  0.6875  0.1253
 3348SOL     OW21502   1.297   3.385   9.278 -0.0783  0.6005 -0.0555
 3348SOL    HW121503   1.247   3.389   9.197 -4.3080 -2.4573  2.4118
 3348SOL    HW221504   1.223   3.387   9.338 -0.5163  1.4427 -0.6254
 3349SOL     OW21505   1.276   3.819   1.583  1.0821  0.4284  0.4758
 3349SOL    HW121506   1.207   3.842   1.646  0.2343 -0.6087 -0.0920
 3349SOL    HW221507   1.297   3.902   1.540 -1.9532  0.1462 -1.5152
 3350SOL     OW21508   3.504   1.299   7.232 -0.0954  0.6629 -0.3750
 3350SOL    HW121509   3.551   1.216   7.247 -0.6972  0.2680 -0.6643
 3350SOL    HW221510   3.529   1.322   7.143  0.6772  2.5073  0.3157
 3351SOL     OW21511   0.600   3.322  11.818 -0.4200  0.2895  0.3124
 3351SOL    HW121512   0.662   3.320  11.890  0.0495 -2.5408 -0.1828
 3351SOL    HW221513   0.584   3.416  11.807  0.5997  0.2482 -1.6411
 3352SOL     OW21514   2.331   2.502   5.951 -0.1548 -0.4099 -0.4535
 3352SOL    HW121515   2.355   2.594   5.941 -1.9869  0.1186 -0.1058
 3352SOL    HW221516   2.235   2.509   5.949 -0.2275 -1.0833  0.8085
 3353SOL     OW21517   1.174   3.312   2.472 -0.2857 -0.0108 -0.4071
 3353SOL    HW121518   1.266   3.290   2.457 -1.0353 -3.0508 -0.5177
 3353SOL    HW221519   1.168   3.390   2.417  0.0582 -1.7060 -2.8669
 3354SOL     OW21520   0.045   0.982   0.096  0.1822 -0.1209 -0.2667
 3354SOL    HW121521   0.006   0.963   0.010 -0.8325  1.2059 -0.1098
 3354SOL    HW221522   0.036   1.077   0.090  0.0594 -0.0671  0.8001
 3355SOL     OW21523   4.413   3.255   2.317 -0.0139 -0.5910  0.6307
 3355SOL    HW121524   4.409   3.184   2.381  2.4481 -0.7532  0.6035
 3355SOL    HW221525   4.465   3.318   2.368  2.3021  0.5241 -3.0843
 3356SOL     OW21526   2.968   3.996   8.437 -0.0642  0.2783 -0.0626
 3356SOL    HW121527   2.894   4.045   8.470  0.0906  1.0987 -0.9426
 3356SOL    HW221528   2.957   3.988   8.342  1.3831  0.0444 -0.2222
 3357SOL     OW21529   4.001   1.988   4.831 -0.3424 -0.4291 -0.8664
 3357SOL    HW121530   4.072   2.016   4.889 -0.4435 -0.4225 -0.7466
 3357SOL    HW221531   3.979   2.077   4.804  1.6636  0.3496  0.0435
 3358SOL     OW21532   2.160   2.278   7.803 -0.3875 -0.3734  0.0096
 3358SOL    HW121533   2.113   2.195   7.801 -0.4990 -0.2700 -1.4833
 3358SOL    HW221534   2.202   2.277   7.889 -0.1586  0.9391 -0.0769
 3359SOL     OW21535   3.976   0.975   6.386 -0.2919 -0.1801 -0.4988
 3359SOL    HW121536   4.029   0.896   6.373 -1.6636 -1.0773 -0.5998
 3359SOL    HW221537   4.007   1.030   6.314  0.7672 -1.3054 -0.9038
 3360SOL     OW21538   3.474   2.103   9.856 -0.0875  0.0728 -0.1207
 3360SOL    HW121539   3.486   2.178   9.913 -3.1736 -0.2575  0.9847
 3360SOL    HW221540   3.397   2.129   9.804 -0.4825 -1.0116 -0.0908
 3361SOL     OW21541   2.846   1.689   8.056 -0.1675 -0.1636  0.0425
 3361SOL    HW121542   2.907   1.712   7.986  2.1983 -1.1261  1.7778
 3361SOL    HW221543   2.884   1.612   8.098  0.8728 -1.4452 -3.1753
 3362SOL     OW21544   4.576   1.394  17.391 -0.2196 -0.4840 -0.3860
 3362SOL    HW121545   4.650   1.427  17.442 -0.4761  1.2349 -1.1384
 3362SOL    HW221546   4.614   1.401  17.304 -0.2308 -1.6087 -0.4869
 3363SOL     OW21547   4.413   2.063   9.183  0.2182  0.3887  0.6365
 3363SOL    HW121548   4.404   2.076   9.278 -0.5136  0.3156  0.5827
 3363SOL    HW221549   4.336   2.009   9.165 -1.5061  2.8996  0.4910
 3364SOL     OW21550   2.828   4.306  17.514  0.5964  0.5771  0.0353
 3364SOL    HW121551   2.905   4.322  17.459  3.2265 -0.7944  3.2712
 3364SOL    HW221552   2.794   4.392  17.540 -0.3222  0.1715  0.1450
 3365SOL     OW21553   2.572   3.239   9.470 -0.5588 -0.0196  0.6105
 3365SOL    HW121554   2.507   3.234   9.540 -0.1868 -1.8414  0.8185
 3365SOL    HW221555   2.635   3.299   9.511  0.2261 -1.7202  1.8908
 3366SOL     OW21556   2.055   3.152   5.381 -0.6514 -0.2960  0.3460
 3366SOL    HW121557   1.978   3.198   5.348 -1.2420  0.2803  2.5318
 3366SOL    HW221558   2.113   3.152   5.305 -1.4401  1.0266 -0.2625
 3367SOL     OW21559   3.139   0.502   3.170 -0.0418 -0.2355 -0.6490
 3367SOL    HW121560   3.104   0.561   3.103 -0.3515  0.0128 -0.2671
 3367SOL    HW221561   3.088   0.421   3.160 -0.8331  0.4126 -1.8996
 3368SOL     OW21562   2.197   1.193  11.031 -0.5704  0.5339  0.3122
 3368SOL    HW121563   2.274   1.220  11.082 -0.3216 -0.0121  0.2287
 3368SOL    HW221564   2.130   1.187  11.099  0.9180 -2.9202  1.5009
 3369SOL     OW21565   3.628   2.963   4.829  0.0398 -0.5484  0.0055
 3369SOL    HW121566   3.600   2.922   4.748  0.1070 -1.0409  0.2332
 3369SOL    HW221567   3.674   2.893   4.875  0.1829  0.8239  1.9831
 3370SOL     OW21568   4.434   3.399  10.122 -0.1758 -0.7537  0.1325
 3370SOL    HW121569   4.369   3.395  10.052  0.8156 -2.4409 -0.6952
 3370SOL    HW221570   4.409   3.482  10.163 -0.0965 -0.3090 -0.7159
 3371SOL     OW21571   2.353   4.189   7.861 -0.2703  0.2957  0.1310
 3371SOL    HW121572   2.363   4.117   7.924  0.4580 -0.0570 -0.3770
 3371SOL    HW221573   2.388   4.268   7.901  0.1104  0.5805 -0.7517
 3372SOL     OW21574   2.310   2.634   9.831  0.1949 -0.6861 -0.1353
 3372SOL    HW121575   2.306   2.722   9.793  0.9111 -0.3748  0.4957
 3372SOL    HW221576   2.330   2.574   9.759  0.4134 -0.6418 -0.1110
 3373SOL     OW21577   2.718   0.649   1.960 -0.5105 -0.0791  0.1011
 3373SOL    HW121578   2.710   0.729   2.013  1.5930  0.4075 -0.3214
 3373SOL    HW221579   2.633   0.664   1.917 -0.8303  3.8176  2.0143
 3374SOL     OW21580   2.716   4.279   4.056  0.1629 -0.2613 -0.4436
 3374SOL    HW121581   2.632   4.257   4.095  0.1603  0.2075 -0.1714
 3374SOL    HW221582   2.768   4.221   4.112 -0.7654 -2.6337 -2.0591
 3375SOL     OW21583   2.735   4.063   6.708  0.3901 -0.2396 -0.5213
 3375SOL    HW121584   2.729   4.109   6.624 -3.0052  0.2831  0.0261
 3375SOL    HW221585   2.759   4.135   6.767  1.3387 -1.0261  0.0509
 3376SOL     OW21586   4.303   1.472  10.429 -0.1587  0.1854  0.1183
 3376SOL    HW121587   4.332   1.389  10.467  0.3279  1.9568  3.6015
 3376SOL    HW221588   4.337   1.471  10.339 -1.6852  2.4517 -0.4631
 3377SOL     OW21589   4.386   3.427   2.039  0.3536 -0.5189 -0.3338
 3377SOL    HW121590   4.333   3.375   2.100  0.1375 -1.2066 -1.1059
 3377SOL    HW221591   4.431   3.352   2.000  1.2008  0.1539 -0.6408
 3378SOL     OW21592   2.207   1.664   6.305 -0.6344 -0.3510 -0.1527
 3378SOL    HW121593   2.254   1.586   6.275  1.5151  1.3821 -1.2735
 3378SOL    HW221594   2.239   1.680   6.394  2.1321  1.1086 -1.3886
 3379SOL     OW21595   0.929   0.889   0.103 -0.0130 -0.1006  0.0999
 3379SOL    HW121596   0.947   0.974   0.144  0.3380 -0.2103  0.1760
 3379SOL    HW221597   0.996   0.825   0.130  0.7971  0.5773 -0.2890
 3380SOL     OW21598   2.170   1.759   4.137 -0.1438  0.8407 -0.0701
 3380SOL    HW121599   2.243   1.812   4.106  0.1808  0.9371  0.8770
 3380SOL    HW221600   2.105   1.828   4.152 -2.1480 -0.9036 -0.6913
 3381SOL     OW21601   1.426   3.619  14.158 -0.0840 -0.1473  0.1046
 3381SOL    HW121602   1.438   3.531  14.195  0.6526  0.9925  2.5984
 3381SOL    HW221603   1.427   3.604  14.064  0.3068  0.0316  0.0802
 3382SOL     OW21604   0.397   3.999  11.110  0.4733  0.5961  0.1282
 3382SOL    HW121605   0.408   3.934  11.179  4.3610  0.4057 -0.6415
 3382SOL    HW221606   0.304   4.020  11.113  0.0918 -0.8191 -1.7327
 3383SOL     OW21607   0.001   4.057   3.692  0.0648 -0.5164 -0.9185
 3383SOL    HW121608   4.668   4.090   3.764  1.0154  0.5421 -0.6671
 3383SOL    HW221609   4.712   3.964   3.712 -0.1548  0.5242  3.7328
 3384SOL     OW21610   2.393   2.311   5.631 -0.7819 -0.1964 -0.2618
 3384SOL    HW121611   2.472   2.265   5.658 -0.6899  0.2759  0.2834
 3384SOL    HW221612   2.339   2.297   5.709 -1.0242  0.4626 -0.3109
 3385SOL     OW21613   3.702   1.859  11.276 -0.2869 -0.2505  0.7253
 3385SOL    HW121614   3.780   1.804  11.265 -0.5526 -0.9104  2.0850
 3385SOL    HW221615   3.711   1.914  11.199 -0.4467 -0.4059  0.5964
 3386SOL     OW21616   0.897   3.078   6.517  0.0061 -0.8758  0.7997
 3386SOL    HW121617   0.875   3.039   6.432 -0.6094  0.7830  0.1969
 3386SOL    HW221618   0.980   3.108   6.481  0.6437 -1.2725  1.9227
 3387SOL     OW21619   1.273   3.108   5.552 -0.4887  0.2205 -0.0930
 3387SOL    HW121620   1.222   3.050   5.495 -1.6525 -0.0572  1.2062
 3387SOL    HW221621   1.211   3.131   5.621 -0.1555 -1.3665  0.7351
 3388SOL     OW21622   4.274   0.040   5.182 -0.3172  0.2306  0.2421
 3388SOL    HW121623   4.351   4.714   5.214 -0.5693 -0.4444 -0.1718
 3388SOL    HW221624   4.215   4.692   5.159 -2.3328  1.7519  0.7513
 3389SOL     OW21625   2.499   3.618  15.045 -0.0260 -0.0262 -0.3380
 3389SOL    HW121626   2.486   3.539  15.096  3.8986  0.4551  1.4560
 3389SOL    HW221627   2.589   3.641  15.071  1.0594 -1.6323 -2.7261
 3390SOL     OW21628   4.464   4.311   2.373  0.2076  0.0921 -0.6099
 3390SOL    HW121629   4.392   4.335   2.315 -1.1038 -1.5264  0.3414
 3390SOL    HW221630   4.532   4.374   2.352 -1.1651  1.2588 -1.4703
 3391SOL     OW21631   3.088   4.611  10.743  0.0127 -0.2860 -0.3602
 3391SOL    HW121632   3.125   4.568  10.665  1.7665  0.9153 -0.1871
 3391SOL    HW221633   3.150   4.683  10.745  0.1421 -0.3207 -2.9177
 3392SOL     OW21634   0.950   0.616   8.127  0.3095  1.0727 -0.7182
 3392SOL    HW121635   1.017   0.637   8.062  0.8499 -0.7171 -0.7314
 3392SOL    HW221636   0.888   0.688   8.118 -1.7799 -0.9094 -2.0059
 3393SOL     OW21637   2.091   3.733   4.871 -0.2147 -0.0282  0.2688
 3393SOL    HW121638   2.043   3.785   4.936  1.0465  2.5441 -0.8631
 3393SOL    HW221639   2.116   3.652   4.914 -2.3614  0.6231  2.7488
 3394SOL     OW21640   0.660   4.272   3.702 -0.3137 -0.0907  0.6149
 3394SOL    HW121641   0.661   4.223   3.619 -0.1783  1.3312 -0.2316
 3394SOL    HW221642   0.671   4.365   3.682 -0.3398 -0.4302 -0.9709
 3395SOL     OW21643   0.395   0.232   6.974 -0.0866  0.7857  0.0688
 3395SOL    HW121644   0.475   0.181   6.983 -0.8404 -0.5964 -1.0420
 3395SOL    HW221645   0.424   0.314   7.013  1.2503  0.4093 -0.1274
 3396SOL     OW21646   4.023   3.523  12.301 -0.3149 -0.7569  0.0665
 3396SOL    HW121647   3.977   3.564  12.228  0.7259  1.3113  0.5617
 3396SOL    HW221648   3.946   3.481  12.340 -0.8721  1.0004  0.8795
 3397SOL     OW21649   2.365   3.741   4.727  0.5288  0.2895 -0.1428
 3397SOL    HW121650   2.348   3.648   4.740  1.9120  0.0465 -0.1229
 3397SOL    HW221651   2.285   3.780   4.762  1.8164  0.9703  2.0587
 3398SOL     OW21652   0.931   1.622   3.604 -0.2513  0.3788  0.4186
 3398SOL    HW121653   0.965   1.533   3.589  3.4588  1.6738  1.0664
 3398SOL    HW221654   0.930   1.665   3.518 -0.3036 -1.2004 -0.3702
 3399SOL     OW21655   4.423   1.337   7.199  0.5898  0.3485  0.1587
 3399SOL    HW121656   4.504   1.320   7.247 -0.8302  0.0336  2.3924
 3399SOL    HW221657   4.430   1.432   7.190 -2.4357  0.3730 -1.8125
 3400SOL     OW21658   0.928   2.740   5.327 -0.0002 -0.1749  0.7040
 3400SOL    HW121659   0.889   2.802   5.266 -0.1184 -1.1954 -0.2410
 3400SOL    HW221660   0.891   2.654   5.307  0.7105 -0.1440 -0.6567
 3401SOL     OW21661   2.399   4.425   7.460  0.3818 -0.1488  0.1843
 3401SOL    HW121662   2.425   4.333   7.455 -0.6011 -0.4576  0.7070
 3401SOL    HW221663   2.487   4.463   7.460 -0.1493  1.0828  2.2077
 3402SOL     OW21664   2.758   1.185   2.039  0.0754 -0.3959 -0.2196
 3402SOL    HW121665   2.701   1.177   2.115 -0.2442 -1.3374 -0.5562
 3402SOL    HW221666   2.739   1.267   1.994 -0.5558 -0.8668 -0.8189
 3403SOL     OW21667   4.355   3.538   9.463 -0.1283  0.4004 -0.4576
 3403SOL    HW121668   4.334   3.445   9.472 -1.7712  0.7648 -0.3736
 3403SOL    HW221669   4.330   3.561   9.374 -0.4777  0.6444 -0.2977
 3404SOL     OW21670   4.444   4.423   1.845  0.5669 -0.0008  0.6255
 3404SOL    HW121671   4.362   4.463   1.872  1.1730  0.4732  1.7678
 3404SOL    HW221672   4.428   4.360   1.775 -1.3804  1.4083 -0.2062
 3405SOL     OW21673   4.288   1.062   7.516 -0.2986  0.0629  0.6298
 3405SOL    HW121674   4.317   1.036   7.429 -1.6373  1.6036 -0.2803
 3405SOL    HW221675   4.357   1.037   7.578 -0.0197  0.7044  0.5839
 3406SOL     OW21676   4.402   0.906  14.658 -0.1076 -0.3119 -0.6379
 3406SOL    HW121677   4.471   0.923  14.595  0.1304  0.2080 -0.2403
 3406SOL    HW221678   4.390   0.996  14.690  2.3569 -0.2726  0.1788
 3407SOL     OW21679   3.859   2.104  14.118 -0.2797 -0.2676 -0.6042
 3407SOL    HW121680   3.889   2.136  14.204 -1.2916  0.4197 -0.5156
 3407SOL    HW221681   3.765   2.111  14.130  0.2275  0.2430  3.0767
 3408SOL     OW21682   1.720   3.427   9.196  0.8389 -0.6291  0.3895
 3408SOL    HW121683   1.780   3.353   9.203  0.6441 -0.8221  0.0133
 3408SOL    HW221684   1.733   3.450   9.104  2.0531 -1.8273  0.2561
 3409SOL     OW21685   0.680   1.300   6.249 -0.3192  0.3669 -0.8122
 3409SOL    HW121686   0.725   1.216   6.251 -0.9021  0.0527 -0.9582
 3409SOL    HW221687   0.685   1.333   6.339 -2.3160  0.0023 -0.5633
 3410SOL     OW21688   0.855   1.656   7.343  0.1004  0.5585 -0.1090
 3410SOL    HW121689   0.933   1.615   7.381  0.1487 -0.6176 -1.4871
 3410SOL    HW221690   0.798   1.583   7.368  1.6460 -0.2112  1.1352
 3411SOL     OW21691   3.722   4.111  10.906 -0.2279 -0.1192 -0.8149
 3411SOL    HW121692   3.753   4.021  10.897  0.9933  0.4399 -2.2782
 3411SOL    HW221693   3.629   4.106  10.883 -0.3564 -2.3452  0.2177
 3412SOL     OW21694   0.299   2.180  16.049  0.7128  0.0594  0.0230
 3412SOL    HW121695   0.275   2.104  15.997 -0.2836  1.0954 -1.0345
 3412SOL    HW221696   0.237   2.185  16.121  0.0667 -0.5178 -0.5009
 3413SOL     OW21697   4.325   0.121   8.380 -0.6438 -0.5302 -0.0163
 3413SOL    HW121698   4.344   0.207   8.342 -3.1042  0.5891  1.2922
 3413SOL    HW221699   4.410   0.098   8.417 -0.0611 -0.1924 -1.1356
 3414SOL     OW21700   1.192   1.228   5.838  0.2399  0.4245 -0.2146
 3414SOL    HW121701   1.210   1.321   5.822  1.4943  0.0844 -0.8311
 3414SOL    HW221702   1.097   1.223   5.841  0.3136  1.6416  3.8405
 3415SOL     OW21703   2.810   1.259   7.062  0.1296 -0.3452 -0.2194
 3415SOL    HW121704   2.856   1.288   6.983  1.2012  2.0955  1.3305
 3415SOL    HW221705   2.729   1.305   7.038 -0.4445 -1.2099  0.0558
 3416SOL     OW21706   1.745   2.845  14.463  0.2281  0.3995  0.1132
 3416SOL    HW121707   1.682   2.912  14.489 -0.1014  0.5688 -1.1540
 3416SOL    HW221708   1.828   2.882  14.493 -0.0541 -0.7309  2.2808
 3417SOL     OW21709   4.619   1.287  11.938 -0.0997  0.6639 -0.2626
 3417SOL    HW121710   4.629   1.213  11.878 -0.3805 -0.6488  1.2805
 3417SOL    HW221711   4.700   1.335  11.924  0.0202  0.1481 -1.3156
 3418SOL     OW21712   4.193   2.337   2.264  0.6076  0.4923 -0.3401
 3418SOL    HW121713   4.109   2.377   2.244  0.7773 -0.5246 -3.0797
 3418SOL    HW221714   4.244   2.417   2.253  0.2314  1.0070  1.7069
 3419SOL     OW21715   1.848   3.943   6.427  0.0260  0.3197  0.4190
 3419SOL    HW121716   1.832   3.887   6.352 -0.8663  1.9120 -0.5642
 3419SOL    HW221717   1.803   4.024   6.402 -2.0912 -0.3251  2.0985
 3420SOL     OW21718   3.744   0.019  16.818 -0.2618  0.0274  0.4299
 3420SOL    HW121719   3.707   0.047  16.734 -0.0245 -2.5576 -0.5543
 3420SOL    HW221720   3.714   4.652  16.835 -2.0744  0.8602  1.5591
 3421SOL     OW21721   1.668   4.643   4.108 -0.0462 -0.3303  0.1477
 3421SOL    HW121722   1.746   4.687   4.142  0.8920  0.1360 -2.6350
 3421SOL    HW221723   1.649   4.577   4.175 -0.1799 -0.7958 -0.3524
 3422SOL     OW21724   0.188   3.411   7.402  0.0534 -1.0364  0.1083
 3422SOL    HW121725   0.218   3.335   7.453 -0.3643 -0.4987  1.1530
 3422SOL    HW221726   0.185   3.481   7.467  1.6571 -1.3376  0.5069
 3423SOL     OW21727   0.227   1.600   9.600 -0.8339 -0.0882 -0.3458
 3423SOL    HW121728   0.207   1.507   9.595 -1.6807 -0.0034  1.6294
 3423SOL    HW221729   0.308   1.587   9.651 -1.0617  2.2759  0.6241
 3424SOL     OW21730   1.833   4.396  13.199  0.6864 -0.0303  0.4977
 3424SOL    HW121731   1.805   4.450  13.124  0.1913  0.5684  1.1177
 3424SOL    HW221732   1.798   4.443  13.274 -0.1670 -1.5656  1.0381
 3425SOL     OW21733   0.098   3.935  13.182  0.3194 -0.2830 -0.8221
 3425SOL    HW121734   0.053   3.991  13.246  0.7361  0.4342 -1.1617
 3425SOL    HW221735   0.174   3.910  13.234  0.2502  2.0697  0.4207
 3426SOL     OW21736   4.681   0.788   0.334  0.7693 -0.0380 -0.6206
 3426SOL    HW121737   4.712   0.798   0.245 -0.6038  0.1611 -1.0766
 3426SOL    HW221738   4.597   0.745   0.318 -0.0073  0.8495  1.0364
 3427SOL     OW21739   2.945   1.427   5.475 -0.3826  0.6934 -0.7472
 3427SOL    HW121740   2.991   1.345   5.496 -0.3463  1.4299  2.0196
 3427SOL    HW221741   3.011   1.496   5.483  0.7052 -0.6656  2.0386
 3428SOL     OW21742   4.081   3.240   3.272 -0.5285 -0.4920  0.7441
 3428SOL    HW121743   4.174   3.217   3.273 -0.2800  0.5451  1.2183
 3428SOL    HW221744   4.061   3.272   3.360 -0.9344 -0.1268  0.5237
 3429SOL     OW21745   0.057   4.643   3.307  0.5990 -0.2793  0.2578
 3429SOL    HW121746   0.027   4.702   3.376  0.2298  0.3630 -0.4557
 3429SOL    HW221747   0.011   4.562   3.326 -1.2245  0.7371  0.1468
 3430SOL     OW21748   1.754   3.902   0.402  0.4777  0.8823 -0.5599
 3430SOL    HW121749   1.687   3.835   0.413 -0.0946  0.9911 -3.2932
 3430SOL    HW221750   1.823   3.856   0.353 -1.8642 -2.4500 -0.7229
 3431SOL     OW21751   2.037   1.296   4.984 -0.2165  0.1470  0.6419
 3431SOL    HW121752   2.021   1.386   4.957  1.3821  0.7135  1.5872
 3431SOL    HW221753   1.977   1.284   5.058 -1.1180  2.8992  0.3254
 3432SOL     OW21754   3.528   1.547   6.693  0.2668 -0.2194 -0.0716
 3432SOL    HW121755   3.550   1.589   6.776  0.1138 -0.0675 -0.1071
 3432SOL    HW221756   3.473   1.474   6.721  2.5930 -1.1551  2.0555
 3433SOL     OW21757   0.039   1.910   4.860  0.3998  0.0659  0.0438
 3433SOL    HW121758   0.111   1.855   4.829  1.1912  0.4542  1.1675
 3433SOL    HW221759   0.039   1.978   4.793 -0.7478  0.4577  0.4507
 3434SOL     OW21760   2.129   0.452   8.207 -0.6492 -0.4775  0.5263
 3434SOL    HW121761   2.043   0.483   8.178  1.5760  1.6687 -3.8790
 3434SOL    HW221762   2.174   0.439   8.123 -1.0327  1.0055  0.0910
 3435SOL     OW21763   3.283   1.804   2.756 -0.1138 -0.1430 -0.9826
 3435SOL    HW121764   3.312   1.896   2.765  0.2379 -0.5739  2.3744
 3435SOL    HW221765   3.330   1.762   2.684 -4.1350 -3.2930 -1.7046
 3436SOL     OW21766   0.785   0.805   0.684 -0.2314 -0.3908 -0.4403
 3436SOL    HW121767   0.825   0.753   0.755  0.7474 -0.2933 -0.9177
 3436SOL    HW221768   0.708   0.752   0.665 -1.6633  0.7199  2.3441
 3437SOL     OW21769   2.552   3.971   4.341 -0.3327  0.0349 -0.1974
 3437SOL    HW121770   2.480   3.916   4.374  0.7604 -1.6083 -0.5932
 3437SOL    HW221771   2.630   3.916   4.342 -1.9664 -2.2724 -0.7847
 3438SOL     OW21772   2.408   0.404  16.659 -0.0951  0.3789 -0.0152
 3438SOL    HW121773   2.466   0.426  16.586  0.1867  0.3223  0.1922
 3438SOL    HW221774   2.444   0.316  16.671 -1.2014 -0.3492 -1.9884
 3439SOL     OW21775   3.445   4.383  15.851 -0.3570 -0.2831 -0.2612
 3439SOL    HW121776   3.466   4.309  15.908  0.9529 -0.7516 -1.3516
 3439SOL    HW221777   3.357   4.408  15.881  0.2711  0.5814  0.8893
 3440SOL     OW21778   0.209   3.468  12.895  0.2352 -0.1734 -0.1036
 3440SOL    HW121779   0.210   3.550  12.945  2.6983 -0.7255  0.7528
 3440SOL    HW221780   0.297   3.475  12.860  1.2400  0.5054  2.5498
 3441SOL     OW21781   4.321   0.797   3.074 -0.1291  0.3781  0.1122
 3441SOL    HW121782   4.263   0.730   3.037 -1.7266  2.1130 -0.5430
 3441SOL    HW221783   4.289   0.805   3.164  2.8534  1.1289  1.1044
 3442SOL     OW21784   3.699   4.474  12.128  0.4462 -0.5693 -0.2052
 3442SOL    HW121785   3.707   4.548  12.189  1.5389 -0.8991  0.0502
 3442SOL    HW221786   3.775   4.493  12.074 -0.4143  0.9787 -0.8915
 3443SOL     OW21787   3.571   3.308   9.328 -0.6681  0.4453  0.0683
 3443SOL    HW121788   3.637   3.258   9.376 -1.0818 -1.0768 -0.9404
 3443SOL    HW221789   3.519   3.343   9.400  1.1730  2.5700  0.3517
 3444SOL     OW21790   2.059   4.227  15.936 -0.3825  0.3607 -0.3111
 3444SOL    HW121791   1.973   4.186  15.924  0.2633 -0.7542 -1.1024
 3444SOL    HW221792   2.058   4.260  16.026  1.6679  0.2919 -0.2643
 3445SOL     OW21793   4.384   3.460   8.687 -0.4295  0.6270 -0.2111
 3445SOL    HW121794   4.394   3.366   8.671  3.2572  1.0557 -0.2704
 3445SOL    HW221795   4.298   3.465   8.646 -0.6162 -0.4254  0.0402
 3446SOL     OW21796   1.096   2.795  11.538  0.1466  0.5113 -0.0061
 3446SOL    HW121797   1.058   2.748  11.464 -1.5798 -1.7662  2.3806
 3446SOL    HW221798   1.191   2.801  11.525  0.2366  1.5496  1.0985
 3447SOL     OW21799   0.285   1.284  17.523  0.3513 -0.3784 -0.1427
 3447SOL    HW121800   0.333   1.336  17.588 -0.2178  0.6493 -0.5499
 3447SOL    HW221801   0.351   1.215  17.516 -2.4142 -3.0347 -0.0415
 3448SOL     OW21802   1.064   0.036  10.422 -0.2769 -0.4272 -0.0016
 3448SOL    HW121803   1.098   0.064  10.337  1.4983 -4.7866 -0.7536
 3448SOL    HW221804   1.125   4.687  10.443 -0.2803 -0.0120  1.4132
 3449SOL     OW21805   3.858   0.744  14.937 -0.2766  0.1207  0.2977
 3449SOL    HW121806   3.799   0.706  14.872 -1.0350  2.1743 -0.2026
 3449SOL    HW221807   3.807   0.812  14.981 -0.0777  0.1409  0.4986
 3450SOL     OW21808   2.497   4.424   5.459 -0.0238  0.1922  0.2543
 3450SOL    HW121809   2.454   4.349   5.499  2.0946 -0.8061  0.6903
 3450SOL    HW221810   2.473   4.491   5.524  0.0093  1.1797 -0.7445
 3451SOL     OW21811   4.548   0.577  10.834 -0.2242 -0.0975  0.0884
 3451SOL    HW121812   4.546   0.670  10.808 -1.3381  0.0576  0.7275
 3451SOL    HW221813   4.562   0.542  10.746  1.3653 -1.1510  0.7506
 3452SOL     OW21814   1.151   4.454   3.915 -0.0903  0.2671 -0.1849
 3452SOL    HW121815   1.139   4.390   3.845 -2.0796  0.3691  0.0636
 3452SOL    HW221816   1.096   4.528   3.889 -1.0235 -0.5159 -0.4433
 3453SOL     OW21817   0.181   0.889   9.259  0.7035 -0.0992 -0.1578
 3453SOL    HW121818   0.094   0.923   9.279  0.6904 -1.1621  1.5608
 3453SOL    HW221819   0.166   0.803   9.298  0.7415 -0.3513 -0.7006
 3454SOL     OW21820   4.470   4.587   2.660 -0.0913  0.0414  0.7854
 3454SOL    HW121821   4.447   4.614   2.749  4.5008 -0.1132  1.9848
 3454SOL    HW221822   4.536   4.650   2.635 -2.2083  1.3628 -1.4414
 3455SOL     OW21823   1.233   1.577   1.843  0.4165  0.6265 -0.8604
 3455SOL    HW121824   1.138   1.586   1.842  0.4607  1.0713 -1.4639
 3455SOL    HW221825   1.246   1.548   1.933 -1.6466  1.4662 -0.2898
 3456SOL     OW21826   4.169   2.151  13.293 -0.4250  0.1180  0.2088
 3456SOL    HW121827   4.181   2.148  13.388  2.2725  0.7239 -0.0823
 3456SOL    HW221828   4.256   2.169  13.256 -0.1217 -0.5580  0.5855
 3457SOL     OW21829   3.734   0.135  16.213  0.3702  0.0479  0.1730
 3457SOL    HW121830   3.662   0.192  16.239  1.3885  1.3321  0.1680
 3457SOL    HW221831   3.740   0.171  16.124  1.5489 -1.4846 -0.3651
 3458SOL     OW21832   0.641   3.736  13.015 -0.7901 -0.0648  0.3089
 3458SOL    HW121833   0.661   3.814  13.067  0.5776 -1.4478  1.8292
 3458SOL    HW221834   0.703   3.750  12.944 -0.2551 -1.7186  0.4662
 3459SOL     OW21835   2.985   1.444  17.485  0.3063 -0.0031 -0.1061
 3459SOL    HW121836   2.908   1.440  17.428  2.1481 -1.3518 -2.5171
 3459SOL    HW221837   3.028   1.527  17.462  1.1180 -0.4917 -0.3175
 3460SOL     OW21838   2.955   4.010   8.154  0.3726  0.1865 -0.3536
 3460SOL    HW121839   3.001   4.094   8.151  0.0163  0.2988 -3.0874
 3460SOL    HW221840   3.000   3.964   8.083  0.9319  0.9565 -0.5050
 3461SOL     OW21841   3.308   1.117   0.327 -0.3719  0.4301 -0.2207
 3461SOL    HW121842   3.252   1.078   0.394  0.7519 -0.0183  0.4690
 3461SOL    HW221843   3.268   1.092   0.243  0.0213 -0.5779 -0.1088
 3462SOL     OW21844   1.272   0.050  16.275 -0.0161 -0.2515 -0.3057
 3462SOL    HW121845   1.247   0.123  16.218  1.8463  0.9347  0.3962
 3462SOL    HW221846   1.253   0.081  16.363  1.4355  1.4230 -0.5828
 3463SOL     OW21847   2.819   1.897   4.917 -0.2320 -0.0289  0.1851
 3463SOL    HW121848   2.745   1.958   4.906 -0.9218 -0.9310 -0.1188
 3463SOL    HW221849   2.888   1.954   4.951  0.1630 -1.2671  1.4193
 3464SOL     OW21850   0.424   0.433   8.205 -0.6666  0.0242  0.5080
 3464SOL    HW121851   0.473   0.388   8.136  1.0871  1.0595  1.0796
 3464SOL    HW221852   0.488   0.499   8.231 -0.9492  0.9499 -1.1582
 3465SOL     OW21853   0.551   0.662   1.478  0.3164  0.2708 -0.4841
 3465SOL    HW121854   0.477   0.609   1.449  2.1777 -2.8871  0.4961
 3465SOL    HW221855   0.613   0.652   1.406  0.4279  0.1088 -0.3671
 3466SOL     OW21856   0.602   0.265   2.531 -0.0970  0.0134  0.7963
 3466SOL    HW121857   0.598   0.359   2.516 -1.0889 -0.1862 -0.1822
 3466SOL    HW221858   0.695   0.244   2.544  0.6411  2.3351 -0.8418
 3467SOL     OW21859   3.960   0.743   5.901 -0.4913  0.2648  0.0280
 3467SOL    HW121860   3.994   0.780   5.819 -0.0917 -0.5426 -0.1731
 3467SOL    HW221861   3.931   0.826   5.938 -1.7440 -0.0939 -0.1662
 3468SOL     OW21862   3.780   4.454   8.070 -0.8433  0.7433 -0.0098
 3468SOL    HW121863   3.760   4.387   8.136 -1.4212  0.8211 -0.1043
 3468SOL    HW221864   3.755   4.537   8.112  0.7661  1.4951 -0.5333
 3469SOL     OW21865   2.883   1.347  15.496 -0.3530  0.1378 -0.0207
 3469SOL    HW121866   2.889   1.358  15.402 -0.2092  3.4281  0.3849
 3469SOL    HW221867   2.852   1.432  15.528  1.0412  0.3654  0.7312
 3470SOL     OW21868   4.423   2.633   4.845 -0.0301 -0.4379 -0.1276
 3470SOL    HW121869   4.341   2.678   4.826  0.4877  1.9020  3.2169
 3470SOL    HW221870   4.392   2.612   4.933 -0.3984  0.2547 -0.0961
 3471SOL     OW21871   3.600   0.762   0.695 -0.5383 -0.1264  0.2402
 3471SOL    HW121872   3.542   0.768   0.771 -2.6930  0.0000 -1.4187
 3471SOL    HW221873   3.542   0.787   0.623 -0.4498 -0.8629 -0.0936
 3472SOL     OW21874   4.611   2.645   2.886  0.7443  0.1374  0.1904
 3472SOL    HW121875   4.639   2.601   2.966 -1.3850  0.1076  0.9213
 3472SOL    HW221876   4.638   2.733   2.911 -0.9675  0.7487 -0.1566
 3473SOL     OW21877   0.491   0.594   4.325  0.1361  0.0876 -0.2478
 3473SOL    HW121878   0.526   0.574   4.238  0.1717  1.9669 -0.6599
 3473SOL    HW221879   0.558   0.554   4.381 -1.5462 -1.6576  0.5166
 3474SOL     OW21880   0.563   0.811   4.749  0.0167 -0.4177 -0.2960
 3474SOL    HW121881   0.605   0.731   4.718  1.0393  0.0034  0.0143
 3474SOL    HW221882   0.643   0.853   4.779 -0.5435 -1.2041  2.2718
 3475SOL     OW21883   0.337   2.310   8.476 -0.2122  0.3993  0.3959
 3475SOL    HW121884   0.252   2.341   8.444 -0.7381  0.2795  1.6767
 3475SOL    HW221885   0.316   2.217   8.478  1.0580  0.1246  0.6205
 3476SOL     OW21886   0.012   2.923   5.231 -0.3745  0.2936  0.8134
 3476SOL    HW121887   4.652   2.933   5.183  0.9884  2.2106 -1.1207
 3476SOL    HW221888   0.054   3.006   5.208 -1.6577  1.1562  1.6053
 3477SOL     OW21889   1.687   3.459   3.862  0.1972 -0.4432 -0.2117
 3477SOL    HW121890   1.754   3.447   3.795  0.5065  0.6011 -0.0948
 3477SOL    HW221891   1.656   3.548   3.841  2.0367 -0.0884 -1.4779
 3478SOL     OW21892   0.638   2.115  14.840  0.4951  0.0989 -0.0138
 3478SOL    HW121893   0.625   2.208  14.826  0.6884 -0.0717 -1.3566
 3478SOL    HW221894   0.591   2.089  14.761  0.2244  0.8689 -0.1045
 3479SOL     OW21895   3.617   2.667  12.987 -0.2303  0.1326  0.2042
 3479SOL    HW121896   3.673   2.590  12.991 -1.0146 -0.4052  0.6992
 3479SOL    HW221897   3.592   2.674  12.895 -0.4959  1.5729  0.3864
 3480SOL     OW21898   2.032   3.302   5.097  0.0862 -0.8580 -0.2187
 3480SOL    HW121899   1.977   3.359   5.152  0.3658  0.2860 -1.1214
 3480SOL    HW221900   1.979   3.223   5.087  0.5896 -1.1968 -0.2328
 3481SOL     OW21901   2.438   3.355   2.650  0.1643  0.1121 -0.0330
 3481SOL    HW121902   2.521   3.370   2.695 -0.4906 -0.2304  1.3233
 3481SOL    HW221903   2.460   3.340   2.559 -1.2776 -0.7325 -0.2459
 3482SOL     OW21904   1.712   3.674  12.398  0.4886 -0.3597  0.3628
 3482SOL    HW121905   1.709   3.734  12.472 -1.5049  0.6434 -0.5363
 3482SOL    HW221906   1.658   3.598  12.420  0.3480 -0.3265  0.1392
 3483SOL     OW21907   1.125   1.911   6.787 -0.0846  0.5114 -0.0095
 3483SOL    HW121908   1.080   1.995   6.777 -0.6479  0.2722  0.5892
 3483SOL    HW221909   1.049   1.855   6.802  0.8644 -0.9480 -0.5500
 3484SOL     OW21910   1.142   1.930   4.920  0.4796  0.1095  0.2304
 3484SOL    HW121911   1.127   2.000   4.984  0.4186  1.1525 -0.9144
 3484SOL    HW221912   1.198   1.868   4.966  0.9975  0.4973  0.1306
 3485SOL     OW21913   4.330   0.925  10.087 -0.4874  0.1075  0.3699
 3485SOL    HW121914   4.348   0.832  10.095  1.8510  0.4038 -1.2951
 3485SOL    HW221915   4.342   0.947  10.180  1.9325 -1.5110  0.4481
 3486SOL     OW21916   3.373   1.846   2.385 -0.5905  0.4635  0.1601
 3486SOL    HW121917   3.329   1.766   2.354  1.8316  0.3617 -2.9945
 3486SOL    HW221918   3.414   1.818   2.467  1.8222  2.1248 -0.4731
 3487SOL     OW21919   0.420   0.616   2.269  0.0176  0.0985 -0.6981
 3487SOL    HW121920   0.497   0.627   2.214  0.5917 -0.0953  0.0693
 3487SOL    HW221921   0.367   0.685   2.230 -0.7316 -0.7484 -1.1714
 3488SOL     OW21922   4.572   2.214   3.073  0.2792 -0.0156  0.1066
 3488SOL    HW121923   4.508   2.261   3.126 -1.1913  1.1613 -2.7302
 3488SOL    HW221924   4.523   2.152   3.019  1.8991 -1.1318 -0.0899
 3489SOL     OW21925   1.702   0.273   6.139  0.0905  0.2839  0.7138
 3489SOL    HW121926   1.609   0.255   6.147 -0.3419  1.8454 -0.8619
 3489SOL    HW221927   1.722   0.367   6.142 -0.4231  0.3853  0.9966
 3490SOL     OW21928   0.084   2.870   4.191 -0.3751  0.0091 -0.0286
 3490SOL    HW121929   0.050   2.848   4.104  0.0884 -3.2172  0.5889
 3490SOL    HW221930   0.100   2.964   4.183 -1.7978  0.2072 -0.4548
 3491SOL     OW21931   2.026   3.247   3.511 -0.2919 -0.3395  0.1813
 3491SOL    HW121932   2.108   3.277   3.472 -2.1696  1.3745 -2.5128
 3491SOL    HW221933   2.060   3.175   3.564  1.5064  1.2046  1.1113
 3492SOL     OW21934   2.722   2.590   5.984 -0.0022 -0.5065  0.1890
 3492SOL    HW121935   2.769   2.609   6.065  0.6964  3.3795 -1.1366
 3492SOL    HW221936   2.777   2.530   5.933 -1.3109  0.6780 -2.6400
 3493SOL     OW21937   2.487   3.852   3.944 -0.3877 -0.4435 -0.1179
 3493SOL    HW121938   2.447   3.819   4.025 -3.5224 -1.8865 -2.2374
 3493SOL    HW221939   2.571   3.808   3.957 -1.5549 -2.1234  2.0120
 3494SOL     OW21940   0.862   2.349  12.072  0.3669 -0.3556  0.5363
 3494SOL    HW121941   0.921   2.293  12.122  0.8987  1.5903  2.0651
 3494SOL    HW221942   0.782   2.296  12.075  1.4142 -2.0096 -0.5042
 3495SOL     OW21943   0.231   4.635  16.084  0.1433 -0.3181  0.4103
 3495SOL    HW121944   0.178   4.655  16.006  3.2774  0.2333 -1.6176
 3495SOL    HW221945   0.179   4.673  16.154 -0.1632 -0.5197  0.2895
 3496SOL     OW21946   0.060   4.328   3.583 -0.5001  0.0792  0.2937
 3496SOL    HW121947   0.072   4.370   3.668  1.8052  2.3550 -1.1458
 3496SOL    HW221948   0.065   4.239   3.617 -1.8138  0.3444  1.1792
 3497SOL     OW21949   2.375   4.224   0.172  0.1611  0.2756 -0.2845
 3497SOL    HW121950   2.296   4.213   0.119 -0.9953  2.7630  0.8721
 3497SOL    HW221951   2.404   4.309   0.139 -0.7947  1.3391  1.6172
 3498SOL     OW21952   1.981   1.418   9.027  0.6420 -0.0131  0.3087
 3498SOL    HW121953   2.030   1.347   9.069 -0.4434 -0.4893  0.7581
 3498SOL    HW221954   2.003   1.488   9.088 -0.1023  0.4565  0.0413
 3499SOL     OW21955   0.179   4.000   1.436 -0.0728  0.1906  0.0848
 3499SOL    HW121956   0.179   4.082   1.487 -3.8262  0.1936  0.0756
 3499SOL    HW221957   0.133   4.013   1.353  0.7730 -0.2649 -0.4582
 3500SOL     OW21958   3.258   1.028  13.296  0.9339 -0.7505 -0.4091
 3500SOL    HW121959   3.201   0.954  13.318 -0.6443  0.7906  0.6082
 3500SOL    HW221960   3.272   1.016  13.202 -4.1620  1.7015 -1.4888
 3501SOL     OW21961   3.205   0.213  16.192 -0.2836  0.0412 -0.1265
 3501SOL    HW121962   3.283   0.231  16.139 -1.7121 -1.6444 -2.7342
 3501SOL    HW221963   3.233   0.237  16.281 -1.9286 -0.0927  0.4218
 3502SOL     OW21964   2.223   3.613  10.331  0.4231 -0.2130  0.0315
 3502SOL    HW121965   2.287   3.597  10.400 -0.8164  2.1481  1.7157
 3502SOL    HW221966   2.267   3.570  10.257  0.7150  0.8651 -0.4333
 3503SOL     OW21967   1.642   4.450  11.949 -0.0230 -0.0377 -0.6916
 3503SOL    HW121968   1.705   4.435  11.879 -1.7691  2.0809 -2.7005
 3503SOL    HW221969   1.690   4.492  12.020 -0.8319 -0.8125  0.3133
 3504SOL     OW21970   2.681   0.266   2.512  0.3242  0.1410 -0.0836
 3504SOL    HW121971   2.612   0.332   2.508  0.8410  0.5754 -1.6357
 3504SOL    HW221972   2.760   0.312   2.487  0.2783  0.3290  0.1195
 3505SOL     OW21973   0.951   4.447   8.021  0.3233  0.1361 -0.9692
 3505SOL    HW121974   0.901   4.452   7.940 -0.1741 -1.2504 -0.7488
 3505SOL    HW221975   0.891   4.487   8.084 -0.3172  0.8063 -2.0023
 3506SOL     OW21976   0.221   2.954   7.768  0.0247  0.4337  0.4995
 3506SOL    HW121977   0.311   2.985   7.777  0.6433 -0.6399 -1.9735
 3506SOL    HW221978   0.216   2.883   7.831  0.4985 -0.1042 -0.0733
 3507SOL     OW21979   0.654   0.303   5.599  1.0801 -0.2245  0.0688
 3507SOL    HW121980   0.611   0.336   5.519  1.4410  0.6818  0.2470
 3507SOL    HW221981   0.582   0.265   5.649 -0.1346  1.5553 -0.3052
 3508SOL     OW21982   0.466   2.295   8.748 -0.0416  0.1262  0.2250
 3508SOL    HW121983   0.410   2.346   8.807 -0.9500 -0.3531 -0.2266
 3508SOL    HW221984   0.430   2.311   8.661  0.1989  2.0340  0.4833
 3509SOL     OW21985   2.383   4.005   4.749 -0.0956 -0.0088  0.8562
 3509SOL    HW121986   2.464   4.002   4.800  1.6213  0.7672 -1.8115
 3509SOL    HW221987   2.369   3.913   4.728 -5.0482  0.9191  0.0552
 3510SOL     OW21988   0.042   0.138   2.927 -0.3435 -0.0180  0.3400
 3510SOL    HW121989   4.713   0.178   2.998 -1.3451 -0.0336 -0.3709
 3510SOL    HW221990   0.059   0.221   2.881 -1.6912 -0.8010 -1.5770
 3511SOL     OW21991   3.287   1.011   5.389  0.3441 -0.7448 -0.7594
 3511SOL    HW121992   3.370   0.967   5.405 -0.4931 -1.7950  0.7148
 3511SOL    HW221993   3.235   0.931   5.396 -1.8668  0.3778 -4.4366
 3512SOL     OW21994   1.035   0.274   3.109 -0.0758  0.6201  0.1730
 3512SOL    HW121995   0.992   0.207   3.163  0.4915  0.2296  0.1524
 3512SOL    HW221996   0.999   0.255   3.022  1.1179 -0.4607 -0.1039
 3513SOL     OW21997   2.970   4.409   1.778  0.0993  0.0563  0.6215
 3513SOL    HW121998   3.051   4.460   1.768  1.3816 -1.4575  3.3729
 3513SOL    HW221999   3.015   4.325   1.766 -0.1060  0.2945 -1.9216
 3514SOL     OW22000   4.454   0.195   7.157  0.3622 -0.4630 -0.5704
 3514SOL    HW122001   4.485   0.167   7.070  1.2388  0.0761 -0.4362
 3514SOL    HW222002   4.457   0.291   7.152 -0.7246 -0.3692  0.8321
 3515SOL     OW22003   2.750   0.820  12.866  0.0361  0.2992  0.6319
 3515SOL    HW122004   2.794   0.740  12.838  0.1232  1.2060 -1.8417
 3515SOL    HW222005   2.808   0.839  12.939  0.6103 -0.3446  0.3329
 3516SOL     OW22006   3.655   1.357  13.245  0.2993 -0.5659 -0.4973
 3516SOL    HW122007   3.675   1.450  13.235  0.8347 -0.4204  1.9786
 3516SOL    HW222008   3.566   1.356  13.211  0.3466  0.5018 -0.6515
 3517SOL     OW22009   3.553   2.811  11.140  0.3243 -0.5630 -0.1121
 3517SOL    HW122010   3.475   2.834  11.090  0.3874 -0.0350  0.0346
 3517SOL    HW222011   3.520   2.744  11.199  0.8775 -0.4732  0.3036
 3518SOL     OW22012   3.677   3.952   5.260  0.2299 -0.2685  0.3777
 3518SOL    HW122013   3.663   3.957   5.355 -0.3138 -0.1294  0.2905
 3518SOL    HW222014   3.739   3.879   5.253  0.0345 -0.2178 -1.9624
 3519SOL     OW22015   0.070   1.117   1.291 -0.5949 -0.0280  0.1921
 3519SOL    HW122016   0.066   1.106   1.386  0.7300 -0.9230  0.1486
 3519SOL    HW222017   0.036   1.206   1.279 -0.4635 -0.1431 -0.9513
 3520SOL     OW22018   0.181   0.701   9.929  0.3864  0.2186  0.1212
 3520SOL    HW122019   0.265   0.698   9.883  1.0832  0.2508  1.3907
 3520SOL    HW222020   0.181   0.778   9.986 -2.6458  0.2680  0.0342
 3521SOL     OW22021   1.474   4.052   5.447  0.2239 -0.2487 -0.0811
 3521SOL    HW122022   1.509   4.054   5.536  5.0267 -3.1653 -1.9126
 3521SOL    HW222023   1.384   4.075   5.468  0.0762 -1.3833  0.5079
 3522SOL     OW22024   0.076   4.061   4.874 -0.4049 -0.1297 -0.1153
 3522SOL    HW122025   0.095   4.086   4.965 -1.7605 -0.4713  0.2579
 3522SOL    HW222026   0.149   4.003   4.853  0.0342 -0.0590  1.2243
 3523SOL     OW22027   3.684   2.877   6.850 -0.6650 -0.3685 -0.0085
 3523SOL    HW122028   3.727   2.795   6.825 -0.0234  0.4255 -1.5844
 3523SOL    HW222029   3.629   2.839   6.918 -1.0585  0.0390 -0.1026
 3524SOL     OW22030   0.343   1.918   5.910  0.4577 -0.4194 -0.7161
 3524SOL    HW122031   0.397   1.894   5.835  1.4794  1.1109 -0.4611
 3524SOL    HW222032   0.405   1.968   5.963  0.8787  0.4866 -2.0576
 3525SOL     OW22033   1.944   4.713   6.512  0.4419  0.0379 -0.1366
 3525SOL    HW122034   1.934   4.633   6.461 -2.2843  0.3043 -0.0030
 3525SOL    HW222035   1.894   0.055   6.460  2.3143 -0.2887 -2.3583
 3526SOL     OW22036   2.675   1.216   3.293 -0.4622 -0.1966  0.1552
 3526SOL    HW122037   2.598   1.163   3.315 -0.0549 -1.1059 -0.5730
 3526SOL    HW222038   2.738   1.180   3.355 -2.4348 -1.3983  1.4576
 3527SOL     OW22039   2.595   1.488  12.463 -0.6376 -0.7156  0.0653
 3527SOL    HW122040   2.624   1.399  12.482  1.9517  0.4985  1.7991
 3527SOL    HW222041   2.625   1.496  12.372  0.9389 -0.5035  0.5959
 3528SOL     OW22042   3.106   1.813   1.990 -0.1365 -0.2270 -0.0771
 3528SOL    HW122043   3.115   1.905   1.963 -0.2331 -0.4949 -1.0179
 3528SOL    HW222044   3.171   1.776   1.930  0.2112  0.0767  0.1090
 3529SOL     OW22045   4.204   2.084   6.671 -0.6775  0.5079 -0.0313
 3529SOL    HW122046   4.160   2.083   6.585 -0.6295  0.1218 -0.0528
 3529SOL    HW222047   4.188   1.995   6.702  2.8839 -0.1238  0.0158
 3530SOL     OW22048   1.637   3.551   0.140 -0.0087  0.2087 -0.0676
 3530SOL    HW122049   1.550   3.520   0.115  1.3822 -4.1266  0.3811
 3530SOL    HW222050   1.610   3.618   0.203  0.6564  0.0069  0.4448
 3531SOL     OW22051   1.540   3.855  16.743  0.3963 -0.5822  0.2491
 3531SOL    HW122052   1.584   3.775  16.715  1.5685  0.0953  0.1649
 3531SOL    HW222053   1.479   3.849  16.669 -0.4187 -1.2783  0.9802
 3532SOL     OW22054   1.770   0.455   1.223 -0.4340 -0.4372  0.0526
 3532SOL    HW122055   1.685   0.479   1.259 -0.6799 -3.3487  1.4034
 3532SOL    HW222056   1.813   0.540   1.213  1.6093 -1.3801  0.8078
 3533SOL     OW22057   2.137   2.622   7.869 -0.4213 -0.8161  0.5159
 3533SOL    HW122058   2.081   2.546   7.850  0.9075 -2.1930  2.1446
 3533SOL    HW222059   2.141   2.658   7.780  0.1259  2.4260  1.8459
 3534SOL     OW22060   4.693   2.586   5.110  0.4445 -0.0984  0.4448
 3534SOL    HW122061   4.707   2.681   5.100 -1.5616  0.2090  0.5073
 3534SOL    HW222062   4.610   2.577   5.157  1.3137  0.2040  2.0077
 3535SOL     OW22063   1.783   2.519   6.711  0.2632  0.1094 -0.5253
 3535SOL    HW122064   1.728   2.452   6.750 -1.0092  0.6097 -1.4507
 3535SOL    HW222065   1.725   2.555   6.644  0.5999 -1.1291 -1.4809
 3536SOL     OW22066   3.387   0.302   8.648  0.0716  0.3604 -0.1331
 3536SOL    HW122067   3.412   0.364   8.580  0.2096 -1.0402 -1.3724
 3536SOL    HW222068   3.341   0.229   8.605 -0.8053  0.0280  1.3728
 3537SOL     OW22069   3.454   3.997   5.980  0.4710 -0.4973 -0.2708
 3537SOL    HW122070   3.530   4.026   6.029  0.6676  2.8234 -2.5276
 3537SOL    HW222071   3.412   4.083   5.974  1.2787 -0.1374 -0.7304
 3538SOL     OW22072   2.442   1.540   4.794 -0.3390  0.3779 -0.2127
 3538SOL    HW122073   2.430   1.575   4.706 -0.0184 -0.3117 -0.5342
 3538SOL    HW222074   2.523   1.584   4.820  0.0444 -0.0604 -0.6552
 3539SOL     OW22075   3.959   1.018  17.209 -0.1543 -0.2203 -0.4288
 3539SOL    HW122076   3.914   0.957  17.267 -1.5414  1.8866  0.6947
 3539SOL    HW222077   3.938   1.098  17.257  1.3158  0.5443 -1.0771
 3540SOL     OW22078   4.107   2.801   4.482 -0.2497  0.0132 -0.3834
 3540SOL    HW122079   4.069   2.887   4.503  1.3392  0.6933 -0.2979
 3540SOL    HW222080   4.032   2.743   4.497 -2.2367  2.4007 -0.9885
 3541SOL     OW22081   1.535   3.989   8.424 -0.7122 -0.1506  0.1077
 3541SOL    HW122082   1.519   3.896   8.408 -0.3114  0.3452 -3.0751
 3541SOL    HW222083   1.557   4.018   8.336  1.7528  2.0005  1.4406
 3542SOL     OW22084   0.912   3.572   7.254 -0.9870 -0.4891 -0.1310
 3542SOL    HW122085   0.821   3.583   7.225 -0.5569  0.0828 -1.2359
 3542SOL    HW222086   0.900   3.500   7.316 -0.3564 -2.2847 -2.0925
 3543SOL     OW22087   2.068   0.833  11.092 -0.1345  0.0942 -0.5353
 3543SOL    HW122088   2.005   0.849  11.162  0.2700  0.9887 -0.3886
 3543SOL    HW222089   2.022   0.852  11.010  0.1055 -0.9417 -0.9155
 3544SOL     OW22090   0.163   2.852  17.596  0.0835 -0.1542 -0.1014
 3544SOL    HW122091   0.162   2.796  17.674  1.8767 -2.2111 -1.5842
 3544SOL    HW222092   0.080   2.897  17.615  0.9622  1.2902  0.3304
 3545SOL     OW22093   3.657   0.587   7.160 -0.1249 -0.1410 -0.2540
 3545SOL    HW122094   3.642   0.582   7.066  1.9265  2.1644 -0.7259
 3545SOL    HW222095   3.749   0.613   7.155 -0.3058  0.5923  0.2216
 3546SOL     OW22096   4.448   0.698  13.507 -0.0010 -0.0795  0.4376
 3546SOL    HW122097   4.410   0.654  13.583  0.5243  2.7206  2.3203
 3546SOL    HW222098   4.380   0.693  13.439  0.1301  0.8258  0.2388
 3547SOL     OW22099   4.485   2.486   4.539  0.3273 -0.4950  0.3912
 3547SOL    HW122100   4.509   2.432   4.464  1.7938 -1.3320  1.4407
 3547SOL    HW222101   4.420   2.544   4.501  0.5368 -0.4088  0.1592
 3548SOL     OW22102   4.679   4.507   5.406  0.1430  0.7855 -0.2732
 3548SOL    HW122103   0.007   4.426   5.411  1.1758  1.4605  0.3364
 3548SOL    HW222104   4.662   4.523   5.499 -3.3491 -1.3284 -0.5564
 3549SOL     OW22105   3.716   1.319  17.144 -0.1729 -0.2516  0.4139
 3549SOL    HW122106   3.751   1.310  17.232  0.4166  2.6707  0.4810
 3549SOL    HW222107   3.620   1.320  17.152 -0.2567  0.5426 -0.6110
 3550SOL     OW22108   1.009   4.720   0.056 -0.2902 -0.2217 -0.4071
 3550SOL    HW122109   1.038   4.713   0.147  0.4607 -0.5117 -0.6641
 3550SOL    HW222110   0.925   0.042   0.069  0.1685  0.4636  0.2649
 3551SOL     OW22111   3.242   2.052   6.444 -0.5169 -0.3532 -0.0772
 3551SOL    HW122112   3.270   1.991   6.376  1.7607  0.8278 -0.1949
 3551SOL    HW222113   3.262   1.998   6.521 -0.6717  0.0676  0.2564
 3552SOL     OW22114   4.702   1.284   3.082  0.1247  0.1377  0.3805
 3552SOL    HW122115   4.720   1.227   3.156 -1.7155 -0.4101  0.4091
 3552SOL    HW222116   4.715   1.370   3.122  0.4181 -0.2259  1.0774
 3553SOL     OW22117   1.033   2.493   8.440  0.1014  0.0417 -0.1731
 3553SOL    HW122118   0.988   2.425   8.491 -0.8953  0.4231 -0.5293
 3553SOL    HW222119   0.969   2.563   8.457  0.9932  0.1250  2.7688
 3554SOL     OW22120   3.504   3.809   7.808 -0.2133  0.7596 -0.2295
 3554SOL    HW122121   3.549   3.726   7.820 -1.4139  0.3607  1.5029
 3554SOL    HW222122   3.443   3.810   7.882  0.0481 -1.7539  0.0223
 3555SOL     OW22123   3.495   4.641   4.828  0.5836 -0.3655  0.8927
 3555SOL    HW122124   3.482   4.627   4.922 -0.0302  1.7792  1.1347
 3555SOL    HW222125   3.589   4.650   4.818  0.2266 -0.1513 -2.2837
 3556SOL     OW22126   1.653   0.697   4.047  0.1478 -0.5672  0.0033
 3556SOL    HW122127   1.654   0.740   4.133 -0.3181  0.1811 -0.3647
 3556SOL    HW222128   1.733   0.645   4.048  1.3168  1.2800  1.7589
 3557SOL     OW22129   0.281   4.129   4.519 -0.2271  0.0790  0.4406
 3557SOL    HW122130   0.301   4.146   4.611 -1.0113 -1.0418  0.8209
 3557SOL    HW222131   0.186   4.134   4.517 -0.1982 -0.2008 -3.0831
 3558SOL     OW22132   3.683   0.113   2.864  0.0540  0.3720 -0.2618
 3558SOL    HW122133   3.651   0.106   2.954 -0.5929  3.5389 -0.2554
 3558SOL    HW222134   3.751   0.179   2.879  0.1073  0.2263  0.1556
 3559SOL     OW22135   0.131   2.203   7.515 -0.0895  0.6995 -0.0373
 3559SOL    HW122136   0.055   2.185   7.460  0.9672 -1.5746 -0.7242
 3559SOL    HW222137   0.145   2.120   7.562  2.6596  1.2009 -0.0061
 3560SOL     OW22138   4.276   3.548   5.938  0.0331 -0.0827 -0.2597
 3560SOL    HW122139   4.326   3.619   5.899  1.6773 -1.8792 -1.4064
 3560SOL    HW222140   4.333   3.522   6.010 -2.0391  1.0081  1.8017
 3561SOL     OW22141   4.481   4.122   8.544 -0.3243 -0.3487  0.7499
 3561SOL    HW122142   4.521   4.132   8.631 -2.3479  2.8640  1.3413
 3561SOL    HW222143   4.395   4.080   8.551 -1.0767  1.0437 -0.0307
 3562SOL     OW22144   2.090   2.095   3.454 -0.4824 -0.3282  0.0247
 3562SOL    HW122145   2.007   2.122   3.495 -0.2854 -0.7396  0.6973
 3562SOL    HW222146   2.093   2.008   3.495 -0.0491  0.5362  1.8418
 3563SOL     OW22147   2.423   3.074   7.770  0.0631 -0.3104 -0.4825
 3563SOL    HW122148   2.351   3.099   7.713 -0.2927  0.6020  0.3724
 3563SOL    HW222149   2.487   3.058   7.700  0.5937  0.7467 -0.2448
 3564SOL     OW22150   1.442   2.298   9.092 -0.1025 -0.5033 -0.5394
 3564SOL    HW122151   1.439   2.393   9.099  0.0374 -0.3956 -1.8901
 3564SOL    HW222152   1.373   2.283   9.157 -0.9741  1.6348 -0.9839
 3565SOL     OW22153   3.573   1.257   8.279 -0.0372  0.2643 -0.7095
 3565SOL    HW122154   3.534   1.250   8.192 -0.9668  3.5491 -0.5320
 3565SOL    HW222155   3.566   1.166   8.309 -0.7467 -0.1917 -2.2793
 3566SOL     OW22156   2.493   0.084   2.663 -0.2251 -1.1834  0.6276
 3566SOL    HW122157   2.583   0.057   2.681  0.8778  0.9347 -1.7126
 3566SOL    HW222158   2.496   0.060   2.570 -2.9519  1.0514 -0.0489
 3567SOL     OW22159   0.782   4.535   5.514 -0.4104  0.1758  0.3816
 3567SOL    HW122160   0.835   4.554   5.591  1.0823  1.5190 -0.9786
 3567SOL    HW222161   0.846   4.533   5.443  1.9502 -1.0295  2.5552
 3568SOL     OW22162   0.498   3.580  11.225 -0.1336  0.2788  0.0236
 3568SOL    HW122163   0.501   3.505  11.284  0.6599 -0.4669 -0.9601
 3568SOL    HW222164   0.460   3.542  11.146  0.8468 -0.0609 -0.2841
 3569SOL     OW22165   1.278   3.343   1.075  0.0000 -0.0732 -0.0988
 3569SOL    HW122166   1.310   3.295   1.152  2.5321  0.8546 -0.5801
 3569SOL    HW222167   1.259   3.271   1.014  0.2592  0.6524 -1.0183
 3570SOL     OW22168   0.523   0.883   2.471 -0.5798  0.2039 -0.2806
 3570SOL    HW122169   0.434   0.894   2.437  0.3163 -1.3304 -3.0768
 3570SOL    HW222170   0.508   0.868   2.564 -1.1709  0.0637 -0.3976
 3571SOL     OW22171   4.209   1.950  11.452  0.5745 -0.1369  0.4287
 3571SOL    HW122172   4.184   1.923  11.363  1.1533 -2.9280  1.1243
 3571SOL    HW222173   4.298   1.913  11.458 -0.0497 -1.4178  1.6601
 3572SOL     OW22174   2.288   1.504   4.522 -0.6078 -0.5095 -0.5903
 3572SOL    HW122175   2.317   1.523   4.433 -0.8594  0.3772 -0.4855
 3572SOL    HW222176   2.197   1.535   4.523 -0.4690 -0.1420  0.5009
 3573SOL     OW22177   3.394   3.225   8.209 -0.0520 -0.2667 -0.3173
 3573SOL    HW122178   3.337   3.154   8.237  0.1000 -1.5767 -3.3805
 3573SOL    HW222179   3.483   3.196   8.229 -0.0660 -0.9388 -1.2484
 3574SOL     OW22180   3.200   4.668  16.146 -0.2940  0.5013  0.2307
 3574SOL    HW122181   3.232   4.625  16.225  1.1616 -1.8844 -1.6475
 3574SOL    HW222182   3.199   0.039  16.168  0.6833  1.0957 -2.1926
 3575SOL     OW22183   2.290   0.118   0.702  0.1786  0.1405 -0.0058
 3575SOL    HW122184   2.269   0.027   0.723  2.6422 -0.5950 -0.7532
 3575SOL    HW222185   2.299   0.112   0.607  3.0248  0.5739  0.2557
 3576SOL     OW22186   1.275   0.309   1.479 -0.1647  0.0403 -0.1144
 3576SOL    HW122187   1.241   0.259   1.553  0.8473 -0.2840  0.1391
 3576SOL    HW222188   1.300   0.237   1.421 -1.3638 -0.7463  0.3330
 3577SOL     OW22189   0.638   0.124   7.044 -0.2559  0.3694  0.2122
 3577SOL    HW122190   0.699   0.123   7.118 -1.7573  0.1411  1.4574
 3577SOL    HW222191   0.689   0.078   6.977 -2.0348 -0.8144 -0.3465
 3578SOL     OW22192   2.033   3.920   7.292 -0.3443 -0.3517 -0.0192
 3578SOL    HW122193   2.120   3.929   7.253 -0.0773 -2.1630  0.1608
 3578SOL    HW222194   2.033   3.998   7.348 -0.9173 -1.8843  2.1050
 3579SOL     OW22195   0.321   2.118   1.655  0.6819 -0.1005  0.1821
 3579SOL    HW122196   0.360   2.033   1.673  1.1182 -0.4375 -2.2626
 3579SOL    HW222197   0.396   2.176   1.670 -0.6002  1.2303  1.4783
 3580SOL     OW22198   1.858   1.229   6.812  0.0736 -0.2063  0.5322
 3580SOL    HW122199   1.809   1.311   6.812  0.7378  0.1869  1.8564
 3580SOL    HW222200   1.820   1.198   6.893  0.3704 -2.5068 -0.2058
 3581SOL     OW22201   0.753   0.491  15.979  0.1464 -0.4284  0.1515
 3581SOL    HW122202   0.666   0.457  15.999 -0.9793  1.7570 -1.0971
 3581SOL    HW222203   0.799   0.420  15.933 -0.8846 -1.5387  0.8431
 3582SOL     OW22204   3.682   0.710   5.693 -0.3210  0.2269 -0.0988
 3582SOL    HW122205   3.773   0.697   5.666 -0.3888 -0.7817  0.1525
 3582SOL    HW222206   3.683   0.799   5.727  2.6044 -0.9318  2.9278
 3583SOL     OW22207   2.305   2.505   9.584 -0.0738 -0.0019 -0.1081
 3583SOL    HW122208   2.376   2.517   9.522  1.3346 -1.1361  1.2795
 3583SOL    HW222209   2.228   2.473   9.537  0.8125 -0.6391 -1.1266
 3584SOL     OW22210   3.164   1.121   7.759  0.3377  0.2069 -0.0440
 3584SOL    HW122211   3.135   1.032   7.737 -0.2497  0.6496 -1.0527
 3584SOL    HW222212   3.239   1.084   7.806 -2.0824 -0.4866  3.2332
 3585SOL     OW22213   1.578   4.497  15.701 -0.2480  0.7250 -0.2487
 3585SOL    HW122214   1.603   4.582  15.664 -1.0250 -0.7587 -4.1762
 3585SOL    HW222215   1.562   4.525  15.792  0.7063 -1.7657  0.6694
 3586SOL     OW22216   1.142   1.882   7.277  0.2816  0.3387 -0.4475
 3586SOL    HW122217   1.232   1.849   7.268  0.0952 -0.0657 -0.7910
 3586SOL    HW222218   1.139   1.875   7.372  3.2981  0.3406 -0.3593
 3587SOL     OW22219   4.713   1.627   1.984  0.0749 -0.1096 -0.1432
 3587SOL    HW122220   4.675   1.708   1.951  1.3210  1.4247  2.2201
 3587SOL    HW222221   4.682   1.620   2.074  1.2107  1.6538  0.3785
 3588SOL     OW22222   3.649   1.867  10.748  0.1519 -0.4046 -0.9577
 3588SOL    HW122223   3.593   1.903  10.679  0.4121  1.5049 -0.1479
 3588SOL    HW222224   3.737   1.887  10.714 -0.2684  2.2173 -0.4675
 3589SOL     OW22225   3.734   2.417  13.022  0.7870 -0.0712  0.3047
 3589SOL    HW122226   3.759   2.334  12.981  2.3680  0.1090  0.8965
 3589SOL    HW222227   3.807   2.426  13.083  0.4439 -0.3013  0.7469
 3590SOL     OW22228   3.529   2.284   5.638 -0.6688 -0.4797 -0.2118
 3590SOL    HW122229   3.536   2.379   5.636  1.2338 -0.6525 -1.6388
 3590SOL    HW222230   3.468   2.267   5.710 -1.4805 -0.8374 -0.9897
 3591SOL     OW22231   1.291   3.656   3.996 -0.2914 -0.2641  0.3435
 3591SOL    HW122232   1.214   3.692   4.039  0.7225  3.5618 -1.0568
 3591SOL    HW222233   1.355   3.642   4.066 -0.2919  0.9877  0.5887
 3592SOL     OW22234   0.913   0.897  10.104 -0.3191 -0.4463  0.0611
 3592SOL    HW122235   0.854   0.823  10.120  0.0894 -0.8814 -0.4181
 3592SOL    HW222236   0.981   0.858  10.049  0.3199  0.9642 -0.1360
 3593SOL     OW22237   3.562   0.162   8.853  0.2729 -0.1965 -0.0864
 3593SOL    HW122238   3.655   0.171   8.835  0.3958 -0.2313  0.5481
 3593SOL    HW222239   3.524   0.200   8.774  0.6288 -0.0412 -0.1808
 3594SOL     OW22240   2.388   1.495   8.042 -0.1262 -0.5610  0.3595
 3594SOL    HW122241   2.407   1.401   8.044 -1.8241 -0.9420 -1.0396
 3594SOL    HW222242   2.404   1.518   8.134  0.0187  1.1042 -0.0832
 3595SOL     OW22243   3.805   2.330   5.742  0.3143 -0.0004 -0.1492
 3595SOL    HW122244   3.728   2.385   5.752  0.8306  0.3949  1.6195
 3595SOL    HW222245   3.764   2.261   5.690  0.0576 -1.2954  1.7995
 3596SOL     OW22246   0.725   4.091   6.351  0.1350 -0.2539  0.3367
 3596SOL    HW122247   0.750   4.056   6.436 -1.5467 -1.0474  0.4942
 3596SOL    HW222248   0.633   4.064   6.345 -0.0792  0.4925  0.2324
 3597SOL     OW22249   2.529   0.587   1.548 -0.0380 -0.0600 -0.1779
 3597SOL    HW122250   2.548   0.505   1.501  3.4013  1.2555 -1.0823
 3597SOL    HW222251   2.435   0.590   1.529 -0.3994  2.5906  2.2284
 3598SOL     OW22252   2.278   4.610  13.716 -0.5891  0.0602  0.3979
 3598SOL    HW122253   2.300   4.519  13.697  0.1421  0.2296  0.4300
 3598SOL    HW222254   2.330   4.647  13.644  1.0929 -1.0099  1.0615
 3599SOL     OW22255   2.306   4.234   4.587 -0.5137  0.6955  0.0439
 3599SOL    HW122256   2.396   4.220   4.555 -0.7895  1.7722 -1.2538
 3599SOL    HW222257   2.297   4.163   4.650  1.2684  1.2576  0.9454
 3600SOL     OW22258   3.914   0.864   6.654 -0.2635 -0.3894 -0.1025
 3600SOL    HW122259   3.932   0.918   6.576  0.1333 -0.0088  0.2533
 3600SOL    HW222260   3.820   0.853   6.660 -0.3863  1.6872  1.4030
 3601SOL     OW22261   3.223   0.682  10.014 -0.1179 -0.4550 -0.4979
 3601SOL    HW122262   3.270   0.751   9.967 -0.2577  0.7734  1.1641
 3601SOL    HW222263   3.149   0.670   9.955 -0.6415 -0.5436  0.1810
 3602SOL     OW22264   0.338   0.771  10.654 -0.0724 -0.2745 -0.1043
 3602SOL    HW122265   0.286   0.697  10.684 -0.5444  0.5277  1.0312
 3602SOL    HW222266   0.320   0.840  10.717  1.2543  1.2770 -1.4136
 3603SOL     OW22267   1.239   3.802   1.288  0.9433 -0.3002  0.0603
 3603SOL    HW122268   1.294   3.768   1.359  0.5961 -0.0828  0.4342
 3603SOL    HW222269   1.306   3.809   1.221  0.9198  1.3739  0.2278
 3604SOL     OW22270   4.604   0.925   9.326  0.2239 -1.1639 -0.2954
 3604SOL    HW122271   4.555   1.004   9.348 -0.2775 -0.6271 -3.3460
 3604SOL    HW222272   4.546   0.849   9.334 -1.9007  0.3511 -1.3829
 3605SOL     OW22273   2.825   3.276   8.732  0.0714  0.1983  0.3345
 3605SOL    HW122274   2.913   3.301   8.758 -0.4118  0.4322  1.7356
 3605SOL    HW222275   2.777   3.341   8.783  1.8352  1.0610  0.9012
 3606SOL     OW22276   1.384   0.593   1.512 -0.4384 -0.5625 -0.0782
 3606SOL    HW122277   1.296   0.630   1.497 -0.2323 -0.4815 -1.0751
 3606SOL    HW222278   1.356   0.510   1.550  0.9581 -1.7992 -1.7925
 3607SOL     OW22279   4.685   4.685   5.079  0.4809  0.2715  0.2476
 3607SOL    HW122280   0.004   4.707   5.162 -2.2606 -0.9750  1.9329
 3607SOL    HW222281   4.610   4.636   5.113 -0.9945  1.5575 -1.1541
 3608SOL     OW22282   3.270   1.715  14.040 -0.9595 -0.2303  0.0140
 3608SOL    HW122283   3.276   1.622  14.019 -3.0698  0.1413 -2.3325
 3608SOL    HW222284   3.358   1.751  14.027 -1.4993  1.2989  0.5234
 3609SOL     OW22285   0.634   0.300   4.237 -0.3483  0.4843 -0.6986
 3609SOL    HW122286   0.553   0.270   4.277 -0.3863  1.1259 -0.2873
 3609SOL    HW222287   0.696   0.237   4.273  2.0163  2.8205 -0.7050
 3610SOL     OW22288   3.496   2.991  10.239 -0.0197  0.2845 -0.3663
 3610SOL    HW122289   3.579   2.951  10.213 -1.4352 -2.3671 -0.7555
 3610SOL    HW222290   3.530   3.072  10.277  2.2767 -2.2811  3.0826
 3611SOL     OW22291   4.426   2.130   2.682 -0.1759  0.5305 -0.2781
 3611SOL    HW122292   4.446   2.079   2.761 -0.5434  0.6498 -0.1056
 3611SOL    HW222293   4.338   2.098   2.661  1.3193 -1.6151 -3.1423
 3612SOL     OW22294   4.338   3.868   4.736 -0.1050  1.6559  0.1435
 3612SOL    HW122295   4.407   3.897   4.796 -1.0586  1.6821  1.2411
 3612SOL    HW222296   4.326   3.956   4.702  0.3145  2.1928  1.3739
 3613SOL     OW22297   0.817   2.675   3.977 -0.3802  0.1261 -0.2143
 3613SOL    HW122298   0.888   2.615   3.952 -1.1059 -0.9669  0.3162
 3613SOL    HW222299   0.777   2.689   3.892 -0.1980  0.7204 -0.1992
 3614SOL     OW22300   0.272   1.872   2.367  0.0647 -0.0163  0.0792
 3614SOL    HW122301   0.181   1.892   2.388  0.3087  0.9222  0.2600
 3614SOL    HW222302   0.319   1.931   2.427  0.9378 -1.0491  0.4167
 3615SOL     OW22303   4.580   0.965   6.798 -0.1881 -0.4370  0.6042
 3615SOL    HW122304   4.628   0.965   6.715 -0.4904 -0.8808  0.4374
 3615SOL    HW222305   4.536   1.050   6.801  0.1312 -0.2325 -0.4219
 3616SOL     OW22306   1.292   0.754   6.211  0.1977 -0.9872 -0.3028
 3616SOL    HW122307   1.372   0.716   6.247  0.6079 -1.6170 -1.8552
 3616SOL    HW222308   1.233   0.728   6.281 -0.3031 -0.0629 -0.3862
 3617SOL     OW22309   2.052   2.517   5.644  0.9226  0.2881 -0.0662
 3617SOL    HW122310   2.066   2.482   5.732  0.9423 -0.6832 -0.4601
 3617SOL    HW222311   2.035   2.436   5.595 -0.3839 -0.6299  1.8804
 3618SOL     OW22312   0.285   0.021   4.010  0.0798 -0.0140  0.1535
 3618SOL    HW122313   0.266   4.653   4.037 -0.1036  0.5507  1.9314
 3618SOL    HW222314   0.376   0.020   4.039 -0.4853 -0.0630  1.9242
 3619SOL     OW22315   2.415   3.479   8.524  0.0904 -0.4051  0.1126
 3619SOL    HW122316   2.396   3.385   8.534 -0.3818 -0.6644 -2.9842
 3619SOL    HW222317   2.491   3.458   8.468 -0.2169 -0.1601 -0.3973
 3620SOL     OW22318   3.482   0.942  15.275  0.3057 -0.0630  0.2617
 3620SOL    HW122319   3.548   1.006  15.250 -0.8409  1.8417  2.0503
 3620SOL    HW222320   3.507   0.925  15.366 -0.5719 -1.9507  0.1455
 3621SOL     OW22321   2.250   4.243  12.268 -0.4984  0.2627  0.2800
 3621SOL    HW122322   2.275   4.163  12.314  5.5814  2.6380  1.0910
 3621SOL    HW222323   2.205   4.291  12.338 -0.7989  0.9558 -0.3827
 3622SOL     OW22324   4.038   1.170   0.335  0.3846 -0.2340 -0.3016
 3622SOL    HW122325   4.075   1.249   0.296 -0.0661 -0.5860 -1.4773
 3622SOL    HW222326   4.105   1.148   0.400 -1.6445  0.3763  1.9937
 3623SOL     OW22327   3.523   3.280   7.735 -0.0531 -0.1348 -0.0024
 3623SOL    HW122328   3.600   3.264   7.680 -1.2429  0.3018 -1.8032
 3623SOL    HW222329   3.450   3.249   7.680 -0.1586 -0.8774  0.5633
 3624SOL     OW22330   3.703   1.952   8.162 -0.8470  0.2396 -1.0291
 3624SOL    HW122331   3.796   1.961   8.142 -0.8340 -0.5951 -1.3382
 3624SOL    HW222332   3.676   2.043   8.156 -1.1059  0.1470 -1.2867
 3625SOL     OW22333   2.591   3.750   1.004  0.2474 -0.1290  0.3535
 3625SOL    HW122334   2.674   3.794   0.985  0.0388 -0.9470 -2.3264
 3625SOL    HW222335   2.604   3.767   1.098 -1.8926 -1.1836  0.8334
 3626SOL     OW22336   2.608   0.648   0.299 -0.1198 -0.0872 -0.2695
 3626SOL    HW122337   2.643   0.559   0.295 -1.7219 -0.6249 -2.2479
 3626SOL    HW222338   2.599   0.639   0.394  2.0170  0.2302 -0.0419
 3627SOL     OW22339   0.390   3.730   7.777  0.6526  0.1659 -0.8569
 3627SOL    HW122340   0.389   3.666   7.848 -0.6315 -0.7182 -1.6883
 3627SOL    HW222341   0.351   3.807   7.818 -0.3744 -1.6635  1.6174
 3628SOL     OW22342   1.591   3.686   3.721  0.3231 -0.0563 -0.0180
 3628SOL    HW122343   1.651   3.758   3.699 -1.6110  1.6674  0.3383
 3628SOL    HW222344   1.531   3.706   3.649 -0.7217  0.3456  0.9746
 3629SOL     OW22345   4.467   4.327   4.713  0.5731  0.1802 -0.9752
 3629SOL    HW122346   4.412   4.327   4.635 -0.6856  0.6966 -0.1125
 3629SOL    HW222347   4.532   4.261   4.689 -0.6047 -1.3660  0.0595
 3630SOL     OW22348   2.626   4.488  15.831  0.5444 -0.0895 -0.4552
 3630SOL    HW122349   2.648   4.579  15.811  1.1634 -0.1399 -0.0281
 3630SOL    HW222350   2.546   4.484  15.779  0.4288 -0.6170 -0.2411
 3631SOL     OW22351   0.635   1.045   3.516 -0.0093 -0.3966 -0.0362
 3631SOL    HW122352   0.629   1.054   3.611  1.3122 -2.5537  0.2597
 3631SOL    HW222353   0.596   0.959   3.497 -0.1383 -0.6786  1.5297
 3632SOL     OW22354   4.501   1.640   8.283 -0.0015 -0.0298  0.0359
 3632SOL    HW122355   4.486   1.623   8.376 -3.4712  0.2603 -0.4641
 3632SOL    HW222356   4.533   1.553   8.257  0.5500 -0.4312  1.9966
 3633SOL     OW22357   2.922   0.073   5.191 -0.8938 -0.3478 -0.3396
 3633SOL    HW122358   2.847   0.131   5.179 -1.4741 -0.7190  1.5567
 3633SOL    HW222359   2.893   4.717   5.145  0.1068 -1.0294  0.2009
 3634SOL     OW22360   2.143   1.273  15.683  0.1681 -0.4577 -0.2757
 3634SOL    HW122361   2.180   1.322  15.609  0.6057 -1.2716 -0.5967
 3634SOL    HW222362   2.189   1.190  15.690 -2.1913 -1.8910 -1.8195
 3635SOL     OW22363   0.890   0.793   3.521 -0.2605 -0.3805  0.6218
 3635SOL    HW122364   0.894   0.698   3.514 -0.1562 -0.3589  0.3884
 3635SOL    HW222365   0.806   0.809   3.479  0.6836  1.4232 -0.5927
 3636SOL     OW22366   2.507   3.917  15.385 -0.1868 -0.1449 -0.0726
 3636SOL    HW122367   2.417   3.904  15.356  0.2749 -0.4263 -1.3694
 3636SOL    HW222368   2.533   4.005  15.357 -2.5602  0.3185 -0.7668
 3637SOL     OW22369   4.431   2.028   6.235  0.3568  0.2009 -0.0961
 3637SOL    HW122370   4.370   1.954   6.243  1.3017 -0.5006  0.6209
 3637SOL    HW222371   4.460   2.007   6.147 -1.9613 -0.0475 -0.7905
 3638SOL     OW22372   1.773   1.400  17.283 -0.4322  0.9516  0.0730
 3638SOL    HW122373   1.693   1.367  17.325  1.1479 -0.8871  1.6399
 3638SOL    HW222374   1.755   1.365  17.196  1.6457  4.2889 -1.7154
 3639SOL     OW22375   3.922   1.810   1.966 -0.6704  0.1350 -0.5170
 3639SOL    HW122376   3.879   1.880   2.015  0.9324 -0.4924  1.7881
 3639SOL    HW222377   3.975   1.865   1.908  0.1969  1.1211  1.2259
 3640SOL     OW22378   0.750   1.445   5.813  0.0734  0.1637 -0.1954
 3640SOL    HW122379   0.723   1.536   5.804  0.7195  0.5991  2.2045
 3640SOL    HW222380   0.668   1.408   5.847 -0.0743  0.0271 -0.6978
 3641SOL     OW22381   2.794   4.399  15.499 -0.1845  0.0208  0.1698
 3641SOL    HW122382   2.834   4.477  15.539  0.8595 -1.4677  2.0826
 3641SOL    HW222383   2.768   4.342  15.571  1.7138 -0.0192  0.8412
 3642SOL     OW22384   1.030   0.999   3.645  0.3362  0.5627  0.0899
 3642SOL    HW122385   0.958   0.948   3.608 -0.9629  1.8055  0.9404
 3642SOL    HW222386   1.108   0.947   3.625  0.1903 -0.1634  1.4524
 3643SOL     OW22387   1.641   0.224   3.310 -0.0837  0.0042  0.5149
 3643SOL    HW122388   1.546   0.209   3.308 -0.2267  0.8242  1.4366
 3643SOL    HW222389   1.657   0.266   3.226  0.3177 -1.4394 -0.1407
 3644SOL     OW22390   0.986   4.578   3.672  0.1478 -1.0433  0.1848
 3644SOL    HW122391   0.892   4.587   3.690  0.2841 -0.5905  0.6492
 3644SOL    HW222392   1.022   4.666   3.663  0.8100 -1.4976 -1.5723
 3645SOL     OW22393   2.455   0.860   2.538  0.4889 -0.0221 -0.0914
 3645SOL    HW122394   2.515   0.932   2.515 -1.2103  0.5802 -2.6763
 3645SOL    HW222395   2.369   0.897   2.557  0.8148  2.0077 -2.4259
 3646SOL     OW22396   2.785   2.030  14.902  0.2420  0.2848  0.2201
 3646SOL    HW122397   2.769   2.111  14.855  0.2351 -0.4532 -1.0517
 3646SOL    HW222398   2.729   1.969  14.853  1.9890 -1.7724  0.7769
 3647SOL     OW22399   1.123   3.637   9.057 -0.2475 -0.0633 -0.1427
 3647SOL    HW122400   1.126   3.712   9.117  1.1502  1.6436 -2.3023
 3647SOL    HW222401   1.070   3.575   9.106  1.9445 -0.2920  1.9713
 3648SOL     OW22402   0.131   3.568   0.923 -0.0270  0.0461  0.4451
 3648SOL    HW122403   0.063   3.512   0.960  0.1644  0.9770  2.2144
 3648SOL    HW222404   0.164   3.610   1.002 -0.7923 -0.7889  1.1968
 3649SOL     OW22405   0.698   2.145   6.223  0.0128 -0.3007 -0.2023
 3649SOL    HW122406   0.615   2.128   6.267  0.0818 -0.1254 -0.0026
 3649SOL    HW222407   0.705   2.241   6.217  0.4842 -0.2218  1.6637
 3650SOL     OW22408   1.412   0.941   3.833 -0.0779 -0.3793 -0.6315
 3650SOL    HW122409   1.385   1.008   3.896  0.6082  0.4275 -1.1957
 3650SOL    HW222410   1.506   0.959   3.832  0.2651 -2.1536  0.3332
 3651SOL     OW22411   0.231   1.374   3.398  0.1850 -0.1692 -0.5206
 3651SOL    HW122412   0.208   1.447   3.340 -2.6296 -0.0983  0.6956
 3651SOL    HW222413   0.287   1.414   3.464 -0.2344 -0.5533  0.0680
 3652SOL     OW22414   1.841   4.048  15.091 -0.0686  0.1916  0.2882
 3652SOL    HW122415   1.932   4.035  15.065 -0.9484 -1.7855 -1.8066
 3652SOL    HW222416   1.832   4.141  15.069 -0.0837 -0.0115 -0.5849
 3653SOL     OW22417   4.232   2.675   1.739  0.2315 -0.5609  0.2774
 3653SOL    HW122418   4.273   2.597   1.701 -1.8368 -1.5340  0.0153
 3653SOL    HW222419   4.257   2.746   1.680  1.1576  0.4459  1.8745
 3654SOL     OW22420   4.703   4.346  12.168 -0.4312 -0.2440 -0.0921
 3654SOL    HW122421   0.015   4.315  12.252 -2.3966 -0.2043  0.7282
 3654SOL    HW222422   0.062   4.334  12.118  0.2360  0.5285  0.8021
 3655SOL     OW22423   4.312   1.605   4.472  0.5490 -0.5976  0.0585
 3655SOL    HW122424   4.369   1.612   4.548  1.4844  1.4060 -0.8218
 3655SOL    HW222425   4.328   1.516   4.440  1.9009 -0.3947  0.1977
 3656SOL     OW22426   0.361   4.264   1.524  0.1944 -0.4340  0.3486
 3656SOL    HW122427   0.321   4.329   1.582 -2.1892 -2.3631  0.8302
 3656SOL    HW222428   0.314   4.278   1.442  0.8238  1.0768  0.2475
 3657SOL     OW22429   0.784   4.495   7.805 -0.1346 -0.1957 -0.0080
 3657SOL    HW122430   0.735   4.576   7.816  1.2326  0.8185 -1.3918
 3657SOL    HW222431   0.707   4.442   7.786 -1.9819  2.2594  0.6269
 3658SOL     OW22432   1.284   2.206  17.328 -0.0763  0.0541 -0.4232
 3658SOL    HW122433   1.208   2.259  17.306  0.3352  1.7683  2.2417
 3658SOL    HW222434   1.351   2.240  17.269  0.9167 -0.7477  0.2324
 3659SOL     OW22435   1.723   1.690   4.370 -0.5960  0.0726  0.8318
 3659SOL    HW122436   1.764   1.775   4.383 -1.9110  0.2709  3.6034
 3659SOL    HW222437   1.632   1.718   4.364 -0.5861 -0.3561 -1.3954
 3660SOL     OW22438   1.592   1.181   6.225  0.0504  0.0231  0.4211
 3660SOL    HW122439   1.602   1.273   6.201  0.7847 -0.5755 -1.5703
 3660SOL    HW222440   1.670   1.148   6.182  0.1613 -1.9631  2.1051
 3661SOL     OW22441   4.088   0.700   7.971 -0.5083 -0.2808  0.6191
 3661SOL    HW122442   4.002   0.740   7.957 -0.1073  0.7295  1.0656
 3661SOL    HW222443   4.054   0.643   8.040  0.5628  0.3972  1.6871
 3662SOL     OW22444   3.473   0.075   7.394 -0.7038 -0.8513  0.2262
 3662SOL    HW122445   3.516   0.136   7.454  0.2890 -0.7915 -0.5413
 3662SOL    HW222446   3.494   0.118   7.311 -1.7304  1.0277  0.9412
 3663SOL     OW22447   1.015   3.597   3.797  0.1424  0.1318 -0.1275
 3663SOL    HW122448   1.017   3.505   3.771  2.4810 -0.4989  2.3623
 3663SOL    HW222449   0.923   3.624   3.807  0.2548  1.5872 -2.8134
 3664SOL     OW22450   1.980   3.169  14.566 -0.6043 -0.1143  0.3103
 3664SOL    HW122451   1.970   3.073  14.569  0.8953 -0.2690  0.5915
 3664SOL    HW222452   2.075   3.168  14.583 -0.4848 -0.2811 -0.3508
 3665SOL     OW22453   0.193   0.989  10.456  0.1090 -0.3055 -0.3616
 3665SOL    HW122454   0.268   0.937  10.429 -0.4052 -0.1079 -2.1709
 3665SOL    HW222455   0.189   1.057  10.389 -0.1036  0.0570  0.0221
 3666SOL     OW22456   1.919   2.926   9.665  0.8275  0.0760  0.0045
 3666SOL    HW122457   1.957   2.839   9.652  1.7562  0.4538  0.2124
 3666SOL    HW222458   1.850   2.905   9.729  2.0042 -0.2908  1.1699
 3667SOL     OW22459   0.578   3.586   5.216  0.1606 -0.1439 -0.0796
 3667SOL    HW122460   0.541   3.597   5.128  2.0063  2.0217 -0.5669
 3667SOL    HW222461   0.589   3.678   5.237  1.8369 -0.7919  1.7824
 3668SOL     OW22462   4.106   0.470   6.684  0.1857 -0.4297 -0.2602
 3668SOL    HW122463   4.050   0.497   6.757  1.4285  3.2968 -0.7065
 3668SOL    HW222464   4.140   0.547   6.639 -2.3984  1.4857  1.0852
 3669SOL     OW22465   2.031   3.684   5.720 -0.2298  0.2420  0.5973
 3669SOL    HW122466   1.987   3.767   5.699  1.0664  0.2493 -2.0488
 3669SOL    HW222467   2.124   3.704   5.733  0.0521  0.1541 -1.3897
 3670SOL     OW22468   1.253   4.639   3.514  0.6439 -0.0465  0.3055
 3670SOL    HW122469   1.207   4.601   3.439 -0.9919 -0.0183  1.2956
 3670SOL    HW222470   1.183   4.687   3.558  2.2261  2.9416 -0.4370
 3671SOL     OW22471   2.870   3.896   4.938 -0.1063  0.0016 -0.0068
 3671SOL    HW122472   2.910   3.924   4.856  0.4615 -0.8957 -0.0412
 3671SOL    HW222473   2.941   3.896   5.002 -0.3183  3.2746  0.1838
 3672SOL     OW22474   2.301   1.805   5.933  0.1861 -0.1913  0.0707
 3672SOL    HW122475   2.279   1.827   5.843  1.9687  0.3927 -0.2172
 3672SOL    HW222476   2.333   1.888   5.969  3.4168 -0.5192 -2.0415
 3673SOL     OW22477   4.469   3.935   0.801  0.1213  0.0368  0.4504
 3673SOL    HW122478   4.533   3.864   0.803 -1.1437 -1.2563 -3.6509
 3673SOL    HW222479   4.398   3.907   0.859 -1.4684  0.1272 -1.4450
 3674SOL     OW22480   1.855   4.374   0.200 -0.1220 -0.8639 -0.3089
 3674SOL    HW122481   1.914   4.419   0.261 -0.1048 -0.3471 -0.7028
 3674SOL    HW222482   1.833   4.451   0.147 -1.6713 -1.0103  0.0998
 3675SOL     OW22483   1.303   1.337   5.596  0.0193  0.3613 -0.0432
 3675SOL    HW122484   1.329   1.367   5.683  1.1182  0.4661 -0.4067
 3675SOL    HW222485   1.312   1.422   5.552  0.1166 -0.0854 -0.8949
 3676SOL     OW22486   2.829   4.487   3.448 -0.2829  0.0290  0.1644
 3676SOL    HW122487   2.763   4.527   3.391  3.5961 -0.2031 -4.4803
 3676SOL    HW222488   2.791   4.403   3.475 -0.6840 -0.6226 -2.4184
 3677SOL     OW22489   3.999   2.172  11.197  0.0054 -0.2459  0.3171
 3677SOL    HW122490   4.025   2.185  11.106 -0.0904 -1.0856  0.1710
 3677SOL    HW222491   4.040   2.244  11.246  0.7612  0.2344 -1.0205
 3678SOL     OW22492   3.990   4.059  12.773 -0.1316 -0.4791 -0.6626
 3678SOL    HW122493   4.044   4.124  12.728  0.8646 -0.5408  0.4314
 3678SOL    HW222494   4.055   3.993  12.797 -0.0087 -0.5230 -1.1211
 3679SOL     OW22495   1.408   2.569  10.747 -0.4597 -0.3964  0.3870
 3679SOL    HW122496   1.365   2.485  10.733 -0.8100 -0.0653 -0.4708
 3679SOL    HW222497   1.483   2.545  10.801 -1.1752  0.9976  2.0144
 3680SOL     OW22498   3.301   3.658  10.879 -0.1206 -0.4390  0.2200
 3680SOL    HW122499   3.358   3.699  10.814  2.2558 -2.4117  1.0909
 3680SOL    HW222500   3.247   3.734  10.900  0.5099  0.4787 -1.4373
 3681SOL     OW22501   4.694   4.560   6.548  0.1007 -0.4514  0.5285
 3681SOL    HW122502   0.067   4.567   6.545  0.1089 -1.1280 -0.9203
 3681SOL    HW222503   4.679   4.643   6.594  0.7244  0.6516 -1.2939
 3682SOL     OW22504   3.273   1.650   8.088  0.4877  0.6851  0.5214
 3682SOL    HW122505   3.220   1.651   8.168 -1.0960  1.8409 -0.5440
 3682SOL    HW222506   3.350   1.601   8.116  1.1260  2.0336  1.1311
 3683SOL     OW22507   0.462   1.613  13.820  0.1791 -0.2644 -0.0830
 3683SOL    HW122508   0.418   1.629  13.903 -0.3580  2.2166 -0.8344
 3683SOL    HW222509   0.519   1.541  13.845 -1.2888 -1.3317  0.1633
 3684SOL     OW22510   3.832   1.069   5.007 -0.2557 -0.3638  0.3270
 3684SOL    HW122511   3.839   1.152   4.959  0.4731 -0.4156  0.3408
 3684SOL    HW222512   3.807   1.003   4.943 -0.5518 -0.1387  0.2096
 3685SOL     OW22513   1.998   0.096   5.516 -0.0901 -0.2162 -0.2563
 3685SOL    HW122514   1.927   0.064   5.571  1.1189  0.2745  1.5855
 3685SOL    HW222515   1.952   0.104   5.433  1.5003  2.5077 -0.8690
 3686SOL     OW22516   0.398   3.393   5.512 -0.0534  0.0036  0.5301
 3686SOL    HW122517   0.403   3.487   5.498 -3.0955 -0.1368 -1.3738
 3686SOL    HW222518   0.382   3.386   5.607 -2.1088 -1.4011  0.0695
 3687SOL     OW22519   4.044   0.391  17.140 -0.2970  0.5549 -0.6163
 3687SOL    HW122520   4.065   0.477  17.177 -1.5324  0.6076 -0.0335
 3687SOL    HW222521   3.948   0.395  17.144 -0.3066 -0.5247  0.1654
 3688SOL     OW22522   1.681   1.109   1.577 -0.6280  0.1978 -0.1461
 3688SOL    HW122523   1.589   1.135   1.571 -0.3627  0.9576 -1.0461
 3688SOL    HW222524   1.683   1.021   1.539 -0.7541  0.2512 -0.2764
 3689SOL     OW22525   0.804   0.210  10.399  0.3360  0.1042 -0.1555
 3689SOL    HW122526   0.863   0.236  10.329  0.3105  2.4800  0.7096
 3689SOL    HW222527   0.759   0.293  10.416  0.4964  0.2648 -0.5198
 3690SOL     OW22528   0.412   2.600   1.596 -0.1538  0.5161  0.1970
 3690SOL    HW122529   0.416   2.549   1.515 -2.9207  2.8893 -1.4166
 3690SOL    HW222530   0.317   2.601   1.601  0.0625  1.4044  3.9865
 3691SOL     OW22531   1.839   1.139   6.548 -0.2959  0.1598 -0.5412
 3691SOL    HW122532   1.898   1.208   6.519 -0.3293 -0.8704 -3.1126
 3691SOL    HW222533   1.843   1.151   6.643  1.6946  1.8044 -0.8179
 3692SOL     OW22534   2.922   3.260   2.914  0.2305  0.8203 -0.3884
 3692SOL    HW122535   2.859   3.254   2.986  0.4600  0.3780 -0.2193
 3692SOL    HW222536   2.938   3.166   2.900 -1.8037  0.2229  1.1848
 3693SOL     OW22537   4.438   4.008   4.188  0.2161  0.0022  0.3215
 3693SOL    HW122538   4.437   3.916   4.162  1.7456 -0.3181  1.3983
 3693SOL    HW222539   4.533   4.019   4.180 -0.3747  2.8760 -2.7513
 3694SOL     OW22540   1.361   2.832  11.483  0.4358  0.1198 -0.2658
 3694SOL    HW122541   1.380   2.818  11.391  1.8297  2.3625 -0.3223
 3694SOL    HW222542   1.395   2.918  11.509 -1.4756  0.8861 -0.2549
 3695SOL     OW22543   4.056   4.053   3.732 -0.1129 -0.6018  0.3570
 3695SOL    HW122544   4.091   4.010   3.810 -0.1065  1.7002  1.6243
 3695SOL    HW222545   3.980   4.101   3.764 -0.5097  0.6408 -2.3804
 3696SOL     OW22546   4.092   1.220   3.488 -0.4624  0.4062  0.0008
 3696SOL    HW122547   4.036   1.220   3.410 -0.3993 -0.3621 -0.0475
 3696SOL    HW222548   4.027   1.244   3.554 -0.1822  1.9821 -0.2947
 3697SOL     OW22549   3.755   4.394   7.256  0.8526 -0.2671 -0.0136
 3697SOL    HW122550   3.695   4.403   7.182  1.1924 -0.5742 -0.3304
 3697SOL    HW222551   3.765   4.487   7.276 -2.1831  0.3120 -1.2200
 3698SOL     OW22552   2.287   1.772   8.285  0.0407  0.2404  0.1677
 3698SOL    HW122553   2.367   1.743   8.329  0.2317  3.5948  2.0281
 3698SOL    HW222554   2.230   1.781   8.361 -0.4557 -0.2146 -0.1519
 3699SOL     OW22555   3.561   0.226   1.017 -0.3061  0.4423  0.8781
 3699SOL    HW122556   3.520   0.227   0.931 -2.6874 -0.1942  2.0160
 3699SOL    HW222557   3.570   0.137   1.052 -0.9162  1.1718  2.9219
 3700SOL     OW22558   1.720   3.217   1.912 -0.3915  0.0358 -0.4906
 3700SOL    HW122559   1.639   3.255   1.877 -1.5799 -2.6117 -0.6626
 3700SOL    HW222560   1.783   3.257   1.852  0.1655  1.3453  0.9906
 3701SOL     OW22561   2.662   0.256   7.505 -0.1485 -0.0169 -0.4954
 3701SOL    HW122562   2.747   0.254   7.548  0.1289 -1.9525 -1.1016
 3701SOL    HW222563   2.627   0.299   7.583 -0.5309  0.6347 -1.0299
 3702SOL     OW22564   0.775   0.790   5.265 -0.0756 -0.5707  0.0080
 3702SOL    HW122565   0.813   0.819   5.348 -2.5035  1.4442  0.3974
 3702SOL    HW222566   0.714   0.864   5.263  1.1241  0.4301  0.1840
 3703SOL     OW22567   1.424   2.820   2.312  0.0576 -0.2164  0.7170
 3703SOL    HW122568   1.366   2.886   2.274  0.7446  0.0475  0.1228
 3703SOL    HW222569   1.510   2.862   2.306 -1.1962  2.1844 -0.6677
 3704SOL     OW22570   1.014   3.075   4.698  0.4392 -0.2162 -0.4060
 3704SOL    HW122571   1.029   3.162   4.736 -1.6641 -0.2282  0.4770
 3704SOL    HW222572   1.107   3.057   4.684  0.2256 -2.5860  1.3780
 3705SOL     OW22573   2.345   3.381   0.202  0.7576 -0.4705 -0.2102
 3705SOL    HW122574   2.427   3.331   0.196 -0.7409 -2.8917 -0.4485
 3705SOL    HW222575   2.374   3.472   0.195 -1.5361 -0.0228 -3.9509
 3706SOL     OW22576   0.056   0.445   9.072  0.4564  0.1013 -0.2579
 3706SOL    HW122577   0.060   0.357   9.033 -1.1968 -1.1947  2.4645
 3706SOL    HW222578   0.095   0.432   9.158 -1.8563 -1.5789  0.5640
 3707SOL     OW22579   2.265   0.533   1.497 -0.1408  0.1835  0.8462
 3707SOL    HW122580   2.219   0.472   1.556 -0.5359  0.0726  0.4206
 3707SOL    HW222581   2.264   0.482   1.416 -2.3161 -0.7217  1.4412
 3708SOL     OW22582   0.480   0.812   6.177  0.2445  0.2289 -0.2712
 3708SOL    HW122583   0.464   0.720   6.194 -1.8088  0.2820 -1.9978
 3708SOL    HW222584   0.536   0.834   6.252  0.6733 -2.2566  0.1396
 3709SOL     OW22585   4.363   2.349   3.382 -0.3122  0.8078 -0.6952
 3709SOL    HW122586   4.434   2.408   3.357 -0.6297  0.7237 -1.7938
 3709SOL    HW222587   4.293   2.403   3.346 -1.5193  1.3384  2.4469
 3710SOL     OW22588   0.400   3.716   2.257  0.0263  0.2490 -0.0969
 3710SOL    HW122589   0.396   3.784   2.190 -2.8679 -0.8434 -1.0483
 3710SOL    HW222590   0.323   3.739   2.309  1.5191 -0.4068  2.4146
 3711SOL     OW22591   0.079   2.763   5.992 -0.4252 -0.3017  0.6246
 3711SOL    HW122592   0.051   2.795   5.906  0.7157 -0.3243  0.2333
 3711SOL    HW222593   0.003   2.727   6.036 -1.1345 -2.8120 -2.6631
 3712SOL     OW22594   0.464   1.290   5.028  0.3267  0.1064  0.2423
 3712SOL    HW122595   0.542   1.282   5.082 -0.3737 -0.6988  1.1364
 3712SOL    HW222596   0.506   1.343   4.960  0.8957 -0.8538 -0.1703
 3713SOL     OW22597   0.051   1.521   6.978  0.0904 -0.0792  0.2812
 3713SOL    HW122598   0.116   1.553   6.915 -1.0169  1.9244  0.1616
 3713SOL    HW222599   4.706   1.587   6.960  0.8482  1.0917  1.8093
 3714SOL     OW22600   2.490   1.630  14.556 -0.0633 -0.3349  0.3921
 3714SOL    HW122601   2.496   1.711  14.506 -1.4947 -1.2691 -1.2851
 3714SOL    HW222602   2.447   1.654  14.638  0.9169  2.0404  0.2198
 3715SOL     OW22603   2.523   3.690   7.127 -0.7656  0.0799  0.4524
 3715SOL    HW122604   2.592   3.756   7.123 -1.8703  1.1640 -0.6965
 3715SOL    HW222605   2.570   3.613   7.161  0.5524  1.7034  2.2877
 3716SOL     OW22606   4.473   3.724   2.913  0.4198 -0.0784  0.0902
 3716SOL    HW122607   4.502   3.641   2.875  0.9454 -0.9964  2.5064
 3716SOL    HW222608   4.422   3.687   2.985  0.3195 -3.3095 -1.6377
 3717SOL     OW22609   3.017   1.327  10.483 -0.4325  0.0170  0.1059
 3717SOL    HW122610   2.973   1.345  10.567 -0.8327  0.5653 -0.2198
 3717SOL    HW222611   3.062   1.244  10.494  0.9486  0.9880  1.9156
 3718SOL     OW22612   3.236   0.530   6.371  0.3136 -0.5668 -0.1240
 3718SOL    HW122613   3.318   0.546   6.419 -0.9787 -0.1988  1.9493
 3718SOL    HW222614   3.238   0.603   6.309  0.6151  0.5855  1.2570
 3719SOL     OW22615   1.075   0.604   7.073  0.1570 -0.3648 -0.7386
 3719SOL    HW122616   1.116   0.673   7.021  1.6757 -0.3247  0.4921
 3719SOL    HW222617   1.080   0.539   7.003 -1.3758 -1.8456  0.5260
 3720SOL     OW22618   0.444   3.863  12.871 -0.4611 -0.7767 -0.0207
 3720SOL    HW122619   0.501   3.903  12.806 -1.8602 -0.2652 -0.9227
 3720SOL    HW222620   0.508   3.805  12.913  1.5526  2.7251  1.7043
 3721SOL     OW22621   3.333   1.769   3.847  0.2259  0.0251  0.4144
 3721SOL    HW122622   3.338   1.857   3.810  0.8469  0.3636  1.3004
 3721SOL    HW222623   3.338   1.771   3.942  0.4297 -0.6138  0.4127
 3722SOL     OW22624   1.538   4.332   7.109 -0.4884  0.2198  0.3016
 3722SOL    HW122625   1.470   4.393   7.079 -0.2490 -0.4439 -1.6035
 3722SOL    HW222626   1.488   4.300   7.184  0.0714  2.5111  1.6510
 3723SOL     OW22627   1.741   2.254   7.720 -0.2058  0.1528 -0.6042
 3723SOL    HW122628   1.700   2.302   7.793 -2.4631 -1.6519 -0.6758
 3723SOL    HW222629   1.697   2.294   7.645 -0.1179  0.5261 -0.4583
 3724SOL     OW22630   3.727   3.319   1.756  0.3088  0.3276  0.5522
 3724SOL    HW122631   3.703   3.274   1.837  1.2510 -1.8936 -0.4054
 3724SOL    HW222632   3.643   3.312   1.712  1.3897 -2.6612 -1.0347
 3725SOL     OW22633   0.463   1.186  16.700  0.0670  0.1015 -0.1659
 3725SOL    HW122634   0.451   1.097  16.735  1.6002  0.8370  2.2381
 3725SOL    HW222635   0.554   1.177  16.671 -0.6239  0.0056 -2.2542
 3726SOL     OW22636   0.564   4.566   8.084  0.4461  0.5295 -0.7627
 3726SOL    HW122637   0.523   4.636   8.135  0.1813  0.1329 -0.4240
 3726SOL    HW222638   0.502   4.496   8.106  0.1559  0.9147 -0.3547
 3727SOL     OW22639   0.141   4.219   4.145 -0.1028 -0.1158  0.2152
 3727SOL    HW122640   0.100   4.253   4.066 -3.5682  3.6762  3.6191
 3727SOL    HW222641   0.222   4.186   4.106  0.5807  0.9890  0.6814
 3728SOL     OW22642   1.698   1.649   3.238 -0.1523 -0.1804 -0.2997
 3728SOL    HW122643   1.689   1.658   3.143  0.7345 -1.2615 -0.4889
 3728SOL    HW222644   1.724   1.557   3.238 -1.7036 -0.6063 -0.5571
 3729SOL     OW22645   2.087   0.014   5.054 -0.4460 -0.0758  0.1805
 3729SOL    HW122646   2.105   4.643   5.069 -2.6122 -0.4540  0.5646
 3729SOL    HW222647   2.169   0.041   5.015 -1.5320  1.5426 -0.9954
 3730SOL     OW22648   2.100   2.180   4.261  0.1132 -0.5234 -0.0942
 3730SOL    HW122649   2.092   2.174   4.357 -0.5552 -0.0933 -0.1276
 3730SOL    HW222650   2.033   2.116   4.238 -0.5933  0.2320 -0.1127
 3731SOL     OW22651   2.612   1.375   2.490 -0.0055  0.4025  0.1474
 3731SOL    HW122652   2.568   1.459   2.502 -0.8739 -0.0462  0.0880
 3731SOL    HW222653   2.654   1.371   2.576 -0.1987  1.2254  0.2752
 3732SOL     OW22654   1.370   1.386   4.061  0.2183  0.0472  0.3340
 3732SOL    HW122655   1.367   1.363   3.968  2.6948  0.0090  0.2811
 3732SOL    HW222656   1.460   1.388   4.093  0.0758 -0.7985  0.7948
 3733SOL     OW22657   2.372   1.305   2.320 -0.3377 -0.6594  0.1433
 3733SOL    HW122658   2.321   1.307   2.401  0.1349 -1.3678  0.4591
 3733SOL    HW222659   2.462   1.291   2.350 -0.2165 -0.2364 -0.0224
 3734SOL     OW22660   3.424   4.615   8.898 -0.2724 -0.0795  0.1626
 3734SOL    HW122661   3.368   4.688   8.923  1.1803  0.7337  0.9825
 3734SOL    HW222662   3.353   4.562   8.861 -0.4855  0.5601 -0.3443
 3735SOL     OW22663   1.364   2.257   4.920  0.5425  0.3037  0.1738
 3735SOL    HW122664   1.345   2.178   4.869  0.6012 -0.4342  1.2821
 3735SOL    HW222665   1.337   2.229   5.008 -2.2342  0.2229 -0.7244
 3736SOL     OW22666   3.404   3.582   7.389  0.0679 -0.0764 -0.0351
 3736SOL    HW122667   3.322   3.532   7.388  0.1455 -0.2552  2.1012
 3736SOL    HW222668   3.465   3.509   7.379  0.7619  0.2788  1.5859
 3737SOL     OW22669   1.522   0.203   8.439  0.3300 -0.0699  0.4234
 3737SOL    HW122670   1.492   0.114   8.457  0.3933 -0.2084 -0.1509
 3737SOL    HW222671   1.455   0.264   8.470  0.8559  0.8908 -0.3227
 3738SOL     OW22672   0.358   3.099   4.409 -0.1479  0.0859 -0.0622
 3738SOL    HW122673   0.332   3.186   4.378 -0.0918  0.1687  0.1212
 3738SOL    HW222674   0.331   3.108   4.501 -0.2115 -0.4253 -0.0343
 3739SOL     OW22675   1.460   0.485   3.182  0.2234 -0.3006  0.4256
 3739SOL    HW122676   1.477   0.404   3.134 -2.1815 -1.6501  1.8554
 3739SOL    HW222677   1.546   0.527   3.189  0.1451 -0.0669 -0.0383
 3740SOL     OW22678   2.709   3.228   6.552 -0.2854 -0.4578 -0.5825
 3740SOL    HW122679   2.627   3.230   6.601 -0.7228  2.1548 -1.4296
 3740SOL    HW222680   2.759   3.305   6.578 -0.9972 -0.3632  0.5127
 3741SOL     OW22681   3.273   4.239   0.449 -0.0256  0.2605 -0.3038
 3741SOL    HW122682   3.219   4.175   0.404 -0.7919  0.0202  0.9643
 3741SOL    HW222683   3.292   4.177   0.520 -0.2656  0.7267  0.1730
 3742SOL     OW22684   0.335   1.238  15.099  0.5386 -0.2797 -0.1620
 3742SOL    HW122685   0.386   1.290  15.038 -0.8513  0.8350 -0.3715
 3742SOL    HW222686   0.379   1.267  15.179  1.6040  0.6381 -1.0804
 3743SOL     OW22687   0.943   1.675  16.732 -0.2397  0.3414 -0.0737
 3743SOL    HW122688   1.026   1.652  16.773 -0.5197  0.2389  0.4288
 3743SOL    HW222689   0.881   1.656  16.802  1.2822 -0.8964  0.9352
 3744SOL     OW22690   3.975   2.040   2.604  0.3020 -0.1862 -0.3470
 3744SOL    HW122691   3.998   2.133   2.605  2.4604 -0.7302 -0.2998
 3744SOL    HW222692   3.896   2.046   2.550  0.0381 -3.3035 -0.2991
 3745SOL     OW22693   0.938   1.717  17.311 -0.1148  0.0653  0.2080
 3745SOL    HW122694   0.843   1.723  17.298  0.1765  1.5194 -1.2906
 3745SOL    HW222695   0.943   1.741  17.403  0.8653 -0.4173  0.2832
 3746SOL     OW22696   2.608   2.371  10.677 -0.2895  0.3352 -0.3182
 3746SOL    HW122697   2.682   2.349  10.733 -0.0242  0.5967 -0.5654
 3746SOL    HW222698   2.644   2.331  10.598  2.4225  2.8588 -0.3433
 3747SOL     OW22699   3.473   1.800   7.017 -0.0845  0.4412 -0.0340
 3747SOL    HW122700   3.507   1.836   6.935 -0.9238  0.5546 -0.3303
 3747SOL    HW222701   3.505   1.710   7.012  0.2868  0.6878 -2.1154
 3748SOL     OW22702   1.340   4.692  13.562  0.1799  0.4631 -0.2389
 3748SOL    HW122703   1.298   4.717  13.480 -0.8538 -0.0374  0.1510
 3748SOL    HW222704   1.411   0.035  13.566  0.1713  0.4291  0.4636
 3749SOL     OW22705   0.428   2.628   8.011  0.2619 -0.2556  0.1263
 3749SOL    HW122706   0.509   2.678   8.025  0.2344 -0.2072  0.1141
 3749SOL    HW222707   0.471   2.543   8.021 -1.9123 -1.4007 -0.4809
 3750SOL     OW22708   2.231   1.182   1.437 -0.4709 -0.6208  0.0792
 3750SOL    HW122709   2.149   1.189   1.387  1.1286 -0.9309 -2.5776
 3750SOL    HW222710   2.289   1.153   1.367 -1.8741 -2.3882 -0.3650
 3751SOL     OW22711   4.338   3.633   9.221 -0.2499 -0.3528 -0.1476
 3751SOL    HW122712   4.384   3.717   9.213 -2.2357  0.7631  0.1601
 3751SOL    HW222713   4.349   3.603   9.131 -0.0440 -0.7982  0.0251
 3752SOL     OW22714   0.117   1.938  12.664  0.5179 -0.1293  0.0554
 3752SOL    HW122715   0.105   1.875  12.735 -0.4326  0.2454  0.2260
 3752SOL    HW222716   0.056   2.007  12.691  0.7376  0.2307 -0.3749
 3753SOL     OW22717   3.212   2.388   0.768  0.2276 -0.3471  0.0157
 3753SOL    HW122718   3.233   2.326   0.698 -0.0476 -0.4255  0.0041
 3753SOL    HW222719   3.122   2.411   0.747  0.4444  0.9476  0.5278
 3754SOL     OW22720   1.899   0.124   0.040  0.0016  0.4464  0.2983
 3754SOL    HW122721   1.965   0.154  17.669  0.6361 -0.7272  0.4159
 3754SOL    HW222722   1.922   0.160   0.125  1.3117 -4.3337  1.9571
 3755SOL     OW22723   4.230   1.530  12.130  0.5385 -0.4636  0.5152
 3755SOL    HW122724   4.254   1.574  12.049 -0.8541  1.8982  1.3629
 3755SOL    HW222725   4.321   1.512  12.153  1.6781  0.7257 -3.1152
 3756SOL     OW22726   1.004   1.386   0.257 -0.6499  0.9693  0.3196
 3756SOL    HW122727   0.949   1.416   0.185 -1.2580 -0.4575  0.1957
 3756SOL    HW222728   1.072   1.452   0.268  0.3991 -0.1805  0.6603
 3757SOL     OW22729   1.070   1.812   5.310 -0.0649  0.1301 -0.4670
 3757SOL    HW122730   1.057   1.777   5.222  2.0201  0.1130 -0.7716
 3757SOL    HW222731   1.000   1.779   5.366 -0.3262  1.9008  0.2598
 3758SOL     OW22732   4.256   4.027   0.558  0.3939 -0.3876 -0.1259
 3758SOL    HW122733   4.301   3.971   0.496 -0.8699 -0.7516 -0.7096
 3758SOL    HW222734   4.310   4.020   0.637  1.5287  1.5713 -0.7117
 3759SOL     OW22735   0.768   0.759  14.788  0.4173 -0.0301  0.4353
 3759SOL    HW122736   0.714   0.838  14.798 -1.9196 -1.3105 -2.1602
 3759SOL    HW222737   0.708   0.700  14.835 -1.4212  1.4565 -0.0133
 3760SOL     OW22738   1.338   2.351   1.041  0.1564  0.0280  0.0842
 3760SOL    HW122739   1.283   2.368   0.965  0.3463 -1.0314 -0.2963
 3760SOL    HW222740   1.290   2.282   1.085 -2.6416  1.8798 -0.1193
 3761SOL     OW22741   3.558   0.676  15.937 -0.2907 -0.2674  0.0494
 3761SOL    HW122742   3.547   0.768  15.962  0.5889  0.3467 -1.8421
 3761SOL    HW222743   3.525   0.634  16.016 -1.0058 -1.9079 -1.1251
 3762SOL     OW22744   2.039   4.198   4.727 -0.2641 -0.5792  0.3302
 3762SOL    HW122745   1.985   4.275   4.746 -0.4130 -0.7069  0.4218
 3762SOL    HW222746   2.097   4.238   4.662 -2.6827  2.4956  0.0612
 3763SOL     OW22747   1.642   1.128   3.817 -0.5098  0.4184 -0.4966
 3763SOL    HW122748   1.625   1.178   3.897 -1.2894  1.2867 -1.2054
 3763SOL    HW222749   1.606   1.192   3.756 -2.4264 -0.5000 -0.3352
 3764SOL     OW22750   4.002   3.372  12.995 -0.2025 -0.2818 -0.1601
 3764SOL    HW122751   3.962   3.295  13.035 -0.4059 -0.0489  0.0857
 3764SOL    HW222752   4.024   3.330  12.913  3.0513  1.3581 -0.1461
 3765SOL     OW22753   4.639   4.195   8.910  0.2853  0.1779  0.4168
 3765SOL    HW122754   4.582   4.260   8.952 -1.2290  0.0698 -1.4566
 3765SOL    HW222755   4.662   4.143   8.987 -0.2430 -2.2895 -1.1115
 3766SOL     OW22756   2.812   4.039  12.930  0.0963  0.0749 -0.3564
 3766SOL    HW122757   2.803   3.987  13.010 -1.9074  0.0171 -0.6190
 3766SOL    HW222758   2.817   3.967  12.868  0.3125  0.6147 -0.9615
 3767SOL     OW22759   0.365   2.741   5.893  0.5238  0.2478  0.3987
 3767SOL    HW122760   0.342   2.729   5.985  2.7677 -1.5465  0.7083
 3767SOL    HW222761   0.306   2.680   5.848  0.5268  1.0542 -0.7123
 3768SOL     OW22762   2.503   4.633   7.962  0.7021 -0.2608 -0.6504
 3768SOL    HW122763   2.529   4.584   8.040 -1.9593 -2.4403 -1.1400
 3768SOL    HW222764   2.528   4.583   7.884  4.2592 -1.2503  1.1531
 3769SOL     OW22765   1.006   0.280  11.149 -0.1047 -0.3136  0.3695
 3769SOL    HW122766   0.925   0.235  11.126 -0.5775  1.3544 -1.2618
 3769SOL    HW222767   1.019   0.262  11.242  2.3916 -0.4751 -0.0107
 3770SOL     OW22768   3.907   0.118   7.969  0.0416  0.2085 -0.3753
 3770SOL    HW122769   3.984   0.067   7.947  0.8417  1.5677 -0.6918
 3770SOL    HW222770   3.845   0.102   7.899 -0.2510 -0.0421 -0.0608
 3771SOL     OW22771   3.830   0.926  13.832 -0.0924  0.2048 -0.1061
 3771SOL    HW122772   3.854   1.013  13.862  1.7223  0.7708 -3.1977
 3771SOL    HW222773   3.914   0.910  13.788 -1.0102  1.1529 -2.1987
 3772SOL     OW22774   3.769   3.746  11.808  0.5920  0.1135  0.1667
 3772SOL    HW122775   3.743   3.673  11.865  1.1275 -0.1743  0.0422
 3772SOL    HW222776   3.843   3.783  11.857  1.9628 -2.1461 -0.1818
 3773SOL     OW22777   3.234   0.819   9.386 -0.0141  0.3734 -0.7661
 3773SOL    HW122778   3.279   0.868   9.317  1.4990 -0.6031 -0.4741
 3773SOL    HW222779   3.236   0.729   9.352 -0.7952 -0.5951  1.7263
 3774SOL     OW22780   2.190   3.463   7.375  0.6243  0.6816 -0.7093
 3774SOL    HW122781   2.114   3.431   7.425  1.7416 -0.7810  0.0412
 3774SOL    HW222782   2.151   3.538   7.330 -0.9738 -0.4807 -1.2832
 3775SOL     OW22783   4.149   1.470  16.634  0.3704  0.1868 -0.0915
 3775SOL    HW122784   4.087   1.441  16.701  1.1527  1.2282  1.0803
 3775SOL    HW222785   4.100   1.447  16.555  1.5514  2.1613 -1.3874
 3776SOL     OW22786   2.303   2.054   2.395 -0.2887 -0.1121  0.3959
 3776SOL    HW122787   2.330   2.145   2.411  0.8695 -0.2838 -0.5952
 3776SOL    HW222788   2.216   2.057   2.355  0.6969 -0.0685 -1.7449
 3777SOL     OW22789   2.150   4.018   5.631  0.5989 -0.2023  0.2840
 3777SOL    HW122790   2.129   4.111   5.625  2.1011  0.0631 -0.8075
 3777SOL    HW222791   2.213   4.020   5.703 -0.5839  2.3914  1.2349
 3778SOL     OW22792   4.513   1.966   3.275 -0.0966 -0.1633  0.0624
 3778SOL    HW122793   4.569   1.889   3.266 -1.5041 -1.4071  1.7623
 3778SOL    HW222794   4.520   2.001   3.187 -0.4945 -0.7614 -0.2074
 3779SOL     OW22795   2.898   0.097   7.839 -0.1221 -0.6420 -0.0965
 3779SOL    HW122796   2.975   0.130   7.884 -0.4461  0.2487 -0.1980
 3779SOL    HW222797   2.942   0.020   7.805 -0.3397 -0.5477 -0.5809
 3780SOL     OW22798   3.361   4.246   6.056 -0.4426  0.1504 -0.3710
 3780SOL    HW122799   3.415   4.325   6.058 -0.7028  0.3069  0.3206
 3780SOL    HW222800   3.301   4.281   6.122 -0.0824 -0.4412  0.2692
 3781SOL     OW22801   0.805   2.675   1.545 -0.2904  0.1197  0.1261
 3781SOL    HW122802   0.739   2.651   1.610 -0.8019  0.1022 -0.4028
 3781SOL    HW222803   0.804   2.771   1.548 -1.9731  0.1745 -2.3867
 3782SOL     OW22804   2.082   1.003   5.943 -0.0063  0.2746 -0.1223
 3782SOL    HW122805   1.992   1.035   5.947  0.9188  2.9014 -0.6945
 3782SOL    HW222806   2.101   0.973   6.032 -0.0351  0.4127 -0.0705
 3783SOL     OW22807   3.934   3.930   7.792  0.7701  0.3343  0.7557
 3783SOL    HW122808   3.929   3.835   7.802 -1.3225  0.3613 -0.1124
 3783SOL    HW222809   3.884   3.953   7.714  1.8988  0.1069 -0.0335
 3784SOL     OW22810   2.506   4.692   4.180  0.1289 -0.0536 -0.2672
 3784SOL    HW122811   2.416   4.663   4.196 -0.1670  0.5444 -0.8565
 3784SOL    HW222812   2.508   0.036   4.249  0.9236 -1.5344  1.1496
 3785SOL     OW22813   0.276   1.818   4.747 -0.3701 -0.3119 -0.0740
 3785SOL    HW122814   0.285   1.741   4.691  1.9818 -0.7151  0.8351
 3785SOL    HW222815   0.366   1.843   4.767 -0.7012  0.7105  0.1682
 3786SOL     OW22816   0.990   1.225   7.891 -0.3359  0.5038  0.6592
 3786SOL    HW122817   0.977   1.134   7.919  2.4367 -0.2919 -0.6084
 3786SOL    HW222818   0.900   1.233   7.858 -0.0110  1.2286 -0.0496
 3787SOL     OW22819   4.615   2.724  10.485 -0.0314 -0.0735  0.4765
 3787SOL    HW122820   4.559   2.799  10.502  0.3388  0.6808 -1.5608
 3787SOL    HW222821   4.693   2.729  10.541  0.1288  1.1263  0.1541
 3788SOL     OW22822   1.210   4.255   3.459 -0.5340 -0.1771 -0.1594
 3788SOL    HW122823   1.238   4.347   3.457  0.5939 -0.4886  1.4139
 3788SOL    HW222824   1.292   4.221   3.423  0.4357  1.0369  0.8898
 3789SOL     OW22825   3.989   0.454   5.911 -0.0354 -0.0063  0.1033
 3789SOL    HW122826   3.988   0.547   5.888 -0.6355 -0.1750 -0.5292
 3789SOL    HW222827   3.960   0.456   6.002  4.3150  1.4077  1.4822
 3790SOL     OW22828   3.065   2.655  17.087 -0.3839 -0.1839  0.2422
 3790SOL    HW122829   3.008   2.680  17.160 -0.8451  2.1240 -0.9464
 3790SOL    HW222830   3.067   2.738  17.041  0.0310 -0.4411 -0.2068
 3791SOL     OW22831   0.166   0.716  11.013  0.0715  0.6275 -0.5468
 3791SOL    HW122832   0.159   0.654  11.085 -1.5428 -0.4058 -1.6055
 3791SOL    HW222833   0.126   0.793  11.052  1.6061  2.1363 -1.9185
 3792SOL     OW22834   4.593   2.486   6.925  0.1925  0.0677 -0.1171
 3792SOL    HW122835   4.639   2.532   6.996  1.3673 -0.9591 -0.2106
 3792SOL    HW222836   4.662   2.434   6.886 -0.3021  0.3802 -1.3944
 3793SOL     OW22837   4.231   3.530   1.169 -0.6946  0.0218  0.6690
 3793SOL    HW122838   4.221   3.623   1.190  2.5545 -0.0317  2.3427
 3793SOL    HW222839   4.297   3.537   1.100 -0.2768 -2.4830  0.7976
 3794SOL     OW22840   0.328   1.966   6.943  0.5111 -0.2127 -0.1481
 3794SOL    HW122841   0.307   1.913   7.019  0.2675  1.7757  1.1712
 3794SOL    HW222842   0.404   2.013   6.975 -0.3787 -0.2881  2.0747
 3795SOL     OW22843   2.814   4.204  15.984 -0.3446  0.0091 -0.7090
 3795SOL    HW122844   2.760   4.242  16.053 -1.8426  0.1508 -1.9728
 3795SOL    HW222845   2.875   4.276  15.972 -0.7814  0.2041 -1.7330
 3796SOL     OW22846   4.057   2.983   0.588 -0.3784 -0.1704 -0.6368
 3796SOL    HW122847   4.037   3.074   0.565  2.1664  1.0974  2.0847
 3796SOL    HW222848   4.051   2.945   0.500 -0.0631  2.5423 -1.8501
 3797SOL     OW22849   3.468   2.133  15.228 -0.9898  0.7877  0.2192
 3797SOL    HW122850   3.447   2.175  15.312 -0.8704  0.2823  0.5008
 3797SOL    HW222851   3.385   2.089  15.214 -0.4954 -0.6551  1.8527
 3798SOL     OW22852   3.168   1.688   8.598  0.6758 -0.4288 -0.1165
 3798SOL    HW122853   3.261   1.699   8.617  0.7153  1.5478 -1.4728
 3798SOL    HW222854   3.171   1.594   8.578 -0.2007 -0.3220 -0.7462
 3799SOL     OW22855   0.208   3.261  16.200  0.4589  0.5465  0.0908
 3799SOL    HW122856   0.155   3.279  16.123 -0.2449  1.7408  0.8398
 3799SOL    HW222857   0.180   3.175  16.231 -0.7723  1.7741  2.3985
 3800SOL     OW22858   1.461   0.490   5.564 -0.4070  0.0774 -0.4844
 3800SOL    HW122859   1.394   0.429   5.535  0.5511 -0.9185 -0.6258
 3800SOL    HW222860   1.438   0.488   5.657  2.3246 -1.0273  0.1711
 3801SOL     OW22861   1.961   0.905   6.481  0.0968  0.0100  0.0194
 3801SOL    HW122862   1.908   0.984   6.467  0.6363  0.4146  0.2321
 3801SOL    HW222863   2.014   0.928   6.557 -1.8956 -1.5152  1.8424
 3802SOL     OW22864   3.544   2.501   2.388  0.3989  0.0831 -0.3150
 3802SOL    HW122865   3.463   2.534   2.350 -0.5769 -1.5898  0.2924
 3802SOL    HW222866   3.600   2.575   2.411 -0.1614 -0.0512  1.4904
 3803SOL     OW22867   2.099   1.746   8.477  0.4238  0.5202  0.7483
 3803SOL    HW122868   2.035   1.814   8.460 -0.7386 -1.4392 -2.6837
 3803SOL    HW222869   2.132   1.762   8.565 -2.2062 -1.4743  2.0746
 3804SOL     OW22870   1.936   1.049  11.405  0.6235  0.5318 -0.0262
 3804SOL    HW122871   1.983   1.045  11.488  1.1549  1.5959 -0.2729
 3804SOL    HW222872   1.918   0.957  11.388 -3.1972  1.1600  0.4881
 3805SOL     OW22873   4.011   1.543   7.713 -0.1400  0.0115  0.2609
 3805SOL    HW122874   4.069   1.477   7.752  1.1919  1.3398  0.5077
 3805SOL    HW222875   4.027   1.620   7.768  2.5765  1.2754 -2.3210
 3806SOL     OW22876   2.732   4.417   2.830 -0.5411  0.4145  0.1750
 3806SOL    HW122877   2.760   4.509   2.833  1.0892 -0.1422  1.7945
 3806SOL    HW222878   2.753   4.372   2.911  0.7041  1.3047  0.3428
 3807SOL     OW22879   2.079   0.729  12.761  0.1029  0.3379 -0.0029
 3807SOL    HW122880   2.147   0.785  12.797 -1.5063  3.3496 -1.6157
 3807SOL    HW222881   1.996   0.776  12.754 -0.6941 -0.9278  0.7812
 3808SOL     OW22882   2.934   2.042   7.787 -0.1736  0.7827 -0.3080
 3808SOL    HW122883   2.944   2.044   7.882 -0.0916 -2.5833 -0.2487
 3808SOL    HW222884   2.860   1.983   7.777  0.8761 -0.4949 -0.5836
 3809SOL     OW22885   0.843   0.090  14.751 -0.2385 -0.5838 -0.0962
 3809SOL    HW122886   0.844   0.157  14.820 -2.7856  0.1986 -0.8335
 3809SOL    HW222887   0.759   0.045  14.765  0.6094 -1.4050  2.3962
 3810SOL     OW22888   1.287   3.206  16.887 -0.3277  0.3641  0.0746
 3810SOL    HW122889   1.285   3.137  16.821 -0.5894 -0.2374  0.7113
 3810SOL    HW222890   1.294   3.154  16.968 -0.8589  0.8828  0.4563
 3811SOL     OW22891   4.026   0.877   4.025  0.3642 -0.3206 -0.4828
 3811SOL    HW122892   4.032   0.954   4.082 -1.2044  2.3848 -3.9806
 3811SOL    HW222893   3.935   0.850   4.026  0.8249 -1.8016  0.9051
 3812SOL     OW22894   4.293   3.686  15.619  0.1452 -0.2381  0.0705
 3812SOL    HW122895   4.261   3.671  15.530  2.4202  1.1384 -0.9779
 3812SOL    HW222896   4.380   3.648  15.627  0.9273  0.8647 -3.1500
 3813SOL     OW22897   2.586   0.461   5.052 -0.1465  0.1794 -0.0062
 3813SOL    HW122898   2.510   0.516   5.070 -0.7874 -1.2618  1.6466
 3813SOL    HW222899   2.655   0.525   5.033  0.7584 -0.6139  0.6300
 3814SOL     OW22900   0.599   0.621   7.194 -0.4269 -0.0736 -0.1421
 3814SOL    HW122901   0.602   0.536   7.150 -1.8789  0.0923 -0.5569
 3814SOL    HW222902   0.645   0.608   7.277  1.3206 -2.9754 -1.5514
 3815SOL     OW22903   4.583   0.613   5.247 -0.4562 -0.2983 -0.2339
 3815SOL    HW122904   4.565   0.670   5.172 -1.7185 -1.1318 -0.5671
 3815SOL    HW222905   4.558   0.530   5.206  1.6080 -1.6449  1.2697
 3816SOL     OW22906   3.777   1.152  16.465  0.4539 -0.4964 -0.2378
 3816SOL    HW122907   3.742   1.212  16.530  1.5810 -1.7954  1.5647
 3816SOL    HW222908   3.729   1.182  16.388  2.5244 -0.1268 -1.4023
 3817SOL     OW22909   2.306   0.802   7.572 -0.3008  0.0978  0.5669
 3817SOL    HW122910   2.359   0.835   7.645  1.1743  1.0272 -0.9234
 3817SOL    HW222911   2.330   0.709   7.578  1.4559  0.5239  0.2115
 3818SOL     OW22912   0.432   3.948   6.017  0.7441  0.4705 -0.7122
 3818SOL    HW122913   0.404   3.931   6.107 -0.9326  1.7544 -1.0008
 3818SOL    HW222914   0.494   3.875   6.006  0.8560  0.9464 -3.1897
 3819SOL     OW22915   3.076   1.732   4.554  0.1692  0.0962 -0.2332
 3819SOL    HW122916   2.995   1.772   4.522  0.2868 -1.8214 -2.8867
 3819SOL    HW222917   3.048   1.641   4.555  0.1973  0.0753 -1.0816
 3820SOL     OW22918   2.535   2.460  12.830  0.6268  0.2739  0.5804
 3820SOL    HW122919   2.498   2.548  12.834 -1.4238 -0.5178 -0.6431
 3820SOL    HW222920   2.582   2.461  12.747 -0.4245 -1.5506 -0.0349
 3821SOL     OW22921   2.920   2.337   7.311  0.1265 -0.0342 -0.4561
 3821SOL    HW122922   2.826   2.319   7.307  0.3307 -1.2505  0.1808
 3821SOL    HW222923   2.955   2.265   7.258  0.0900 -0.3947  0.0102
 3822SOL     OW22924   4.304   2.345   4.897 -0.3864 -0.3552  0.3346
 3822SOL    HW122925   4.377   2.376   4.950  0.5536 -0.6428 -0.7861
 3822SOL    HW222926   4.228   2.395   4.926 -0.1757  0.4801 -0.5541
 3823SOL     OW22927   2.057   0.871  14.839 -0.2246 -0.2421 -0.0340
 3823SOL    HW122928   1.979   0.821  14.861  0.9935 -1.0018  2.5565
 3823SOL    HW222929   2.025   0.949  14.795  0.2633 -0.2969 -0.4989
 3824SOL     OW22930   3.708   3.267   6.647 -0.0652 -0.3087 -0.1225
 3824SOL    HW122931   3.708   3.201   6.716 -2.0735  1.2695  1.3979
 3824SOL    HW222932   3.791   3.311   6.662  0.3554 -0.3491 -2.2839
 3825SOL     OW22933   2.477   3.052   3.462 -0.4401 -0.5730  0.5935
 3825SOL    HW122934   2.482   3.031   3.369 -2.2395 -1.1107  0.6182
 3825SOL    HW222935   2.558   3.103   3.464  0.5090 -2.0251 -0.9688
 3826SOL     OW22936   0.140   4.254   0.891 -0.6823  0.0167  0.3833
 3826SOL    HW122937   0.068   4.248   0.953 -0.4839 -2.2599  0.3796
 3826SOL    HW222938   0.087   4.249   0.811  1.4661 -2.0014 -0.9130
 3827SOL     OW22939   4.074   1.342   1.497 -0.0330 -0.5370  0.3609
 3827SOL    HW122940   3.981   1.349   1.515  0.1471  4.3687 -0.6441
 3827SOL    HW222941   4.090   1.273   1.432  0.4063  2.3270 -2.5462
 3828SOL     OW22942   0.026   3.221  14.081 -0.5163 -0.5586  0.1077
 3828SOL    HW122943   0.089   3.168  14.131 -0.5714 -1.0387 -0.3319
 3828SOL    HW222944   4.671   3.213  14.137  0.0300 -1.6744  0.7101
 3829SOL     OW22945   3.343   0.730   5.834 -0.1720 -0.5127  0.7000
 3829SOL    HW122946   3.355   0.661   5.899  0.3455 -0.8672  0.2304
 3829SOL    HW222947   3.355   0.679   5.754  1.5811  0.1305  0.5432
 3830SOL     OW22948   1.033   1.823   7.965  0.9689 -0.2193  0.2458
 3830SOL    HW122949   1.070   1.862   8.044  2.3290  0.8713 -0.9336
 3830SOL    HW222950   1.057   1.898   7.911 -0.7931 -0.6449 -1.1343
 3831SOL     OW22951   0.894   4.367   0.612 -0.4607  0.1099  0.0729
 3831SOL    HW122952   0.849   4.428   0.554  2.3190  0.6032 -1.5920
 3831SOL    HW222953   0.971   4.411   0.649  0.7655 -1.8070 -0.1807
 3832SOL     OW22954   0.935   2.745   5.896 -0.0039  0.4270  0.4921
 3832SOL    HW122955   0.869   2.677   5.910  0.6379 -0.1200  0.8582
 3832SOL    HW222956   0.980   2.715   5.817  1.8325 -1.2305  2.1590
 3833SOL     OW22957   3.992   1.350   4.611 -0.1449  0.5111 -0.3165
 3833SOL    HW122958   4.078   1.387   4.633  0.1307  0.0295 -0.5946
 3833SOL    HW222959   3.973   1.403   4.533  2.8216  0.2992 -1.2005
 3834SOL     OW22960   0.007   3.938  13.969 -0.6463  0.0661  1.0234
 3834SOL    HW122961   0.073   3.874  13.941 -0.3496  0.3147  1.1471
 3834SOL    HW222962   0.013   4.012  13.909  0.8049 -1.4477 -0.6841
 3835SOL     OW22963   2.125   0.130   2.727  0.7604  0.0285  0.6992
 3835SOL    HW122964   2.029   0.132   2.729  0.7405  0.6256 -1.5358
 3835SOL    HW222965   2.142   0.037   2.711 -5.1395 -0.7346 -1.2736
 3836SOL     OW22966   1.773   2.861   5.477 -0.1370 -0.0570  0.2991
 3836SOL    HW122967   1.774   2.942   5.528 -1.6211 -0.0437  0.3118
 3836SOL    HW222968   1.695   2.866   5.422  1.1616 -0.8967 -1.6036
 3837SOL     OW22969   3.641   1.943   8.526 -0.1242  0.4830  0.1110
 3837SOL    HW122970   3.557   1.958   8.569  0.7253  0.2733  1.8374
 3837SOL    HW222971   3.681   2.028   8.510 -2.2588  0.7586 -3.7608
 3838SOL     OW22972   4.036   1.211   6.862  0.2103  0.2233  0.9524
 3838SOL    HW122973   4.059   1.297   6.828  1.2887 -1.4954 -2.7327
 3838SOL    HW222974   4.073   1.159   6.790  1.0524 -0.5439  1.9372
 3839SOL     OW22975   2.831   1.066  16.253  0.4434 -0.0504  0.0242
 3839SOL    HW122976   2.922   1.037  16.245  0.3481 -0.3012 -0.1794
 3839SOL    HW222977   2.839   1.109  16.338  0.6102  0.7768 -0.4067
 3840SOL     OW22978   3.818   1.947  14.966  0.0963 -0.0191 -0.4120
 3840SOL    HW122979   3.835   1.878  14.902  0.6346 -1.1292  0.9365
 3840SOL    HW222980   3.737   1.919  15.009 -0.5491 -1.6047 -2.6665
 3841SOL     OW22981   0.827   2.132  16.241  0.4404 -0.0929 -0.2945
 3841SOL    HW122982   0.741   2.144  16.201  0.3308  1.5959  0.4635
 3841SOL    HW222983   0.821   2.187  16.319 -0.4629  0.1263 -0.5169
 3842SOL     OW22984   2.462   3.289   8.093  0.0434 -0.1464 -0.2102
 3842SOL    HW122985   2.446   3.195   8.092 -1.8664  0.1398  3.4785
 3842SOL    HW222986   2.553   3.298   8.121  0.3156  1.8797 -1.7100
 3843SOL     OW22987   2.827   2.488  11.247  0.3382 -0.2436 -0.1618
 3843SOL    HW122988   2.842   2.557  11.181  0.0295 -0.7485 -0.7580
 3843SOL    HW222989   2.782   2.532  11.319 -1.4423 -0.8884 -0.9026
 3844SOL     OW22990   0.914   0.846  13.430  0.1987  0.4640  0.2090
 3844SOL    HW122991   0.905   0.923  13.374  1.2592  0.4377  0.0050
 3844SOL    HW222992   0.845   0.860  13.495 -0.8349 -1.0817 -0.5693
 3845SOL     OW22993   2.892   0.549   5.828 -0.4205  0.1408  0.0505
 3845SOL    HW122994   2.905   0.568   5.921 -0.6970  0.1736  0.0813
 3845SOL    HW222995   2.804   0.580   5.809 -0.4628 -0.1516 -0.2363
 3846SOL     OW22996   3.794   3.303  17.505  0.1500  0.1362 -0.2172
 3846SOL    HW122997   3.700   3.313  17.486 -0.2880  1.1104  2.4667
 3846SOL    HW222998   3.819   3.281  17.415 -0.3446 -0.6291 -0.1749
 3847SOL     OW22999   1.295   0.688  16.751  0.6290 -0.1980 -0.2388
 3847SOL    HW123000   1.241   0.699  16.673 -1.7089 -1.0671  1.2356
 3847SOL    HW223001   1.244   0.729  16.822  0.3075  1.1574 -1.2550
 3848SOL     OW23002   3.812   0.716   9.018 -0.3898 -0.4337  0.4117
 3848SOL    HW123003   3.841   0.624   9.023  0.2976 -0.1834  1.0970
 3848SOL    HW223004   3.897   0.758   9.036 -1.4362  0.8901  2.2230
 3849SOL     OW23005   1.633   1.985   7.439 -0.2164 -0.0978  0.0457
 3849SOL    HW123006   1.605   1.986   7.530 -1.4275  0.4456 -0.3370
 3849SOL    HW223007   1.585   2.061   7.405 -1.0505 -0.0335  1.3905
 3850SOL     OW23008   2.951   4.516   6.557 -0.1993  0.7660 -0.0966
 3850SOL    HW123009   2.873   4.554   6.597  1.3013  2.6279  1.1044
 3850SOL    HW223010   3.007   4.592   6.544 -1.7514  1.4579 -2.6918
 3851SOL     OW23011   3.366   3.656   2.532 -0.1550 -0.3390 -0.3721
 3851SOL    HW123012   3.362   3.714   2.456 -0.2595  1.0233  0.6716
 3851SOL    HW223013   3.319   3.581   2.496 -0.3319 -1.8758  3.0558
 3852SOL     OW23014   1.967   0.502  17.608  0.0456 -0.0458  0.1261
 3852SOL    HW123015   1.885   0.469  17.645 -0.8706  1.8500 -0.2224
 3852SOL    HW223016   2.005   0.420  17.579 -1.9530 -0.9677  0.1204
 3853SOL     OW23017   0.170   1.180   8.590  0.1157  0.1734  0.1811
 3853SOL    HW123018   0.198   1.241   8.522 -1.9551  0.6666 -0.2479
 3853SOL    HW223019   0.248   1.126   8.600 -0.2594 -0.2232  0.9528
 3854SOL     OW23020   4.577   0.290   7.545 -0.8119  0.2455 -0.3930
 3854SOL    HW123021   4.651   0.328   7.593 -0.2228 -3.1969  1.4591
 3854SOL    HW223022   4.507   0.334   7.593 -0.0767  0.3343  0.6009
 3855SOL     OW23023   1.955   3.644   5.141 -0.1387 -0.0732  0.4185
 3855SOL    HW123024   1.980   3.659   5.231 -1.6591  0.1408  0.8132
 3855SOL    HW223025   1.923   3.732   5.122 -1.1950 -0.5400 -0.0027
 3856SOL     OW23026   2.079   2.685   9.233 -0.4766 -0.1071 -0.1153
 3856SOL    HW123027   2.088   2.599   9.273 -0.5694 -0.3887 -0.6916
 3856SOL    HW223028   1.984   2.690   9.227 -0.5323  0.0595  0.9490
 3857SOL     OW23029   1.994   0.574   3.838  0.3080 -0.3884 -0.8501
 3857SOL    HW123030   2.085   0.573   3.809  0.1913 -0.9953 -1.1812
 3857SOL    HW223031   1.963   0.653   3.794  0.6710  0.2183 -0.0221
 3858SOL     OW23032   2.516   1.990  16.268  0.1699 -0.2022 -0.0410
 3858SOL    HW123033   2.501   2.082  16.246  4.3901  0.4383 -0.2595
 3858SOL    HW223034   2.514   1.959  16.178 -0.5511  3.2490 -1.2107
 3859SOL     OW23035   2.362   3.959   0.518 -0.4669 -0.3361  0.3814
 3859SOL    HW123036   2.440   3.928   0.564 -1.0260 -2.0562  0.1656
 3859SOL    HW223037   2.420   3.993   0.449 -1.7905 -0.3828 -0.7477
 3860SOL     OW23038   0.705   0.776  11.516 -0.4868 -0.5975  0.1020
 3860SOL    HW123039   0.707   0.706  11.581 -1.9841 -0.5255  0.2249
 3860SOL    HW223040   0.782   0.829  11.537 -0.3408 -1.0735  0.7743
 3861SOL     OW23041   1.032   0.617   3.796 -0.0022  0.2379  0.1325
 3861SOL    HW123042   1.063   0.581   3.713 -2.3188  0.2428 -0.7260
 3861SOL    HW223043   1.105   0.674   3.819 -0.0507 -0.5151  2.1856
 3862SOL     OW23044   4.339   2.717   4.363 -0.4816  0.4504 -0.0362
 3862SOL    HW123045   4.396   2.755   4.430 -0.5089 -0.0434  0.2629
 3862SOL    HW223046   4.260   2.767   4.383  0.1370  1.3195  0.2281
 3863SOL     OW23047   1.217   3.158   5.047  0.2584  0.1853 -0.3795
 3863SOL    HW123048   1.248   3.080   5.000 -0.3556  0.2293 -0.8421
 3863SOL    HW223049   1.176   3.122   5.126 -2.8171 -2.3056 -3.1489
 3864SOL     OW23050   0.865   2.935   7.944  0.7136  0.0949 -0.2746
 3864SOL    HW123051   0.855   2.996   8.017  2.3173  2.1042 -1.7543
 3864SOL    HW223052   0.946   2.972   7.908  1.9211  0.8066  3.1240
 3865SOL     OW23053   1.697   4.392   9.434 -0.5485  0.0342 -0.0119
 3865SOL    HW123054   1.763   4.331   9.403 -0.8769  1.2175 -3.0824
 3865SOL    HW223055   1.754   4.460   9.468 -0.3934  0.6072 -1.3987
 3866SOL     OW23056   1.621   2.225   8.645 -0.2385 -0.3196 -0.9989
 3866SOL    HW123057   1.712   2.249   8.661 -0.8491  0.6824  0.9735
 3866SOL    HW223058   1.610   2.130   8.636  0.2940 -0.7670  3.0083
 3867SOL     OW23059   4.249   4.515   7.760 -0.0285  0.4588  0.0750
 3867SOL    HW123060   4.168   4.467   7.743 -0.2537  0.4794  1.1214
 3867SOL    HW223061   4.215   4.600   7.789  0.0404 -0.0855  1.7433
 3868SOL     OW23062   3.998   3.371   6.721  0.1036  0.1082 -0.1360
 3868SOL    HW123063   4.069   3.424   6.758 -0.6021 -0.4248  1.9928
 3868SOL    HW223064   3.964   3.321   6.795  0.6448  2.6654  1.8477
 3869SOL     OW23065   2.371   3.642  14.702  0.3615 -0.4614 -0.5827
 3869SOL    HW123066   2.296   3.669  14.649  0.4536 -0.4567 -0.7095
 3869SOL    HW223067   2.362   3.547  14.709 -0.7732 -0.3707 -0.8111
 3870SOL     OW23068   4.596   1.447  11.107  0.0125  0.5434  0.0450
 3870SOL    HW123069   4.512   1.401  11.100  0.6294 -0.5976  0.1240
 3870SOL    HW223070   4.578   1.528  11.059  0.3212  1.5488  1.6254
 3871SOL     OW23071   1.492   2.644  10.483  0.1042 -0.7117 -0.8979
 3871SOL    HW123072   1.587   2.658  10.478 -0.2938  2.0551 -0.7040
 3871SOL    HW223073   1.475   2.613  10.572 -2.1282 -2.5814 -1.9772
 3872SOL     OW23074   2.022   1.553  12.920  0.1045  0.1590 -0.2652
 3872SOL    HW123075   1.976   1.637  12.919  0.6736  0.4720 -0.7681
 3872SOL    HW223076   2.080   1.567  12.995 -1.3794  0.6563  0.7932
 3873SOL     OW23077   4.634   1.129   3.636 -0.0759 -0.4664  0.1920
 3873SOL    HW123078   4.621   1.096   3.725 -1.8198  2.0649  0.8716
 3873SOL    HW223079   4.583   1.209   3.650 -0.8701 -0.6953 -1.4735
 3874SOL     OW23080   1.109   0.218   2.790 -0.3235 -0.3319 -0.0216
 3874SOL    HW123081   1.179   0.161   2.821  0.9076  0.9928 -0.3377
 3874SOL    HW223082   1.148   0.302   2.764 -0.5075  0.1436  1.2580
 3875SOL     OW23083   3.163   2.210   3.547  0.2852  0.3157 -0.0284
 3875SOL    HW123084   3.105   2.159   3.604 -0.3571  1.2587  0.1465
 3875SOL    HW223085   3.114   2.240   3.471  1.4180  1.2187 -0.3943
 3876SOL     OW23086   1.975   0.093   1.672  0.0317 -0.5828 -0.4358
 3876SOL    HW123087   1.965   0.016   1.727  3.2652  0.7310  1.9620
 3876SOL    HW223088   1.894   0.137   1.699  0.9887  0.6844  0.3757
 3877SOL     OW23089   2.965   3.941   3.168  0.5267 -0.5187 -0.8914
 3877SOL    HW123090   3.049   3.971   3.133  0.0947 -0.3322 -1.7497
 3877SOL    HW223091   2.925   4.028   3.168  1.9262  0.1283 -0.6110
 3878SOL     OW23092   1.286   3.091  16.635  0.0919 -0.3131  0.4150
 3878SOL    HW123093   1.374   3.065  16.608  0.6246  1.2773  0.6321
 3878SOL    HW223094   1.275   3.154  16.563  0.6094  1.1542  1.6099
 3879SOL     OW23095   3.117   2.529   6.950 -0.1199  0.0649 -0.4120
 3879SOL    HW123096   3.098   2.606   7.002  0.4602 -0.2878  0.3181
 3879SOL    HW223097   3.034   2.481   6.943 -0.5479  0.6059  0.9075
 3880SOL     OW23098   4.344   0.971  14.352 -0.9954  0.0717  0.4140
 3880SOL    HW123099   4.416   0.929  14.400 -1.2673 -0.6443  0.1894
 3880SOL    HW223100   4.363   0.952  14.260  2.0157  0.6716  0.9012
 3881SOL     OW23101   1.379   3.866   8.079  0.1981 -0.6908  0.0350
 3881SOL    HW123102   1.332   3.803   8.133 -1.0203 -0.4819 -0.7772
 3881SOL    HW223103   1.331   3.858   7.997 -2.6503  2.2691  1.4041
 3882SOL     OW23104   4.186   0.743   0.745 -0.0212 -0.1418 -0.7867
 3882SOL    HW123105   4.249   0.807   0.779 -2.5756  0.8781  1.9827
 3882SOL    HW223106   4.155   0.692   0.820 -1.2032  1.7354 -0.0060
 3883SOL     OW23107   3.132   2.505   8.703 -0.1506  0.1636 -0.3336
 3883SOL    HW123108   3.137   2.535   8.793 -0.2349 -0.3988 -0.1407
 3883SOL    HW223109   3.187   2.562   8.650 -0.8329 -0.9450 -2.2835
 3884SOL     OW23110   1.862   2.168   0.448  0.1839 -0.5148 -0.3391
 3884SOL    HW123111   1.896   2.079   0.443 -0.6743 -0.8551 -0.1882
 3884SOL    HW223112   1.780   2.154   0.401 -1.3408  0.7159  1.9021
 3885SOL     OW23113   4.211   2.941   8.292  0.3689  0.4360  0.2751
 3885SOL    HW123114   4.193   3.008   8.358  3.4296  1.1001  0.4141
 3885SOL    HW223115   4.276   2.993   8.245  0.7938 -0.8307 -0.5226
 3886SOL     OW23116   4.710   0.379   8.769 -0.4868  0.2751  0.3480
 3886SOL    HW123117   4.709   0.383   8.864  0.5198  0.4946  0.3478
 3886SOL    HW223118   0.044   0.306   8.743 -1.0506 -0.1929  0.4389
 3887SOL     OW23119   3.005   2.918   8.368  0.0460  0.1404 -0.6746
 3887SOL    HW123120   2.954   2.974   8.427 -0.3986  0.8659 -1.7380
 3887SOL    HW223121   2.978   2.828   8.387 -0.8658  0.7821  1.1017
 3888SOL     OW23122   4.113   2.707   5.199 -0.2338  0.0982 -0.4666
 3888SOL    HW123123   4.091   2.665   5.282 -0.6997  1.1308 -0.0666
 3888SOL    HW223124   4.079   2.793   5.223  2.0775  0.8811 -0.0700
 3889SOL     OW23125   1.783   2.172   3.338 -0.1570  0.4627 -0.0975
 3889SOL    HW123126   1.743   2.229   3.272  0.9864  0.5010 -0.7567
 3889SOL    HW223127   1.777   2.086   3.297  1.1915  0.3706 -0.0862
 3890SOL     OW23128   0.203   3.867   2.829 -0.1598  0.2625  0.2820
 3890SOL    HW123129   0.110   3.849   2.816 -0.3896  1.3040  0.4681
 3890SOL    HW223130   0.205   3.857   2.924  0.1381 -0.5002  0.1987
 3891SOL     OW23131   0.173   2.277   4.771  0.0089  0.5442 -0.8483
 3891SOL    HW123132   0.124   2.359   4.771  1.3451  1.3328  0.5913
 3891SOL    HW223133   0.111   2.212   4.738  1.2287 -1.8404  1.5681
 3892SOL     OW23134   2.839   0.158   0.272 -0.7081  0.0569 -0.1204
 3892SOL    HW123135   2.847   0.124   0.183  0.4183 -0.9051  0.3481
 3892SOL    HW223136   2.801   0.081   0.315 -0.6422  1.0305  1.6844
 3893SOL     OW23137   2.907   1.821   6.539  0.2261 -0.2313 -0.2082
 3893SOL    HW123138   2.845   1.786   6.603  1.3629  2.8826  2.6116
 3893SOL    HW223139   2.844   1.846   6.470  1.5685  3.3891 -0.1319
 3894SOL     OW23140   3.480   0.571   3.323 -0.5763 -0.1348 -0.4532
 3894SOL    HW123141   3.518   0.500   3.271 -1.1369 -3.3198  3.4839
 3894SOL    HW223142   3.544   0.642   3.313  0.5260 -1.1563 -0.6133
 3895SOL     OW23143   3.638   1.640   3.362 -0.1578  0.1209 -0.7889
 3895SOL    HW123144   3.721   1.685   3.344  0.0302  0.0347 -0.1155
 3895SOL    HW223145   3.656   1.551   3.333 -2.6051  0.1804 -2.5883
 3896SOL     OW23146   4.262   0.460  17.380 -0.6234  0.6914 -0.0839
 3896SOL    HW123147   4.206   0.506  17.443  0.5815 -1.0380  2.2274
 3896SOL    HW223148   4.298   0.393  17.437 -2.0017  0.8567  0.9859
 3897SOL     OW23149   2.422   2.469   4.619 -0.1088  0.0205 -0.0570
 3897SOL    HW123150   2.478   2.516   4.556 -0.1022  2.7862  2.0084
 3897SOL    HW223151   2.481   2.396   4.639 -1.4926 -0.8890  0.6400
 3898SOL     OW23152   0.321   1.289  10.548 -0.1676  0.1026 -0.3086
 3898SOL    HW123153   0.279   1.277  10.633 -0.1145 -0.3618 -0.3508
 3898SOL    HW223154   0.254   1.254  10.490  0.6463  0.1168 -1.2512
 3899SOL     OW23155   3.201   4.094  10.082  0.4473 -0.0221  0.5325
 3899SOL    HW123156   3.125   4.067  10.132 -0.6870 -0.2705 -1.3179
 3899SOL    HW223157   3.266   4.026  10.099 -2.3066 -2.4767  1.2507
 3900SOL     OW23158   2.597   1.839   7.379  0.1639 -0.1311  0.2676
 3900SOL    HW123159   2.641   1.867   7.298  0.3700 -1.6469 -0.1310
 3900SOL    HW223160   2.659   1.768   7.396  0.8067  0.2626 -0.3699
 3901SOL     OW23161   1.618   2.453  10.905 -0.1550  0.3130 -0.3185
 3901SOL    HW123162   1.590   2.386  10.967  1.5858 -1.3487 -1.2945
 3901SOL    HW223163   1.696   2.483  10.952  0.6248  1.0351 -2.0433
 3902SOL     OW23164   0.863   4.185  10.186 -0.5863 -0.2696 -0.2021
 3902SOL    HW123165   0.845   4.277  10.163  0.7496 -0.4402 -1.9433
 3902SOL    HW223166   0.957   4.194  10.201 -0.5533 -0.2647 -0.4083
 3903SOL     OW23167   3.567   1.634   1.600  0.2328  0.6779  0.2524
 3903SOL    HW123168   3.599   1.669   1.517 -1.1236  1.9217  0.2487
 3903SOL    HW223169   3.644   1.638   1.656  0.4958 -2.7395  0.1824
 3904SOL     OW23170   1.585   0.036   1.592 -0.3052 -0.0007  0.3825
 3904SOL    HW123171   1.650   0.021   1.523  0.3129 -0.1774  1.0103
 3904SOL    HW223172   1.522   4.686   1.587  0.1445 -0.3849  0.3189
 3905SOL     OW23173   4.196   4.153   2.450  0.2119 -0.4512  0.3391
 3905SOL    HW123174   4.167   4.076   2.401 -1.3383 -0.9208  2.0122
 3905SOL    HW223175   4.214   4.204   2.371  0.3742 -0.8912  0.0894
 3906SOL     OW23176   1.102   3.470   5.611  0.0810 -0.0739 -0.4810
 3906SOL    HW123177   1.152   3.421   5.547 -1.1726 -1.8067 -0.1432
 3906SOL    HW223178   1.052   3.528   5.554 -0.6584 -0.0593  0.1747
 3907SOL     OW23179   1.969   4.335   0.870 -0.0892 -0.1688 -0.0851
 3907SOL    HW123180   2.020   4.314   0.792  0.4460  0.0916  0.1937
 3907SOL    HW223181   1.939   4.247   0.894 -1.6319  0.7771  1.4743
 3908SOL     OW23182   2.580   3.822   0.675 -0.6274  0.0994 -0.1200
 3908SOL    HW123183   2.576   3.730   0.704 -0.7736 -0.2487 -1.2597
 3908SOL    HW223184   2.664   3.812   0.632  0.8140  0.0702  2.6684
 3909SOL     OW23185   2.964   3.615   6.861 -0.0405 -0.1301  0.3234
 3909SOL    HW123186   3.042   3.607   6.916  0.7274  0.9594 -0.6042
 3909SOL    HW223187   2.943   3.708   6.875 -0.6687 -0.1487 -0.4934
 3910SOL     OW23188   2.342   2.009  15.560  0.0606 -0.0384 -0.7820
 3910SOL    HW123189   2.254   2.008  15.524 -0.9823  2.6441  1.6752
 3910SOL    HW223190   2.366   2.096  15.528 -1.6002 -0.2189 -2.5270
 3911SOL     OW23191   2.464   0.302   3.378 -0.0734 -0.1471  0.7277
 3911SOL    HW123192   2.419   0.225   3.344  1.5327 -1.1124  0.7789
 3911SOL    HW223193   2.518   0.257   3.444 -2.4138  0.1125  2.8282
 3912SOL     OW23194   2.854   0.069   8.906 -0.1652 -0.1846 -0.3621
 3912SOL    HW123195   2.939   0.065   8.863  1.2107 -0.4845  2.4562
 3912SOL    HW223196   2.877   0.071   8.998 -1.4035 -0.9796 -0.0337
 3913SOL     OW23197   1.146   1.044   9.707 -0.2425  0.9112  0.3236
 3913SOL    HW123198   1.125   1.097   9.630 -1.5470 -0.0467  0.0251
 3913SOL    HW223199   1.086   1.066   9.777  0.1035  1.3324  0.4845
 3914SOL     OW23200   1.190   1.867  14.849  0.0533  0.3038  0.1016
 3914SOL    HW123201   1.119   1.896  14.791 -0.7227  0.6685  1.2302
 3914SOL    HW223202   1.214   1.949  14.892 -0.6075 -0.7290  2.4849
 3915SOL     OW23203   1.480   1.922   5.080  0.5279 -0.0899  0.3609
 3915SOL    HW123204   1.528   1.979   5.019 -0.4253  1.8579  1.4545
 3915SOL    HW223205   1.498   1.965   5.163 -1.6873 -0.1353  0.8590
 3916SOL     OW23206   4.135   1.201   2.153  0.6190  0.2225 -0.4248
 3916SOL    HW123207   4.117   1.185   2.246  2.5817  0.5024 -0.0004
 3916SOL    HW223208   4.181   1.119   2.136 -0.8284 -0.6290 -0.2208
 3917SOL     OW23209   3.403   2.991   6.558  0.2921  0.4153 -0.2174
 3917SOL    HW123210   3.328   2.992   6.617  1.6091  0.7092  1.4451
 3917SOL    HW223211   3.376   3.052   6.489  0.5844 -0.5367 -1.1855
 3918SOL     OW23212   3.936   3.575   2.639 -0.3712 -0.1882 -0.3005
 3918SOL    HW123213   3.895   3.563   2.553 -0.1103  0.2362 -0.4805
 3918SOL    HW223214   3.953   3.484   2.664 -0.2351 -0.0115  0.2391
 3919SOL     OW23215   1.208   0.363   4.247  0.1881 -0.1657  0.1215
 3919SOL    HW123216   1.240   0.340   4.334  0.4484 -0.0970  0.0461
 3919SOL    HW223217   1.157   0.289   4.215  0.2470  0.0677 -0.5081
 3920SOL     OW23218   4.323   0.604   5.601  0.1867 -0.6981 -0.0829
 3920SOL    HW123219   4.302   0.590   5.693  1.5435 -1.4827  0.1015
 3920SOL    HW223220   4.418   0.592   5.609  0.0567 -1.1932  0.7820
 3921SOL     OW23221   4.469   3.326   5.053  0.1694  0.0050  0.0912
 3921SOL    HW123222   4.534   3.363   4.993  0.3879 -0.4362  0.0499
 3921SOL    HW223223   4.452   3.405   5.104  1.2362 -0.4407  1.1366
 3922SOL     OW23224   2.942   4.008   0.569 -0.4042  0.2789  0.2953
 3922SOL    HW123225   2.990   4.013   0.486  0.3129  1.1534  0.7561
 3922SOL    HW223226   2.860   4.049   0.540  0.0519  0.9376 -0.0523
 3923SOL     OW23227   3.360   2.755  17.274  0.8642  0.6053  0.2672
 3923SOL    HW123228   3.454   2.736  17.280  1.0315  0.3568 -3.1685
 3923SOL    HW223229   3.364   2.846  17.246  1.7478  0.7605  0.8921
 3924SOL     OW23230   1.665   3.983   3.267  0.5662 -0.2189  0.0708
 3924SOL    HW123231   1.693   3.981   3.175 -1.1484 -1.5353 -0.4097
 3924SOL    HW223232   1.710   4.056   3.311  1.0771 -0.6025  0.1866
 3925SOL     OW23233   3.398   1.045  13.886 -0.2624 -0.1868 -0.1991
 3925SOL    HW123234   3.346   1.038  13.966  1.2725 -1.6244  0.6795
 3925SOL    HW223235   3.481   1.078  13.922  0.1872 -3.0267  1.3445
 3926SOL     OW23236   3.532   0.680   4.167  0.2952  0.0573  0.4353
 3926SOL    HW123237   3.607   0.633   4.203  2.0643  1.5428 -1.3100
 3926SOL    HW223238   3.465   0.617   4.193 -0.1236  0.3857  0.1590
 3927SOL     OW23239   3.867   3.704   4.285  0.1959  0.4698  0.3542
 3927SOL    HW123240   3.812   3.688   4.208  1.1744 -1.3486  0.0390
 3927SOL    HW223241   3.866   3.617   4.325 -0.7517  0.5230  0.4479
 3928SOL     OW23242   3.677   2.028   2.499 -0.1435 -0.0183  0.5928
 3928SOL    HW123243   3.712   2.023   2.410 -0.5505 -0.6865  0.4704
 3928SOL    HW223244   3.653   2.120   2.510 -0.7067 -0.2803  1.6269
 3929SOL     OW23245   2.143   3.374   8.463 -0.2151 -0.3861 -0.3522
 3929SOL    HW123246   2.098   3.361   8.547  1.5459 -0.5228  0.5693
 3929SOL    HW223247   2.113   3.295   8.418  0.5852 -1.4049  0.8873
 3930SOL     OW23248   2.014   3.370   1.902 -0.4363  0.0762 -0.6297
 3930SOL    HW123249   2.086   3.429   1.923 -1.6116  1.9662 -1.7995
 3930SOL    HW223250   2.012   3.321   1.984 -1.3986 -1.4463 -1.5590
 3931SOL     OW23251   0.809   2.012   1.402  0.8071  0.2715  0.8758
 3931SOL    HW123252   0.838   2.070   1.472 -0.8180  0.9037  1.0167
 3931SOL    HW223253   0.891   1.991   1.356  0.7677  1.4101  0.2718
 3932SOL     OW23254   3.850   3.125   4.741 -0.1576 -0.1922 -0.6715
 3932SOL    HW123255   3.888   3.149   4.826  1.7252 -0.9448 -1.3062
 3932SOL    HW223256   3.771   3.078   4.770  0.0226  0.2070  0.4643
 3933SOL     OW23257   0.692   1.011   9.065  0.2993  0.5605 -0.4760
 3933SOL    HW123258   0.709   0.961   8.986  0.5160 -0.1929  0.0501
 3933SOL    HW223259   0.699   0.950   9.138  1.1115 -1.5615 -2.3246
 3934SOL     OW23260   2.914   4.392  12.558  0.3031  0.4826  0.0637
 3934SOL    HW123261   2.843   4.427  12.504  0.1642 -1.3291 -0.9362
 3934SOL    HW223262   2.912   4.297  12.548  0.2378  0.4400  0.4813
 3935SOL     OW23263   2.262   3.356   0.454 -0.1789  0.6326  0.8896
 3935SOL    HW123264   2.294   3.374   0.366  0.3787  1.5079  1.2794
 3935SOL    HW223265   2.195   3.424   0.459  0.9970  2.0185 -1.9155
 3936SOL     OW23266   0.820   0.878   4.844 -0.2904  0.2695  0.3302
 3936SOL    HW123267   0.862   0.930   4.775  1.2165  0.6090  1.5093
 3936SOL    HW223268   0.886   0.855   4.909  0.7012 -0.6433 -0.9821
 3937SOL     OW23269   0.931   0.500  17.056 -0.0532  0.2993 -0.2472
 3937SOL    HW123270   0.871   0.426  17.069 -0.2054  0.7511  1.5135
 3937SOL    HW223271   0.863   0.567  17.050 -0.7650 -0.4751 -0.9758
 3938SOL     OW23272   2.582   1.158   6.309 -0.0719  0.0981 -0.0450
 3938SOL    HW123273   2.624   1.186   6.227 -1.2606  1.1555 -0.2875
 3938SOL    HW223274   2.650   1.195   6.366 -0.4724 -1.3148  1.3397
 3939SOL     OW23275   4.112   3.298  12.101 -0.1644 -0.3790 -0.0805
 3939SOL    HW123276   4.045   3.342  12.153  0.2833 -0.2112  0.3589
 3939SOL    HW223277   4.111   3.352  12.021  1.9646  1.3714  1.0668
 3940SOL     OW23278   0.421   3.422   7.701  0.5360  0.0697 -0.1015
 3940SOL    HW123279   0.395   3.513   7.687  0.4139 -0.5820 -3.9364
 3940SOL    HW223280   0.460   3.417   7.789  1.1538 -0.9974 -0.4303
 3941SOL     OW23281   0.384   3.033   0.143  0.7679 -0.1797 -0.2530
 3941SOL    HW123282   0.383   2.981   0.224  2.2039  0.9611  0.4920
 3941SOL    HW223283   0.440   2.978   0.089  1.2603  0.5371 -0.4645
 3942SOL     OW23284   1.622   1.319   5.286  0.1466 -0.2484 -0.1908
 3942SOL    HW123285   1.647   1.292   5.375  2.2569 -0.0044 -0.7323
 3942SOL    HW223286   1.531   1.288   5.285 -0.4075  1.3397  1.6226
 3943SOL     OW23287   2.656   2.619   9.868 -0.7247 -0.3553  0.3608
 3943SOL    HW123288   2.739   2.662   9.890 -0.8181  0.0105  0.0065
 3943SOL    HW223289   2.619   2.590   9.951  2.6945 -0.3368  1.9179
 3944SOL     OW23290   1.524   3.611   9.233 -0.0761 -0.6194 -0.0825
 3944SOL    HW123291   1.464   3.538   9.244  1.6172 -2.0494 -0.3823
 3944SOL    HW223292   1.600   3.572   9.190 -0.6795 -2.5990  0.6681
 3945SOL     OW23293   3.271   1.328  12.211  0.1328  0.2140 -0.0421
 3945SOL    HW123294   3.184   1.365  12.203 -0.6811 -1.8754 -1.0380
 3945SOL    HW223295   3.256   1.253  12.152  0.9350  0.1403 -0.1562
 3946SOL     OW23296   0.051   4.253   5.463 -0.0633 -0.1007 -0.0822
 3946SOL    HW123297   0.111   4.259   5.537  0.7626 -1.1810 -0.6552
 3946SOL    HW223298   0.079   4.167   5.431  0.1122  0.2169 -0.7929
 3947SOL     OW23299   4.174   2.310   7.528 -0.3613  0.0239 -0.4504
 3947SOL    HW123300   4.114   2.384   7.536 -0.5131 -0.4943  3.4819
 3947SOL    HW223301   4.150   2.291   7.437  1.1142 -1.0727 -0.6069
 3948SOL     OW23302   2.263   1.397   5.284  0.1489  0.0067 -0.2889
 3948SOL    HW123303   2.278   1.483   5.323 -0.2701  0.3071 -0.7880
 3948SOL    HW223304   2.344   1.385   5.233  1.1509  0.7640  1.1307
 3949SOL     OW23305   2.846   0.834   4.508 -0.0232  0.1262 -0.1006
 3949SOL    HW123306   2.806   0.789   4.434  1.2470  0.3627 -0.9320
 3949SOL    HW223307   2.930   0.788   4.502 -1.7998 -3.0517  0.0153
 3950SOL     OW23308   3.942   2.090   9.019  0.4933  0.2017 -0.9532
 3950SOL    HW123309   3.901   2.129   8.942  0.3965  1.8334 -0.0822
 3950SOL    HW223310   3.878   2.047   9.076 -0.4315  3.0504  0.1716
 3951SOL     OW23311   3.763   4.374  10.837 -0.1231  0.5036 -0.0558
 3951SOL    HW123312   3.747   4.290  10.880 -0.9211  0.4880 -0.3976
 3951SOL    HW223313   3.739   4.435  10.907  2.0540 -0.2810  1.3882
 3952SOL     OW23314   1.496   0.824   3.186 -0.0900 -0.2633 -0.2626
 3952SOL    HW123315   1.573   0.792   3.139 -0.3919  1.7516 -2.1771
 3952SOL    HW223316   1.448   0.847   3.107 -0.5981 -1.5702 -0.3199
 3953SOL     OW23317   4.247   1.458   8.670  0.1809 -1.2648  0.3833
 3953SOL    HW123318   4.167   1.472   8.721  0.3006 -2.7752  1.0025
 3953SOL    HW223319   4.252   1.363   8.685 -0.2893 -1.6595 -1.9047
 3954SOL     OW23320   1.355   3.975   7.041  0.1823  0.0543 -0.1797
 3954SOL    HW123321   1.410   3.988   7.118  0.6425 -1.7110 -0.2162
 3954SOL    HW223322   1.375   3.883   7.024 -0.6708 -0.2361  0.4285
 3955SOL     OW23323   0.733   3.298   8.518  0.2678 -1.3790 -0.4674
 3955SOL    HW123324   0.674   3.372   8.509 -1.0565 -2.4354 -0.4954
 3955SOL    HW223325   0.801   3.342   8.569 -2.6005 -0.3526  2.4047
 3956SOL     OW23326   4.106   2.959   3.003  0.6713  0.0153 -0.1099
 3956SOL    HW123327   4.199   2.945   2.986  0.3802 -0.8594 -0.9385
 3956SOL    HW223328   4.065   2.946   2.917 -0.2398 -2.4833  0.7068
 3957SOL     OW23329   1.516   0.640  12.108  0.1952 -0.4964 -0.1028
 3957SOL    HW123330   1.542   0.732  12.102  0.2312 -0.3846  1.8572
 3957SOL    HW223331   1.436   0.631  12.057  0.5523  1.9613 -1.1012
 3958SOL     OW23332   2.419   1.303  12.780 -0.2882  0.1108  0.7966
 3958SOL    HW123333   2.450   1.212  12.782  1.8076  0.8083  0.2073
 3958SOL    HW223334   2.326   1.290  12.797 -1.1094  2.2846 -2.0621
 3959SOL     OW23335   3.475   3.353   6.512 -0.0792 -0.0744 -0.2296
 3959SOL    HW123336   3.472   3.448   6.513 -0.6905 -0.1054  0.3784
 3959SOL    HW223337   3.541   3.342   6.580  2.1164  0.4445 -2.2671
 3960SOL     OW23338   2.349   1.944   2.861 -0.3897  0.6331 -0.7861
 3960SOL    HW123339   2.405   1.937   2.939  0.8679 -0.8266 -1.8369
 3960SOL    HW223340   2.321   1.855   2.840  0.3083  0.0417  0.7730
 3961SOL     OW23341   1.300   4.081   1.499 -0.0696  0.0492 -0.4661
 3961SOL    HW123342   1.245   4.157   1.519 -0.7660 -0.1734 -1.5468
 3961SOL    HW223343   1.356   4.119   1.432  0.3521  1.5294  0.7151
 3962SOL     OW23344   2.519   1.072   2.761 -0.2085  0.0702 -0.2802
 3962SOL    HW123345   2.455   1.129   2.720 -1.4545  0.0666  1.6749
 3962SOL    HW223346   2.591   1.134   2.753 -0.6774  0.5108 -1.0713
 3963SOL     OW23347   0.482   1.909  10.704  0.6609  0.1374  0.2402
 3963SOL    HW123348   0.390   1.905  10.678  0.3604  2.0621  1.0332
 3963SOL    HW223349   0.520   1.864  10.628 -1.5163 -0.5060 -0.4698
 3964SOL     OW23350   1.199   4.656   2.434  1.1699 -0.1414 -0.1351
 3964SOL    HW123351   1.105   4.653   2.419  0.7786  0.7829  2.1555
 3964SOL    HW223352   1.219   0.020   2.395  1.0344 -0.2866 -0.5292
 3965SOL     OW23353   1.920   0.215   8.980  0.1250 -0.5567 -0.8336
 3965SOL    HW123354   1.918   0.182   8.891  1.7287  0.6299 -1.3192
 3965SOL    HW223355   1.885   0.302   8.960  1.2354  0.1041  0.0903
 3966SOL     OW23356   4.692   0.025   6.266 -0.7215 -0.4948  0.2094
 3966SOL    HW123357   4.704   4.711   6.354 -0.8053 -0.8698  0.0703
 3966SOL    HW223358   4.602   4.719   6.249 -1.2204  0.4650  1.3301
 3967SOL     OW23359   2.257   1.982   8.943 -0.1158 -0.7938  0.6660
 3967SOL    HW123360   2.311   2.011   9.016  0.6469 -0.8550  0.1304
 3967SOL    HW223361   2.212   2.065   8.926  1.0651 -0.4356 -0.7261
 3968SOL     OW23362   4.649   4.360   6.335 -0.1041 -0.1240  0.0199
 3968SOL    HW123363   4.629   4.421   6.405  2.1955 -0.3808  0.9065
 3968SOL    HW223364   4.559   4.338   6.309 -0.1841 -0.3436  0.4814
 3969SOL     OW23365   4.055   3.158  11.198 -0.1843 -0.1753  0.5975
 3969SOL    HW123366   3.964   3.132  11.184 -0.7823  3.7847 -2.7302
 3969SOL    HW223367   4.087   3.070  11.219 -0.1602 -0.5520 -1.0025
 3970SOL     OW23368   3.636   2.325   5.386  0.1927 -0.3395 -0.4433
 3970SOL    HW123369   3.591   2.301   5.467 -3.9639  0.3628 -2.5179
 3970SOL    HW223370   3.564   2.346   5.326  1.1993  0.4194 -1.3751
 3971SOL     OW23371   1.067   0.798  15.735 -0.0932 -0.3028  0.0043
 3971SOL    HW123372   0.983   0.784  15.692 -0.7670 -3.8768  2.4558
 3971SOL    HW223373   1.081   0.892  15.725 -0.4786 -0.0872  1.4790
 3972SOL     OW23374   3.928   4.570   5.352  0.4494 -0.1599 -0.0895
 3972SOL    HW123375   3.836   4.573   5.325  0.5987  0.3520 -0.5395
 3972SOL    HW223376   3.961   4.542   5.267 -0.7405 -0.8251 -0.3297
 3973SOL     OW23377   4.680   3.598   6.183 -0.1617 -0.3388 -0.3684
 3973SOL    HW123378   0.029   3.539   6.208  1.2342  1.6046  0.2676
 3973SOL    HW223379   4.715   3.632   6.101  1.6714  0.1944  0.6457
 3974SOL     OW23380   0.126   2.703   8.621  0.0113  0.0373 -0.2707
 3974SOL    HW123381   0.130   2.770   8.688  1.0541 -0.1221 -0.1833
 3974SOL    HW223382   0.213   2.705   8.583  0.6447  2.4860  1.3639
 3975SOL     OW23383   0.833   3.316   3.863 -0.3854  0.2811 -0.2013
 3975SOL    HW123384   0.738   3.330   3.857 -0.6392 -2.7208 -2.7146
 3975SOL    HW223385   0.858   3.331   3.954  3.0550  0.1194 -1.1266
 3976SOL     OW23386   3.613   3.882  12.389 -0.6083  0.3268 -0.5272
 3976SOL    HW123387   3.706   3.899  12.406 -0.5450 -3.0753  2.4479
 3976SOL    HW223388   3.582   3.883  12.479 -1.0008  2.3338 -0.6839
 3977SOL     OW23389   2.640   4.326   6.146 -0.0169  0.3129 -0.2773
 3977SOL    HW123390   2.657   4.237   6.175 -0.0808  1.0745  2.1138
 3977SOL    HW223391   2.671   4.327   6.055 -0.0387  4.5221 -0.2725
 3978SOL     OW23392   0.884   0.299   6.207 -0.3057 -0.6528  0.1633
 3978SOL    HW123393   0.961   0.246   6.224  0.2337  0.0589 -0.0453
 3978SOL    HW223394   0.926   0.385   6.199  1.2053 -1.6001 -2.3928
 3979SOL     OW23395   4.568   4.127   3.902 -0.2110 -0.1922 -0.0029
 3979SOL    HW123396   4.490   4.176   3.929  0.7551  0.7116  1.1077
 3979SOL    HW223397   4.586   4.071   3.978 -1.6190  0.7043  0.9891
 3980SOL     OW23398   0.044   1.098  15.619  0.0136 -0.3978 -0.1714
 3980SOL    HW123399   0.043   1.006  15.593  1.0217 -0.1181 -1.1869
 3980SOL    HW223400   0.088   1.089  15.703  0.3863 -0.0460 -0.3340
 3981SOL     OW23401   0.721   3.707   8.012  0.0163 -0.5063 -0.8266
 3981SOL    HW123402   0.693   3.798   8.021  1.3486  0.0948 -2.6317
 3981SOL    HW223403   0.816   3.722   8.016 -0.2439  1.0159 -0.4007
 3982SOL     OW23404   3.182   1.513   6.231 -0.2848  0.5466  0.5365
 3982SOL    HW123405   3.148   1.456   6.162  1.1218  0.5921 -0.1738
 3982SOL    HW223406   3.108   1.506   6.292 -0.9737 -0.0966 -0.3713
 3983SOL     OW23407   2.169   0.125  13.833  0.1880  0.7696  0.1871
 3983SOL    HW123408   2.198   0.043  13.793  0.7523  1.8332 -1.5652
 3983SOL    HW223409   2.257   0.162  13.831 -0.2253  1.7526  0.0456
 3984SOL     OW23410   0.861   0.806   9.177  0.1547 -0.2331 -0.7350
 3984SOL    HW123411   0.948   0.778   9.149 -0.7122 -1.7753 -1.8771
 3984SOL    HW223412   0.803   0.742   9.134 -0.9684 -0.6686  1.3889
 3985SOL     OW23413   4.436   3.200   8.668  0.3302  0.1034 -0.0623
 3985SOL    HW123414   4.458   3.117   8.627  0.5225 -0.8784  2.0538
 3985SOL    HW223415   4.459   3.177   8.758 -0.6158  0.8771  0.3774
 3986SOL     OW23416   2.196   0.839   3.672 -0.5217 -0.8514 -0.3674
 3986SOL    HW123417   2.174   0.831   3.579  0.9471 -1.6772 -0.6484
 3986SOL    HW223418   2.112   0.877   3.699  0.1647  0.2124  0.2394
 3987SOL     OW23419   4.006   1.906  13.170 -0.5075  0.3848  0.0551
 3987SOL    HW123420   4.057   1.834  13.207 -1.0504 -0.2635 -0.4626
 3987SOL    HW223421   4.064   1.977  13.197 -0.7051  0.8223 -0.6800
 3988SOL     OW23422   2.807   4.336   2.578 -0.5908 -0.4870  0.2312
 3988SOL    HW123423   2.793   4.371   2.666 -1.9481 -0.4521  0.0085
 3988SOL    HW223424   2.788   4.413   2.524  0.2760 -1.6026 -1.6674
 3989SOL     OW23425   2.015   4.095   8.459 -0.5481 -0.5784  0.5810
 3989SOL    HW123426   1.934   4.046   8.476 -0.0456 -1.0089  1.7096
 3989SOL    HW223427   1.993   4.185   8.487 -0.1059 -0.2268 -0.2096
 3990SOL     OW23428   2.830   1.384   1.016  0.2028 -0.2325 -0.0640
 3990SOL    HW123429   2.816   1.426   1.101  0.4408  3.0682 -1.6345
 3990SOL    HW223430   2.785   1.446   0.958 -0.6717 -1.0850 -0.2826
 3991SOL     OW23431   2.281   4.370   6.117 -0.0946 -0.0929 -0.4356
 3991SOL    HW123432   2.299   4.292   6.170 -0.4245 -0.2457 -0.5497
 3991SOL    HW223433   2.353   4.352   6.056 -0.5185 -0.6645 -0.7708
 3992SOL     OW23434   3.061   1.655   2.419 -0.0316  0.1504  0.2516
 3992SOL    HW123435   3.105   1.663   2.334 -1.4050  0.8555 -0.3904
 3992SOL    HW223436   2.973   1.669   2.385 -0.1060  1.0338  0.8027
 3993SOL     OW23437   2.120   3.715   2.013 -0.5463 -0.0421  0.7136
 3993SOL    HW123438   2.198   3.678   2.055 -0.5598  1.1493  1.7755
 3993SOL    HW223439   2.151   3.778   1.948  0.4404 -0.1113  1.1176
 3994SOL     OW23440   3.013   1.285   7.929  0.1552  0.4096  0.7173
 3994SOL    HW123441   3.070   1.236   7.871 -1.4290  1.1369 -1.4712
 3994SOL    HW223442   3.050   1.372   7.941  0.8474  0.3446 -1.0374
 3995SOL     OW23443   3.136   0.233   5.158 -0.0621  0.6404 -0.4614
 3995SOL    HW123444   3.206   0.173   5.183 -0.9630 -0.2060  0.0140
 3995SOL    HW223445   3.055   0.183   5.168  0.3115 -0.1271 -1.1965
 3996SOL     OW23446   0.364   3.245   3.306 -0.1402  0.6033 -0.2016
 3996SOL    HW123447   0.296   3.299   3.266 -0.1873  0.8680  0.2364
 3996SOL    HW223448   0.444   3.298   3.305  1.1263 -1.2847  0.2991
 3997SOL     OW23449   0.420   2.776   4.453  0.3354  0.3016  0.2438
 3997SOL    HW123450   0.404   2.774   4.359  0.6501 -1.8046  0.2438
 3997SOL    HW223451   0.455   2.865   4.461  2.2791 -0.4624  0.0315
 3998SOL     OW23452   1.506   3.389   5.976  0.0435 -0.6194 -0.3034
 3998SOL    HW123453   1.578   3.418   5.920 -0.6921  0.2708 -0.7950
 3998SOL    HW223454   1.431   3.402   5.917 -0.9681  0.8005  1.2717
 3999SOL     OW23455   3.303   1.563   2.515  0.0379  0.2693  0.3162
 3999SOL    HW123456   3.282   1.479   2.473  2.1842  1.7842 -3.7769
 3999SOL    HW223457   3.223   1.611   2.494  0.7152  1.6523  0.9179
 4000SOL     OW23458   1.213   2.146   1.169  0.1084 -0.6286 -0.0215
 4000SOL    HW123459   1.202   2.137   1.264 -1.6551 -3.3726 -0.5060
 4000SOL    HW223460   1.127   2.118   1.139 -0.8938  0.4324  1.8788
 4001SOL     OW23461   1.428   2.924   8.234 -0.4375  0.1905 -1.0934
 4001SOL    HW123462   1.358   2.975   8.275  0.0475 -0.5656  0.6822
 4001SOL    HW223463   1.404   2.832   8.242 -0.6487  0.5548  2.6939
 4002SOL     OW23464   3.788   1.130   2.715  0.3016 -0.1154  0.0025
 4002SOL    HW123465   3.788   1.082   2.798  2.4400  1.0601  0.7070
 4002SOL    HW223466   3.811   1.217   2.749  1.0029 -0.1973 -0.2461
 4003SOL     OW23467   4.670   1.262   8.744 -0.5248 -1.0913 -0.3920
 4003SOL    HW123468   0.020   1.314   8.779 -1.2294 -0.2223 -0.2335
 4003SOL    HW223469   4.714   1.210   8.676  0.3632  0.9585 -1.3811
 4004SOL     OW23470   0.507   3.578   8.491 -0.6063 -0.1515  0.1894
 4004SOL    HW123471   0.544   3.614   8.572  1.3759  0.4796 -0.9961
 4004SOL    HW223472   0.573   3.606   8.427  0.6234  2.1962  2.4947
 4005SOL     OW23473   1.225   2.099  15.917 -0.1031  0.0449  1.0485
 4005SOL    HW123474   1.144   2.122  15.961 -0.1002  1.9134  0.0752
 4005SOL    HW223475   1.232   2.006  15.939  0.5691  0.0476  0.8581
 4006SOL     OW23476   0.743   1.754   6.544 -0.6176  0.4676  0.2755
 4006SOL    HW123477   0.764   1.840   6.581  0.6978 -0.0944  0.8475
 4006SOL    HW223478   0.711   1.776   6.457 -0.0236 -0.1127 -0.0910
 4007SOL     OW23479   1.897   2.720   6.909 -0.3521 -0.3452  0.6535
 4007SOL    HW123480   1.851   2.650   6.861 -2.4836  2.2752 -1.0926
 4007SOL    HW223481   1.989   2.701   6.891 -0.8102 -1.5245 -0.5137
 4008SOL     OW23482   4.083   0.519   4.216  0.0476 -0.2165  0.4624
 4008SOL    HW123483   4.122   0.581   4.154  2.9280 -3.5677 -1.0383
 4008SOL    HW223484   4.016   0.499   4.150  2.1449  0.4441 -1.8739
 4009SOL     OW23485   1.279   2.283   4.333  0.0144  0.2807  0.4636
 4009SOL    HW123486   1.324   2.357   4.373  0.8677  0.3506 -0.6205
 4009SOL    HW223487   1.197   2.323   4.304 -0.8678 -1.3020  0.7635
 4010SOL     OW23488   0.211   1.850  10.687  0.3582 -0.4170 -0.0948
 4010SOL    HW123489   0.231   1.803  10.768  0.3891 -0.7962 -0.3213
 4010SOL    HW223490   0.163   1.925  10.722 -1.2733 -1.6525  0.3410
 4011SOL     OW23491   2.298   1.298  10.781  0.0785 -0.2606 -0.1270
 4011SOL    HW123492   2.297   1.387  10.748 -1.7028  0.4167  1.7292
 4011SOL    HW223493   2.238   1.305  10.855  0.1055  0.2235 -0.1553
 4012SOL     OW23494   1.059   3.876  11.435  0.3610  0.2062  0.6102
 4012SOL    HW123495   1.093   3.951  11.387  0.2671 -0.2009 -0.1006
 4012SOL    HW223496   1.086   3.803  11.379 -1.1457 -0.3421  0.5724
 4013SOL     OW23497   2.469   2.990  11.663 -0.4460  0.3799  0.0267
 4013SOL    HW123498   2.471   3.043  11.742 -0.9043  0.3702  0.0417
 4013SOL    HW223499   2.374   2.985  11.656 -0.5416  0.1622  1.6926
 4014SOL     OW23500   0.686   0.167   8.589 -0.9570 -0.7194 -0.3030
 4014SOL    HW123501   0.676   0.082   8.632  0.4002 -0.8146 -0.1611
 4014SOL    HW223502   0.640   0.154   8.506 -0.1011 -0.4112 -0.8324
 4015SOL     OW23503   1.622   2.880  15.387 -0.4698 -0.4167 -0.4624
 4015SOL    HW123504   1.636   2.928  15.469 -0.8608 -0.5310 -0.3285
 4015SOL    HW223505   1.539   2.916  15.356 -0.2586  1.6056  1.2712
 4016SOL     OW23506   1.096   2.226   1.445 -0.4491 -0.1481 -0.4150
 4016SOL    HW123507   1.107   2.132   1.432  1.1396  0.1904 -1.5172
 4016SOL    HW223508   1.021   2.230   1.504  0.4512  1.6435  0.6098
 4017SOL     OW23509   3.751   0.004   3.624 -0.3744 -0.0879  0.4738
 4017SOL    HW123510   3.751   4.632   3.642 -1.5122 -0.4624 -1.4640
 4017SOL    HW223511   3.685   0.002   3.555  0.9324  0.6758 -0.7862
 4018SOL     OW23512   1.725   2.516   7.286 -0.0707  0.2051 -0.2214
 4018SOL    HW123513   1.683   2.587   7.237  0.7003 -0.1995 -1.4423
 4018SOL    HW223514   1.761   2.464   7.215  2.3728 -0.8089  1.7371
 4019SOL     OW23515   1.648   1.633   8.789  0.0395 -0.2998 -0.2638
 4019SOL    HW123516   1.560   1.600   8.770 -0.2015  0.6500 -0.7934
 4019SOL    HW223517   1.632   1.658   8.880 -0.1623 -1.8908  0.1532
 4020SOL     OW23518   3.954   1.401  14.677  0.0515 -0.2060  0.6685
 4020SOL    HW123519   3.961   1.306  14.687  0.7973 -0.5008 -2.6746
 4020SOL    HW223520   3.912   1.407  14.591 -0.4865 -3.1806  0.7097
 4021SOL     OW23521   1.729   4.027  17.298  0.4507 -0.0774  0.2224
 4021SOL    HW123522   1.820   4.014  17.326  0.8946  0.5855 -0.9050
 4021SOL    HW223523   1.676   3.971  17.355 -0.4185 -0.2635 -0.7773
 4022SOL     OW23524   1.229   3.211  17.350 -0.2575 -0.4562  0.2755
 4022SOL    HW123525   1.227   3.231  17.444  0.0214 -1.6242  0.5309
 4022SOL    HW223526   1.145   3.245  17.318 -0.9381 -0.2624  2.2485
 4023SOL     OW23527   3.284   4.391   4.016 -0.1706  0.1569 -0.3392
 4023SOL    HW123528   3.220   4.439   3.963 -1.3615 -0.2035  0.7567
 4023SOL    HW223529   3.255   4.299   4.016  2.0850 -0.5383  2.1995
 4024SOL     OW23530   1.820   4.039  17.637 -0.4633  0.1013  0.1430
 4024SOL    HW123531   1.797   4.074   0.033  0.7835 -1.3802  1.0859
 4024SOL    HW223532   1.812   3.946  17.658 -2.4218  0.3126  0.3271
 4025SOL     OW23533   3.658   1.495  15.944  0.2537 -0.0822 -0.8916
 4025SOL    HW123534   3.650   1.431  16.015  1.8005  1.4433  0.6907
 4025SOL    HW223535   3.571   1.525  15.918 -0.2864  1.1053  2.2008
 4026SOL     OW23536   2.481   3.190  17.285  0.2943  0.5289  0.2393
 4026SOL    HW123537   2.566   3.189  17.240  0.2555  0.0709  0.1712
 4026SOL    HW223538   2.443   3.103  17.276  4.8418 -1.8021  3.3712
 4027SOL     OW23539   1.301   1.127   8.127 -0.1567  0.0877  0.1091
 4027SOL    HW123540   1.265   1.088   8.048 -0.9531 -1.6351  1.3155
 4027SOL    HW223541   1.396   1.128   8.111  0.0176  3.5956  1.2154
 4028SOL     OW23542   0.243   2.549   5.420 -0.1993 -0.4373 -0.3671
 4028SOL    HW123543   0.162   2.506   5.391 -1.3945 -0.3890  2.9531
 4028SOL    HW223544   0.312   2.496   5.381  0.1779  0.0671 -0.3850
 4029SOL     OW23545   2.059   4.196   3.894  0.0413  0.0172  0.0989
 4029SOL    HW123546   2.020   4.170   3.977  0.9414 -1.3662  0.0839
 4029SOL    HW223547   1.981   4.225   3.848 -0.2404  1.6894  1.6297
 4030SOL     OW23548   1.534   1.450   9.096  0.1933 -0.2379  0.0443
 4030SOL    HW123549   1.500   1.539   9.099 -2.0188 -1.1160  0.8239
 4030SOL    HW223550   1.476   1.410   9.161 -0.9747  1.2221 -0.1235
 4031SOL     OW23551   4.176   3.437   7.481 -0.6977  0.8082 -0.3953
 4031SOL    HW123552   4.254   3.477   7.521 -1.0951  0.8534  0.3298
 4031SOL    HW223553   4.136   3.522   7.463 -1.2302  0.5461 -0.4529
 4032SOL     OW23554   0.958   2.501   5.720  0.1549 -0.4989 -0.2184
 4032SOL    HW123555   0.984   2.409   5.707 -0.3149 -0.9868  2.2093
 4032SOL    HW223556   0.896   2.491   5.792  0.9951  0.0614  0.5824
 4033SOL     OW23557   3.470   0.647   7.846  0.3039 -0.4256 -0.1632
 4033SOL    HW123558   3.502   0.652   7.936 -0.3629 -0.9135  0.0993
 4033SOL    HW223559   3.542   0.600   7.805  0.2382 -0.8655  0.2201
 4034SOL     OW23560   3.350   1.967   9.555  0.0038  0.3613 -0.4424
 4034SOL    HW123561   3.412   2.025   9.598 -0.1842 -0.1706  0.5711
 4034SOL    HW223562   3.363   1.884   9.601 -3.6244  0.0514  0.0482
 4035SOL     OW23563   3.223   2.452  11.631  0.9551  0.4177  0.4177
 4035SOL    HW123564   3.164   2.452  11.706  1.5276  1.6801  0.8809
 4035SOL    HW223565   3.157   2.437  11.563  1.3578 -0.5453  0.2373
 4036SOL     OW23566   1.590   0.086   3.828 -0.3544  0.4152 -0.1665
 4036SOL    HW123567   1.637   0.055   3.750 -0.2644 -0.2257  0.1396
 4036SOL    HW223568   1.610   0.178   3.841  0.2364  0.2808 -0.1155
 4037SOL     OW23569   1.451   3.674   4.231  0.1762  0.4341  0.0204
 4037SOL    HW123570   1.448   3.581   4.255  1.2659  0.0193 -1.4221
 4037SOL    HW223571   1.382   3.711   4.286 -1.5585  0.9884 -2.5662
 4038SOL     OW23572   1.047   4.145   7.744  0.7715 -0.1230  0.0021
 4038SOL    HW123573   1.035   4.193   7.826  0.0359  0.2247 -0.3100
 4038SOL    HW223574   1.001   4.062   7.751  0.8666  0.2290  5.0896
 4039SOL     OW23575   1.504   2.552  15.047 -0.0631  0.2129  0.1686
 4039SOL    HW123576   1.596   2.550  15.021 -1.2535 -1.2633 -3.9583
 4039SOL    HW223577   1.471   2.594  14.967 -0.3407  2.6168  1.5356
 4040SOL     OW23578   0.377   1.295  14.698  0.0243 -0.2148  0.5856
 4040SOL    HW123579   0.290   1.332  14.684  0.2973  1.3224  2.9183
 4040SOL    HW223580   0.350   1.208  14.727 -0.0311 -0.5549 -0.4941
 4041SOL     OW23581   3.488   0.827   6.244  0.0437  0.6554 -0.3336
 4041SOL    HW123582   3.549   0.885   6.291  2.1146 -1.6114 -0.2081
 4041SOL    HW223583   3.552   0.765   6.208  3.0052  3.4829  0.0359
 4042SOL     OW23584   1.558   2.015  10.192 -0.3763 -0.8425 -0.3457
 4042SOL    HW123585   1.502   2.089  10.214  0.0607 -0.7557  0.4460
 4042SOL    HW223586   1.525   1.950  10.254  0.5565 -0.6719  0.3230
 4043SOL     OW23587   0.875   1.928   7.298  0.1934  0.0193 -0.2044
 4043SOL    HW123588   0.961   1.918   7.257  0.5480  0.2721  0.4773
 4043SOL    HW223589   0.853   1.835   7.311 -1.4913  0.6544  1.4633
 4044SOL     OW23590   2.906   3.792   0.033 -0.5944 -0.2882 -0.2251
 4044SOL    HW123591   2.914   3.764   0.124 -2.1758 -0.7179 -0.2339
 4044SOL    HW223592   2.868   3.880   0.042  0.9237  0.1921  1.4492
 4045SOL     OW23593   1.618   4.696   2.928  0.5694  0.1119  0.3159
 4045SOL    HW123594   1.652   4.647   2.853  0.1095  0.8962 -0.4141
 4045SOL    HW223595   1.529   4.662   2.929  1.3944 -2.0405 -0.3957
 4046SOL     OW23596   1.486   4.489   5.419  0.9287 -0.4551  0.0421
 4046SOL    HW123597   1.475   4.452   5.507 -0.4823 -0.9788 -0.3504
 4046SOL    HW223598   1.398   4.479   5.382  1.1090 -4.5445  0.6924
 4047SOL     OW23599   0.942   1.284  13.180  0.4147 -0.0385 -0.3242
 4047SOL    HW123600   0.899   1.364  13.213  1.1503 -0.0866  0.7818
 4047SOL    HW223601   0.875   1.228  13.220  0.5730  0.4803  0.6801
 4048SOL     OW23602   0.227   0.766   4.129  0.0836  0.1437  0.0490
 4048SOL    HW123603   0.222   0.705   4.202 -1.6234  2.5978  1.9973
 4048SOL    HW223604   0.309   0.813   4.138  0.6935 -0.8271 -0.4676
 4049SOL     OW23605   0.925   0.667   1.396 -0.0706  0.0788  0.1259
 4049SOL    HW123606   0.875   0.593   1.429  0.5412  0.5576  2.1129
 4049SOL    HW223607   0.871   0.738   1.433 -0.7305  0.1597 -0.9788
 4050SOL     OW23608   2.344   2.981  11.323 -0.2689  0.1245  0.0305
 4050SOL    HW123609   2.319   3.053  11.381  0.3741  0.5556 -0.2287
 4050SOL    HW223610   2.380   2.918  11.386  1.3395  0.3818 -0.6336
 4051SOL     OW23611   2.972   0.140   7.302 -0.0302 -0.5544 -0.0995
 4051SOL    HW123612   3.044   0.102   7.353 -0.2476 -0.9888 -0.1210
 4051SOL    HW223613   2.965   0.225   7.345 -1.8253 -0.7925  0.0782
 4052SOL     OW23614   0.816   4.519  15.442  0.3091 -0.4373 -0.3529
 4052SOL    HW123615   0.775   4.476  15.516  1.5614  1.1390  1.2476
 4052SOL    HW223616   0.883   4.573  15.484 -1.3695  1.6189 -0.3323
 4053SOL     OW23617   3.475   3.616   6.531 -0.2891 -0.3435  0.2625
 4053SOL    HW123618   3.538   3.676   6.571 -0.1095  0.6388 -1.4984
 4053SOL    HW223619   3.394   3.636   6.579  0.8514  0.2950  1.9380
 4054SOL     OW23620   4.114   1.164   2.446 -0.6987 -0.0092  0.2235
 4054SOL    HW123621   4.195   1.147   2.494 -0.9673 -0.1546  0.6235
 4054SOL    HW223622   4.059   1.094   2.482 -1.1064 -0.8145 -1.9566
 4055SOL     OW23623   3.806   2.123  10.586  0.1693  0.4733  0.0863
 4055SOL    HW123624   3.841   2.212  10.575  1.1309  0.0313 -0.4640
 4055SOL    HW223625   3.753   2.118  10.506  2.0857 -1.7016 -1.0394
 4056SOL     OW23626   4.645   2.414  17.495  0.3468 -0.0759 -0.6409
 4056SOL    HW123627   4.619   2.490  17.442 -0.1091  0.6705  0.6549
 4056SOL    HW223628   4.559   2.391  17.529  0.4390 -0.0320 -0.3748
 4057SOL     OW23629   2.363   4.356   4.214  0.0433 -0.5601  0.5129
 4057SOL    HW123630   2.310   4.435   4.226 -1.9267 -2.0319  1.4051
 4057SOL    HW223631   2.409   4.378   4.134  0.7626  0.0011  1.0773
 4058SOL     OW23632   3.691   0.437   8.207  0.7330 -0.6066  0.5082
 4058SOL    HW123633   3.667   0.435   8.299  0.1818  0.5521  0.3885
 4058SOL    HW223634   3.608   0.473   8.176  1.0650  0.4309  0.7940
 4059SOL     OW23635   4.688   2.487   0.091 -0.5373 -0.0081  0.0461
 4059SOL    HW123636   0.058   2.467   0.106 -0.4753  0.6417  0.5176
 4059SOL    HW223637   4.684   2.456   0.001  1.5578  1.9549 -0.7354
 4060SOL     OW23638   3.162   2.233   9.202 -0.0547 -0.4234  0.2733
 4060SOL    HW123639   3.126   2.303   9.256 -0.3817  0.5450 -1.2187
 4060SOL    HW223640   3.184   2.167   9.268  2.2441  0.5455  0.4455
 4061SOL     OW23641   4.318   3.011   9.444  0.3189  0.0721  0.0862
 4061SOL    HW123642   4.378   2.954   9.397  0.4870  1.3168 -1.2158
 4061SOL    HW223643   4.301   2.959   9.523  1.0209  2.3119  1.7493
 4062SOL     OW23644   0.443   4.155  10.335  0.4114 -0.3067  0.0258
 4062SOL    HW123645   0.381   4.083  10.349 -0.6949  0.7364  0.5118
 4062SOL    HW223646   0.448   4.193  10.423  0.6217 -2.8318  1.1105
 4063SOL     OW23647   3.042   0.781   6.497 -0.2479  0.1221  0.6773
 4063SOL    HW123648   2.972   0.806   6.436 -0.4448 -3.0791 -0.4110
 4063SOL    HW223649   3.119   0.773   6.441 -0.0997  1.5449  0.6904
 4064SOL     OW23650   1.927   0.794   6.187  0.4127  0.0191 -0.3148
 4064SOL    HW123651   1.943   0.778   6.280  0.7579  0.9922 -0.2064
 4064SOL    HW223652   1.992   0.734   6.151  0.3092 -1.4596  1.9702
 4065SOL     OW23653   3.212   0.071   7.471 -0.3718 -0.2523 -0.7883
 4065SOL    HW123654   3.211   0.152   7.522  0.7468 -2.0772  2.1432
 4065SOL    HW223655   3.301   0.077   7.438 -0.8176  0.6877 -1.8456
 4066SOL     OW23656   3.867   3.525   8.064  0.0274 -0.0351  0.1273
 4066SOL    HW123657   3.887   3.455   8.002 -2.6025  1.5380 -2.4446
 4066SOL    HW223658   3.803   3.491   8.126  1.4109 -2.2211  0.3797
 4067SOL     OW23659   2.572   1.129   4.822 -0.8837 -0.1832  0.3969
 4067SOL    HW123660   2.498   1.087   4.865 -0.7913 -0.8432 -0.0767
 4067SOL    HW223661   2.531   1.182   4.754 -0.9306 -3.1212 -1.8562
 4068SOL     OW23662   4.379   3.396   3.637 -0.1050  0.3173 -0.5651
 4068SOL    HW123663   4.285   3.396   3.650 -0.5403 -1.0025 -3.9217
 4068SOL    HW223664   4.403   3.325   3.697 -0.5645  1.5216  1.0557
 4069SOL     OW23665   2.974   3.915   6.782 -1.0710  0.0982  0.0414
 4069SOL    HW123666   2.962   3.952   6.869 -3.1768 -0.7803  0.1332
 4069SOL    HW223667   2.895   3.950   6.739 -1.6359  0.2205  1.1854
 4070SOL     OW23668   2.806   3.936   2.539  0.1553 -0.1781 -0.1449
 4070SOL    HW123669   2.900   3.956   2.533  0.2438 -0.4120  0.3659
 4070SOL    HW223670   2.801   3.846   2.507  0.0654 -0.2629  0.1106
 4071SOL     OW23671   4.142   1.832   8.568 -0.3838  0.1082 -0.0656
 4071SOL    HW123672   4.187   1.845   8.652 -1.5655 -0.9722  0.7332
 4071SOL    HW223673   4.052   1.857   8.587 -0.6441  0.2517 -1.5336
 4072SOL     OW23674   1.639   1.745  13.947  0.0867 -0.2997 -0.2040
 4072SOL    HW123675   1.730   1.738  13.975 -0.7184  0.2453  2.5313
 4072SOL    HW223676   1.600   1.708  14.027  0.1793 -0.6571 -0.3225
 4073SOL     OW23677   0.155   3.177  12.841 -0.2033 -0.4427  0.0818
 4073SOL    HW123678   0.174   3.130  12.922 -0.1029  1.1122  0.9621
 4073SOL    HW223679   0.158   3.271  12.855  3.1843 -0.6681  0.7859
 4074SOL     OW23680   3.903   4.042   4.737  0.2599 -0.2339  0.4424
 4074SOL    HW123681   3.880   3.976   4.803 -0.0636 -1.6825 -1.1036
 4074SOL    HW223682   3.883   3.987   4.661  3.1439 -0.8422  0.1253
 4075SOL     OW23683   2.693   1.479   7.934 -0.2270  0.5027  0.7676
 4075SOL    HW123684   2.712   1.571   7.948 -1.3767  0.9816 -0.7439
 4075SOL    HW223685   2.675   1.481   7.840  0.4847  1.1940  0.6452
 4076SOL     OW23686   2.291   2.304   8.618  0.4421 -0.2933  0.0484
 4076SOL    HW123687   2.253   2.365   8.680 -1.6202 -2.2290  0.7029
 4076SOL    HW223688   2.346   2.359   8.563 -2.2900  1.8961 -0.4724
 4077SOL     OW23689   1.931   0.752   2.310 -0.0328 -0.4485 -0.0420
 4077SOL    HW123690   1.955   0.842   2.329 -1.9257  0.4410 -1.9470
 4077SOL    HW223691   1.894   0.734   2.397  2.1111  0.8334  1.1326
 4078SOL     OW23692   4.207   1.717   6.165  0.4680  0.1972  0.4104
 4078SOL    HW123693   4.133   1.656   6.174 -0.0589  0.5013 -1.9977
 4078SOL    HW223694   4.202   1.777   6.240  1.7477 -0.2022  0.8209
 4079SOL     OW23695   4.095   1.052   2.969  0.8683  0.0399 -0.7948
 4079SOL    HW123696   4.110   1.134   3.015 -2.9052  1.3707 -1.9234
 4079SOL    HW223697   4.138   0.987   3.025 -1.5844 -0.1651  0.8612
 4080SOL     OW23698   2.311   0.971   4.080  0.4121  0.0838 -0.3818
 4080SOL    HW123699   2.289   1.050   4.032  1.7627  0.5402 -0.2458
 4080SOL    HW223700   2.404   0.952   4.072 -0.2662 -3.4611 -0.1111
 4081SOL     OW23701   3.020   1.054   3.662  0.3526 -0.2995  0.4311
 4081SOL    HW123702   3.095   1.088   3.711  2.0157 -1.1020 -1.5911
 4081SOL    HW223703   3.060   0.993   3.600  1.2567  1.5739 -0.8153
 4082SOL     OW23704   2.633   2.335   8.767 -0.2883 -0.3502 -0.1425
 4082SOL    HW123705   2.584   2.387   8.703 -0.7668  1.2520  1.5471
 4082SOL    HW223706   2.586   2.251   8.763 -1.3778  0.2747 -0.6407
 4083SOL     OW23707   3.975   0.155   0.763  0.1320  0.5176 -0.5383
 4083SOL    HW123708   3.956   0.213   0.836  0.9666  0.5095 -0.3123
 4083SOL    HW223709   3.967   0.067   0.801  0.8502  0.7342  0.1040
 4084SOL     OW23710   0.190   4.444   5.917  0.1495 -0.2616  0.0424
 4084SOL    HW123711   0.152   4.531   5.906  1.9714  0.1283 -3.2370
 4084SOL    HW223712   0.188   4.440   6.012  1.4971  2.7284  0.1882
 4085SOL     OW23713   1.957   2.089   7.784  0.0398 -0.0243 -0.6624
 4085SOL    HW123714   1.876   2.139   7.788 -0.3789 -0.7720  0.1291
 4085SOL    HW223715   1.965   2.077   7.689  1.2714 -2.5560 -0.2589
 4086SOL     OW23716   4.563   3.575  15.621  0.0658 -0.6209 -0.0747
 4086SOL    HW123717   4.640   3.604  15.670 -0.4457  3.1882 -1.5178
 4086SOL    HW223718   4.591   3.606  15.534  1.8971  0.8518  1.0481
 4087SOL     OW23719   2.835   3.335  10.596  0.0505  0.0413  0.3026
 4087SOL    HW123720   2.900   3.405  10.588  0.7000 -0.3603  2.0261
 4087SOL    HW223721   2.862   3.283  10.520  1.3029  0.0378  0.7561
 4088SOL     OW23722   0.419   0.724   3.819 -0.1662  0.1867 -0.3112
 4088SOL    HW123723   0.413   0.806   3.769 -0.3871 -0.2330 -0.9680
 4088SOL    HW223724   0.325   0.704   3.827 -0.3433  2.1417  2.4285
 4089SOL     OW23725   4.395   2.414  17.591  0.4224 -0.1138 -0.2753
 4089SOL    HW123726   4.331   2.447  17.528 -2.8369 -0.4280  2.8704
 4089SOL    HW223727   4.363   2.461  17.668  2.6210  0.4009  0.3470
 4090SOL     OW23728   1.876   0.884   8.616  0.0383  0.3293  0.2777
 4090SOL    HW123729   1.868   0.940   8.539 -0.1242  2.6876  2.0239
 4090SOL    HW223730   1.786   0.858   8.632  0.5836 -2.0412 -0.4898
 4091SOL     OW23731   3.436   0.812   4.427 -0.4360 -0.1401  0.1350
 4091SOL    HW123732   3.411   0.720   4.424 -1.3656  0.0987  0.4633
 4091SOL    HW223733   3.530   0.807   4.443 -0.0282  1.4136 -1.7132
 4092SOL     OW23734   4.042   1.416   0.166 -0.2929 -0.2330  0.3165
 4092SOL    HW123735   3.984   1.489   0.142  1.0000  1.3263  1.8782
 4092SOL    HW223736   4.126   1.454   0.138 -0.5218  1.2453  1.6117
 4093SOL     OW23737   3.175   1.192  17.501  0.1084  0.6838 -0.0354
 4093SOL    HW123738   3.219   1.236  17.428 -1.1105 -1.0617 -1.8025
 4093SOL    HW223739   3.091   1.174  17.460 -0.2975  0.5998  0.8299
 4094SOL     OW23740   2.434   4.324   5.871  0.0494 -0.1197 -0.5949
 4094SOL    HW123741   2.461   4.413   5.849  0.1876 -0.1442 -0.5198
 4094SOL    HW223742   2.516   4.281   5.845  0.6203  0.4431  0.3014
 4095SOL     OW23743   1.536   0.100   4.654 -0.0525 -0.0204 -0.4666
 4095SOL    HW123744   1.514   0.040   4.725  1.4660 -1.0462 -0.8767
 4095SOL    HW223745   1.475   0.167   4.685 -1.4104 -1.0979 -0.7755
 4096SOL     OW23746   2.290   1.806   3.171 -0.1148  0.9870 -0.4035
 4096SOL    HW123747   2.203   1.822   3.134 -0.8255  0.2329  0.9011
 4096SOL    HW223748   2.275   1.718   3.208 -0.3748  0.9942 -0.4889
 4097SOL     OW23749   4.301   4.688   6.897  0.3072  0.2200 -0.4112
 4097SOL    HW123750   4.296   4.653   6.986 -2.0605  0.9779 -0.2304
 4097SOL    HW223751   4.392   4.717   6.897 -0.5188  2.7178  1.7673
 4098SOL     OW23752   4.250   2.300  10.713  0.3120  0.1923  0.1711
 4098SOL    HW123753   4.330   2.352  10.709 -0.9408  2.1246  0.2854
 4098SOL    HW223754   4.238   2.263  10.625  0.1714  0.1227  0.2185
 4099SOL     OW23755   2.558   3.674  17.198 -0.1399  0.3547 -0.3834
 4099SOL    HW123756   2.477   3.700  17.242 -1.6407 -1.2469 -2.1613
 4099SOL    HW223757   2.596   3.760  17.179  1.1361 -0.0174  0.4995
 4100SOL     OW23758   2.922   0.032   4.406  0.3954 -0.2274  0.0443
 4100SOL    HW123759   2.842   0.028   4.458  0.4818 -2.4625  0.0020
 4100SOL    HW223760   2.900   4.693   4.336 -2.1233  1.7475 -0.8555
 4101SOL     OW23761   3.576   2.265   6.106 -0.3930 -0.5396 -0.3940
 4101SOL    HW123762   3.523   2.275   6.027  1.6180 -0.9264 -1.7975
 4101SOL    HW223763   3.514   2.240   6.174 -1.5070 -0.9767 -1.5752
 4102SOL     OW23764   2.262   2.923  15.385 -0.2078  0.5175  0.5131
 4102SOL    HW123765   2.167   2.920  15.379 -0.0066 -1.9254 -1.4433
 4102SOL    HW223766   2.283   2.852  15.324  0.1098 -1.2647  2.6908
 4103SOL     OW23767   2.996   2.561   1.742  0.5828 -0.3905 -0.3698
 4103SOL    HW123768   2.945   2.604   1.672 -1.3926 -2.5149 -0.2337
 4103SOL    HW223769   2.927   2.549   1.807  1.6157 -0.7666  0.6438
 4104SOL     OW23770   4.382   3.489   2.740  0.1546  0.5127  0.1000
 4104SOL    HW123771   4.372   3.480   2.645  3.4346 -0.4655 -0.1452
 4104SOL    HW223772   4.464   3.444   2.758 -1.0158 -0.9556  1.8406
 4105SOL     OW23773   1.279   1.530   5.149 -0.2679 -0.2962 -0.1547
 4105SOL    HW123774   1.272   1.436   5.166 -0.8749  0.0507  1.5285
 4105SOL    HW223775   1.185   1.544   5.139 -0.5450 -1.3019  0.8890
 4106SOL     OW23776   0.560   0.666  11.923  0.6867 -0.3886  0.0505
 4106SOL    HW123777   0.473   0.628  11.912  1.1158 -0.2234 -3.9807
 4106SOL    HW223778   0.535   0.706  12.006 -0.3010 -1.4135  0.2484
 4107SOL     OW23779   2.307   2.781   0.611  0.0301  0.0526  0.3831
 4107SOL    HW123780   2.231   2.747   0.565  0.5793  0.4909 -0.8428
 4107SOL    HW223781   2.318   2.858   0.555 -1.6436 -0.5092 -0.6974
 4108SOL     OW23782   2.867   4.344   7.119  0.6104  0.2578  0.7496
 4108SOL    HW123783   2.774   4.325   7.131  1.0573 -1.7107  1.1533
 4108SOL    HW223784   2.867   4.400   7.196 -1.2215  0.3340  0.6895
 4109SOL     OW23785   2.766   2.453   5.667 -0.3981 -0.1128  0.0919
 4109SOL    HW123786   2.838   2.422   5.723 -1.2447  1.7458  2.2141
 4109SOL    HW223787   2.713   2.376   5.687  0.4960 -1.3503 -2.3029
 4110SOL     OW23788   2.382   2.303   2.508 -0.1933  0.4719 -0.3575
 4110SOL    HW123789   2.352   2.262   2.589  0.2563  0.3619 -0.2416
 4110SOL    HW223790   2.463   2.346   2.535 -0.2196  0.6017 -0.4839
 4111SOL     OW23791   2.209   2.444   7.152 -0.4149 -0.0831  0.0544
 4111SOL    HW123792   2.222   2.373   7.215  0.6463 -0.1895 -0.2739
 4111SOL    HW223793   2.275   2.416   7.089 -0.3954  2.4714 -1.0262
 4112SOL     OW23794   3.276   4.387   5.542  0.0894  0.2468  0.0256
 4112SOL    HW123795   3.311   4.382   5.631 -0.4718  4.8002  0.5333
 4112SOL    HW223796   3.318   4.467   5.509  0.0248  0.5928  0.7628
 4113SOL     OW23797   3.287   0.827  11.605 -0.4690 -0.0628 -0.0075
 4113SOL    HW123798   3.202   0.821  11.562 -0.9578  4.9796  0.2405
 4113SOL    HW223799   3.340   0.888  11.554  0.1444  1.3419  2.2679
 4114SOL     OW23800   0.827   0.892   1.510  0.1550  0.4519 -0.1143
 4114SOL    HW123801   0.749   0.943   1.530  1.4048  2.0042  0.7906
 4114SOL    HW223802   0.882   0.960   1.472  1.9095 -0.5912  0.5253
 4115SOL     OW23803   1.472   2.055  17.069  0.2643  0.2425  0.2953
 4115SOL    HW123804   1.422   2.136  17.055  2.0449  1.3784  0.4926
 4115SOL    HW223805   1.495   2.041  16.978  0.5094 -0.5130  0.4682
 4116SOL     OW23806   3.114   2.613   3.212  0.1896 -0.5012 -0.4789
 4116SOL    HW123807   3.199   2.592   3.251 -0.3478 -0.1234  0.8839
 4116SOL    HW223808   3.106   2.541   3.149  1.6858 -0.7037 -0.4420
 4117SOL     OW23809   2.519   4.546   2.018  0.4307  1.1501 -0.6456
 4117SOL    HW123810   2.613   4.557   2.001  0.6586 -0.4235 -0.4266
 4117SOL    HW223811   2.512   4.464   1.971 -4.2838  0.5786  1.1138
 4118SOL     OW23812   3.035   4.707   5.746  0.3386 -0.0058  0.6769
 4118SOL    HW123813   3.127   4.686   5.757  0.0307 -1.3259  0.8354
 4118SOL    HW223814   3.034   0.015   5.655 -1.4924 -2.0592  0.0066
 4119SOL     OW23815   3.570   1.937   1.628  0.2154 -0.0266 -0.3015
 4119SOL    HW123816   3.572   1.956   1.535  0.5313  0.1229 -0.2634
 4119SOL    HW223817   3.605   2.015   1.672  1.2147 -0.6147 -0.0693
 4120SOL     OW23818   0.490   2.702   8.796  0.4118  0.1496 -0.2274
 4120SOL    HW123819   0.451   2.787   8.776 -0.8307 -0.8155 -1.9088
 4120SOL    HW223820   0.449   2.653   8.724 -2.8985  1.3054  0.8898
 4121SOL     OW23821   4.713   2.017   0.671  0.2358 -0.2848  0.2186
 4121SOL    HW123822   4.685   2.006   0.581  2.5859  0.5955 -0.6080
 4121SOL    HW223823   0.060   2.082   0.658  0.3774 -0.1292  1.7157
 4122SOL     OW23824   4.513   0.923   8.313 -0.9492  0.3211 -0.0075
 4122SOL    HW123825   4.431   0.967   8.291  1.1543  2.6517 -3.0548
 4122SOL    HW223826   4.551   0.986   8.374 -0.9068  2.1222 -1.9227
 4123SOL     OW23827   2.574   0.272   7.212  0.5139  0.2346  0.7100
 4123SOL    HW123828   2.613   0.256   7.297  3.0605 -1.9700 -0.8856
 4123SOL    HW223829   2.640   0.236   7.153 -0.3381 -1.1814  0.6114
 4124SOL     OW23830   0.020   4.476  10.265 -0.0657 -0.2807  0.0133
 4124SOL    HW123831   0.042   4.482  10.358  1.0169 -1.4452 -0.1684
 4124SOL    HW223832   0.020   4.383  10.242 -0.8452 -0.2251 -0.1906
 4125SOL     OW23833   0.464   0.975  11.849 -0.0027  0.2295  0.0389
 4125SOL    HW123834   0.462   0.967  11.944 -0.8742 -0.0602 -0.0074
 4125SOL    HW223835   0.523   0.901  11.834 -0.4469 -0.3651  1.2532
 4126SOL     OW23836   2.988   4.330   7.431 -0.3661 -0.0648  0.2810
 4126SOL    HW123837   2.980   4.419   7.463 -1.3572 -0.5698  1.4099
 4126SOL    HW223838   3.081   4.314   7.449  0.1009  0.0853 -1.8940
 4127SOL     OW23839   4.280   2.751   7.339 -0.4651 -0.2461 -0.0597
 4127SOL    HW123840   4.341   2.789   7.275 -0.6086 -2.4506 -1.5058
 4127SOL    HW223841   4.292   2.809   7.414 -0.9284  0.4453 -0.5252
 4128SOL     OW23842   1.444   0.116   1.091 -0.0043  0.6233  0.7110
 4128SOL    HW123843   1.533   0.151   1.097 -0.3056  1.6700 -0.8119
 4128SOL    HW223844   1.426   0.120   1.185  0.9494  0.6023  0.8915
 4129SOL     OW23845   1.720   4.156   2.041  0.6039  0.6797 -0.8353
 4129SOL    HW123846   1.764   4.166   2.126  0.4462  0.4289 -0.7231
 4129SOL    HW223847   1.639   4.108   2.059  2.4367 -2.1906 -0.2709
 4130SOL     OW23848   1.202   1.440   0.844 -0.0023  0.4059 -0.6931
 4130SOL    HW123849   1.249   1.365   0.808 -3.2810 -1.5737 -0.8325
 4130SOL    HW223850   1.183   1.398   0.928  0.0688  1.7189 -0.0157
 4131SOL     OW23851   0.712   3.989   3.354 -0.4516 -0.1972  0.2368
 4131SOL    HW123852   0.622   4.017   3.371 -0.0910  1.6324 -0.9305
 4131SOL    HW223853   0.728   3.929   3.427 -2.2708 -0.7613  0.1753
 4132SOL     OW23854   2.270   1.007  13.309 -0.8112 -0.5452 -0.0814
 4132SOL    HW123855   2.217   1.080  13.339 -1.4766 -1.0190 -0.0970
 4132SOL    HW223856   2.236   0.944  13.374 -0.1341  0.6335  1.4252
 4133SOL     OW23857   1.317   3.874   7.811  0.2172  0.6761 -0.0022
 4133SOL    HW123858   1.341   3.966   7.826  0.5774  0.4505  0.8504
 4133SOL    HW223859   1.273   3.886   7.727  0.6634  1.1483 -0.1738
 4134SOL     OW23860   1.221   4.332   6.732 -0.2721  0.0090  0.4094
 4134SOL    HW123861   1.225   4.343   6.638 -1.5118 -0.9146  0.2349
 4134SOL    HW223862   1.264   4.248   6.748 -0.9490 -0.8143 -2.1658
 4135SOL     OW23863   2.575   0.388   4.331 -0.0938  0.6588  0.1599
 4135SOL    HW123864   2.506   0.437   4.286 -0.1577  0.1387 -0.3149
 4135SOL    HW223865   2.645   0.421   4.275 -1.0644  1.8919 -0.3286
 4136SOL     OW23866   3.051   0.096   4.874  0.0195 -0.3878 -0.2711
 4136SOL    HW123867   3.086   0.017   4.834 -2.9599 -2.1243  0.4891
 4136SOL    HW223868   3.126   0.120   4.927 -0.0455 -2.1155  0.5805
 4137SOL     OW23869   1.776   0.658  17.067  0.5067  0.4401  0.2490
 4137SOL    HW123870   1.711   0.728  17.076 -1.3193 -1.7788  4.3963
 4137SOL    HW223871   1.794   0.623  17.154 -1.1075 -0.8802  0.0681
 4138SOL     OW23872   0.030   0.347   1.080 -0.2266 -0.3695  0.1002
 4138SOL    HW123873   0.057   0.439   1.075  0.7333 -0.6711 -0.3615
 4138SOL    HW223874   4.679   0.357   1.140  0.0512  2.2456  0.0053
 4139SOL     OW23875   2.338   3.834   4.159 -0.0076 -0.0363 -0.4101
 4139SOL    HW123876   2.336   3.928   4.181  1.7582 -0.0989 -0.0468
 4139SOL    HW223877   2.262   3.804   4.209 -0.1629 -1.7256 -1.6636
 4140SOL     OW23878   0.609   2.400   6.216  0.1859 -0.1827  0.1564
 4140SOL    HW123879   0.653   2.476   6.253  0.9349  0.0020 -1.1174
 4140SOL    HW223880   0.559   2.358   6.287  0.7835 -2.1815 -0.5945
 4141SOL     OW23881   0.949   1.236   7.058 -0.0417  0.0068  0.9929
 4141SOL    HW123882   0.935   1.331   7.057 -0.5040 -0.0789 -0.1737
 4141SOL    HW223883   1.029   1.218   7.009  0.6205 -1.2972  2.5407
 4142SOL     OW23884   2.698   1.033   5.691 -0.6917 -0.1415 -0.2151
 4142SOL    HW123885   2.663   1.093   5.625 -2.0842 -1.1657 -0.4202
 4142SOL    HW223886   2.791   1.043   5.675 -0.9745  0.6767 -1.3337
 4143SOL     OW23887   3.353   2.885   5.933 -0.3002 -0.0951  0.1832
 4143SOL    HW123888   3.422   2.939   5.893 -0.7771  0.5724  0.2703
 4143SOL    HW223889   3.293   2.957   5.953  0.2165 -0.1674  1.9691
 4144SOL     OW23890   0.676   2.631  15.596  0.4081 -0.6496 -0.3582
 4144SOL    HW123891   0.610   2.577  15.640  1.2875  0.9291  2.8994
 4144SOL    HW223892   0.628   2.713  15.586  1.4517  0.0580  0.5066
 4145SOL     OW23893   3.943   1.454  16.423  0.3894  0.5337 -0.2253
 4145SOL    HW123894   3.975   1.392  16.358 -1.1259 -0.6393  0.1560
 4145SOL    HW223895   3.864   1.405  16.447  0.2664  1.0021  0.3104
 4146SOL     OW23896   3.953   1.479  14.998 -0.4313 -0.0720  0.1960
 4146SOL    HW123897   4.033   1.526  14.974  0.1712 -1.0625  0.2610
 4146SOL    HW223898   3.929   1.451  14.909  1.8459 -0.9608 -0.1454
 4147SOL     OW23899   3.197   2.097   1.908  0.2452  0.0655 -0.0966
 4147SOL    HW123900   3.201   2.123   1.816 -2.7604 -1.1247 -0.5568
 4147SOL    HW223901   3.265   2.029   1.914  1.1352  1.0820  1.4916
 4148SOL     OW23902   4.612   1.461   4.922 -0.0896  0.1413  0.1318
 4148SOL    HW123903   4.680   1.436   4.860  0.5953  0.3426  0.8001
 4148SOL    HW223904   4.550   1.388   4.921 -0.9019  0.8695 -1.1592
 4149SOL     OW23905   0.256   1.480  11.567  0.2836  0.1710  0.5298
 4149SOL    HW123906   0.179   1.536  11.575 -1.2093 -1.7555 -0.2255
 4149SOL    HW223907   0.246   1.417  11.639  1.5965  3.4869  3.6341
 4150SOL     OW23908   2.925   2.830   4.988  0.4046  0.1391  0.1575
 4150SOL    HW123909   2.917   2.889   5.064  2.1879 -0.6560  0.9620
 4150SOL    HW223910   2.837   2.823   4.952  0.1372  0.2812  0.7762
 4151SOL     OW23911   3.733   0.149   6.514  0.1630 -0.3584 -0.0803
 4151SOL    HW123912   3.803   0.187   6.567 -0.2394  0.6547 -0.2704
 4151SOL    HW223913   3.723   0.212   6.443  0.6795 -0.2173 -0.0298
 4152SOL     OW23914   2.603   0.093  11.967  0.2814 -0.0321 -0.5928
 4152SOL    HW123915   2.552   0.014  11.986  0.6796  0.3588  2.1447
 4152SOL    HW223916   2.556   0.118  11.888  0.8051 -1.3690 -1.3430
 4153SOL     OW23917   1.733   0.180   1.136 -0.0545  0.2144  0.4472
 4153SOL    HW123918   1.754   0.274   1.141  0.2320  0.3396 -3.0634
 4153SOL    HW223919   1.780   0.153   1.057 -0.1214  1.5526 -0.0623
 4154SOL     OW23920   0.075   4.558   7.913 -0.2150 -0.2173 -0.3345
 4154SOL    HW123921   0.041   4.615   7.844  1.8056  0.9760 -0.3456
 4154SOL    HW223922   0.103   4.623   7.977  3.3521 -1.2592 -0.8070
 4155SOL     OW23923   0.963   4.301   6.829  0.2328  0.5165  0.6201
 4155SOL    HW123924   1.038   4.332   6.777 -0.2402  1.7352  0.6772
 4155SOL    HW223925   0.919   4.382   6.855 -0.6991  0.4965 -0.8949
 4156SOL     OW23926   0.117   1.225   0.879  0.9447 -0.3193  0.2178
 4156SOL    HW123927   0.189   1.285   0.859  1.4438 -0.6303  1.0707
 4156SOL    HW223928   0.157   1.185   0.956 -2.6408 -2.4715  0.9710
 4157SOL     OW23929   2.281   0.280  17.400  0.0738 -0.0576  0.0254
 4157SOL    HW123930   2.274   0.375  17.412  0.0720 -0.2701  1.7089
 4157SOL    HW223931   2.268   0.267  17.306 -0.0771  2.5938 -0.3247
 4158SOL     OW23932   2.083   3.871   5.401  0.0498  0.3016 -0.5342
 4158SOL    HW123933   2.069   3.929   5.326 -0.4464  2.5772  1.3542
 4158SOL    HW223934   2.103   3.935   5.468  1.0591  0.4880 -1.0029
 4159SOL     OW23935   1.665   2.049   2.783  0.6316  0.7553  0.4267
 4159SOL    HW123936   1.724   1.974   2.791  0.1193 -0.0730 -3.1899
 4159SOL    HW223937   1.670   2.082   2.872 -3.3446  2.2667  0.1196
 4160SOL     OW23938   4.470   0.710   6.831  0.1233  0.2665 -0.1535
 4160SOL    HW123939   4.504   0.798   6.812 -1.9896  0.6296 -2.3201
 4160SOL    HW223940   4.542   0.674   6.882 -0.8713  0.3343  1.3022
 4161SOL     OW23941   3.682   0.715   8.052 -0.2970  0.0298 -0.5737
 4161SOL    HW123942   3.676   0.623   8.082  2.1998  0.1003  0.1354
 4161SOL    HW223943   3.699   0.765   8.132  1.3255 -1.3690 -0.0537
 4162SOL     OW23944   2.201   3.472   4.955  0.3318  0.0021 -0.0730
 4162SOL    HW123945   2.217   3.405   4.888  0.4653 -0.8595  0.8273
 4162SOL    HW223946   2.125   3.430   4.996 -0.5515  0.6423 -1.0456
 4163SOL     OW23947   4.493   2.441  10.741  0.4407  0.8510  0.3851
 4163SOL    HW123948   4.522   2.367  10.795  2.0215  1.1292 -0.0891
 4163SOL    HW223949   4.522   2.514  10.795 -0.2280 -0.1460  2.0912
 4164SOL     OW23950   1.631   3.710   2.367 -0.3051  0.5338 -0.3379
 4164SOL    HW123951   1.599   3.708   2.276  3.4588 -0.1357 -1.6291
 4164SOL    HW223952   1.549   3.681   2.408  2.6389 -2.2804  3.5880
 4165SOL     OW23953   3.880   3.210  12.300  0.1924  0.1422  0.4554
 4165SOL    HW123954   3.878   3.224  12.394  0.7919  1.4359  0.2893
 4165SOL    HW223955   3.925   3.126  12.291 -0.4433 -0.1592  0.0730
 4166SOL     OW23956   3.786   0.263   2.248  0.1657  0.2792  0.2211
 4166SOL    HW123957   3.869   0.245   2.292  0.3435  0.0868 -0.1881
 4166SOL    HW223958   3.723   0.246   2.318 -0.8395  0.1793 -0.6933
 4167SOL     OW23959   4.363   0.935   8.757  0.3328  0.6061 -0.5197
 4167SOL    HW123960   4.440   0.914   8.809 -0.6485 -2.5900 -0.3560
 4167SOL    HW223961   4.371   0.879   8.679  2.8430 -2.7784  2.1833
 4168SOL     OW23962   4.704   1.993   0.388  0.0832 -0.2479  0.1620
 4168SOL    HW123963   0.025   2.015   0.306  0.6681  0.6733  0.7232
 4168SOL    HW223964   4.717   1.898   0.393 -0.1427 -0.2951 -0.1291
 4169SOL     OW23965   1.805   4.045   7.100  0.3707 -0.1549 -0.3406
 4169SOL    HW123966   1.858   4.059   7.178  2.0922  0.7048 -1.6714
 4169SOL    HW223967   1.872   4.012   7.041  0.1577  2.5198 -2.0866
 4170SOL     OW23968   3.331   4.665   6.399 -0.2939 -0.8797 -0.0398
 4170SOL    HW123969   3.351   4.653   6.492  0.8530 -2.3484 -0.4846
 4170SOL    HW223970   3.288   4.586   6.368 -3.2757  0.5184  0.4640
 4171SOL     OW23971   0.403   1.404   1.766 -0.2340 -0.1727 -0.6194
 4171SOL    HW123972   0.420   1.310   1.760  3.2995  0.4419  0.1031
 4171SOL    HW223973   0.322   1.406   1.818  0.3746  2.2026  0.2444
 4172SOL     OW23974   2.054   3.339   9.555 -0.2843 -0.1308  0.5039
 4172SOL    HW123975   2.047   3.322   9.649  0.5563 -0.4076  0.5177
 4172SOL    HW223976   1.985   3.283   9.519 -0.4794 -1.5515  3.0965
 4173SOL     OW23977   2.303   1.198   4.370  0.3607 -0.3451  0.5686
 4173SOL    HW123978   2.308   1.256   4.447 -0.5071 -0.3291  0.6183
 4173SOL    HW223979   2.393   1.181   4.345  0.0183  0.4632 -1.1871
 4174SOL     OW23980   3.038   2.448   5.193 -0.0249  0.6888  0.0630
 4174SOL    HW123981   3.065   2.383   5.257  0.0804 -1.1827 -1.8583
 4174SOL    HW223982   3.036   2.526   5.249  1.1468  1.3238 -0.7816
 4175SOL     OW23983   2.410   0.952   2.104 -0.5405  0.0531  0.1967
 4175SOL    HW123984   2.453   1.028   2.064  0.9920 -0.9828 -0.1223
 4175SOL    HW223985   2.322   0.982   2.082 -0.1393  1.4657  0.4972
 4176SOL     OW23986   3.566   3.822   5.542 -0.4918 -0.3969 -0.5782
 4176SOL    HW123987   3.501   3.804   5.611 -0.5251 -0.1544 -0.5482
 4176SOL    HW223988   3.588   3.738   5.501 -1.6908 -0.7923 -0.4145
 4177SOL     OW23989   0.776   4.394   1.114  0.0671  0.3372  0.5051
 4177SOL    HW123990   0.740   4.342   1.186 -1.9616  0.5791 -0.3418
 4177SOL    HW223991   0.699   4.440   1.078 -0.0695  1.0762  1.7154
 4178SOL     OW23992   0.549   0.369   7.895  0.2228  0.3907 -1.2089
 4178SOL    HW123993   0.560   0.308   7.821 -1.4059 -0.5448 -0.6829
 4178SOL    HW223994   0.638   0.382   7.929  0.4774  2.0144 -2.5366
 4179SOL     OW23995   3.851   4.437   7.740 -0.8250 -0.2069 -0.1380
 4179SOL    HW123996   3.891   4.371   7.685  0.3750  1.4890 -1.2864
 4179SOL    HW223997   3.909   4.457   7.813 -1.2454 -1.2594  0.4876
 4180SOL     OW23998   0.560   3.986  16.146  0.8094  0.1416 -0.0796
 4180SOL    HW123999   0.487   3.943  16.189  1.9811 -0.6612  1.0838
 4180SOL    HW224000   0.550   4.075  16.180  0.0808 -0.4785  1.3383
 4181SOL     OW24001   3.239   1.312  13.581  0.0281  0.0368 -0.1149
 4181SOL    HW124002   3.315   1.273  13.537  0.1030 -0.2597  0.2806
 4181SOL    HW224003   3.205   1.237  13.629 -0.0805  0.6640  0.7903
 4182SOL     OW24004   1.367   1.253  10.073  0.0909 -0.1720 -0.3394
 4182SOL    HW124005   1.303   1.183  10.084 -0.1966  0.0800 -0.4128
 4182SOL    HW224006   1.422   1.199  10.017  1.9105 -0.5744  1.8235
 4183SOL     OW24007   3.051   3.213  13.120  0.0894  0.0933 -0.3844
 4183SOL    HW124008   3.004   3.176  13.045 -0.3249  1.3120 -0.7439
 4183SOL    HW224009   2.987   3.263  13.170 -0.8496 -1.8743  0.3729
 4184SOL     OW24010   1.881   1.262   5.216  0.1305  0.7424  0.1669
 4184SOL    HW124011   1.928   1.264   5.299 -0.3331 -0.6232  0.4647
 4184SOL    HW224012   1.792   1.292   5.237 -0.3144 -0.9421  0.6915
 4185SOL     OW24013   0.682   2.846   8.524  0.2303  0.5302 -0.2311
 4185SOL    HW124014   0.673   2.896   8.443  2.1131 -0.8704 -1.3009
 4185SOL    HW224015   0.613   2.887   8.577 -0.3592  0.1285 -0.6974
 4186SOL     OW24016   1.120   3.145   3.335  0.4389  0.9200  0.2374
 4186SOL    HW124017   1.175   3.115   3.407  1.1142  0.3166 -0.5252
 4186SOL    HW224018   1.154   3.233   3.318 -0.0731  1.1909  0.6059
 4187SOL     OW24019   0.395   3.611  13.151 -0.9895 -0.3833 -0.1356
 4187SOL    HW124020   0.414   3.703  13.166  1.7480 -0.9841  0.2206
 4187SOL    HW224021   0.300   3.612  13.141 -1.0464  0.6851  0.5594
 4188SOL     OW24022   4.144   4.524   9.410 -0.3475 -0.0921 -0.1279
 4188SOL    HW124023   4.121   4.502   9.320 -0.7044 -0.6310  0.0923
 4188SOL    HW224024   4.066   4.558   9.454 -0.0680  0.2782  0.0866
 4189SOL     OW24025   2.642   3.161  12.900 -0.5967  0.5602  0.2904
 4189SOL    HW124026   2.649   3.094  12.969  1.6249  2.7629  2.2409
 4189SOL    HW224027   2.727   3.206  12.902  0.0513 -0.6236 -0.4955
 4190SOL     OW24028   2.795   1.444   3.157 -0.5469 -0.0963 -0.3574
 4190SOL    HW124029   2.765   1.369   3.209 -0.8426  0.7023  0.6270
 4190SOL    HW224030   2.725   1.460   3.094  0.3816  0.2837 -1.2859
 4191SOL     OW24031   4.258   0.167   4.921  0.2447  0.0658 -0.1258
 4191SOL    HW124032   4.336   0.158   4.866 -0.0624  3.2500 -1.0257
 4191SOL    HW224033   4.281   0.123   5.003 -1.2091 -1.4779 -0.5490
 4192SOL     OW24034   2.000   1.335   2.223  0.0828 -0.8609  0.3795
 4192SOL    HW124035   2.061   1.408   2.234 -1.9801  0.8250  0.5789
 4192SOL    HW224036   2.006   1.326   2.128  2.5293 -0.0631  0.4621
 4193SOL     OW24037   1.778   0.987   2.952 -0.3753 -0.2442 -0.1735
 4193SOL    HW124038   1.727   0.946   2.881  3.4599 -4.0638 -0.7188
 4193SOL    HW224039   1.802   1.071   2.915 -0.5983  0.5339  1.4614
 4194SOL     OW24040   2.939   0.152   9.148 -0.8448  0.0964 -0.3824
 4194SOL    HW124041   2.918   0.245   9.151 -2.2965 -0.2498  0.0582
 4194SOL    HW224042   3.022   0.134   9.192 -0.5227  2.8591  0.1449
 4195SOL     OW24043   0.873   1.533   6.429  0.0651 -0.7070  0.4081
 4195SOL    HW124044   0.796   1.484   6.456 -0.8877 -1.0054 -2.8990
 4195SOL    HW224045   0.859   1.623   6.459 -0.1334 -0.5084 -0.2680
 4196SOL     OW24046   2.372   2.415   3.743  0.6137  0.0833 -0.1721
 4196SOL    HW124047   2.302   2.402   3.679  0.6285  0.2632 -0.2232
 4196SOL    HW224048   2.438   2.357   3.703 -0.3762 -1.4912  0.4545
 4197SOL     OW24049   2.201   3.183   7.614  0.0542  0.3302 -0.6411
 4197SOL    HW124050   2.146   3.190   7.692 -1.3485 -1.3201 -1.4908
 4197SOL    HW224051   2.184   3.272   7.583 -3.5147 -0.1406 -0.0290
 4198SOL     OW24052   1.671   1.789   7.985 -0.0235 -0.1176  0.0470
 4198SOL    HW124053   1.679   1.880   7.956  0.4452 -0.1412  0.1086
 4198SOL    HW224054   1.745   1.784   8.046 -0.7910 -2.3006  0.7905
 4199SOL     OW24055   1.052   4.516   3.016 -0.0694  0.0740 -0.3938
 4199SOL    HW124056   0.976   4.466   2.987  2.1601 -2.8489 -1.1373
 4199SOL    HW224057   1.020   4.602   3.044 -0.5317 -0.7505  1.6341
 4200SOL     OW24058   4.626   1.243   0.410 -0.3897 -0.0811 -0.0563
 4200SOL    HW124059   4.558   1.293   0.456 -2.7153 -1.4172 -2.0526
 4200SOL    HW224060   4.703   1.266   0.463  0.7118 -1.5674 -1.0206
 4201SOL     OW24061   1.907   1.537   8.792 -0.6154 -0.2687  0.3517
 4201SOL    HW124062   1.817   1.566   8.782 -0.7584 -0.4554  1.1636
 4201SOL    HW224063   1.919   1.503   8.880  1.1562 -0.3226  0.1013
 4202SOL     OW24064   4.223   2.756   8.543  0.2443  0.4463 -0.5479
 4202SOL    HW124065   4.286   2.690   8.515 -0.7397 -0.3852 -0.8353
 4202SOL    HW224066   4.171   2.766   8.464  0.6610  4.1302 -0.3617
 4203SOL     OW24067   3.306   2.187   4.553  0.4529 -0.0284  0.0935
 4203SOL    HW124068   3.299   2.107   4.499  0.1634  0.0849 -0.0345
 4203SOL    HW224069   3.354   2.149   4.627  0.5131  1.7589  0.9495
 4204SOL     OW24070   1.030   3.500   1.615  0.3525  0.4161  0.0322
 4204SOL    HW124071   1.102   3.557   1.588  0.6696  0.6606  1.4086
 4204SOL    HW224072   0.981   3.483   1.534 -1.8053  1.5224  1.1221
 4205SOL     OW24073   4.358   0.151  11.069 -0.2321 -0.3311 -0.4454
 4205SOL    HW124074   4.310   0.075  11.036 -0.3665 -1.0031  1.3245
 4205SOL    HW224075   4.362   0.201  10.987 -1.3239 -1.8524 -1.4344
 4206SOL     OW24076   3.044   2.749   7.143 -0.0485 -0.0518 -0.4955
 4206SOL    HW124077   3.102   2.779   7.213  0.0303 -0.4828 -0.3785
 4206SOL    HW224078   2.974   2.707   7.193  0.6675 -1.0074 -0.3118
 4207SOL     OW24079   1.326   4.482   6.975 -0.9301 -0.5117  0.2920
 4207SOL    HW124080   1.246   4.448   7.013  1.1500 -2.5055  2.8426
 4207SOL    HW224081   1.304   4.466   6.883  0.1782 -2.7808  0.4355
 4208SOL     OW24082   1.185   1.007   6.575  0.0480  0.1938  0.4062
 4208SOL    HW124083   1.131   1.030   6.500  2.6468 -3.1954 -2.4754
 4208SOL    HW224084   1.157   0.917   6.590 -1.6203  0.6400  0.0206
 4209SOL     OW24085   0.907   3.222   6.121 -0.2815 -0.1692 -0.2913
 4209SOL    HW124086   0.824   3.175   6.119 -0.1986 -0.3044 -0.5546
 4209SOL    HW224087   0.966   3.156   6.084 -1.4756 -0.3952 -1.7803
 4210SOL     OW24088   1.046   3.483   5.172  0.1534  0.6152  0.2739
 4210SOL    HW124089   1.125   3.429   5.179 -0.5326 -0.2389  1.4433
 4210SOL    HW224090   1.022   3.473   5.080 -0.0680  0.0550  0.3910
 4211SOL     OW24091   0.072   2.146   7.889 -0.0010 -0.7295  0.8578
 4211SOL    HW124092   0.039   2.088   7.958  0.7182 -1.5134  0.5464
 4211SOL    HW224093   4.714   2.152   7.837  0.0805 -2.9529  0.4770
 4212SOL     OW24094   3.781   0.067   7.708  0.6893 -0.5768 -0.3102
 4212SOL    HW124095   3.759   4.715   7.652  0.1412 -1.8222  1.5241
 4212SOL    HW224096   3.711   0.128   7.684  1.5526  0.5520  0.0537
 4213SOL     OW24097   1.099   0.110   3.626  0.3055 -0.0933  0.4531
 4213SOL    HW124098   1.115   0.176   3.693 -3.7599  1.4617 -0.0922
 4213SOL    HW224099   1.071   0.165   3.552  0.6874  1.1958  1.2782
 4214SOL     OW24100   4.369   2.452   9.106  0.0066 -0.5802  0.0064
 4214SOL    HW124101   4.282   2.415   9.096 -0.3553  0.0755  0.7541
 4214SOL    HW224102   4.421   2.378   9.075  0.1339 -1.4309  2.2242
 4215SOL     OW24103   4.478   4.207   1.683 -0.0706  0.0706  0.1634
 4215SOL    HW124104   4.559   4.193   1.633 -0.2315  1.3693 -0.4660
 4215SOL    HW224105   4.459   4.120   1.719 -2.8115  0.7469  0.2718
 4216SOL     OW24106   1.226   2.817   8.955 -0.4307 -0.5297  0.8748
 4216SOL    HW124107   1.148   2.771   8.985 -0.3296 -1.2696  0.0291
 4216SOL    HW224108   1.272   2.740   8.920 -2.1326 -0.1004 -2.2899
 4217SOL     OW24109   3.952   0.013  15.363 -0.3442 -0.9801  0.0191
 4217SOL    HW124110   3.936   0.103  15.334 -1.9848 -1.1170  0.4573
 4217SOL    HW224111   3.985   4.697  15.282 -0.4002  0.7809 -0.8342
 4218SOL     OW24112   0.242   1.853   8.840 -0.0760 -0.4256  0.3696
 4218SOL    HW124113   0.224   1.864   8.747  1.4534 -1.2382 -0.0111
 4218SOL    HW224114   0.236   1.758   8.838 -0.2072 -0.4306  1.0375
 4219SOL     OW24115   4.234   2.465   4.353 -0.6450 -0.3270  0.2333
 4219SOL    HW124116   4.145   2.490   4.380  0.0108 -0.1206  2.1614
 4219SOL    HW224117   4.277   2.550   4.362  0.2233 -0.7403 -0.0403
 4220SOL     OW24118   0.854   1.083   9.890 -0.2985 -0.1925 -0.4486
 4220SOL    HW124119   0.867   1.028   9.967 -1.6459  1.3324  0.8604
 4220SOL    HW224120   0.760   1.076   9.874 -0.0196  0.9835 -2.6881
 4221SOL     OW24121   2.980   1.350   1.924  0.1061 -0.0067  0.1063
 4221SOL    HW124122   2.896   1.344   1.879 -0.1056  0.5203  0.4257
 4221SOL    HW224123   3.032   1.291   1.869 -0.7643 -2.1716  1.5928
 4222SOL     OW24124   2.438   2.514  17.645  0.7074  0.1907 -0.0334
 4222SOL    HW124125   2.440   2.588  17.584  1.3291  0.2767  0.0920
 4222SOL    HW224126   2.407   2.558   0.033  1.5831  0.6086  0.0787
 4223SOL     OW24127   3.020   1.548  14.331  0.0570  0.2491  0.0015
 4223SOL    HW124128   3.011   1.536  14.236 -0.2736  1.7769 -0.1651
 4223SOL    HW224129   2.956   1.616  14.352 -0.8036 -1.0317  1.5120
 4224SOL     OW24130   2.109   3.700  14.555 -0.8415 -0.3404 -0.2227
 4224SOL    HW124131   2.056   3.748  14.618  1.1969 -1.6195  2.4782
 4224SOL    HW224132   2.101   3.754  14.476  0.0605  1.8098  1.1731
 4225SOL     OW24133   1.739   3.498   2.897  0.0162  0.0707  0.8957
 4225SOL    HW124134   1.749   3.403   2.902  0.2953 -0.0465 -1.9240
 4225SOL    HW224135   1.795   3.515   2.820 -0.2970 -0.0267  0.6458
 4226SOL     OW24136   4.537   3.943   1.095 -0.0465 -0.3560  0.1175
 4226SOL    HW124137   4.561   3.983   1.012 -2.4970  0.0757 -0.3537
 4226SOL    HW224138   4.447   3.916   1.081 -0.6768  1.8727  0.0316
 4227SOL     OW24139   2.735   0.001   3.644 -0.8078  0.2925  0.1239
 4227SOL    HW124140   2.653   0.023   3.600 -1.8301 -3.2294  0.2821
 4227SOL    HW224141   2.743   4.634   3.611  1.2105 -0.1502  1.7638
 4228SOL     OW24142   4.069   4.420  16.285 -0.2911 -0.1638 -0.4006
 4228SOL    HW124143   4.104   4.497  16.330  0.7759 -1.0814  0.3657
 4228SOL    HW224144   3.995   4.387  16.336  0.7800  2.2793  2.7963
 4229SOL     OW24145   3.751   1.162  16.858 -0.0150 -0.6823  0.9238
 4229SOL    HW124146   3.737   1.145  16.951  1.5607  0.9840  1.4724
 4229SOL    HW224147   3.745   1.257  16.866  0.4730 -0.4262 -1.5352
 4230SOL     OW24148   1.399   4.185   7.735 -0.7594  0.4972 -0.4245
 4230SOL    HW124149   1.353   4.213   7.814  0.9999  0.1418  0.7175
 4230SOL    HW224150   1.334   4.208   7.669  0.7137 -3.0712 -3.1079
 4231SOL     OW24151   0.700   3.561   1.563  0.0589 -0.2238  0.1538
 4231SOL    HW124152   0.678   3.497   1.632 -1.6943  0.2900  0.0581
 4231SOL    HW224153   0.757   3.513   1.504 -1.0402 -1.8403  0.3921
 4232SOL     OW24154   0.762   3.833   8.773  0.0296  0.0623  0.3704
 4232SOL    HW124155   0.710   3.842   8.693 -0.6889  1.3597  0.9789
 4232SOL    HW224156   0.741   3.906   8.832 -1.5433 -0.8552  0.9476
 4233SOL     OW24157   2.394   4.592  13.155  0.3819  0.5579  0.0282
 4233SOL    HW124158   2.393   4.675  13.203  0.6404  0.2609  0.5452
 4233SOL    HW224159   2.333   4.540  13.207 -1.5439  2.0277 -0.7381
 4234SOL     OW24160   0.218   1.188  16.059  0.0673  0.4391  0.2529
 4234SOL    HW124161   0.301   1.224  16.088 -0.2796  0.9501  0.6152
 4234SOL    HW224162   0.250   1.173  15.970  0.5766  1.7006  0.2263
 4235SOL     OW24163   2.311   4.315   9.223 -0.4302  0.1103 -0.9592
 4235SOL    HW124164   2.374   4.328   9.294  0.5756 -1.7927 -1.5000
 4235SOL    HW224165   2.263   4.243   9.265 -2.4023  2.0015  0.0194
 4236SOL     OW24166   1.412   3.636   7.521  0.3123  0.2585 -0.0521
 4236SOL    HW124167   1.470   3.618   7.595 -0.1903 -0.3303  0.2070
 4236SOL    HW224168   1.388   3.726   7.543 -2.0636 -0.3228 -0.2014
 4237SOL     OW24169   0.925   0.800   6.412 -0.0796  0.0662  0.1726
 4237SOL    HW124170   0.860   0.743   6.371  1.8917 -0.1898 -2.6600
 4237SOL    HW224171   0.995   0.790   6.347  1.3119  0.1438  1.6619
 4238SOL     OW24172   4.021   0.914  17.549  0.1071  0.4268 -0.2782
 4238SOL    HW124173   4.114   0.934  17.548 -0.3198  2.5440  0.4798
 4238SOL    HW224174   3.992   0.971  17.621 -1.1041  1.7611 -1.8153
 4239SOL     OW24175   3.837   0.350   5.099  0.7483 -0.0603  0.3558
 4239SOL    HW124176   3.924   0.347   5.059  1.4793  2.5571  1.7489
 4239SOL    HW224177   3.784   0.295   5.040 -2.5586  1.5428  1.8226
 4240SOL     OW24178   3.469   0.149   7.794 -0.2651 -0.1213  0.3058
 4240SOL    HW124179   3.444   0.063   7.827  0.6897 -0.1681  0.8971
 4240SOL    HW224180   3.382   0.186   7.783 -0.2684 -0.6764 -1.4845
 4241SOL     OW24181   3.938   0.018   4.347 -0.7970  0.2991 -0.1947
 4241SOL    HW124182   3.905   4.674   4.286 -1.3661  0.3472  0.0625
 4241SOL    HW224183   3.864   0.072   4.376 -0.5283  0.1443  0.7622
 4242SOL     OW24184   2.263   3.435   1.385  0.3187 -0.0579  0.1008
 4242SOL    HW124185   2.358   3.434   1.380  0.0846 -1.2712 -4.0919
 4242SOL    HW224186   2.258   3.515   1.438 -0.4789 -0.3847  0.5141
 4243SOL     OW24187   1.930   1.452   3.526  0.2015  0.3305  0.3181
 4243SOL    HW124188   1.980   1.420   3.601  2.4722  2.7229 -0.1544
 4243SOL    HW224189   1.913   1.363   3.495 -2.9291  1.7124 -1.8605
 4244SOL     OW24190   4.668   3.448   1.793  0.3951 -0.0611  0.4357
 4244SOL    HW124191   0.013   3.485   1.735  1.5269 -2.2500  0.3279
 4244SOL    HW224192   4.593   3.496   1.759  1.4764 -0.1620 -2.1342
 4245SOL     OW24193   4.613   0.239  11.182 -0.1098  0.4569 -0.2834
 4245SOL    HW124194   4.634   0.299  11.111  0.6555 -3.1925 -3.1591
 4245SOL    HW224195   4.550   0.181  11.138  1.4605 -0.5897 -1.1371
 4246SOL     OW24196   3.666   1.096   5.239 -0.0708  0.0857 -0.1901
 4246SOL    HW124197   3.712   1.072   5.159 -0.7436  0.2587 -0.6349
 4246SOL    HW224198   3.740   1.120   5.294  0.6439  0.5534 -1.3661
 4247SOL     OW24199   0.101   0.993   4.728 -0.5808 -0.0307 -0.0576
 4247SOL    HW124200   0.094   1.011   4.822 -0.6791  0.1875 -0.1074
 4247SOL    HW224201   0.015   1.029   4.705 -1.2395  0.6499  3.4484
 4248SOL     OW24202   1.961   2.895   3.900  0.4978 -0.1413 -0.0889
 4248SOL    HW124203   1.896   2.919   3.966  0.4302 -3.0284  0.9257
 4248SOL    HW224204   2.044   2.918   3.942  2.2984 -4.0871 -1.4459
 4249SOL     OW24205   2.772   4.279   7.711  0.0668  0.3827 -0.3253
 4249SOL    HW124206   2.769   4.300   7.805 -1.3379  0.1346 -0.3182
 4249SOL    HW224207   2.864   4.261   7.694  0.3861  1.0610  0.6271
 4250SOL     OW24208   3.226   4.076   4.983  0.2801 -0.0661  0.2152
 4250SOL    HW124209   3.260   4.005   5.037  0.3468 -1.8312 -2.1691
 4250SOL    HW224210   3.288   4.069   4.911  2.7412  1.6632  2.1681
 4251SOL     OW24211   1.828   2.522  15.710  0.3971  0.0560 -0.2294
 4251SOL    HW124212   1.832   2.607  15.753  0.7822 -0.8373  1.4723
 4251SOL    HW224213   1.734   2.505  15.703  0.2173  0.4425  1.3142
 4252SOL     OW24214   4.045   3.942  10.876  0.1143  0.3790  0.2266
 4252SOL    HW124215   4.031   3.848  10.888 -3.0479  0.8029 -0.0503
 4252SOL    HW224216   4.051   3.980  10.964  0.4850  1.3411 -0.2097
 4253SOL     OW24217   1.170   2.948   9.267 -0.1272  0.0252 -0.0235
 4253SOL    HW124218   1.152   2.978   9.178  3.4440 -1.1112 -1.1207
 4253SOL    HW224219   1.243   3.008   9.283  0.3138 -0.0166 -1.8116
 4254SOL     OW24220   3.785   1.397  12.945  0.1055 -0.5069 -0.5871
 4254SOL    HW124221   3.706   1.369  12.900 -1.3186  3.4752 -0.5727
 4254SOL    HW224222   3.764   1.484  12.979  1.1404 -0.3517 -0.3493
 4255SOL     OW24223   3.389   1.372  13.162 -0.6174  0.6180 -0.1844
 4255SOL    HW124224   3.298   1.369  13.194 -0.1127  0.4592  1.2573
 4255SOL    HW224225   3.393   1.290  13.112 -2.1091  0.0583  0.5864
 4256SOL     OW24226   1.360   4.626   2.934 -0.2527  0.1574  0.2491
 4256SOL    HW124227   1.310   4.626   2.852 -0.8579 -0.4449  0.6141
 4256SOL    HW224228   1.280   4.610   2.985  0.5669 -0.7957  1.2337
 4257SOL     OW24229   0.323   3.984   7.870 -0.1627 -0.0910 -0.5056
 4257SOL    HW124230   0.386   4.051   7.894 -1.7772  0.4744  2.1252
 4257SOL    HW224231   0.271   3.981   7.950  1.6955  0.2640  0.7118
 4258SOL     OW24232   1.095   4.408   7.106  0.2846  0.1257  0.0575
 4258SOL    HW124233   1.104   4.338   7.171 -0.7297  0.0112  0.0800
 4258SOL    HW224234   1.002   4.403   7.082  1.0123 -2.8843 -2.1665
 4259SOL     OW24235   2.082   3.606   6.605  0.2382  0.4002 -0.2183
 4259SOL    HW124236   2.159   3.553   6.585  0.1073  1.0341 -2.4684
 4259SOL    HW224237   2.026   3.576   6.533  1.7264  0.6225 -1.4863
 4260SOL     OW24238   1.135   4.268   3.731 -0.0482 -0.5053 -0.1371
 4260SOL    HW124239   1.195   4.196   3.748 -0.4492 -0.6895  0.5008
 4260SOL    HW224240   1.143   4.264   3.636 -0.7180  0.4320 -0.2337
 4261SOL     OW24241   3.265   0.816   3.255 -0.2600 -0.0679  0.0455
 4261SOL    HW124242   3.304   0.895   3.217  0.1496 -0.1754  0.2438
 4261SOL    HW224243   3.338   0.787   3.308  0.0469  1.8698  0.7054
 4262SOL     OW24244   3.706   4.474   3.668  0.4831  0.5018  0.1388
 4262SOL    HW124245   3.681   4.439   3.582  1.6330 -0.3707  0.1642
 4262SOL    HW224246   3.652   4.420   3.726  0.5683  1.7910  1.4041
 4263SOL     OW24247   1.586   4.633  14.006  0.3182  0.3126 -0.1559
 4263SOL    HW124248   1.527   4.611  13.933  0.2626  0.7925 -0.2567
 4263SOL    HW224249   1.528   4.681  14.065 -0.6904  1.2136 -1.8399
 4264SOL     OW24250   0.974   2.545   6.495 -0.2318  0.2446 -0.7371
 4264SOL    HW124251   1.017   2.467   6.530 -0.8966 -0.1760 -0.8606
 4264SOL    HW224252   0.934   2.588   6.571 -2.5611 -1.3894 -1.0429
 4265SOL     OW24253   3.077   2.599   9.539  0.0018 -0.1434  0.0732
 4265SOL    HW124254   2.988   2.622   9.564 -0.8926 -1.3604 -1.9302
 4265SOL    HW224255   3.134   2.616   9.614 -0.2099 -0.1816  0.2401
 4266SOL     OW24256   0.126   1.946   6.024 -0.4465 -0.8372 -0.9934
 4266SOL    HW124257   0.099   2.026   5.981  0.5716  1.0403  1.8359
 4266SOL    HW224258   0.210   1.927   5.982  0.8942  0.7969  0.9347
 4267SOL     OW24259   1.161   1.783  15.768 -0.1043  0.1062 -0.5704
 4267SOL    HW124260   1.072   1.757  15.744 -0.4380 -0.4994  1.3344
 4267SOL    HW224261   1.186   1.712  15.826 -1.3793  0.1104 -0.0331
 4268SOL     OW24262   4.077   1.796   3.530  0.4395  0.1022  0.4450
 4268SOL    HW124263   4.082   1.707   3.566  0.7061 -0.2587 -0.4964
 4268SOL    HW224264   4.155   1.832   3.572  0.0563 -2.3100  3.2635
 4269SOL     OW24265   4.249   2.130   7.932  0.4966 -0.1887 -0.2032
 4269SOL    HW124266   4.244   2.039   7.960  0.1491  0.3536  1.5172
 4269SOL    HW224267   4.164   2.133   7.889 -0.4659 -0.2399  1.7024
 4270SOL     OW24268   0.091   4.671  15.861  0.4010  0.2436 -0.1294
 4270SOL    HW124269   0.041   0.026  15.887 -1.1101 -1.2746  1.4984
 4270SOL    HW224270   0.071   4.666  15.768 -1.9732  1.5243  0.3227
 4271SOL     OW24271   2.413   2.482  11.532 -0.2778 -0.0961 -0.2085
 4271SOL    HW124272   2.494   2.432  11.537 -0.5556 -0.4870  0.4083
 4271SOL    HW224273   2.442   2.573  11.530  0.5816 -0.3647 -0.0514
 4272SOL     OW24274   4.632   4.395   6.773 -0.0644 -0.2590  0.0825
 4272SOL    HW124275   4.656   4.434   6.688  1.0968  0.2983  0.6747
 4272SOL    HW224276   4.563   4.334   6.748  0.2285 -0.6101  0.1422
 4273SOL     OW24277   3.090   3.511   8.265 -0.3411 -0.1645 -0.2442
 4273SOL    HW124278   3.084   3.418   8.284 -1.0704 -0.2382 -0.8459
 4273SOL    HW224279   3.151   3.539   8.334  1.1187 -0.0477 -1.5819
 4274SOL     OW24280   1.889   0.608   6.439  0.1274  0.0399 -0.2106
 4274SOL    HW124281   1.924   0.666   6.507 -2.0310  2.6316 -1.3061
 4274SOL    HW224282   1.958   0.542   6.434  1.2828  1.3954 -2.2262
 4275SOL     OW24283   0.969   0.574   8.719 -0.0670  0.6593 -0.4262
 4275SOL    HW124284   0.951   0.644   8.656 -2.3571  0.4656  0.0170
 4275SOL    HW224285   0.898   0.515   8.696 -1.5485  1.6680  1.4889
 4276SOL     OW24286   0.003   2.629  13.284  0.0806 -0.3743  0.1258
 4276SOL    HW124287   0.070   2.661  13.344  0.7831 -0.6989 -0.4837
 4276SOL    HW224288   4.706   2.544  13.324  2.6094 -0.2182  1.6515
 4277SOL     OW24289   1.043   1.168   1.901  0.3134 -0.2307  0.1695
 4277SOL    HW124290   1.069   1.172   1.809 -1.5350  1.7909 -0.2626
 4277SOL    HW224291   0.949   1.152   1.889  0.4259  0.4733 -1.6835
 4278SOL     OW24292   0.519   0.178  17.491  0.3579  0.4263 -0.7151
 4278SOL    HW124293   0.517   0.136  17.405  2.1786  1.7665 -1.4045
 4278SOL    HW224294   0.426   0.179  17.512  1.1987  0.0240  2.9018
 4279SOL     OW24295   3.589   3.392   5.184 -0.7215  0.2466 -0.1120
 4279SOL    HW124296   3.504   3.393   5.226  0.1929 -1.3638  1.7705
 4279SOL    HW224297   3.562   3.344   5.105  2.3861 -1.7495 -0.0028
 4280SOL     OW24298   0.860   2.621  12.458 -0.2323 -0.0456  0.0501
 4280SOL    HW124299   0.845   2.530  12.431 -0.2688  0.0211 -0.1481
 4280SOL    HW224300   0.785   2.675  12.435 -0.2874 -0.6079 -1.0957
 4281SOL     OW24301   1.272   4.649   6.699  0.5081 -0.2287 -0.0755
 4281SOL    HW124302   1.363   4.651   6.728  0.1745 -1.3973  1.0283
 4281SOL    HW224303   1.279   4.613   6.610 -0.5271 -0.0775 -0.2208
 4282SOL     OW24304   0.039   2.028   4.390  0.8369 -0.0144  0.6173
 4282SOL    HW124305   0.039   1.938   4.356  0.5736 -0.4865  1.8785
 4282SOL    HW224306   0.119   2.064   4.351  0.5396  1.1075  1.0560
 4283SOL     OW24307   0.972   2.260   4.710  0.3878  0.1765  0.0032
 4283SOL    HW124308   1.064   2.233   4.709  0.2653 -0.2609  0.5495
 4283SOL    HW224309   0.968   2.301   4.624 -0.7285  1.1196  0.5083
 4284SOL     OW24310   1.164   3.301  11.380  0.1992 -0.1117  0.0374
 4284SOL    HW124311   1.228   3.252  11.433  1.7211  0.8811 -0.8798
 4284SOL    HW224312   1.104   3.329  11.449 -0.8366 -1.5873 -0.2681
 4285SOL     OW24313   1.675   2.111   3.033 -0.3561 -0.1208 -0.0809
 4285SOL    HW124314   1.617   2.045   3.071 -0.9816  0.6576  0.3160
 4285SOL    HW224315   1.645   2.196   3.066  1.0147  0.5343 -0.4818
 4286SOL     OW24316   2.598   3.979  10.842 -0.2638  0.0928  0.4077
 4286SOL    HW124317   2.508   3.975  10.873 -0.7535  0.9210 -0.9046
 4286SOL    HW224318   2.642   3.906  10.886 -2.0023 -1.4004 -0.3376
 4287SOL     OW24319   3.502   2.596  10.666 -0.1866 -0.0274 -0.4158
 4287SOL    HW124320   3.530   2.517  10.620  0.9109 -0.7772  1.5890
 4287SOL    HW224321   3.512   2.656  10.592 -2.8230 -1.3907 -1.8606
 4288SOL     OW24322   1.754   3.731   3.301  0.2015 -0.4347  0.1938
 4288SOL    HW124323   1.741   3.822   3.276  0.6296 -0.4219  0.0061
 4288SOL    HW224324   1.780   3.694   3.217 -0.7709 -0.0757 -0.2622
 4289SOL     OW24325   0.235   0.649   7.449  0.1392 -0.2773 -0.0824
 4289SOL    HW124326   0.303   0.702   7.407 -0.8860  1.9869  1.0892
 4289SOL    HW224327   0.246   0.569   7.398  1.4068 -0.2895  0.2205
 4290SOL     OW24328   1.191   0.534   0.927  0.6091 -0.1420 -0.2706
 4290SOL    HW124329   1.203   0.629   0.934 -1.3683  0.0577  0.5231
 4290SOL    HW224330   1.184   0.531   0.832 -1.9334  2.3391 -0.1701
 4291SOL     OW24331   3.983   2.815  10.197 -0.2278 -0.0447  0.2070
 4291SOL    HW124332   3.991   2.793  10.105 -0.6225  0.6646  0.0090
 4291SOL    HW224333   3.895   2.849  10.208  0.8301  2.7229  0.1182
 4292SOL     OW24334   3.195   2.164  15.200 -0.6432 -0.0712 -0.2552
 4292SOL    HW124335   3.109   2.195  15.172 -0.2538  0.8158 -0.4711
 4292SOL    HW224336   3.211   2.096  15.134 -1.6381  0.9887 -1.5928
 4293SOL     OW24337   1.408   2.640   3.061 -0.7036 -0.3003 -0.4921
 4293SOL    HW124338   1.494   2.637   3.018 -0.2844 -2.8615  0.4919
 4293SOL    HW224339   1.356   2.664   2.985 -1.2676 -0.6748 -0.2283
 4294SOL     OW24340   1.983   0.225  17.308  0.0010  0.4627 -0.2499
 4294SOL    HW124341   1.909   0.179  17.267 -1.1806  1.6777  0.5244
 4294SOL    HW224342   2.030   0.266  17.236  1.9744 -0.0820  0.7331
 4295SOL     OW24343   4.278   2.581  10.473 -0.6221 -0.2346  0.2951
 4295SOL    HW124344   4.221   2.655  10.493 -2.2854 -1.3689 -0.2421
 4295SOL    HW224345   4.246   2.563  10.384 -0.0504 -0.5867  0.1604
 4296SOL     OW24346   0.495   2.081   5.322  0.1337  0.2817  0.0014
 4296SOL    HW124347   0.448   2.014   5.273 -0.5049  0.2575  0.6409
 4296SOL    HW224348   0.578   2.039   5.345  1.1842  1.6535 -1.2724
 4297SOL     OW24349   4.081   2.249   7.250  0.4454  0.4842 -0.8903
 4297SOL    HW124350   4.118   2.272   7.165  0.7348  1.1434 -0.5884
 4297SOL    HW224351   3.992   2.233   7.219  0.7968 -0.2857 -1.5158
 4298SOL     OW24352   4.328   0.153   5.600 -0.3842  0.6672  0.4837
 4298SOL    HW124353   4.276   0.087   5.645  1.6455 -1.6769 -0.6196
 4298SOL    HW224354   4.334   0.220   5.668 -0.7389  0.7747  0.4086
 4299SOL     OW24355   0.910   0.359  10.169  0.0595 -0.5293  0.2953
 4299SOL    HW124356   0.969   0.285  10.158  1.5255  0.6033  0.4274
 4299SOL    HW224357   0.930   0.420  10.098  1.0053 -1.6248 -0.3759
 4300SOL     OW24358   4.446   0.809   3.654 -0.2370  0.4301 -0.0183
 4300SOL    HW124359   4.368   0.758   3.632  0.5708 -1.7468  2.2343
 4300SOL    HW224360   4.440   0.872   3.582  0.9807  2.5954  1.7986
 4301SOL     OW24361   4.388   2.287  13.209  0.1295  0.2423  0.1619
 4301SOL    HW124362   4.371   2.351  13.278  2.7760  2.4055 -1.2240
 4301SOL    HW224363   4.421   2.343  13.139  2.1479 -1.1126  0.0356
 4302SOL     OW24364   3.062   1.596   1.686  0.3468  0.1196 -0.1191
 4302SOL    HW124365   3.044   1.502   1.693  2.9786 -0.3059  1.1083
 4302SOL    HW224366   3.132   1.603   1.752 -0.2661 -1.0600  0.6527
 4303SOL     OW24367   4.228   3.984  12.909  0.4865 -0.6323 -0.7154
 4303SOL    HW124368   4.321   3.971  12.926 -0.1939 -0.2795  3.3041
 4303SOL    HW224369   4.192   3.910  12.956 -0.8158  0.2477 -0.3305
 4304SOL     OW24370   3.112   1.911   5.428 -0.0077  0.2118 -0.0479
 4304SOL    HW124371   3.178   1.966   5.385 -1.4516  1.9892  0.0370
 4304SOL    HW224372   3.091   1.965   5.504 -2.0957  2.4104 -2.2123
 4305SOL     OW24373   1.175   1.920  15.543 -0.1940  0.5556 -0.1029
 4305SOL    HW124374   1.145   1.848  15.488  0.7530 -0.6836  0.9726
 4305SOL    HW224375   1.170   1.875  15.627 -1.3978  0.5933 -0.1648
 4306SOL     OW24376   3.946   4.345  12.885 -0.0743 -0.3053  0.4536
 4306SOL    HW124377   4.037   4.363  12.864  0.2602 -0.9218  1.3986
 4306SOL    HW224378   3.959   4.330  12.978  0.8289  2.0250  0.6919
 4307SOL     OW24379   4.107   3.756   4.805  0.0331  0.1088  0.2497
 4307SOL    HW124380   4.199   3.783   4.807 -0.1159  0.6147  0.2796
 4307SOL    HW224381   4.065   3.840   4.823  1.6615  1.1800 -0.9578
 4308SOL     OW24382   3.525   0.926   5.544 -0.2835 -0.0578  0.6043
 4308SOL    HW124383   3.583   0.923   5.620  2.3923 -0.3333 -1.4643
 4308SOL    HW224384   3.557   0.851   5.494  1.5970 -0.1844  1.9885
 4309SOL     OW24385   1.341   0.376  11.938 -0.6836 -0.0305 -0.5922
 4309SOL    HW124386   1.334   0.472  11.934  0.3227  0.0049 -1.4917
 4309SOL    HW224387   1.279   0.357  12.008 -1.1554  0.3478 -0.9106
 4310SOL     OW24388   0.783   0.366   4.527  0.5875 -0.1784  0.0785
 4310SOL    HW124389   0.848   0.300   4.502 -0.7304 -0.8934 -1.4744
 4310SOL    HW224390   0.700   0.324   4.503  0.7307  0.0437 -0.8136
 4311SOL     OW24391   0.738   0.871  11.885  0.1365  0.1000  0.2599
 4311SOL    HW124392   0.707   0.781  11.896 -2.1690  1.0144  1.1342
 4311SOL    HW224393   0.764   0.887  11.976  2.3623 -0.5389 -0.2549
 4312SOL     OW24394   1.731   1.091   7.053  0.1329  0.4271  0.3083
 4312SOL    HW124395   1.686   1.023   7.004  1.5708 -0.5698  0.3630
 4312SOL    HW224396   1.730   1.055   7.141  3.1568  0.5936  0.4170
 4313SOL     OW24397   0.599   0.899   9.588 -0.4020 -0.2999 -0.4410
 4313SOL    HW124398   0.571   0.888   9.498 -0.9988 -1.0453 -0.1703
 4313SOL    HW224399   0.670   0.835   9.589 -0.2591 -0.1823 -3.4835
 4314SOL     OW24400   0.737   2.639   7.364 -0.5253  0.2051  0.6622
 4314SOL    HW124401   0.745   2.728   7.397  2.8030  1.0864 -2.4504
 4314SOL    HW224402   0.703   2.651   7.275 -0.8551 -1.8469  0.5110
 4315SOL     OW24403   4.003   4.487   8.749  0.1232  0.3355 -0.4369
 4315SOL    HW124404   3.932   4.428   8.774  0.2530  0.9892  1.4558
 4315SOL    HW224405   3.976   4.527   8.666  1.0737  0.4315 -0.6991
 4316SOL     OW24406   1.168   1.117   4.391 -0.0311 -0.1930  0.0814
 4316SOL    HW124407   1.183   1.050   4.324 -4.4006 -1.1446  0.0207
 4316SOL    HW224408   1.181   1.203   4.349 -1.5876  0.2050  0.4065
 4317SOL     OW24409   3.131   0.492  12.300 -0.7105  0.3810  0.7607
 4317SOL    HW124410   3.120   0.445  12.382  3.7543 -1.3077  0.3838
 4317SOL    HW224411   3.184   0.566  12.331 -0.1878  0.4537 -0.3072
 4318SOL     OW24412   3.628   0.032   8.487 -0.3004 -0.0622  0.7803
 4318SOL    HW124413   3.550   0.017   8.434 -0.3192  1.5851  0.3269
 4318SOL    HW224414   3.639   0.127   8.477  1.6033 -0.2533  1.0322
 4319SOL     OW24415   0.125   0.659   2.395 -0.2285  0.7137  0.1176
 4319SOL    HW124416   0.075   0.667   2.314  0.4083 -0.6653 -0.4075
 4319SOL    HW224417   0.189   0.728   2.381 -2.2504  2.4460 -0.5793
 4320SOL     OW24418   4.618   3.164  13.203 -0.2883 -0.4537  0.0455
 4320SOL    HW124419   4.624   3.071  13.182  0.4632 -0.6484  1.1791
 4320SOL    HW224420   4.624   3.161  13.298 -0.0394  1.8564  0.1072
 4321SOL     OW24421   4.273   1.407   5.856 -0.0857  0.2572 -0.5156
 4321SOL    HW124422   4.291   1.424   5.763 -2.9404 -1.1903 -1.3278
 4321SOL    HW224423   4.352   1.448   5.891 -0.4602 -1.1198  1.9460
 4322SOL     OW24424   4.203   0.102   8.755 -0.6576 -0.0632  0.0643
 4322SOL    HW124425   4.255   0.165   8.804 -0.6495 -0.7583  0.9441
 4322SOL    HW224426   4.216   0.126   8.663  0.3144 -1.2968 -0.1099
 4323SOL     OW24427   3.112   4.569   5.360 -0.9537 -0.1277  0.0622
 4323SOL    HW124428   3.159   4.547   5.440 -3.1726 -0.2902  1.3344
 4323SOL    HW224429   3.081   4.655   5.390 -0.2675  0.5410 -1.1176
 4324SOL     OW24430   4.084   4.009   0.857 -0.4502 -0.5466  0.3058
 4324SOL    HW124431   4.094   4.103   0.874  1.4382 -0.6432 -0.3444
 4324SOL    HW224432   4.065   4.019   0.764  1.2935 -0.9620 -0.0790
 4325SOL     OW24433   2.757   0.505   3.645 -0.6138  0.3406  0.2640
 4325SOL    HW124434   2.808   0.452   3.706  1.0992  0.7673 -0.7855
 4325SOL    HW224435   2.816   0.575   3.619  0.5799  0.0827  2.3219
 4326SOL     OW24436   0.508   2.202   7.854  0.2477 -0.0936  0.0961
 4326SOL    HW124437   0.468   2.254   7.924  0.8985  0.6650 -0.1054
 4326SOL    HW224438   0.549   2.130   7.902 -0.2413 -1.6865 -1.8724
 4327SOL     OW24439   0.398   3.472   1.182 -0.0740  0.0267 -0.0936
 4327SOL    HW124440   0.304   3.456   1.191 -0.0360 -1.5088 -2.3958
 4327SOL    HW224441   0.416   3.495   1.273  0.0870 -1.9362  0.3710
 4328SOL     OW24442   3.917   2.060   5.966  0.1211 -0.2630  0.9765
 4328SOL    HW124443   3.998   2.010   5.958 -0.1497 -0.5451 -0.0590
 4328SOL    HW224444   3.907   2.087   5.874 -0.0217 -0.4524  0.9367
 4329SOL     OW24445   4.547   3.564  11.470 -0.3384 -0.1314 -0.0313
 4329SOL    HW124446   4.513   3.545  11.558 -0.2945 -2.2597 -0.4819
 4329SOL    HW224447   4.488   3.629  11.433  1.2842  0.9225 -0.7308
 4330SOL     OW24448   2.342   0.585   5.845 -0.1171  0.5107 -0.3529
 4330SOL    HW124449   2.328   0.493   5.869 -0.7711  0.3127 -1.4915
 4330SOL    HW224450   2.306   0.592   5.757 -2.6672  3.4218  0.9152
 4331SOL     OW24451   2.765   4.161  15.332  0.1848  0.1031  0.1467
 4331SOL    HW124452   2.686   4.195  15.290 -0.1277 -0.5771  0.1796
 4331SOL    HW224453   2.786   4.235  15.389 -0.4709  0.5401 -0.1915
 4332SOL     OW24454   1.231   3.847  11.660 -0.0593  0.0816 -0.2755
 4332SOL    HW124455   1.193   3.762  11.680 -2.0002  0.3461 -2.8121
 4332SOL    HW224456   1.169   3.877  11.594  2.6234  2.3479 -1.8018
 4333SOL     OW24457   0.783   4.139  12.603  0.1354 -0.5968  0.3596
 4333SOL    HW124458   0.845   4.158  12.673 -2.5009 -2.0151  3.0776
 4333SOL    HW224459   0.714   4.093  12.651  0.3671 -2.4260 -1.0494
 4334SOL     OW24460   0.542   0.014   4.069 -0.0663  0.0368  0.3451
 4334SOL    HW124461   0.584   4.704   4.148  0.3226  1.2781  0.6352
 4334SOL    HW224462   0.591   0.087   4.033  1.3736 -1.0684  0.0809
 4335SOL     OW24463   3.595   0.288   7.594  0.0255  0.4986 -0.2447
 4335SOL    HW124464   3.527   0.290   7.661  0.9652 -1.6778  0.7741
 4335SOL    HW224465   3.645   0.368   7.609  0.3141  0.3186 -0.2541
 4336SOL     OW24466   0.318   3.788  14.848 -0.3660  0.1030 -0.5523
 4336SOL    HW124467   0.253   3.718  14.846 -2.2180  1.8301 -0.8984
 4336SOL    HW224468   0.275   3.863  14.805 -2.1429  0.4500  1.8272
 4337SOL     OW24469   1.763   4.623   0.102 -0.2524 -0.6262 -0.4490
 4337SOL    HW124470   1.725   4.620   0.014  0.9636 -1.8983 -0.9123
 4337SOL    HW224471   1.834   4.686   0.088 -0.7186 -0.1573 -0.7389
 4338SOL     OW24472   2.084   1.637   0.582  0.1907  0.3131  0.3184
 4338SOL    HW124473   1.997   1.676   0.585  0.5200  1.0470  0.2872
 4338SOL    HW224474   2.133   1.696   0.639 -1.1021  1.4638  0.2208
 4339SOL     OW24475   2.208   2.817   7.642 -0.3747  0.0834 -0.0946
 4339SOL    HW124476   2.149   2.883   7.678  0.0883  0.1801  0.4944
 4339SOL    HW224477   2.181   2.827   7.551 -0.8127 -0.3068 -0.0090
 4340SOL     OW24478   1.397   3.859   3.111  0.2319  0.2472 -0.4759
 4340SOL    HW124479   1.400   3.868   3.016 -0.0254 -2.8292 -0.7699
 4340SOL    HW224480   1.486   3.828   3.129  1.6406  3.0902 -2.6503
 4341SOL     OW24481   3.152   3.914   5.484  0.0008 -0.3767 -0.1747
 4341SOL    HW124482   3.059   3.932   5.498 -0.4407 -2.6605 -0.1921
 4341SOL    HW224483   3.167   3.985   5.422  1.2713 -0.3025  0.2306
 4342SOL     OW24484   3.042   1.864  14.007 -0.1575  0.0526 -0.1912
 4342SOL    HW124485   3.124   1.826  14.038 -0.7360  0.4444  1.8109
 4342SOL    HW224486   2.997   1.783  13.986  0.5821 -0.0676 -1.3022
 4343SOL     OW24487   3.007   2.032   8.374  0.1653  0.2055 -0.1178
 4343SOL    HW124488   2.944   1.960   8.370  1.1756 -0.7185  0.6933
 4343SOL    HW224489   3.032   2.031   8.282  2.0167 -1.3696  0.3892
 4344SOL     OW24490   0.117   0.921   2.921  0.1479  0.2991  0.1453
 4344SOL    HW124491   0.027   0.952   2.911  0.9395  2.4684 -0.1949
 4344SOL    HW224492   0.159   0.977   2.856 -1.9957  1.1150 -0.5321
 4345SOL     OW24493   1.264   3.509  15.253  0.0981 -0.2110  0.2120
 4345SOL    HW124494   1.197   3.561  15.209 -0.6516  0.4628  2.1214
 4345SOL    HW224495   1.345   3.544  15.215  0.7116 -0.1730  1.5459
 4346SOL     OW24496   3.112   4.260   7.801  0.2334 -0.1701  0.1113
 4346SOL    HW124497   3.155   4.308   7.730 -0.2482  0.1393  0.0248
 4346SOL    HW224498   3.183   4.252   7.864  0.6464  3.1992  0.1098
 4347SOL     OW24499   1.243   1.564   2.167 -0.5046  0.6746 -1.0440
 4347SOL    HW124500   1.306   1.586   2.235 -0.9228  0.6720 -0.6534
 4347SOL    HW224501   1.183   1.639   2.161 -0.2894  0.9153 -0.1129
 4348SOL     OW24502   3.381   2.699   4.532 -0.4085  0.4301  0.1931
 4348SOL    HW124503   3.381   2.685   4.438  1.3414 -0.5986  0.3636
 4348SOL    HW224504   3.382   2.612   4.572  2.3537  0.0597 -0.7058
 4349SOL     OW24505   1.859   4.314   8.042  0.4490  0.0249  0.1257
 4349SOL    HW124506   1.937   4.299   7.988 -1.7085  0.5558 -3.0959
 4349SOL    HW224507   1.815   4.370   7.978 -0.0370 -1.5025 -0.8696
 4350SOL     OW24508   2.093   3.722  10.697 -0.2372  0.2773  0.5809
 4350SOL    HW124509   2.060   3.726  10.786 -1.8215 -1.9163  0.0939
 4350SOL    HW224510   2.016   3.700  10.645  2.3588 -2.2554 -2.1718
 4351SOL     OW24511   2.229   2.909  16.784 -0.2413 -0.2657  0.1111
 4351SOL    HW124512   2.267   2.862  16.859  0.6219  0.7510  0.3172
 4351SOL    HW224513   2.140   2.878  16.799 -0.3510 -0.2961 -0.6386
 4352SOL     OW24514   0.920   2.989  11.539  0.1542  1.0692  0.1521
 4352SOL    HW124515   0.877   2.992  11.624  0.4490 -2.0870  0.3825
 4352SOL    HW224516   0.977   2.913  11.552 -0.6492 -0.1732 -3.5241
 4353SOL     OW24517   1.435   3.440  13.808 -0.3540  0.2252  0.6370
 4353SOL    HW124518   1.450   3.346  13.821 -2.2935  0.2347  3.0335
 4353SOL    HW224519   1.521   3.472  13.835  0.7233  0.5106 -3.2001
 4354SOL     OW24520   3.859   3.666  16.536 -0.7188 -0.1954 -0.1142
 4354SOL    HW124521   3.940   3.717  16.527 -1.1857  0.5486 -0.1204
 4354SOL    HW224522   3.799   3.718  16.483 -0.6544 -0.1145 -0.1078
 4355SOL     OW24523   2.718   3.248   6.292 -0.3609 -0.0458 -0.0297
 4355SOL    HW124524   2.718   3.248   6.388 -2.0093 -2.2590 -0.0362
 4355SOL    HW224525   2.688   3.162   6.264  1.7126 -0.4410 -1.0106
 4356SOL     OW24526   3.603   0.961   6.711  0.4080  0.5593  0.4490
 4356SOL    HW124527   3.674   0.949   6.773 -0.7149  1.5455  1.9311
 4356SOL    HW224528   3.640   1.024   6.648 -2.7314  1.4787 -0.5205
 4357SOL     OW24529   4.179   4.223   8.754 -0.3056  0.2665 -0.1940
 4357SOL    HW124530   4.237   4.232   8.830  0.9119 -2.1942 -0.8087
 4357SOL    HW224531   4.194   4.312   8.724 -0.9730  1.1928  2.1895
 4358SOL     OW24532   2.124   0.331   7.280  0.3472  0.2253 -0.2753
 4358SOL    HW124533   2.194   0.295   7.225  0.4410 -1.2880  0.8168
 4358SOL    HW224534   2.047   0.309   7.228  1.1685 -0.7628 -1.0710
 4359SOL     OW24535   2.182   0.162   6.486  0.1177 -0.6476  0.3038
 4359SOL    HW124536   2.106   0.115   6.521 -0.7780  0.0709 -0.6752
 4359SOL    HW224537   2.215   0.099   6.422 -0.0646 -0.9680  0.5235
 4360SOL     OW24538   4.592   3.924   7.411  0.0798 -0.4476 -0.2407
 4360SOL    HW124539   4.512   3.904   7.459  2.3283 -2.3324  2.6661
 4360SOL    HW224540   4.568   3.915   7.319 -0.8354 -1.4419  0.0952
 4361SOL     OW24541   3.488   2.191   6.878 -0.1781  0.2724  0.3789
 4361SOL    HW124542   3.394   2.196   6.899 -0.1900 -2.3978  0.9689
 4361SOL    HW224543   3.528   2.214   6.962  2.6296 -0.2497 -0.8356
 4362SOL     OW24544   3.883   3.257   9.139  0.1560 -0.2282 -0.1515
 4362SOL    HW124545   3.936   3.336   9.143 -0.2088 -0.0948  1.9779
 4362SOL    HW224546   3.944   3.199   9.094  0.5726 -0.0629  0.2066
 4363SOL     OW24547   1.068   2.096   6.248  0.1267 -0.7246  0.5926
 4363SOL    HW124548   1.151   2.061   6.215 -0.5441 -0.8919 -0.9400
 4363SOL    HW224549   1.061   2.169   6.187  2.2486 -0.7734  0.2613
 4364SOL     OW24550   3.752   3.229   0.890  0.1993  0.5625 -0.2471
 4364SOL    HW124551   3.775   3.314   0.930 -0.3310  1.0693 -1.0157
 4364SOL    HW224552   3.716   3.178   0.963 -0.6494  1.1449 -0.2480
 4365SOL     OW24553   3.667   1.385   3.206  0.6632  0.0807  0.0398
 4365SOL    HW124554   3.629   1.406   3.120 -1.8752  2.6530  1.7690
 4365SOL    HW224555   3.585   1.370   3.253  0.9033  0.1260  0.4715
 4366SOL     OW24556   2.584   0.978   3.876  0.2733  0.5302 -0.0735
 4366SOL    HW124557   2.606   0.888   3.900  2.3564  0.6872 -1.3463
 4366SOL    HW224558   2.673   1.014   3.886  0.3068 -0.0138  1.6398
 4367SOL     OW24559   1.007   0.073   8.157 -0.5996 -0.1404  0.1600
 4367SOL    HW124560   1.041   0.011   8.222 -2.7855  1.2291  2.6308
 4367SOL    HW224561   1.061   0.151   8.170 -1.0591  0.4215 -1.3401
 4368SOL     OW24562   4.055   2.307  10.118  0.4444  0.6786  0.1435
 4368SOL    HW124563   4.120   2.374  10.136 -1.0211  2.3005 -0.6106
 4368SOL    HW224564   4.109   2.229  10.110  0.4657  0.5296  1.5935
 4369SOL     OW24565   4.623   1.013   0.772 -0.2666 -0.1915  0.1374
 4369SOL    HW124566   4.595   1.102   0.791  2.1851  0.3531  1.0883
 4369SOL    HW224567   4.700   1.005   0.827 -0.3169  0.6176  0.3181
 4370SOL     OW24568   2.927   0.318   4.442  0.2718 -0.2124  0.2515
 4370SOL    HW124569   2.964   0.240   4.400  2.0464  1.3063 -0.9877
 4370SOL    HW224570   2.877   0.288   4.518  0.6167 -1.0834  0.1304
 4371SOL     OW24571   1.738   0.393   3.495  0.1946 -0.0297  0.6268
 4371SOL    HW124572   1.701   0.333   3.430  1.1479  2.5579 -2.2746
 4371SOL    HW224573   1.804   0.330   3.524 -0.7812 -1.4263 -0.1517
 4372SOL     OW24574   2.088   0.655   6.672 -0.3917  0.1931 -0.1453
 4372SOL    HW124575   2.097   0.618   6.759 -0.4684  1.0408  0.2283
 4372SOL    HW224576   2.180   0.675   6.658 -0.2356 -0.6637 -0.3462
 4373SOL     OW24577   3.568   4.100  13.207  0.0604 -0.0933 -0.3505
 4373SOL    HW124578   3.554   4.185  13.248  0.3592  0.0013 -0.4432
 4373SOL    HW224579   3.637   4.116  13.143  0.1612  0.1829 -0.1756
 4374SOL     OW24580   2.344   3.443   4.663  0.4580  0.2028 -0.5424
 4374SOL    HW124581   2.273   3.385   4.692  0.5278 -0.2884 -1.3491
 4374SOL    HW224582   2.319   3.458   4.572 -1.2173 -0.9980 -0.2885
 4375SOL     OW24583   1.721   4.709   5.790  0.0529  0.0153 -0.0818
 4375SOL    HW124584   1.631   0.007   5.813  0.1237  0.8897 -0.5695
 4375SOL    HW224585   1.752   4.662   5.868  2.2223 -1.1916 -1.6418
 4376SOL     OW24586   0.209   1.356   4.950  0.3409 -0.2050 -0.2458
 4376SOL    HW124587   0.198   1.421   4.881 -0.6333 -0.6017 -0.4672
 4376SOL    HW224588   0.292   1.395   4.978 -1.2361  2.9621  0.1020
 4377SOL     OW24589   3.857   3.571   3.057  0.3981  0.2609 -0.0193
 4377SOL    HW124590   3.826   3.579   2.967  1.0017  0.1189 -0.2391
 4377SOL    HW224591   3.779   3.540   3.103  1.5146 -1.4379  0.7104
 4378SOL     OW24592   1.276   1.497   8.145  1.2482 -0.2945 -0.1929
 4378SOL    HW124593   1.351   1.472   8.091  2.0895 -1.5533  1.5871
 4378SOL    HW224594   1.267   1.421   8.202 -0.9682 -0.8481 -1.2654
 4379SOL     OW24595   4.458   2.330  14.693 -0.0495  0.1239 -0.0371
 4379SOL    HW124596   4.536   2.334  14.747 -1.2009 -0.0125  1.6387
 4379SOL    HW224597   4.423   2.419  14.700 -0.5997 -0.0904 -0.0658
 4380SOL     OW24598   1.660   0.828   8.119  0.4949 -0.0406  0.3148
 4380SOL    HW124599   1.635   0.766   8.188 -1.9419 -1.0525 -1.4951
 4380SOL    HW224600   1.739   0.869   8.155 -0.7329  2.7806 -0.1939
 4381SOL     OW24601   0.895   4.695  11.715  0.4855  0.1720 -0.0573
 4381SOL    HW124602   0.941   0.028  11.778  2.3675  1.3862 -2.4827
 4381SOL    HW224603   0.843   0.039  11.668  0.8527  0.0885 -0.5854
 4382SOL     OW24604   2.341   4.395   3.934  0.0483  0.2596 -0.2050
 4382SOL    HW124605   2.348   4.305   3.902  2.5556  0.1630  0.6741
 4382SOL    HW224606   2.265   4.416   3.878 -0.8145 -0.5030  0.6844
 4383SOL     OW24607   0.731   2.899   5.134  0.0409  0.5283  0.4518
 4383SOL    HW124608   0.651   2.920   5.183  0.7938  1.8789  1.0777
 4383SOL    HW224609   0.703   2.889   5.043  0.9883 -1.0633  0.3348
 4384SOL     OW24610   2.342   1.181   5.041 -0.3550  0.1274  0.2645
 4384SOL    HW124611   2.386   1.263   5.021  0.2914 -0.2522  0.1313
 4384SOL    HW224612   2.249   1.202   5.055 -0.2133  0.9623 -0.0378
 4385SOL     OW24613   1.174   0.301   8.144  0.1525 -0.0635  0.5906
 4385SOL    HW124614   1.221   0.374   8.103  1.4275 -1.4860 -0.4816
 4385SOL    HW224615   1.231   0.229   8.119  0.2050 -0.6248  2.2945
 4386SOL     OW24616   1.096   2.835   0.562  0.3099 -1.0149 -0.5833
 4386SOL    HW124617   1.130   2.816   0.474  0.9893 -0.9085 -0.3445
 4386SOL    HW224618   1.002   2.833   0.541  0.4184 -2.3554 -0.9156
 4387SOL     OW24619   0.965   2.343   4.458  0.0191 -0.5897  0.3356
 4387SOL    HW124620   0.870   2.340   4.446  0.1541  0.6147 -1.0548
 4387SOL    HW224621   0.988   2.433   4.434 -1.7393  0.1518  1.4342
 4388SOL     OW24622   2.854   2.122   5.253 -0.0685 -0.1677  0.1189
 4388SOL    HW124623   2.881   2.169   5.332  2.0603 -0.6813 -0.3158
 4388SOL    HW224624   2.809   2.191   5.204 -0.3494 -1.4085 -1.3608
 4389SOL     OW24625   3.925   2.438   2.322 -0.0989 -0.2217  0.4124
 4389SOL    HW124626   3.849   2.422   2.266 -0.1809  1.3564  0.0573
 4389SOL    HW224627   3.910   2.383   2.399  0.7805 -1.4671 -0.3142
 4390SOL     OW24628   2.208   1.135   8.705 -0.5190 -0.6754 -0.1847
 4390SOL    HW124629   2.260   1.164   8.780 -2.4536 -2.8802  2.0322
 4390SOL    HW224630   2.129   1.105   8.751 -0.9752  1.0945  0.1621
 4391SOL     OW24631   1.453   2.217  17.603 -0.3472  0.1931 -0.2637
 4391SOL    HW124632   1.506   2.157  17.550 -1.0979 -0.7865  0.1080
 4391SOL    HW224633   1.371   2.170  17.616 -0.6226 -0.0950 -2.9182
 4392SOL     OW24634   2.171   3.005  13.712 -0.4216  0.3064  0.8659
 4392SOL    HW124635   2.210   3.057  13.782  0.9958 -0.1198  0.3902
 4392SOL    HW224636   2.109   2.961  13.770  0.5113  1.7655  2.9841
 4393SOL     OW24637   4.630   3.621  10.585  0.1061 -0.1288 -0.6421
 4393SOL    HW124638   4.681   3.697  10.612  1.2338 -1.3494  0.5954
 4393SOL    HW224639   4.558   3.628  10.649  2.0082  0.6635  1.4104
 4394SOL     OW24640   3.866   0.319   0.360 -0.0407 -0.6580 -0.2904
 4394SOL    HW124641   3.865   0.413   0.377 -3.2508 -0.6130 -0.6133
 4394SOL    HW224642   3.924   0.282   0.426 -1.6498  0.5729  1.8372
 4395SOL     OW24643   2.700   1.649   4.958 -0.2676  0.1158  0.3258
 4395SOL    HW124644   2.661   1.703   5.026 -2.4771 -1.8522  0.6351
 4395SOL    HW224645   2.758   1.716   4.922  0.6957 -1.4447 -1.0413
 4396SOL     OW24646   0.084   2.173   1.753 -0.7219 -0.1742 -0.0231
 4396SOL    HW124647   0.157   2.148   1.696 -2.2110 -2.3152 -1.0185
 4396SOL    HW224648   0.121   2.150   1.838  1.4489  0.3457 -0.8387
 4397SOL     OW24649   4.183   1.252   7.130  0.6952  0.2310 -0.1400
 4397SOL    HW124650   4.189   1.325   7.069 -0.0056 -0.1253 -0.6266
 4397SOL    HW224651   4.270   1.268   7.168 -0.0281 -1.4649  2.2145
 4398SOL     OW24652   4.051   3.251  13.453 -0.1921 -0.5032  0.0732
 4398SOL    HW124653   4.057   3.297  13.370 -0.1076 -0.3533  0.1630
 4398SOL    HW224654   4.097   3.168  13.439  1.1449  0.2647 -0.1025
 4399SOL     OW24655   1.353   1.777   7.776  0.1246 -0.6722  0.4056
 4399SOL    HW124656   1.274   1.766   7.830  0.9450 -1.6863  1.4185
 4399SOL    HW224657   1.390   1.688   7.778  0.4601 -0.5541 -0.6822
 4400SOL     OW24658   4.127   4.236   7.120  0.2771 -0.3337 -0.1920
 4400SOL    HW124659   4.194   4.267   7.181 -0.4309 -1.4076  1.1008
 4400SOL    HW224660   4.050   4.218   7.173  0.0324  1.7274  0.1763
 4401SOL     OW24661   2.162   3.019  11.989 -0.4012  0.3143 -0.5115
 4401SOL    HW124662   2.109   2.941  11.975  0.4963 -0.5740  1.0224
 4401SOL    HW224663   2.246   2.991  11.954 -0.6113  0.4669 -1.1443
 4402SOL     OW24664   4.628   2.808   8.460  0.0259 -0.9557  1.0391
 4402SOL    HW124665   4.687   2.883   8.450 -0.2331 -0.6435  1.8717
 4402SOL    HW224666   4.692   2.739   8.475  0.1741 -1.2732 -1.0127
 4403SOL     OW24667   2.986   2.816   9.066 -0.6814 -0.2013  0.9456
 4403SOL    HW124668   2.984   2.911   9.078 -2.0582 -0.6011  3.9146
 4403SOL    HW224669   2.928   2.784   9.135 -0.9034 -3.9150 -0.9990
 4404SOL     OW24670   0.095   0.993   4.987 -0.1970 -0.1584  0.0667
 4404SOL    HW124671   0.107   0.903   5.018  0.1018  0.4049  1.6064
 4404SOL    HW224672   0.123   1.048   5.061  0.7636  0.8355 -1.0423
 4405SOL     OW24673   3.401   1.092   9.305 -0.1804  0.0482 -0.6279
 4405SOL    HW124674   3.335   1.153   9.272 -0.8969  1.4681  3.3872
 4405SOL    HW224675   3.465   1.156   9.335  0.2967 -1.8083  2.3447
 4406SOL     OW24676   3.316   3.453   5.269  0.1024  0.1695 -0.1271
 4406SOL    HW124677   3.226   3.428   5.248 -0.6763  0.1291  3.2396
 4406SOL    HW224678   3.301   3.543   5.297  1.6674  0.6483 -0.8570
 4407SOL     OW24679   0.126   1.344   2.156 -0.4455 -0.2491 -0.5971
 4407SOL    HW124680   0.123   1.431   2.194 -2.3228 -0.8622  0.6594
 4407SOL    HW224681   0.044   1.303   2.184  0.4423 -2.4881 -1.2739
 4408SOL     OW24682   3.510   2.515   7.853  0.3987  0.0745 -0.4971
 4408SOL    HW124683   3.415   2.506   7.864  0.6935 -0.5470  1.4456
 4408SOL    HW224684   3.547   2.458   7.920 -1.3839  1.4248  1.6182
 4409SOL     OW24685   0.209   0.936   6.959  0.2723  0.1996 -0.8681
 4409SOL    HW124686   0.185   1.002   6.894  2.4021  0.0846 -1.7684
 4409SOL    HW224687   0.301   0.958   6.978 -0.1920  0.2136  1.3269
 4410SOL     OW24688   3.213   0.553   0.994 -0.0311  0.1424 -0.0860
 4410SOL    HW124689   3.291   0.521   1.038  1.0787  0.9693 -1.4691
 4410SOL    HW224690   3.141   0.556   1.058  0.1465 -2.9178  0.2708
 4411SOL     OW24691   0.356   1.308   9.753 -0.5663  0.1950 -0.5202
 4411SOL    HW124692   0.350   1.216   9.779 -0.9770  0.5897  0.7769
 4411SOL    HW224693   0.335   1.295   9.660 -1.2109 -0.3158 -0.3028
 4412SOL     OW24694   0.110   2.427   8.365  0.2921  0.0862 -0.3211
 4412SOL    HW124695   0.151   2.494   8.310 -1.1638  0.6231 -0.7454
 4412SOL    HW224696   0.062   2.374   8.302  0.3412  0.9697 -1.1111
 4413SOL     OW24697   0.311   3.795   8.975  0.4293 -0.0005  0.2452
 4413SOL    HW124698   0.384   3.783   9.035  0.8637 -0.9574 -0.4939
 4413SOL    HW224699   0.248   3.730   9.007 -1.3509  1.9799  0.8063
 4414SOL     OW24700   0.304   1.041  12.797  0.2604  0.3961  0.2958
 4414SOL    HW124701   0.328   0.963  12.848 -1.1324 -0.4918 -0.4033
 4414SOL    HW224702   0.349   1.021  12.715 -1.8111 -2.5728 -0.1174
 4415SOL     OW24703   3.080   3.835   2.723  0.2707 -0.5380  0.2761
 4415SOL    HW124704   3.027   3.770   2.677 -1.6518  0.6363  0.8215
 4415SOL    HW224705   3.122   3.869   2.644  0.9249 -0.1898  0.7740
 4416SOL     OW24706   2.965   4.205   8.811 -0.0720  0.4110 -0.0981
 4416SOL    HW124707   2.988   4.152   8.887 -0.5168 -1.5354 -1.3117
 4416SOL    HW224708   3.045   4.202   8.757  0.1416 -3.6176  0.4624
 4417SOL     OW24709   4.690   2.552   9.361  0.6338  0.2513 -0.0393
 4417SOL    HW124710   0.048   2.509   9.391  0.1879 -0.3120  0.3319
 4417SOL    HW224711   4.624   2.482   9.361  0.0422  0.8029 -0.6812
 4418SOL     OW24712   3.563   2.456  12.288  1.0386 -0.0274 -0.5078
 4418SOL    HW124713   3.474   2.447  12.252  1.3961  1.0546 -1.6554
 4418SOL    HW224714   3.550   2.456  12.383  0.4993  0.3956 -0.5783
 4419SOL     OW24715   3.376   1.019   6.855 -0.3170 -0.5987  0.0999
 4419SOL    HW124716   3.451   0.967   6.826  0.4505  0.4650  0.1783
 4419SOL    HW224717   3.380   1.091   6.792  0.5382 -1.0133 -0.3152
 4420SOL     OW24718   2.157   3.079   3.159 -0.0158 -0.3426 -0.3720
 4420SOL    HW124719   2.229   3.139   3.140  1.8999 -2.4412  0.3254
 4420SOL    HW224720   2.156   3.032   3.076 -1.0239  0.5930 -0.8962
 4421SOL     OW24721   0.654   1.344   3.776 -0.3879 -0.0982  1.0047
 4421SOL    HW124722   0.587   1.285   3.810 -0.3427 -0.4084  0.5492
 4421SOL    HW224723   0.725   1.282   3.763 -1.8213 -1.6157  0.4420
 4422SOL     OW24724   3.450   1.128  10.552 -0.0898  0.6622 -0.0356
 4422SOL    HW124725   3.535   1.143  10.593 -0.5205  2.5427  0.1847
 4422SOL    HW224726   3.451   1.203  10.492 -2.8567  0.6769 -0.1045
 4423SOL     OW24727   4.034   4.450   7.948 -0.3063  0.2531 -0.4060
 4423SOL    HW124728   4.077   4.505   8.014 -1.5875  2.6275 -1.5859
 4423SOL    HW224729   3.962   4.411   7.997  0.3355 -0.8497 -0.3355
 4424SOL     OW24730   3.546   4.024   3.564 -0.3151  0.0528 -0.0270
 4424SOL    HW124731   3.472   4.061   3.517 -1.1415  0.0658  1.2795
 4424SOL    HW224732   3.543   3.933   3.535 -3.1173  0.0403  0.2846
 4425SOL     OW24733   3.045   2.170  14.799  0.9219  0.0826 -0.0011
 4425SOL    HW124734   2.966   2.148  14.749  0.0464 -0.1174  1.4624
 4425SOL    HW224735   3.070   2.247  14.749 -1.7359 -0.6925 -2.5415
 4426SOL     OW24736   2.134   4.172   1.385  0.1189  0.1057 -0.5688
 4426SOL    HW124737   2.091   4.240   1.333 -1.6548  0.6533  1.6086
 4426SOL    HW224738   2.069   4.177   1.455 -1.5860 -0.3500 -2.1154
 4427SOL     OW24739   0.721   3.774   2.586  0.1750 -1.0586 -0.2820
 4427SOL    HW124740   0.661   3.828   2.638 -0.4015 -0.8400 -1.1694
 4427SOL    HW224741   0.662   3.708   2.550  1.1905 -1.3539 -1.3941
 4428SOL     OW24742   2.405   2.333  13.705  0.0679 -0.2909 -0.0878
 4428SOL    HW124743   2.402   2.301  13.795 -0.2734 -0.9725 -0.3337
 4428SOL    HW224744   2.447   2.418  13.715 -1.2202  0.2648  0.5335
 4429SOL     OW24745   1.146   1.037   6.961 -0.2420 -0.5346  0.2110
 4429SOL    HW124746   1.184   0.963   6.915  1.4443 -0.6802  1.8397
 4429SOL    HW224747   1.221   1.071   7.010  0.5285 -0.4620 -1.0275
 4430SOL     OW24748   2.014   3.164  14.199  0.1683 -0.2782 -0.0398
 4430SOL    HW124749   2.001   3.148  14.106  1.2697  0.6604 -0.3519
 4430SOL    HW224750   2.101   3.127  14.219  0.5752  0.5109 -0.3491
 4431SOL     OW24751   3.733   4.586   7.544 -0.2946  0.0573 -0.5544
 4431SOL    HW124752   3.779   4.516   7.590 -2.3080  0.4336  2.0549
 4431SOL    HW224753   3.779   4.601   7.462 -0.0071  0.2277 -0.3605
 4432SOL     OW24754   1.704   3.325  13.685  0.5609  0.2831  0.3740
 4432SOL    HW124755   1.741   3.260  13.624  1.0712  0.1857  0.7891
 4432SOL    HW224756   1.624   3.286  13.720  0.8989  1.6825  2.6425
 4433SOL     OW24757   2.914   2.476   2.182 -0.2886  0.2408 -0.3787
 4433SOL    HW124758   3.004   2.477   2.148 -0.3152  1.2306 -0.4084
 4433SOL    HW224759   2.870   2.452   2.100  0.8094  1.0471 -1.2026
 4434SOL     OW24760   3.558   2.259  10.648  0.2654  0.4382 -0.1019
 4434SOL    HW124761   3.635   2.206  10.668 -0.3101  0.2549  1.5761
 4434SOL    HW224762   3.590   2.322  10.583  3.0886 -0.0612  0.8105
 4435SOL     OW24763   3.870   4.295   4.840  0.0044  0.2839  0.6765
 4435SOL    HW124764   3.884   4.202   4.820 -1.8115 -0.6172  3.5502
 4435SOL    HW224765   3.798   4.318   4.781  0.4542  0.1031  0.0606
 4436SOL     OW24766   2.509   2.589   3.497  0.3701 -0.0627  0.2785
 4436SOL    HW124767   2.483   2.657   3.560  0.0798 -0.3435  0.4620
 4436SOL    HW224768   2.540   2.639   3.422 -1.0053 -0.3883 -0.5021
 4437SOL     OW24769   1.579   4.705   5.258 -0.5621  0.0965  0.4335
 4437SOL    HW124770   1.559   4.631   5.316  1.7038  0.0369  1.1364
 4437SOL    HW224771   1.572   0.056   5.319  1.1522 -0.1445  0.9258
 4438SOL     OW24772   4.217   3.871   3.322  0.3805  0.3263  0.3210
 4438SOL    HW124773   4.146   3.910   3.373 -0.7727 -2.2266  0.7134
 4438SOL    HW224774   4.171   3.788   3.307  1.6418 -0.6253  1.6448
 4439SOL     OW24775   4.130   3.713   2.108 -0.2869 -0.2433  0.4321
 4439SOL    HW124776   4.110   3.642   2.170  0.3003 -2.0277 -1.4441
 4439SOL    HW224777   4.095   3.672   2.029  1.3670  0.3661 -0.6113
 4440SOL     OW24778   1.213   0.816   5.930  0.2123 -0.3891  0.1404
 4440SOL    HW124779   1.157   0.894   5.934  1.0087  0.2649 -1.5685
 4440SOL    HW224780   1.255   0.807   6.015  1.8409 -1.1580 -0.7468
 4441SOL     OW24781   3.399   3.649  10.463 -0.1238 -0.1626 -0.1867
 4441SOL    HW124782   3.336   3.692  10.405 -0.7557 -0.7995  0.0278
 4441SOL    HW224783   3.384   3.558  10.438  0.1399 -0.6256  1.3607
 4442SOL     OW24784   0.715   0.668   6.652 -0.4007 -1.0397 -0.1139
 4442SOL    HW124785   0.641   0.612   6.629 -2.1104  0.9784  0.5029
 4442SOL    HW224786   0.780   0.651   6.584  2.2433  1.7607  1.7356
 4443SOL     OW24787   2.344   2.701   8.620  0.0699 -0.1626  0.0937
 4443SOL    HW124788   2.294   2.655   8.687  2.2531 -0.0675  1.7887
 4443SOL    HW224789   2.345   2.639   8.548  1.3880  2.1691 -1.9385
 4444SOL     OW24790   1.088   4.282   4.214 -0.4851 -0.1745  0.0257
 4444SOL    HW124791   1.085   4.189   4.237  0.5116 -0.5474 -1.3734
 4444SOL    HW224792   1.069   4.286   4.120  1.5034  0.1402 -0.3532
 4445SOL     OW24793   0.401   4.345  10.795 -0.2241 -0.4179 -0.2708
 4445SOL    HW124794   0.430   4.289  10.723 -0.0996  0.9279 -1.2479
 4445SOL    HW224795   0.443   4.300  10.868 -1.8314 -1.7463 -0.1606
 4446SOL     OW24796   3.453   0.677   7.338 -0.3661 -1.0115 -0.1588
 4446SOL    HW124797   3.524   0.665   7.274 -0.6753 -1.5039 -0.4094
 4446SOL    HW224798   3.487   0.647   7.423  0.2146  1.5126  0.5008
 4447SOL     OW24799   4.529   4.403  15.250  0.1781  0.2281 -0.4838
 4447SOL    HW124800   4.497   4.487  15.215 -2.3827 -0.5191  0.0618
 4447SOL    HW224801   4.456   4.346  15.227 -1.7132  1.8290  1.5965
 4448SOL     OW24802   0.621   2.604   1.783 -0.4745  0.1998  0.0186
 4448SOL    HW124803   0.587   2.668   1.846 -2.8091 -0.0678 -0.9878
 4448SOL    HW224804   0.552   2.598   1.718 -0.4617 -0.6769  0.0894
 4449SOL     OW24805   4.056   3.222   5.465  0.1038 -0.0287 -0.3919
 4449SOL    HW124806   4.145   3.252   5.448 -0.0385  0.0461 -1.0180
 4449SOL    HW224807   4.072   3.163   5.538 -1.0062 -0.6145 -0.6221
 4450SOL     OW24808   3.904   2.110   3.133  0.6726  0.3726  0.3578
 4450SOL    HW124809   3.951   2.040   3.180 -0.9661 -0.1772  1.1762
 4450SOL    HW224810   3.978   2.142   3.082  0.3907  1.9703  0.9506
 4451SOL     OW24811   2.032   3.779   8.092  0.2742  0.0517 -0.2126
 4451SOL    HW124812   2.040   3.874   8.098  0.4558  0.1507 -1.8473
 4451SOL    HW224813   2.124   3.759   8.076  0.5889  0.8465  0.6397
 4452SOL     OW24814   1.923   0.030  11.383  0.0161  0.1858 -0.1156
 4452SOL    HW124815   2.018   0.030  11.399  0.0639 -1.5971 -0.3999
 4452SOL    HW224816   1.880   0.106  11.421  0.2493  0.5369 -0.5558
 4453SOL     OW24817   1.070   1.824   4.616 -0.6352  0.1914  0.6612
 4453SOL    HW124818   0.999   1.855   4.671  0.3843  3.1943  0.2807
 4453SOL    HW224819   1.106   1.905   4.580 -1.2941 -1.0636 -2.8148
 4454SOL     OW24820   3.977   4.323   5.653 -0.7642 -0.5028 -0.8137
 4454SOL    HW124821   4.007   4.275   5.730  0.4500  3.5633  1.2648
 4454SOL    HW224822   4.060   4.360   5.624 -1.5452  0.3319 -1.9925
 4455SOL     OW24823   0.247   3.701   4.937 -0.1187  0.2225  0.3238
 4455SOL    HW124824   0.256   3.785   4.891 -2.5719 -0.8195 -2.1104
 4455SOL    HW224825   0.172   3.656   4.897  0.5508 -0.7874  0.1981
 4456SOL     OW24826   2.421   0.598   8.709 -0.6047 -0.1027 -0.6165
 4456SOL    HW124827   2.442   0.608   8.801 -1.0650  0.2394 -0.5449
 4456SOL    HW224828   2.403   0.504   8.707  1.4572 -0.4985 -0.0364
 4457SOL     OW24829   0.277   2.603   9.055  0.0667 -0.3616  0.0145
 4457SOL    HW124830   0.332   2.561   9.121  0.0244 -3.0604 -1.6700
 4457SOL    HW224831   0.191   2.617   9.096  0.3595  0.0407  0.4905
 4458SOL     OW24832   0.010   1.808   3.212 -0.3137  0.1089  0.0169
 4458SOL    HW124833   0.096   1.823   3.174 -1.1878  0.2724 -1.8993
 4458SOL    HW224834   0.014   1.839   3.303  1.6302 -2.2759  0.7426
 4459SOL     OW24835   3.922   3.356  10.922 -0.4007 -0.4190 -0.2275
 4459SOL    HW124836   3.896   3.435  10.875  0.8082  1.2049  1.8095
 4459SOL    HW224837   4.017   3.367  10.924 -0.3732 -0.7355  0.3461
 4460SOL     OW24838   3.920   2.874   6.525 -0.4242  0.1508  0.5410
 4460SOL    HW124839   3.825   2.886   6.529 -0.5487 -1.8327  2.8028
 4460SOL    HW224840   3.924   2.781   6.545  0.8321 -0.3912 -2.2258
 4461SOL     OW24841   4.059   1.959  14.006 -0.3483 -0.0250 -0.7529
 4461SOL    HW124842   3.981   1.999  14.045  0.0898 -1.0061  1.1462
 4461SOL    HW224843   4.098   1.907  14.076  0.5769  0.2192 -1.0878
 4462SOL     OW24844   2.914   3.426   0.285  0.6483 -0.1304 -0.0813
 4462SOL    HW124845   2.841   3.398   0.341  0.0898  0.7939 -0.3516
 4462SOL    HW224846   2.887   3.517   0.280  2.8502  0.4752 -0.5760
 4463SOL     OW24847   1.597   2.048  14.100  0.0555  0.6871  0.1274
 4463SOL    HW124848   1.633   1.960  14.092 -1.7412  0.1502 -2.0352
 4463SOL    HW224849   1.647   2.092  14.031 -0.1691  0.2042 -0.3382
 4464SOL     OW24850   4.303   0.928   5.587 -0.4274 -0.6087 -0.6636
 4464SOL    HW124851   4.223   0.956   5.544  1.0650  4.0226 -0.4706
 4464SOL    HW224852   4.315   0.843   5.544 -3.0221 -1.9456  1.2446
 4465SOL     OW24853   2.079   4.399   0.421 -0.2279  0.4883  0.0784
 4465SOL    HW124854   2.154   4.341   0.415 -2.1174 -1.8772 -0.9519
 4465SOL    HW224855   2.025   4.344   0.479 -1.1794 -0.1114 -1.3791
 4466SOL     OW24856   2.790   1.123  17.036  0.4942  0.3948  0.3598
 4466SOL    HW124857   2.816   1.049  16.982 -0.8575 -0.8364  1.4053
 4466SOL    HW224858   2.774   1.188  16.967  1.6153  0.6940  0.3640
 4467SOL     OW24859   2.343   3.793  12.190  0.3814  0.2542 -0.0143
 4467SOL    HW124860   2.275   3.834  12.244  0.0038  1.1408 -1.1566
 4467SOL    HW224861   2.290   3.769  12.113 -1.5287  1.2960  0.9762
 4468SOL     OW24862   4.142   0.088   6.735  0.0008  0.2153  0.0993
 4468SOL    HW124863   4.174   0.038   6.809  0.3085 -0.3261 -0.3998
 4468SOL    HW224864   4.209   0.155   6.728 -0.9212  0.9582 -1.8191
 4469SOL     OW24865   2.557   0.131  15.376  0.0520  0.7286 -0.0064
 4469SOL    HW124866   2.534   0.054  15.323  0.8917 -0.0007  0.6717
 4469SOL    HW224867   2.506   0.196  15.328  0.4829  0.4113 -0.8912
 4470SOL     OW24868   3.305   4.168   0.875  0.8356  0.2757  0.3219
 4470SOL    HW124869   3.345   4.147   0.790 -0.8710  2.1998 -0.9641
 4470SOL    HW224870   3.219   4.127   0.864  0.7696  0.6744 -0.6217
 4471SOL     OW24871   2.303   3.514   9.037  0.8549 -0.3185  0.4507
 4471SOL    HW124872   2.269   3.472   8.958  0.6857  2.1182 -0.7763
 4471SOL    HW224873   2.319   3.439   9.095 -0.2841 -0.8499  0.0680
 4472SOL     OW24874   4.611   2.414   3.309 -0.5351 -0.2169 -0.4424
 4472SOL    HW124875   4.644   2.473   3.242 -0.1938 -1.7576 -1.6400
 4472SOL    HW224876   4.690   2.381   3.352 -0.1477  1.7057  0.2866
 4473SOL     OW24877   2.065   1.619   7.455 -0.4106 -0.5035 -0.0717
 4473SOL    HW124878   1.997   1.565   7.494  0.3287 -1.3427  0.0569
 4473SOL    HW224879   2.071   1.682   7.527 -0.6940 -0.0424 -0.4507
 4474SOL     OW24880   2.844   1.019   3.887 -0.7840 -0.1348 -0.4581
 4474SOL    HW124881   2.907   0.976   3.945 -1.1488 -1.4229 -1.0288
 4474SOL    HW224882   2.891   1.015   3.804 -0.5232  2.2388 -0.4354
 4475SOL     OW24883   1.285   4.371   7.922  0.5909 -0.1359 -0.2738
 4475SOL    HW124884   1.377   4.371   7.949 -0.0277 -0.7342  1.8881
 4475SOL    HW224885   1.280   4.443   7.859  1.5323  1.2625  1.2423
 4476SOL     OW24886   3.679   4.381  14.519 -0.0634  0.2136  0.7346
 4476SOL    HW124887   3.774   4.386  14.513 -0.0909 -0.9977 -0.4998
 4476SOL    HW224888   3.670   4.321  14.593 -0.3300  0.8416  1.2127
 4477SOL     OW24889   0.843   2.875   6.261 -0.1632  0.1566  0.4672
 4477SOL    HW124890   0.894   2.870   6.181 -1.0270 -1.5998  0.0240
 4477SOL    HW224891   0.776   2.933   6.226  0.4284  1.5243  1.5802
 4478SOL     OW24892   2.980   1.049   5.720  0.2627  0.7093  0.2522
 4478SOL    HW124893   3.057   0.995   5.735  0.3240  1.7918  3.8565
 4478SOL    HW224894   3.024   1.124   5.679 -0.6688  0.6337 -0.8674
 4479SOL     OW24895   1.911   3.344   7.164  0.5209 -0.4046 -0.1687
 4479SOL    HW124896   1.822   3.309   7.173  0.8567 -0.9791  0.9830
 4479SOL    HW224897   1.938   3.357   7.256  0.4796  1.6763 -0.4442
 4480SOL     OW24898   3.962   1.074   4.537 -0.4682 -0.0836 -0.0981
 4480SOL    HW124899   4.054   1.054   4.519 -0.0108  1.8543  0.0996
 4480SOL    HW224900   3.976   1.156   4.584  0.1435  0.0881 -0.5760
 4481SOL     OW24901   4.507   3.592   2.239 -0.0139 -0.3288  0.6473
 4481SOL    HW124902   4.502   3.517   2.179  1.8318 -1.3180  1.7611
 4481SOL    HW224903   4.524   3.666   2.181  0.8105 -2.4129 -1.7795
 4482SOL     OW24904   1.770   3.690  13.386  0.2627 -0.5280 -0.2228
 4482SOL    HW124905   1.681   3.671  13.419  0.6027 -0.2180  0.8728
 4482SOL    HW224906   1.752   3.770  13.338  0.0260  0.2824  1.2254
 4483SOL     OW24907   2.435   3.577   4.248 -0.2909 -0.1423  0.1118
 4483SOL    HW124908   2.449   3.631   4.326 -1.1709  0.2448 -0.0011
 4483SOL    HW224909   2.436   3.652   4.189 -0.4600 -0.7277 -0.6327
 4484SOL     OW24910   3.225   3.065   8.372  0.1810  0.3007 -0.4560
 4484SOL    HW124911   3.281   3.020   8.435  0.1619 -0.7604 -1.1941
 4484SOL    HW224912   3.153   3.003   8.358  0.9171 -0.3888 -1.2640
 4485SOL     OW24913   1.274   4.400  17.035 -0.8302 -0.3522 -0.0976
 4485SOL    HW124914   1.277   4.339  16.961  1.2284 -1.3327  0.7839
 4485SOL    HW224915   1.180   4.412  17.043 -0.9619 -0.5543 -1.2897
 4486SOL     OW24916   2.793   2.761   7.778 -0.2610 -0.5352 -0.6675
 4486SOL    HW124917   2.837   2.834   7.735  0.8672  0.6409  2.4932
 4486SOL    HW224918   2.857   2.690   7.774 -0.7601 -0.9735 -0.9147
 4487SOL     OW24919   4.296   1.403   3.442 -0.2029  0.0977  0.1912
 4487SOL    HW124920   4.245   1.330   3.407  0.1124 -0.7463  1.4893
 4487SOL    HW224921   4.219   1.449   3.475 -0.2706 -0.9335  1.4703
 4488SOL     OW24922   2.093   2.820   8.548 -0.5774 -0.1021  0.4812
 4488SOL    HW124923   2.047   2.884   8.601  0.2143  0.1123  0.9034
 4488SOL    HW224924   2.161   2.792   8.609 -3.1149 -1.5384  2.6367
 4489SOL     OW24925   1.594   2.908   7.742 -0.1035 -0.4983 -0.1703
 4489SOL    HW124926   1.600   2.953   7.826 -0.0022 -0.6127 -0.1156
 4489SOL    HW224927   1.610   2.819   7.774 -0.0041 -1.0843 -1.8294
 4490SOL     OW24928   1.752   1.429   6.098 -0.0702  0.3276  0.9292
 4490SOL    HW124929   1.770   1.425   6.004  2.1668 -0.7248  1.4045
 4490SOL    HW224930   1.759   1.520   6.125 -0.5421  0.1555  1.6286
 4491SOL     OW24931   4.083   1.426  13.000  0.1115 -0.3202  0.2458
 4491SOL    HW124932   4.104   1.437  12.907 -1.9937 -0.8201 -0.2909
 4491SOL    HW224933   3.990   1.407  12.994  0.1807 -0.5520 -0.0584
 4492SOL     OW24934   0.862   3.284   6.694 -0.1547 -0.5619  0.3733
 4492SOL    HW124935   0.907   3.226   6.632 -0.4445  1.5024 -1.7485
 4492SOL    HW224936   0.858   3.222   6.767 -0.9917  1.7298  2.2617
 4493SOL     OW24937   2.899   2.055   9.108  0.4716  0.0714  0.1081
 4493SOL    HW124938   2.820   2.023   9.065  0.1947 -0.7107  1.1910
 4493SOL    HW224939   2.907   2.147   9.083  0.6396 -0.4271 -1.6706
 4494SOL     OW24940   0.768   0.430   8.623  0.3093  0.0101  0.0519
 4494SOL    HW124941   0.722   0.347   8.626  0.0323  0.1136 -1.3785
 4494SOL    HW224942   0.776   0.432   8.528  0.6293 -2.8838  0.0161
 4495SOL     OW24943   4.175   2.215  12.598 -0.3446  0.2589  0.0141
 4495SOL    HW124944   4.114   2.205  12.525 -0.5117 -1.2877  0.3659
 4495SOL    HW224945   4.127   2.279  12.651  1.8898 -0.4424  2.8514
 4496SOL     OW24946   3.691   0.484   5.293  0.0620 -0.0419 -0.8764
 4496SOL    HW124947   3.738   0.441   5.221  1.5224 -0.9770  0.6386
 4496SOL    HW224948   3.632   0.412   5.316  0.9784 -0.6895 -0.5299
 4497SOL     OW24949   1.849   1.054   3.214  0.1558  0.0029 -0.1147
 4497SOL    HW124950   1.896   0.983   3.257 -0.3489 -0.4798 -0.3688
 4497SOL    HW224951   1.836   1.008   3.131 -2.5758  0.3200  0.1534
 4498SOL     OW24952   4.466   2.298  16.704 -0.1619  0.0266 -0.2046
 4498SOL    HW124953   4.432   2.273  16.790  1.2187 -1.1726 -0.0214
 4498SOL    HW224954   4.403   2.249  16.652 -1.7626  0.6065  1.1740
 4499SOL     OW24955   3.889   0.481   9.099 -0.0577  0.5856 -0.1287
 4499SOL    HW124956   3.933   0.447   9.021 -1.0608 -0.3188 -0.2908
 4499SOL    HW224957   3.956   0.473   9.167  0.8663  0.8024 -1.0071
 4500SOL     OW24958   2.666   4.093   5.596 -0.4398  0.1002 -0.1113
 4500SOL    HW124959   2.737   4.066   5.653  0.1429  0.2270 -0.7718
 4500SOL    HW224960   2.707   4.162   5.543  1.0247  0.9826  2.1450
 4501SOL     OW24961   1.771   0.765   3.769 -0.6171  0.2438  0.3324
 4501SOL    HW124962   1.703   0.748   3.835 -0.4521  0.9336  0.6861
 4501SOL    HW224963   1.745   0.701   3.703  1.5847  1.6148 -1.8595
 4502SOL     OW24964   1.811   0.497   0.243 -0.0950  0.1846  0.1695
 4502SOL    HW124965   1.887   0.551   0.219 -2.1777  2.5673 -1.0164
 4502SOL    HW224966   1.747   0.567   0.250 -1.2566 -0.7480 -1.1607
 4503SOL     OW24967   4.498   0.772   8.077  0.3032  0.2578  0.6210
 4503SOL    HW124968   4.456   0.840   8.025  1.1937  1.2923  1.2624
 4503SOL    HW224969   4.485   0.819   8.159 -1.4099 -0.0390  0.5225
 4504SOL     OW24970   1.838   1.884   3.266  0.3774  0.1394 -0.0933
 4504SOL    HW124971   1.774   1.826   3.226  0.7235  1.0110 -1.9457
 4504SOL    HW224972   1.922   1.843   3.242 -0.8853 -1.8061 -1.1973
 4505SOL     OW24973   1.561   3.312  15.474 -0.5400 -0.3507  0.2634
 4505SOL    HW124974   1.472   3.278  15.473 -0.5595 -0.2719 -0.6985
 4505SOL    HW224975   1.580   3.336  15.383 -0.8935 -0.9044  0.0436
 4506SOL     OW24976   3.774   4.414   4.501 -0.6341 -0.4246 -0.2574
 4506SOL    HW124977   3.807   4.418   4.412  0.3771  1.2598  0.1887
 4506SOL    HW224978   3.820   4.334   4.525 -0.0925  0.1003  0.4895
 4507SOL     OW24979   1.138   2.020   7.774  0.4246  0.0304  0.0797
 4507SOL    HW124980   1.220   2.067   7.790 -1.2940  2.5992  1.4817
 4507SOL    HW224981   1.086   2.094   7.742 -0.1065 -1.4423 -2.4145
 4508SOL     OW24982   2.482   2.451   6.624  0.4728  0.0157  0.1790
 4508SOL    HW124983   2.391   2.445   6.651  0.0536  1.1097 -0.9569
 4508SOL    HW224984   2.526   2.400   6.692 -1.7620 -0.5053  1.1982
 4509SOL     OW24985   0.054   0.192   8.372  0.5162 -0.3272  0.5436
 4509SOL    HW124986   0.123   0.255   8.392  1.2499 -0.6883 -0.8800
 4509SOL    HW224987   4.707   0.220   8.433 -1.0074  1.0602 -1.8335
 4510SOL     OW24988   1.483   3.242   7.046 -0.0306  0.4435  0.1102
 4510SOL    HW124989   1.551   3.182   7.078  1.3541  1.1869 -1.4900
 4510SOL    HW224990   1.520   3.266   6.961 -1.7384 -0.1369 -0.8090
 4511SOL     OW24991   2.233   1.713  10.468 -0.3340  0.0362  0.6512
 4511SOL    HW124992   2.260   1.793  10.424 -0.4071 -0.3886 -0.1695
 4511SOL    HW224993   2.160   1.742  10.523 -0.5637  2.0871 -0.7530
 4512SOL     OW24994   0.940   0.607  17.345 -0.0436 -0.2354  0.0551
 4512SOL    HW124995   0.845   0.618  17.348 -0.0408 -0.3532  0.4916
 4512SOL    HW224996   0.947   0.541  17.276  3.4692 -1.0536  1.1642
 4513SOL     OW24997   0.605   4.701   4.552  0.1450  1.0542 -0.2334
 4513SOL    HW124998   0.700   4.689   4.549  0.1522  0.6093  1.7962
 4513SOL    HW224999   0.592   4.676   4.644  3.2363 -1.1709 -0.3772
 4514SOL     OW25000   4.235   1.999   7.152  0.0057 -0.0335 -0.2210
 4514SOL    HW125001   4.174   1.982   7.080 -0.1930  2.8585 -0.7354
 4514SOL    HW225002   4.201   2.081   7.189  0.8020 -0.4587  1.4377
 4515SOL     OW25003   3.772   4.656   4.806  0.2642  0.3112  0.0613
 4515SOL    HW125004   3.789   4.669   4.899 -1.0442  0.7190  0.2468
 4515SOL    HW225005   3.850   4.697   4.767 -0.5266  1.8608  0.0787
 4516SOL     OW25006   4.273   1.880   8.068 -0.0105 -0.1226 -0.1031
 4516SOL    HW125007   4.241   1.904   8.155  1.9248 -1.8452  1.0838
 4516SOL    HW225008   4.361   1.910   8.087 -1.1167  2.6091  0.6797
 4517SOL     OW25009   3.910   2.222   3.509 -0.4205  0.1952  0.9650
 4517SOL    HW125010   3.841   2.285   3.532 -2.9580 -1.6501 -1.5671
 4517SOL    HW225011   3.862   2.159   3.455  0.6260  0.1529  0.0756
 4518SOL     OW25012   2.684   2.335   8.194  0.2541  0.2658  0.1430
 4518SOL    HW125013   2.763   2.318   8.245 -0.6501 -1.1211  1.0577
 4518SOL    HW225014   2.708   2.410   8.138 -2.3949  1.2915  0.3689
 4519SOL     OW25015   4.237   2.187   1.955 -0.0879 -0.0865 -0.1767
 4519SOL    HW125016   4.225   2.215   1.864 -0.4131 -0.1142 -0.1425
 4519SOL    HW225017   4.183   2.257   1.992  0.9552  0.9631 -0.6451
 4520SOL     OW25018   2.231   2.359   6.671  0.8761 -0.4101 -0.0582
 4520SOL    HW125019   2.237   2.308   6.751  0.5647  0.3713  0.4630
 4520SOL    HW225020   2.137   2.357   6.653  0.9598  1.0416 -0.7090
 4521SOL     OW25021   0.102   3.166  16.997  0.5889 -0.0075 -0.5362
 4521SOL    HW125022   0.064   3.208  17.074 -3.9641  0.6917 -3.1748
 4521SOL    HW225023   0.194   3.166  17.023  0.6079  0.0154 -0.6027
 4522SOL     OW25024   1.549   3.581   7.979  0.5584 -0.1045  0.0611
 4522SOL    HW125025   1.572   3.580   7.887  3.3040  0.5210  0.7570
 4522SOL    HW225026   1.615   3.640   8.016  1.9457 -1.1038 -0.8507
 4523SOL     OW25027   0.405   1.567  10.333 -0.0534 -0.5248  0.5733
 4523SOL    HW125028   0.423   1.660  10.320 -0.7160 -0.3974  0.6027
 4523SOL    HW225029   0.382   1.539  10.245  1.3455 -1.4807  0.4967
 4524SOL     OW25030   2.351   0.628  11.417 -0.0705  0.6670 -0.1977
 4524SOL    HW125031   2.411   0.698  11.393 -0.5606  0.1895 -2.8382
 4524SOL    HW225032   2.408   0.551  11.417  2.1035  2.2842  1.0706
 4525SOL     OW25033   4.076   3.213   3.896  0.1296  0.3492  0.4251
 4525SOL    HW125034   4.048   3.145   3.957 -0.0056  1.5389  1.6961
 4525SOL    HW225035   3.993   3.261   3.903 -1.0216 -1.3696 -1.5850
 4526SOL     OW25036   3.417   4.414   5.785 -0.4445 -0.9371 -0.0043
 4526SOL    HW125037   3.466   4.496   5.785  0.2432 -1.3485  1.8390
 4526SOL    HW225038   3.471   4.363   5.845 -1.3987 -3.2988 -1.1459
 4527SOL     OW25039   2.699   0.294  10.715  0.2007  0.2861  0.1008
 4527SOL    HW125040   2.730   0.278  10.804 -0.6484  1.0501  0.5298
 4527SOL    HW225041   2.606   0.308  10.733  0.6581  0.8275  2.0640
 4528SOL     OW25042   2.967   0.141  10.833 -0.2686  0.4293  0.2353
 4528SOL    HW125043   3.007   0.145  10.920  1.5771  0.2343 -0.6270
 4528SOL    HW225044   2.979   0.049  10.810  0.4819  0.5464  0.1557
 4529SOL     OW25045   0.400   0.505  11.567  0.2123  0.1947  0.1920
 4529SOL    HW125046   0.333   0.437  11.558  0.6507  0.0367 -1.7814
 4529SOL    HW225047   0.345   0.576  11.601 -0.6806  0.1897 -1.2517
 4530SOL     OW25048   2.768   0.766   6.645 -0.3577 -0.0162 -0.2018
 4530SOL    HW125049   2.778   0.847   6.696  1.4083  0.1417 -0.8052
 4530SOL    HW225050   2.726   0.795   6.563 -2.1622 -2.3946 -0.1134
 4531SOL     OW25051   1.340   4.478   6.464  0.9483  0.0058  0.0006
 4531SOL    HW125052   1.303   4.399   6.426  0.7798  0.2601 -0.3592
 4531SOL    HW225053   1.430   4.446   6.471  0.4928 -1.0035  1.4625
 4532SOL     OW25054   0.880   4.347   4.661  0.0840 -0.0678 -0.3861
 4532SOL    HW125055   0.886   4.432   4.704  1.0563 -0.3112 -0.0338
 4532SOL    HW225056   0.791   4.323   4.684  0.5836 -1.2124  0.3158
 4533SOL     OW25057   2.598   3.088   2.780  0.1678  0.0143 -0.2476
 4533SOL    HW125058   2.548   3.021   2.828  0.5557  0.5739  0.9252
 4533SOL    HW225059   2.669   3.034   2.747 -0.3163 -1.4856  1.1555
 4534SOL     OW25060   3.381   3.374   7.956  0.2917 -0.3598  0.1449
 4534SOL    HW125061   3.412   3.319   8.028 -0.9493 -2.4567 -0.9334
 4534SOL    HW225062   3.450   3.357   7.892 -0.9760 -1.3687 -0.9502
 4535SOL     OW25063   2.244   4.277   3.685  0.2743 -0.0148  0.6597
 4535SOL    HW125064   2.316   4.224   3.652  0.9887  2.1594 -1.2154
 4535SOL    HW225065   2.201   4.221   3.751 -1.0596 -0.1982 -0.3647
 4536SOL     OW25066   2.941   2.974   6.843  0.3658  0.1164 -0.6502
 4536SOL    HW125067   2.894   2.937   6.917  0.3655 -0.0286 -0.7220
 4536SOL    HW225068   2.944   3.066   6.870  1.9444  0.0275 -0.4928
 4537SOL     OW25069   2.059   2.638   5.302  0.0659 -0.0628  0.5759
 4537SOL    HW125070   2.148   2.619   5.332  0.5486 -1.8521 -1.9699
 4537SOL    HW225071   2.027   2.553   5.270  1.1107  0.2136 -1.2156
 4538SOL     OW25072   0.664   3.672   7.097 -0.3261 -0.3795 -0.1852
 4538SOL    HW125073   0.707   3.681   7.012  0.0853 -1.7795 -0.1187
 4538SOL    HW225074   0.572   3.658   7.075 -0.9592  0.8015  1.7134
 4539SOL     OW25075   2.943   0.624   1.249  0.4985 -0.2757 -0.4168
 4539SOL    HW125076   2.853   0.592   1.244  0.0418  1.1698 -1.3424
 4539SOL    HW225077   2.920   0.716   1.257  0.0759 -0.4532  0.4716
 4540SOL     OW25078   0.515   1.042   2.970  0.2175 -0.0677 -0.2357
 4540SOL    HW125079   0.469   1.052   3.053  0.0396  0.1815 -0.3667
 4540SOL    HW225080   0.610   1.042   2.983 -0.1737  1.2169  2.6447
 4541SOL     OW25081   2.889   4.365   0.558  0.4290  0.1977  0.2979
 4541SOL    HW125082   2.852   4.340   0.643  0.7098  3.0824  1.2817
 4541SOL    HW225083   2.843   4.307   0.497  0.0748 -2.1905  2.7970
 4542SOL     OW25084   3.257   0.934   2.517  0.0294 -0.3872 -0.1815
 4542SOL    HW125085   3.282   0.888   2.437 -1.5185 -0.9646 -0.3295
 4542SOL    HW225086   3.258   1.027   2.493 -1.6237 -0.4467 -0.5032
 4543SOL     OW25087   4.010   4.373   9.209  0.2460  0.0014  0.8227
 4543SOL    HW125088   4.039   4.449   9.158  2.2524 -0.3742  1.4006
 4543SOL    HW225089   3.935   4.344   9.158 -0.0893  1.0755  0.7063
 4544SOL     OW25090   3.272   0.795   4.121  0.1284  0.0248 -0.6958
 4544SOL    HW125091   3.301   0.717   4.075  1.9124  0.4028 -0.2189
 4544SOL    HW225092   3.336   0.787   4.193 -1.5784  0.6040  0.8928
 4545SOL     OW25093   1.457   2.344   8.248 -0.0440  0.2523 -0.1680
 4545SOL    HW125094   1.516   2.410   8.213  1.2262 -0.6923  0.1991
 4545SOL    HW225095   1.398   2.390   8.308  2.0156  2.1149  0.4140
 4546SOL     OW25096   1.714   2.675   5.127  0.1194  0.0487  0.2900
 4546SOL    HW125097   1.674   2.672   5.214  0.0021 -1.5466  0.1920
 4546SOL    HW225098   1.805   2.649   5.145  0.4974  0.4963 -1.0152
 4547SOL     OW25099   1.068   4.166  17.609 -0.2876 -0.1045  0.0542
 4547SOL    HW125100   1.101   4.234  17.667 -0.4382 -0.5103  0.6182
 4547SOL    HW225101   1.041   4.214  17.531 -0.0871  1.6528  1.0840
 4548SOL     OW25102   2.311   1.138   6.305 -0.1823 -0.0464  0.2468
 4548SOL    HW125103   2.402   1.109   6.295 -0.3317 -0.3437 -0.2590
 4548SOL    HW225104   2.269   1.052   6.306 -0.3919  0.0421 -3.0096
 4549SOL     OW25105   4.039   2.787   4.124 -0.7401 -0.0692  0.1538
 4549SOL    HW125106   4.112   2.746   4.169 -0.7076 -0.0778  0.0930
 4549SOL    HW225107   4.000   2.710   4.083 -0.8608 -0.7365  1.5121
 4550SOL     OW25108   0.330   0.674   4.853  0.8381 -0.1853  0.1399
 4550SOL    HW125109   0.388   0.749   4.868  0.8376 -0.4502  1.4836
 4550SOL    HW225110   0.287   0.694   4.770  1.2074 -1.5068 -0.3677
 4551SOL     OW25111   0.253   4.369   1.278  0.5829 -0.6437  0.3985
 4551SOL    HW125112   0.207   4.313   1.215  0.2136  0.2999 -0.1787
 4551SOL    HW225113   0.201   4.449   1.271  2.7520  0.7853  0.8548
 4552SOL     OW25114   3.628   3.316   4.550  0.1143  0.2174  0.1961
 4552SOL    HW125115   3.601   3.238   4.598 -1.9326  1.0166  0.3179
 4552SOL    HW225116   3.546   3.334   4.505  0.0553  0.3261  0.3512
 4553SOL     OW25117   3.708   4.687  13.186 -0.2263  0.1917  0.9999
 4553SOL    HW125118   3.612   4.684  13.182 -0.1961  0.1183  0.2004
 4553SOL    HW225119   3.723   4.592  13.188 -0.0358  0.1894 -0.6294
 4554SOL     OW25120   1.279   4.459   0.277  0.3679 -0.5188 -0.2268
 4554SOL    HW125121   1.219   4.528   0.250 -0.5375 -1.1544  0.1432
 4554SOL    HW225122   1.360   4.506   0.257  0.7025 -0.7520  0.5751
 4555SOL     OW25123   4.565   0.228  11.569 -0.3420  0.1727  0.1105
 4555SOL    HW125124   4.472   0.239  11.588 -0.0832  2.3560  0.1077
 4555SOL    HW225125   4.607   0.196  11.649 -0.1628  0.1077 -0.0097
 4556SOL     OW25126   1.848   1.610   6.714  0.3219 -0.9520  0.8175
 4556SOL    HW125127   1.795   1.628   6.636 -1.2398  2.4685  2.6534
 4556SOL    HW225128   1.787   1.574   6.779 -0.3682 -0.5720  0.3847
 4557SOL     OW25129   4.482   3.948  12.077 -0.8286  0.0841  0.0878
 4557SOL    HW125130   4.426   3.871  12.067 -0.4215 -0.1953 -0.0379
 4557SOL    HW225131   4.552   3.930  12.014 -2.5035 -1.0288 -1.4615
 4558SOL     OW25132   0.067   3.944   7.140  0.6019 -0.0860  0.0118
 4558SOL    HW125133   0.030   3.872   7.090 -1.3337  0.6118  0.4367
 4558SOL    HW225134   0.140   3.964   7.081 -0.3655  1.2558 -0.7321
 4559SOL     OW25135   3.698   0.053   4.023  0.1541  0.2607  0.1229
 4559SOL    HW125136   3.645   4.710   4.069 -2.4431  1.2897 -1.4562
 4559SOL    HW225137   3.634   0.106   3.976 -0.9354 -0.6306  0.6032
 4560SOL     OW25138   2.074   2.684   4.370 -0.3102 -0.1525  0.4586
 4560SOL    HW125139   2.077   2.599   4.325  2.2724  0.7019 -0.9755
 4560SOL    HW225140   1.982   2.708   4.357  0.1824  0.5657 -1.6574
 4561SOL     OW25141   2.345   2.776  11.514 -0.3705 -0.2232  0.1955
 4561SOL    HW125142   2.429   2.783  11.559  0.5803  1.7998 -1.8937
 4561SOL    HW225143   2.285   2.808  11.582  0.7035  1.0270  0.5348
 4562SOL     OW25144   4.065   1.552   3.664 -0.0911 -0.1825  0.1594
 4562SOL    HW125145   3.991   1.494   3.681 -0.2483  0.2461  0.9737
 4562SOL    HW225146   4.114   1.528   3.743 -0.7119 -0.6174  0.4150
 4563SOL     OW25147   0.042   1.064  16.799  0.0616 -0.0728 -0.3330
 4563SOL    HW125148   0.108   1.013  16.753  0.3240  1.4643 -1.6386
 4563SOL    HW225149   4.697   0.999  16.822 -0.5876  0.1254 -1.7014
 4564SOL     OW25150   1.078   3.491   3.110 -0.3700  0.0454  0.1268
 4564SOL    HW125151   1.077   3.586   3.096  1.0629 -0.0719 -0.7696
 4564SOL    HW225152   1.090   3.455   3.022  1.2534  2.7942 -0.7736
 4565SOL     OW25153   4.489   2.744   6.885 -0.4102  0.1573  0.5412
 4565SOL    HW125154   4.549   2.760   6.813 -1.1383 -1.5804 -0.4409
 4565SOL    HW225155   4.505   2.650   6.896  0.3944  0.0317 -1.7947
 4566SOL     OW25156   4.200   0.209   3.731  0.1249  0.3913  0.1485
 4566SOL    HW125157   4.113   0.178   3.706  0.4533 -0.6538  0.2974
 4566SOL    HW225158   4.191   0.212   3.826  2.6470 -2.6994  0.5044
 4567SOL     OW25159   1.446   0.900   2.567 -0.0227 -0.1644 -0.3411
 4567SOL    HW125160   1.449   0.994   2.551 -0.1462 -0.0112  0.5427
 4567SOL    HW225161   1.406   0.875   2.484 -1.6090  1.9859 -0.2048
 4568SOL     OW25162   2.768   0.347   2.794 -0.0630 -0.1212  0.6876
 4568SOL    HW125163   2.849   0.390   2.766  0.8937 -0.7317  2.4749
 4568SOL    HW225164   2.787   0.255   2.781  1.4668  0.1949  0.6595
 4569SOL     OW25165   2.605   4.467   8.201 -0.2693 -0.4789  0.1849
 4569SOL    HW125166   2.638   4.525   8.270  2.0732 -1.3168 -0.2384
 4569SOL    HW225167   2.631   4.382   8.235 -0.9173 -0.7685 -0.0444
 4570SOL     OW25168   2.802   2.528  11.682 -0.1779 -0.0917  0.4118
 4570SOL    HW125169   2.763   2.458  11.734 -1.7933  2.3184  2.4556
 4570SOL    HW225170   2.893   2.500  11.690 -0.0896  0.0952  0.0565
 4571SOL     OW25171   0.389   1.277   1.428 -0.1752 -0.1480  0.4838
 4571SOL    HW125172   0.372   1.197   1.477 -0.4330  1.8587  3.6246
 4571SOL    HW225173   0.301   1.315   1.438 -0.0520 -0.2491  1.8400
 4572SOL     OW25174   2.013   2.049   5.116  0.0702  0.8682 -0.1159
 4572SOL    HW125175   2.101   2.053   5.153  0.5995 -0.5605 -1.2025
 4572SOL    HW225176   2.033   2.009   5.031  1.0823  0.5331  0.2761
 4573SOL     OW25177   3.036   1.154   4.611 -0.6022  0.9760 -0.1318
 4573SOL    HW125178   3.022   1.107   4.529 -0.6936  0.7472  0.0156
 4573SOL    HW225179   2.949   1.193   4.617 -1.5925 -1.3029  0.4248
 4574SOL     OW25180   0.072   3.004   8.477 -0.0057 -0.2053  0.0939
 4574SOL    HW125181   0.164   2.980   8.468  0.4926  1.4761  0.6974
 4574SOL    HW225182   0.084   3.095   8.507 -1.6758  0.5199 -1.4160
 4575SOL     OW25183   0.562   3.320  11.289  0.0436 -0.5491 -0.1923
 4575SOL    HW125184   0.623   3.254  11.257  0.0001 -0.4880 -0.4000
 4575SOL    HW225185   0.564   3.297  11.382  0.7112  3.5983  0.7879
 4576SOL     OW25186   4.523   0.691   0.846 -0.6486  0.2411 -0.1060
 4576SOL    HW125187   4.497   0.602   0.866 -1.1854  0.3933 -0.1147
 4576SOL    HW225188   4.582   0.668   0.774 -0.0940  1.8996 -0.1985
 4577SOL     OW25189   3.519   4.127   3.265  0.1512  0.1391 -0.2761
 4577SOL    HW125190   3.448   4.187   3.288 -1.5302 -0.8830 -2.7919
 4577SOL    HW225191   3.540   4.155   3.176  0.4820 -0.8418 -0.5082
 4578SOL     OW25192   0.639   2.506   2.654 -0.1758  0.6744 -0.1060
 4578SOL    HW125193   0.551   2.470   2.653 -0.4339  1.2790  0.4627
 4578SOL    HW225194   0.679   2.419   2.655 -0.9606  0.2572 -3.9157
 4579SOL     OW25195   0.928   2.152  15.993  0.6427  0.2815  0.1724
 4579SOL    HW125196   0.916   2.128  16.085 -1.7671 -0.3533 -0.2986
 4579SOL    HW225197   0.871   2.229  15.986  0.6729  0.2417 -0.4846
 4580SOL     OW25198   3.047   3.356   7.633 -0.2588 -0.0847 -0.0159
 4580SOL    HW125199   3.060   3.389   7.721 -1.5041 -1.4159  0.6753
 4580SOL    HW225200   3.105   3.281   7.644  0.4344  0.6648  1.3367
 4581SOL     OW25201   1.317   0.710   2.106  0.1998 -0.0171 -0.2629
 4581SOL    HW125202   1.308   0.615   2.111  1.0315 -0.0161  1.3072
 4581SOL    HW225203   1.412   0.715   2.111  0.0942 -0.7507  2.5911
 4582SOL     OW25204   0.952   1.833   9.137  0.1181  0.3101 -0.2571
 4582SOL    HW125205   0.915   1.867   9.218  1.2170  1.5576 -0.2684
 4582SOL    HW225206   0.885   1.773   9.106 -1.1391  0.4786  2.1760
 4583SOL     OW25207   3.733   2.022   3.929 -0.4923  0.2471  0.0082
 4583SOL    HW125208   3.827   2.034   3.916 -0.6488  2.7492  1.1829
 4583SOL    HW225209   3.727   2.007   4.024 -0.1507  0.8988  0.1352
 4584SOL     OW25210   1.751   3.792  15.223  0.2745  0.3988 -0.3422
 4584SOL    HW125211   1.727   3.822  15.310  4.2137  2.4192  0.0652
 4584SOL    HW225212   1.796   3.867  15.185  1.4957 -0.1683 -0.0250
 4585SOL     OW25213   2.831   2.574   3.055  0.6810 -0.7914 -0.5297
 4585SOL    HW125214   2.892   2.625   3.002 -1.2384  0.1693 -1.8206
 4585SOL    HW225215   2.881   2.499   3.087 -1.1832 -1.7706  0.1173
 4586SOL     OW25216   2.371   2.052   5.442  0.0586  0.7403  0.5832
 4586SOL    HW125217   2.336   2.045   5.353 -0.3910  0.1343  0.8082
 4586SOL    HW225218   2.445   2.109   5.423  0.0546  0.2526 -0.8771
 4587SOL     OW25219   3.688   4.385  13.429  0.7622  0.0438  0.3317
 4587SOL    HW125220   3.704   4.372  13.335 -1.8815 -0.7557  0.0008
 4587SOL    HW225221   3.637   4.465  13.440 -0.8564 -1.0378  0.6010
 4588SOL     OW25222   2.146   1.592   2.137  0.0620  0.1164 -0.0133
 4588SOL    HW125223   2.058   1.630   2.143  0.5814  1.3398 -0.1206
 4588SOL    HW225224   2.196   1.631   2.208 -0.6664  1.3841 -0.1788
 4589SOL     OW25225   2.962   1.320   6.855  0.4855  0.1257 -0.4880
 4589SOL    HW125226   2.936   1.367   6.776 -2.3582  1.2179  1.1082
 4589SOL    HW225227   3.045   1.364   6.875 -0.1711  1.0026  0.2978
 4590SOL     OW25228   2.811   1.666   2.286 -0.6132  0.1215 -0.2815
 4590SOL    HW125229   2.762   1.584   2.275  1.2028 -0.8290 -1.4145
 4590SOL    HW225230   2.774   1.721   2.217  0.7629  2.4374  0.8244
 4591SOL     OW25231   2.668   3.501   6.217 -0.2080  0.1254  0.3162
 4591SOL    HW125232   2.690   3.411   6.242  2.5005  1.3262  2.1299
 4591SOL    HW225233   2.593   3.478   6.161  0.7822 -1.8866 -0.1792
 4592SOL     OW25234   4.150   4.414   9.835  0.2251  0.0160  0.6012
 4592SOL    HW125235   4.150   4.459   9.920 -0.3023 -0.5441  0.9027
 4592SOL    HW225236   4.131   4.480   9.769  0.9812  0.8029  1.1710
 4593SOL     OW25237   1.562   2.137  14.941  0.4067 -0.2974  0.5555
 4593SOL    HW125238   1.603   2.057  14.907 -1.7907 -1.4743  0.6584
 4593SOL    HW225239   1.562   2.124  15.036 -2.9496  0.2992  0.6275
 4594SOL     OW25240   3.538   4.344   0.961  0.2997 -0.4124  0.7581
 4594SOL    HW125241   3.527   4.433   0.927  0.3512 -0.6618  0.0698
 4594SOL    HW225242   3.465   4.294   0.926 -0.0058  0.9614 -0.5787
 4595SOL     OW25243   2.481   1.993   2.597  0.1928 -0.6097  0.0753
 4595SOL    HW125244   2.395   2.005   2.555  0.9777 -0.6572 -1.5409
 4595SOL    HW225245   2.457   1.991   2.690  0.1418  1.7964  0.1144
 4596SOL     OW25246   2.229   4.261  14.093 -0.0091  0.4472 -0.0478
 4596SOL    HW125247   2.317   4.285  14.063 -1.0796  4.4583  0.1165
 4596SOL    HW225248   2.240   4.286  14.185  0.3009  0.6199 -0.1309
 4597SOL     OW25249   1.094   2.486  10.655 -0.1649 -0.1923 -0.6023
 4597SOL    HW125250   1.176   2.438  10.658 -0.9072 -1.4618 -0.8456
 4597SOL    HW225251   1.108   2.528  10.570  1.4805 -0.6598 -0.5521
 4598SOL     OW25252   3.942   3.634   9.015 -0.0326  0.4663  0.5208
 4598SOL    HW125253   3.850   3.634   9.041 -0.4909 -1.4083 -1.0884
 4598SOL    HW225254   3.978   3.573   9.078 -0.9324 -0.8831 -0.2652
 4599SOL     OW25255   3.642   2.975  10.681 -0.3980 -0.3799  0.3322
 4599SOL    HW125256   3.677   2.887  10.671 -1.3050 -0.4886 -1.8378
 4599SOL    HW225257   3.601   2.990  10.596 -2.0897 -1.4159  0.9800
 4600SOL     OW25258   0.273   2.466   6.028 -0.1210  0.2513 -0.3250
 4600SOL    HW125259   0.250   2.470   5.935 -3.1119 -0.4559  0.3974
 4600SOL    HW225260   0.201   2.412   6.061  0.7188 -0.1538  0.8290
 4601SOL     OW25261   0.206   2.588   8.172 -0.4379  0.4120  0.5221
 4601SOL    HW125262   0.155   2.545   8.104 -0.7988  1.0236  0.4130
 4601SOL    HW225263   0.293   2.596   8.132 -0.4324  0.1678  0.4858
 4602SOL     OW25264   1.201   0.859   4.260 -0.2152 -0.1688  0.4345
 4602SOL    HW125265   1.216   0.810   4.341  0.1625  1.2091  1.1908
 4602SOL    HW225266   1.255   0.811   4.196 -0.1097 -0.5184  0.7855
 4603SOL     OW25267   4.103   1.438   2.390 -0.0635  0.2487  0.1629
 4603SOL    HW125268   4.181   1.445   2.333 -0.3794 -0.9837 -0.4214
 4603SOL    HW225269   4.097   1.343   2.396  0.1707  0.2785  0.7835
 4604SOL     OW25270   4.002   0.011  15.639 -0.1829  0.4429 -0.2766
 4604SOL    HW125271   3.983   0.025  15.546  0.4149  1.0108 -0.3101
 4604SOL    HW225272   4.097   0.020  15.642 -0.1297 -0.8978  1.7304
 4605SOL     OW25273   0.957   3.547   2.331 -0.4862 -0.3890  0.5190
 4605SOL    HW125274   0.965   3.572   2.423  1.1662  2.7447 -0.4834
 4605SOL    HW225275   0.898   3.613   2.295 -1.6647 -0.5860  2.0729
 4606SOL     OW25276   3.029   0.313   6.385  0.1771 -0.0142 -0.2538
 4606SOL    HW125277   3.046   0.261   6.307  1.7766  0.2022 -0.0648
 4606SOL    HW225278   3.114   0.357   6.396 -0.1250 -0.3045  3.2571
 4607SOL     OW25279   1.337   0.461   4.034  0.0019  0.4844 -0.4797
 4607SOL    HW125280   1.334   0.555   4.020  0.9898  0.4542 -0.8673
 4607SOL    HW225281   1.288   0.443   4.115  0.9674  1.5156  0.3393
 4608SOL     OW25282   4.416   1.148   3.219 -0.4308  0.4000 -0.0287
 4608SOL    HW125283   4.473   1.105   3.154  0.4180 -1.1024  1.6923
 4608SOL    HW225284   4.403   1.237   3.188 -0.3157  0.5557  0.3697
 4609SOL     OW25285   0.766   1.536   2.030 -0.1512  0.4368 -0.0847
 4609SOL    HW125286   0.794   1.602   2.092  1.1049  0.0288 -0.2060
 4609SOL    HW225287   0.755   1.460   2.087  0.1582  0.2638 -0.2535
 4610SOL     OW25288   4.673   0.894   6.247  0.0297 -0.3808  0.1300
 4610SOL    HW125289   4.671   0.967   6.309 -0.9334  0.6807 -1.1642
 4610SOL    HW225290   4.579   0.874   6.244 -0.2259  1.2494 -2.6729
 4611SOL     OW25291   2.588   1.243   1.166  0.2073  0.5020 -0.4859
 4611SOL    HW125292   2.505   1.213   1.200 -0.6464  3.1376 -0.2475
 4611SOL    HW225293   2.556   1.305   1.101  1.1543 -0.5120 -1.9294
 4612SOL     OW25294   4.168   4.340   4.768 -0.5521 -0.0272 -0.1683
 4612SOL    HW125295   4.073   4.349   4.761 -0.4951  0.8171  0.1975
 4612SOL    HW225296   4.205   4.377   4.688 -0.5375 -1.5845 -0.8765
 4613SOL     OW25297   2.505   3.599   0.400  0.0990 -0.0642 -0.1538
 4613SOL    HW125298   2.451   3.629   0.473  1.7674  1.2798  0.5181
 4613SOL    HW225299   2.499   3.676   0.343  1.3377  0.6647  0.6883
 4614SOL     OW25300   3.808   1.508   5.971 -0.6368 -0.1173 -0.4715
 4614SOL    HW125301   3.854   1.584   5.936  1.3054 -0.3381  1.6020
 4614SOL    HW225302   3.757   1.490   5.892  0.2708 -1.0311 -0.8452
 4615SOL     OW25303   0.724   0.756  14.334  0.4395 -0.1812  0.1921
 4615SOL    HW125304   0.639   0.800  14.332 -0.7402 -2.3841  2.4148
 4615SOL    HW225305   0.691   0.684  14.280  0.5462 -0.2950  0.2787
 4616SOL     OW25306   3.802   0.434   6.109  0.0114  0.0181 -0.2652
 4616SOL    HW125307   3.762   0.488   6.177 -0.1917 -1.1720  0.5550
 4616SOL    HW225308   3.754   0.354   6.126 -0.9501  0.5526 -0.4732
 4617SOL     OW25309   4.047   3.521   5.682  0.3976 -0.4765 -0.3551
 4617SOL    HW125310   4.135   3.554   5.671  0.6436 -0.5424  1.3753
 4617SOL    HW225311   4.069   3.469   5.759  0.0495  0.5743  0.4506
 4618SOL     OW25312   2.766   3.246   9.021  0.4754  0.0442  0.0658
 4618SOL    HW125313   2.704   3.219   8.954  1.4252  1.3854 -1.3340
 4618SOL    HW225314   2.724   3.322   9.061 -2.6913 -0.6840 -1.9121
 4619SOL     OW25315   4.281   4.374   4.525  0.0166  0.3711  1.1163
 4619SOL    HW125316   4.230   4.452   4.502 -1.3558 -0.7923  0.2762
 4619SOL    HW225317   4.296   4.338   4.437  0.1639 -1.3384  1.8410
 4620SOL     OW25318   2.063   1.228   4.277 -0.0493 -0.2304 -0.3963
 4620SOL    HW125319   2.149   1.217   4.318 -0.9922  0.7094  1.8384
 4620SOL    HW225320   2.067   1.320   4.252  1.3485  0.0127  0.7449
 4621SOL     OW25321   1.545   1.680   9.278 -0.0666  0.4064 -0.1361
 4621SOL    HW125322   1.537   1.775   9.288  0.2011  0.2565  1.5303
 4621SOL    HW225323   1.544   1.636   9.363 -3.2755  2.0628  0.6751
 4622SOL     OW25324   1.602   0.315   2.786  0.3566  0.0237  0.0534
 4622SOL    HW125325   1.552   0.236   2.770  2.1616 -1.1195  0.0237
 4622SOL    HW225326   1.683   0.283   2.746  1.1220  1.4648  0.4560
 4623SOL     OW25327   3.223   1.793   1.627 -0.2377 -0.7477 -0.1856
 4623SOL    HW125328   3.202   1.845   1.549  0.6026  0.4273  0.3599
 4623SOL    HW225329   3.144   1.741   1.623 -0.7492 -0.0567  1.0220
 4624SOL     OW25330   3.136   1.973   6.124  0.1017 -0.4984 -0.3172
 4624SOL    HW125331   3.218   1.953   6.170 -1.3356 -1.1661  1.9621
 4624SOL    HW225332   3.117   1.885   6.093  1.4126 -0.9030  0.0291
 4625SOL     OW25333   0.678   3.768   6.312  0.1264  0.3774 -0.1761
 4625SOL    HW125334   0.679   3.684   6.357 -0.0104 -0.0840 -1.0442
 4625SOL    HW225335   0.651   3.833   6.377  1.2181 -0.5351  1.1902
 4626SOL     OW25336   3.484   2.581  13.346 -0.2579 -0.2515 -0.0433
 4626SOL    HW125337   3.570   2.545  13.325 -1.7938 -2.5112 -2.3816
 4626SOL    HW225338   3.508   2.670  13.372 -1.2231 -0.0759  0.2668
 4627SOL     OW25339   1.480   3.171  13.742 -0.0435  0.3514 -0.1235
 4627SOL    HW125340   1.451   3.145  13.654 -3.0688  2.1892  0.3334
 4627SOL    HW225341   1.451   3.099  13.797  0.8566 -1.2844 -1.8179
 4628SOL     OW25342   3.945   2.871  12.864  0.4057  0.4052  0.0081
 4628SOL    HW125343   3.849   2.877  12.856  0.3740  1.4453  1.2819
 4628SOL    HW225344   3.966   2.880  12.771 -1.5120  1.3205 -0.3359
 4629SOL     OW25345   2.052   4.523   3.832  0.9209  0.0573  0.5109
 4629SOL    HW125346   2.102   4.552   3.908 -0.5687  3.9513 -0.0059
 4629SOL    HW225347   1.996   4.598   3.809 -0.9626 -1.4456  0.1931
 4630SOL     OW25348   3.692   0.176   4.347  0.1606  0.3890  0.8396
 4630SOL    HW125349   3.615   0.127   4.318  0.1602 -0.6198  2.5767
 4630SOL    HW225350   3.669   0.217   4.430  0.0778  1.4170  0.3200
 4631SOL     OW25351   0.468   2.715   5.229  0.1977  0.4048  0.1647
 4631SOL    HW125352   0.483   2.809   5.226  2.7007 -0.0386 -1.1695
 4631SOL    HW225353   0.432   2.703   5.317 -0.8122  0.4167 -0.2385
 4632SOL     OW25354   3.135   0.459   2.140 -0.2477  0.1003  0.1898
 4632SOL    HW125355   3.076   0.534   2.133 -0.9711 -0.1750  3.4165
 4632SOL    HW225356   3.214   0.500   2.173  0.3598 -1.0025  0.1047
 4633SOL     OW25357   4.653   4.571   7.462  0.7703 -0.0350 -0.4732
 4633SOL    HW125358   4.650   4.657   7.419  1.9181  1.4687  2.4039
 4633SOL    HW225359   4.702   4.520   7.398  4.3066  1.1008  1.3037
 4634SOL     OW25360   0.749   0.630   6.303 -0.0274  0.3228  0.0213
 4634SOL    HW125361   0.742   0.612   6.210  0.8115  0.5693 -0.0944
 4634SOL    HW225362   0.679   0.693   6.317 -0.0556 -0.1880  2.3011
 4635SOL     OW25363   2.788   1.153   3.526  0.3068  0.1725 -0.0751
 4635SOL    HW125364   2.767   1.240   3.560  0.5269 -0.2782  1.2376
 4635SOL    HW225365   2.873   1.139   3.568  0.7668  1.2786 -0.6496
 4636SOL     OW25366   4.712   3.562   2.573  0.4713  0.3680 -0.1040
 4636SOL    HW125367   4.687   3.473   2.546 -1.6407  0.4832  1.4199
 4636SOL    HW225368   4.666   3.626   2.518  0.5685 -0.4126 -1.0899
 4637SOL     OW25369   0.193   3.760   2.501  0.0588  0.2330 -0.0924
 4637SOL    HW125370   0.138   3.685   2.480  0.1859  0.3821 -0.9478
 4637SOL    HW225371   0.240   3.735   2.581  1.0223  2.0481 -0.0921
 4638SOL     OW25372   0.445   3.195  16.629  0.4137 -0.8456  0.4124
 4638SOL    HW125373   0.533   3.219  16.602 -0.3909  2.9326  1.1553
 4638SOL    HW225374   0.412   3.161  16.547  0.6816  0.6265 -0.3010
 4639SOL     OW25375   4.457   3.619  10.797  0.0465  0.0265 -0.5236
 4639SOL    HW125376   4.374   3.577  10.820  0.2699  0.3353  0.8112
 4639SOL    HW225377   4.439   3.699  10.845  1.1007  0.7058 -1.2708
 4640SOL     OW25378   0.955   2.069   9.894  0.1497  0.9724  0.1754
 4640SOL    HW125379   0.959   2.090   9.987  0.7846 -0.2966  0.4420
 4640SOL    HW225380   1.046   2.042   9.882  0.0708  1.0590 -0.5999
 4641SOL     OW25381   3.834   3.921   8.704  0.7956  0.2908 -0.1013
 4641SOL    HW125382   3.876   3.922   8.790  0.6279  0.2439 -0.0190
 4641SOL    HW225383   3.855   3.999   8.652 -1.9378  1.9617  1.2941
 4642SOL     OW25384   0.459   2.355   2.940  0.2082  0.5896 -0.1936
 4642SOL    HW125385   0.498   2.268   2.938 -2.9025 -0.7475 -2.2404
 4642SOL    HW225386   0.433   2.360   2.848 -0.8527  0.4401  0.0977
 4643SOL     OW25387   2.717   4.236   3.513 -0.4581 -0.3163 -0.7082
 4643SOL    HW125388   2.775   4.184   3.568 -0.5538  1.3215  0.9260
 4643SOL    HW225389   2.635   4.193   3.537  1.0304 -2.5301  0.3448
 4644SOL     OW25390   4.577   0.502   2.049 -0.2083 -0.0053 -0.1149
 4644SOL    HW125391   4.616   0.588   2.035  2.4901 -1.0168  1.2722
 4644SOL    HW225392   4.569   0.477   1.957  1.8079 -2.3133  0.3473
 4645SOL     OW25393   0.353   2.752   4.159 -0.4934 -0.1132 -0.0578
 4645SOL    HW125394   0.262   2.779   4.144 -0.5626  0.0931  0.7014
 4645SOL    HW225395   0.391   2.839   4.173 -2.9742  0.8274  0.8997
 4646SOL     OW25396   0.244   3.736   1.404  0.3886 -0.1506 -0.4594
 4646SOL    HW125397   0.252   3.822   1.446  1.9244 -0.3505 -0.3281
 4646SOL    HW225398   0.336   3.715   1.389 -0.2052 -2.7607 -0.3914
 4647SOL     OW25399   1.276   1.580   5.487 -0.4269 -0.0599 -0.1665
 4647SOL    HW125400   1.295   1.608   5.397  0.0800  2.0740  0.6042
 4647SOL    HW225401   1.232   1.653   5.531  2.1983  3.6460 -3.6820
 4648SOL     OW25402   1.616   0.716   2.134 -0.5968  0.1686 -0.4991
 4648SOL    HW125403   1.705   0.686   2.119 -0.9567 -1.3026  0.2693
 4648SOL    HW225404   1.594   0.679   2.220 -0.4016 -0.7540 -0.8514
 4649SOL     OW25405   4.554   3.338   5.528  0.3939  0.1705 -0.2104
 4649SOL    HW125406   4.648   3.360   5.528  1.1326 -3.0336  0.1989
 4649SOL    HW225407   4.549   3.263   5.587  0.1410  1.2159  1.1041
 4650SOL     OW25408   1.647   3.504   3.461  0.0483  0.1870  0.4510
 4650SOL    HW125409   1.696   3.558   3.399  1.7409 -1.8588  0.0227
 4650SOL    HW225410   1.715   3.478   3.523  0.3357 -2.2374 -0.8817
 4651SOL     OW25411   0.296   1.274   4.522  0.7538 -0.7147  0.7334
 4651SOL    HW125412   0.215   1.239   4.484  0.9522 -1.2231  0.7697
 4651SOL    HW225413   0.321   1.209   4.588 -1.9540 -1.2833  1.1830
 4652SOL     OW25414   2.276   2.885   9.591  0.0794  0.6479 -0.3419
 4652SOL    HW125415   2.253   2.932   9.672  0.4328  0.6672 -0.2542
 4652SOL    HW225416   2.362   2.848   9.609 -0.0531  1.0345  1.1402
 4653SOL     OW25417   1.090   3.084   7.833 -0.1827  0.1756  0.2655
 4653SOL    HW125418   1.115   3.175   7.845  1.3135 -0.0262 -1.2179
 4653SOL    HW225419   1.180   3.051   7.826 -0.2653 -0.5010  2.5826
 4654SOL     OW25420   0.727   3.573   8.807  0.2514  0.0497 -0.1519
 4654SOL    HW125421   0.639   3.593   8.777  0.3129 -0.0723 -0.4153
 4654SOL    HW225422   0.763   3.662   8.806 -1.4421  0.7143 -2.7512
 4655SOL     OW25423   2.967   3.576   2.062  0.4696  0.0258  0.1330
 4655SOL    HW125424   2.984   3.484   2.083 -0.7724 -0.7129 -2.1735
 4655SOL    HW225425   3.030   3.591   1.992  0.7506  1.7084  0.7395
 4656SOL     OW25426   2.681   2.230   7.223  0.9139  0.1521  0.6164
 4656SOL    HW125427   2.634   2.173   7.162 -0.7508  1.5234  0.5959
 4656SOL    HW225428   2.614   2.299   7.226  0.0242 -0.6983  0.3099
 4657SOL     OW25429   0.559   1.665  13.402 -0.1302  0.2565  0.1696
 4657SOL    HW125430   0.477   1.647  13.448 -0.4615 -0.4109 -0.6813
 4657SOL    HW225431   0.546   1.625  13.316 -0.6051  0.6725  0.0478
 4658SOL     OW25432   4.124   3.152  10.307 -0.0629  0.6886 -0.0402
 4658SOL    HW125433   4.043   3.145  10.257  0.0876 -0.7832 -0.0575
 4658SOL    HW225434   4.185   3.092  10.266  0.5337  1.8644 -0.8776
 4659SOL     OW25435   0.976   3.201   3.675 -0.3029 -0.2159  0.5217
 4659SOL    HW125436   0.963   3.264   3.604 -1.8741 -0.6032  0.4680
 4659SOL    HW225437   0.920   3.236   3.744 -0.3721  1.3485 -0.3165
 4660SOL     OW25438   0.078   1.491   4.703  0.1611  0.4548 -0.1033
 4660SOL    HW125439   0.030   1.499   4.620 -2.6656 -1.1020  1.3900
 4660SOL    HW225440   0.150   1.553   4.693  1.8943 -1.9838 -3.0256
 4661SOL     OW25441   0.726   1.260   0.541  0.0771  0.1882 -0.0160
 4661SOL    HW125442   0.686   1.241   0.456 -1.6710  1.1279  0.5835
 4661SOL    HW225443   0.792   1.325   0.516 -1.4831  1.7282 -0.1780
 4662SOL     OW25444   3.188   1.615   5.478 -0.0482  0.0061  0.9250
 4662SOL    HW125445   3.191   1.617   5.574  0.6174  1.6393  0.8645
 4662SOL    HW225446   3.170   1.706   5.455 -0.6388 -0.1204  0.8909
 4663SOL     OW25447   4.136   3.750   4.246 -0.4891  0.0078 -0.4971
 4663SOL    HW125448   4.040   3.752   4.244 -0.5120  0.1884  0.5630
 4663SOL    HW225449   4.151   3.716   4.334 -1.9152  1.8376  0.4641
 4664SOL     OW25450   2.921   0.720   5.188 -0.6126  0.4597  0.2542
 4664SOL    HW125451   2.845   0.705   5.131 -0.9407  2.4634  0.1646
 4664SOL    HW225452   2.969   0.637   5.175 -0.3160  0.6709 -0.0078
 4665SOL     OW25453   4.487   0.542   6.610 -0.3434 -0.7137  0.1701
 4665SOL    HW125454   4.575   0.571   6.584 -2.2669  3.6655 -1.4754
 4665SOL    HW225455   4.475   0.589   6.693 -0.9119  1.4739 -1.1649
 4666SOL     OW25456   0.572   2.104   7.468 -0.2001 -0.4337 -0.1193
 4666SOL    HW125457   0.621   2.125   7.389  0.2804 -0.1668  0.2544
 4666SOL    HW225458   0.635   2.129   7.535 -2.3604  0.4029  1.5915
 4667SOL     OW25459   4.153   1.014  12.664  0.1493  0.2623  0.7972
 4667SOL    HW125460   4.192   0.945  12.717  0.9287 -0.7621 -1.1444
 4667SOL    HW225461   4.064   0.988  12.689  0.4833 -0.5247  1.1687
 4668SOL     OW25462   3.760   3.249   3.375  0.5010 -0.1440  0.1885
 4668SOL    HW125463   3.748   3.159   3.347 -0.8232  0.0322  0.1834
 4668SOL    HW225464   3.845   3.238   3.416  1.4001  1.4463 -1.2534
 4669SOL     OW25465   1.559   0.214   7.325  0.0988 -0.2798 -0.1704
 4669SOL    HW125466   1.628   0.209   7.391  0.0277  1.5466  0.0435
 4669SOL    HW225467   1.527   0.126   7.305  2.9407 -1.1641 -0.8237
 4670SOL     OW25468   3.936   4.362   1.326 -0.2360  0.0574  0.3074
 4670SOL    HW125469   3.949   4.408   1.243  1.3138 -1.3285 -0.2288
 4670SOL    HW225470   3.871   4.296   1.300  0.2621 -0.2164 -0.2702
 4671SOL     OW25471   3.507   0.139   7.135 -0.1253  0.3944  0.5040
 4671SOL    HW125472   3.498   0.085   7.056  0.9014 -0.2647  0.8430
 4671SOL    HW225473   3.468   0.221   7.105 -0.4380  0.7942  2.0393
 4672SOL     OW25474   1.489   0.417   5.836  0.1050  0.3626  0.3621
 4672SOL    HW125475   1.488   0.322   5.828  1.4713  0.4050 -0.1827
 4672SOL    HW225476   1.581   0.432   5.857  0.9129 -1.5031 -1.8512
 4673SOL     OW25477   2.995   0.827   4.044  0.4873  0.5022 -0.4826
 4673SOL    HW125478   3.087   0.819   4.070  0.7226 -1.3895 -1.8851
 4673SOL    HW225479   3.003   0.772   3.966 -2.4893  0.3931 -0.6951
 4674SOL     OW25480   2.001   0.752   4.074  0.2417 -0.0990 -0.4481
 4674SOL    HW125481   2.074   0.726   4.018  2.0344  1.8654  0.9677
 4674SOL    HW225482   1.996   0.847   4.077  0.8605 -0.1488  2.1682
 4675SOL     OW25483   0.885   0.917   2.236 -0.0174 -0.0639 -0.5019
 4675SOL    HW125484   0.835   0.867   2.171  1.8263 -0.8236 -1.3647
 4675SOL    HW225485   0.907   0.992   2.182  0.3127 -0.7863 -1.3805
 4676SOL     OW25486   1.434   4.138   3.362  0.0372  0.1271 -0.1913
 4676SOL    HW125487   1.495   4.067   3.342  1.4043  0.7133  1.9538
 4676SOL    HW225488   1.477   4.175   3.439  3.1493 -0.7649 -1.4766
 4677SOL     OW25489   1.243   0.911  13.876  0.5443  0.0975 -0.2354
 4677SOL    HW125490   1.216   0.862  13.954  0.4561 -0.4236 -0.5906
 4677SOL    HW225491   1.338   0.902  13.878  0.5614  0.9838  3.0934
 4678SOL     OW25492   0.427   4.108   2.101  0.1373 -0.1852  0.2502
 4678SOL    HW125493   0.414   4.094   2.195  2.1682  0.6761  0.6670
 4678SOL    HW225494   0.429   4.202   2.084 -1.8572 -0.8256 -3.6375
 4679SOL     OW25495   3.343   3.170   9.247 -0.4041  0.0979  0.2951
 4679SOL    HW125496   3.421   3.224   9.264  0.7985 -1.3819 -0.4542
 4679SOL    HW225497   3.383   3.085   9.230  0.1783  0.7902 -1.7677
 4680SOL     OW25498   4.187   2.084   0.730 -0.0408 -0.1732 -0.2750
 4680SOL    HW125499   4.212   2.073   0.638  0.1682  0.5770 -0.3087
 4680SOL    HW225500   4.275   2.110   0.758  0.4546 -0.6994 -1.3294
 4681SOL     OW25501   4.346   0.830  17.273  0.2975  0.0181 -0.2527
 4681SOL    HW125502   4.265   0.835  17.221 -0.6590  3.5235  1.5633
 4681SOL    HW225503   4.331   0.897  17.339  1.5792  1.4597 -1.4108
 4682SOL     OW25504   2.430   1.256   0.438 -0.4125 -0.0794  0.4557
 4682SOL    HW125505   2.501   1.192   0.446  1.1708  1.6387 -0.0444
 4682SOL    HW225506   2.363   1.204   0.394  1.2112  0.4720 -2.6525
 4683SOL     OW25507   0.342   1.904   5.130 -0.2165  0.4091 -0.3200
 4683SOL    HW125508   0.326   1.952   5.049  3.0846  0.4571 -0.9668
 4683SOL    HW225509   0.349   1.814   5.098  1.4390  0.4508 -0.1051
 4684SOL     OW25510   2.719   1.877   2.644  0.1324  0.2342  0.4089
 4684SOL    HW125511   2.644   1.923   2.607 -0.3026 -1.9029 -1.4185
 4684SOL    HW225512   2.774   1.855   2.568 -3.9809 -0.7625 -2.2403
 4685SOL     OW25513   0.538   2.428   1.391  0.0625 -0.0249 -0.6952
 4685SOL    HW125514   0.618   2.389   1.356  0.5574 -0.3814  0.8032
 4685SOL    HW225515   0.518   2.481   1.314 -0.1826 -1.4877 -1.6442
 4686SOL     OW25516   0.515   0.413   5.113 -0.1989 -0.0590  0.1224
 4686SOL    HW125517   0.592   0.466   5.092  0.9487 -1.2882  1.2735
 4686SOL    HW225518   0.442   0.474   5.103 -0.5455 -0.8220 -1.8767
 4687SOL     OW25519   3.362   1.217  15.160 -0.0146 -0.8282 -0.2448
 4687SOL    HW125520   3.347   1.151  15.228  3.7843 -1.6048 -0.1897
 4687SOL    HW225521   3.275   1.238  15.126 -0.1669 -0.0515  0.6256
 4688SOL     OW25522   3.842   1.129   8.227  0.6993  0.0475 -0.2090
 4688SOL    HW125523   3.781   1.193   8.262  0.5948  0.1819 -0.6290
 4688SOL    HW225524   3.876   1.087   8.306  1.2206 -1.4797 -1.2377
 4689SOL     OW25525   2.522   2.519  13.906 -0.1124  0.2276  0.0915
 4689SOL    HW125526   2.455   2.587  13.912  0.2187  0.5129  0.6494
 4689SOL    HW225527   2.576   2.532  13.985 -0.6669 -0.6816  0.6160
 4690SOL     OW25528   3.152   3.847   8.599  0.6594  0.5624 -0.0335
 4690SOL    HW125529   3.088   3.865   8.530  1.0451  2.8112  0.2025
 4690SOL    HW225530   3.152   3.752   8.586 -0.5740  0.5106  0.2906
 4691SOL     OW25531   1.203   3.003   5.916 -0.1025 -0.5512 -0.1767
 4691SOL    HW125532   1.292   3.030   5.896 -0.0356  0.3239  1.3071
 4691SOL    HW225533   1.147   3.065   5.869  0.6513  0.1881 -0.0918
 4692SOL     OW25534   0.485   3.041   7.730  0.8637  0.1658 -0.0447
 4692SOL    HW125535   0.540   3.119   7.732 -0.8621  1.3962 -0.1761
 4692SOL    HW225536   0.543   2.974   7.694  1.8454  0.4629  0.9776
 4693SOL     OW25537   2.887   0.279   7.638 -0.0503  0.3361  0.2298
 4693SOL    HW125538   2.979   0.303   7.625  0.5938 -1.2320  1.8035
 4693SOL    HW225539   2.906   0.221   7.711  0.1119 -1.4316 -1.2073
 4694SOL     OW25540   1.201   2.578   6.948 -0.0104 -0.7538 -0.4550
 4694SOL    HW125541   1.263   2.649   6.961  1.2873 -1.6155 -1.8995
 4694SOL    HW225542   1.247   2.536   6.875  1.8182 -1.3479  1.0406
 4695SOL     OW25543   2.221   4.599   4.274 -0.1738  0.0185  0.3592
 4695SOL    HW125544   2.154   4.600   4.342  0.6897  0.6271  1.1957
 4695SOL    HW225545   2.287   4.567   4.335  0.7760  0.9774 -0.1797
 4696SOL     OW25546   3.359   2.917   8.555  0.2864  0.1843 -0.1531
 4696SOL    HW125547   3.308   2.942   8.632 -0.9935 -0.2350 -0.8712
 4696SOL    HW225548   3.319   2.830   8.551 -0.4231  0.4718  0.7110
 4697SOL     OW25549   2.403   2.217  15.403 -0.5571  0.2989 -0.1005
 4697SOL    HW125550   2.470   2.149  15.392 -0.7542 -0.0333  0.7643
 4697SOL    HW225551   2.352   2.216  15.322  0.4325  1.5338 -0.7360
 4698SOL     OW25552   0.543   4.655   5.566  0.1850 -0.2567  0.7446
 4698SOL    HW125553   0.511   4.631   5.652 -1.4162  0.3007  0.2921
 4698SOL    HW225554   0.627   4.609   5.556 -0.1868 -0.9216  0.7429
 4699SOL     OW25555   3.897   3.142  13.052 -0.5149  0.0107 -0.2330
 4699SOL    HW125556   3.845   3.071  13.015 -1.2867  0.3096  0.2795
 4699SOL    HW225557   3.983   3.100  13.051 -0.4728  0.0413  2.2376
 4700SOL     OW25558   0.726   3.001   3.577  0.0399  0.1582  0.1212
 4700SOL    HW125559   0.688   2.935   3.635 -0.9016 -1.2511 -2.0880
 4700SOL    HW225560   0.814   2.968   3.558  0.2143 -1.5557  3.9390
 4701SOL     OW25561   4.523   0.368   5.136 -0.5488  0.2177 -0.6451
 4701SOL    HW125562   4.592   0.339   5.077 -0.4589  1.4260 -1.1281
 4701SOL    HW225563   4.509   0.288   5.187  1.0372 -1.0554 -2.2173
 4702SOL     OW25564   0.084   2.025  10.822  0.2777  0.1872  0.0476
 4702SOL    HW125565   0.164   2.076  10.833 -0.0205  0.6808 -0.0722
 4702SOL    HW225566   0.048   2.022  10.910  1.7714 -0.8596  0.6134
 4703SOL     OW25567   3.044   1.134   6.644 -1.0501 -0.0492 -0.3286
 4703SOL    HW125568   3.053   1.163   6.735 -2.8689 -2.2110  0.5526
 4703SOL    HW225569   3.072   1.042   6.645 -0.0007  0.2817  0.2743
 4704SOL     OW25570   0.416   3.817  11.315  0.0396  0.1157  0.0423
 4704SOL    HW125571   0.431   3.787  11.405  1.1215  3.4529  0.9644
 4704SOL    HW225572   0.437   3.734  11.272  3.3218  0.9453  0.0715
 4705SOL     OW25573   1.864   2.574  15.408 -0.7183 -0.2959  0.6869
 4705SOL    HW125574   1.849   2.501  15.348 -1.8413  2.4038 -2.3140
 4705SOL    HW225575   1.959   2.575  15.415 -0.7354  0.7646  0.7548
 4706SOL     OW25576   0.562   3.264   6.295  0.8703  0.5408  0.4000
 4706SOL    HW125577   0.599   3.199   6.235 -0.8122  1.4769 -1.6193
 4706SOL    HW225578   0.637   3.323   6.290  1.8335 -0.8312 -1.5699
 4707SOL     OW25579   1.266   0.210   0.083 -0.2007  0.3603 -0.2635
 4707SOL    HW125580   1.238   0.121   0.061  1.6310 -0.6207  1.3282
 4707SOL    HW225581   1.324   0.184   0.155 -3.8060 -0.4460  2.3540
 4708SOL     OW25582   0.286   0.839   0.109  0.5756 -0.1573 -0.0563
 4708SOL    HW125583   0.214   0.883   0.153  0.9688 -2.0969  2.5516
 4708SOL    HW225584   0.233   0.780   0.055 -0.2091  1.9329 -1.5354
 4709SOL     OW25585   3.608   3.873   1.352 -0.9702  0.1675  0.0555
 4709SOL    HW125586   3.695   3.833   1.345 -0.7972  0.8581 -1.8768
 4709SOL    HW225587   3.564   3.825   1.421  0.3237  0.6765  1.2292
 4710SOL     OW25588   3.997   3.184   7.037  0.4945  0.1329 -0.5929
 4710SOL    HW125589   4.011   3.234   7.117 -0.8130  1.6757 -1.3278
 4710SOL    HW225590   4.070   3.221   6.986  0.4178  1.6167  0.3573
 4711SOL     OW25591   2.005   3.326  10.198  0.4265  0.2582 -0.2625
 4711SOL    HW125592   2.088   3.335  10.244  0.8425 -0.6294 -0.8360
 4711SOL    HW225593   1.948   3.350  10.271  0.2848  1.4729 -0.7744
 4712SOL     OW25594   0.101   0.311   4.047  0.4666 -0.4127  0.2234
 4712SOL    HW125595   0.124   0.218   4.040  2.2246 -0.0075  0.5312
 4712SOL    HW225596   0.153   0.330   4.124 -0.1623  0.4340  0.4348
 4713SOL     OW25597   0.253   1.547  11.132  0.0322 -0.0776 -0.0737
 4713SOL    HW125598   0.213   1.623  11.175  0.3500  0.9106 -1.5215
 4713SOL    HW225599   0.242   1.475  11.194 -0.2510  1.6950  1.9294
 4714SOL     OW25600   1.252   3.649   5.926 -0.5880  0.2977 -0.0208
 4714SOL    HW125601   1.298   3.669   6.007  0.4017 -0.9747 -0.2748
 4714SOL    HW225602   1.212   3.564   5.941  0.6135  0.1405  2.1847
 4715SOL     OW25603   3.573   2.726  15.680  0.5197  0.2968  0.7346
 4715SOL    HW125604   3.526   2.749  15.760 -1.7562 -0.0556 -0.4769
 4715SOL    HW225605   3.539   2.782  15.610  0.0771 -0.8526  0.0086
 4716SOL     OW25606   1.357   3.671  17.128 -0.3140  0.0966 -0.6166
 4716SOL    HW125607   1.364   3.587  17.084  0.4471  0.3822 -1.0379
 4716SOL    HW225608   1.375   3.727  17.052  1.5334  0.6930  0.2464
 4717SOL     OW25609   4.050   0.657  17.295 -0.0789 -0.4070  0.1706
 4717SOL    HW125610   4.100   0.691  17.370 -1.1198 -1.3914  1.3132
 4717SOL    HW225611   3.959   0.664  17.323 -0.0458  0.1155  0.1523
 4718SOL     OW25612   3.722   2.786   2.279  0.2933  0.6203  0.0034
 4718SOL    HW125613   3.688   2.798   2.190 -2.0846  1.0641  0.9529
 4718SOL    HW225614   3.640   2.788   2.328 -0.9859 -1.3149 -2.0507
 4719SOL     OW25615   1.392   3.961  16.508 -0.0384  0.4000 -0.4296
 4719SOL    HW125616   1.396   3.930  16.418  0.0821  0.0533 -0.3009
 4719SOL    HW225617   1.477   4.004  16.520 -0.1615  0.2394  1.0702
 4720SOL     OW25618   2.556   4.194   8.435  0.2391  0.3158  0.1915
 4720SOL    HW125619   2.569   4.201   8.340  0.1335 -0.4230  0.1236
 4720SOL    HW225620   2.560   4.099   8.446 -0.8428  0.4200  1.4541
 4721SOL     OW25621   4.001   2.227   4.425  0.2653 -0.2201  0.4492
 4721SOL    HW125622   4.045   2.278   4.493  2.7641  0.5335 -1.7562
 4721SOL    HW225623   4.060   2.151   4.433  0.5862  0.0535  0.6617
 4722SOL     OW25624   3.750   2.742   1.237 -0.1413 -0.0786  0.3111
 4722SOL    HW125625   3.695   2.687   1.292  1.3886 -0.9750  0.9397
 4722SOL    HW225626   3.814   2.680   1.203 -0.0418 -0.1304  0.5980
 4723SOL     OW25627   0.028   3.576   4.637  0.2845  0.1537 -0.4791
 4723SOL    HW125628   4.711   3.495   4.669 -0.1883 -0.6294 -3.0784
 4723SOL    HW225629   4.672   3.626   4.616 -0.6058 -1.2120 -0.3890
 4724SOL     OW25630   3.747   3.679  14.131  0.0516  0.0105  0.2050
 4724SOL    HW125631   3.777   3.652  14.045 -2.2851 -1.0772 -0.2740
 4724SOL    HW225632   3.688   3.606  14.149 -1.0188  0.4367 -1.6246
 4725SOL     OW25633   0.638   3.469  15.601 -0.5885  0.0358  0.0468
 4725SOL    HW125634   0.665   3.552  15.562 -0.7445  0.3544  0.6288
 4725SOL    HW225635   0.566   3.499  15.656 -0.1355 -1.4803  1.4496
 4726SOL     OW25636   0.992   2.101   8.991  0.3095 -0.2065  0.0428
 4726SOL    HW125637   0.926   2.139   8.933  0.5710 -0.6464 -0.5448
 4726SOL    HW225638   0.950   2.018   9.011 -0.3476  0.2724  0.6356
 4727SOL     OW25639   3.183   4.481  16.738 -0.0093 -0.5001 -0.4563
 4727SOL    HW125640   3.220   4.460  16.824  1.7719  1.1805 -0.7953
 4727SOL    HW225641   3.267   4.483  16.690  0.6584 -1.1273  0.6912
 4728SOL     OW25642   2.423   2.020   6.048 -0.0153  0.0713  0.0646
 4728SOL    HW125643   2.447   2.112   6.046  0.7960 -0.1493 -0.2187
 4728SOL    HW225644   2.344   2.030   6.101  1.1648 -0.2783  1.8738
 4729SOL     OW25645   1.635   0.735   6.533  0.1614  0.7881 -0.2256
 4729SOL    HW125646   1.633   0.822   6.494  0.0839  0.9625  0.1624
 4729SOL    HW225647   1.716   0.728   6.583  0.3719  1.7440 -0.4278
 4730SOL     OW25648   3.843   4.547  14.123  0.3644  0.0681  0.2983
 4730SOL    HW125649   3.822   4.482  14.056  0.1089 -3.0208  3.3946
 4730SOL    HW225650   3.769   4.607  14.129 -0.0348 -0.2384 -1.6200
 4731SOL     OW25651   2.797   0.767  13.247 -0.2545 -0.3271  0.2602
 4731SOL    HW125652   2.730   0.815  13.198 -0.3945 -0.0286  0.7440
 4731SOL    HW225653   2.758   0.682  13.223  0.4410 -0.1893 -1.3878
 4732SOL     OW25654   1.734   0.020   1.376  0.4887 -0.2416 -0.4470
 4732SOL    HW125655   1.772   4.659   1.348 -1.9486 -1.4414 -0.1877
 4732SOL    HW225656   1.739   0.072   1.296 -0.3745 -1.3951 -1.2402
 4733SOL     OW25657   4.513   2.282   2.068 -0.2622 -0.2680  0.2362
 4733SOL    HW125658   4.434   2.284   2.014  1.5732 -0.6421 -2.4655
 4733SOL    HW225659   4.580   2.325   2.014  1.4163 -1.1616  1.6153
 4734SOL     OW25660   3.473   3.395  11.585 -0.0435 -0.1239  0.5304
 4734SOL    HW125661   3.440   3.473  11.630 -0.8728 -0.5757  0.7003
 4734SOL    HW225662   3.468   3.415  11.492  0.5873 -0.0021  0.5227
 4735SOL     OW25663   4.662   3.618  12.203  0.3081  0.1631  0.0513
 4735SOL    HW125664   4.650   3.590  12.294  1.6073  0.4196  0.2983
 4735SOL    HW225665   4.583   3.575  12.170  0.8328 -0.8443  0.0945
 4736SOL     OW25666   4.362   1.851  12.152 -0.4522 -0.2551  0.2964
 4736SOL    HW125667   4.349   1.930  12.100 -0.7992 -2.0310 -2.3535
 4736SOL    HW225668   4.352   1.784  12.084  2.0739 -2.0673  1.7032
 4737SOL     OW25669   2.998   3.554   4.100  0.1592 -0.2183  0.1064
 4737SOL    HW125670   3.015   3.480   4.041 -3.2191 -2.0422  1.4508
 4737SOL    HW225671   2.948   3.607   4.038 -0.3024 -0.7808  0.0038
 4738SOL     OW25672   3.584   2.157  11.282 -0.0168 -0.2007  0.0468
 4738SOL    HW125673   3.626   2.086  11.233 -1.5687  0.2771 -1.9880
 4738SOL    HW225674   3.599   2.234  11.228 -0.6324 -0.0986  0.0184
 4739SOL     OW25675   0.832   3.704   9.351 -0.1107 -0.0497  0.5268
 4739SOL    HW125676   0.823   3.675   9.442  1.3415 -0.8416  0.4177
 4739SOL    HW225677   0.795   3.629   9.304  0.4097  0.5167 -0.8041
 4740SOL     OW25678   2.330   0.925   1.705  0.3900 -0.8612 -0.3649
 4740SOL    HW125679   2.331   1.020   1.692 -0.2584 -0.8008  0.0485
 4740SOL    HW225680   2.235   0.920   1.714  0.5921 -1.6933  1.3345
 4741SOL     OW25681   2.689   4.457  16.421 -0.0044  0.0834 -0.1466
 4741SOL    HW125682   2.655   4.517  16.487 -0.0813 -0.8407  0.6493
 4741SOL    HW225683   2.624   4.387  16.426 -0.0974  0.0974 -1.0911
 4742SOL     OW25684   2.733   1.736   6.725 -0.4641 -0.2926  0.2697
 4742SOL    HW125685   2.716   1.644   6.704 -0.6181 -0.3352  0.5795
 4742SOL    HW225686   2.660   1.758   6.782 -1.0204 -0.9762 -0.1713
 4743SOL     OW25687   2.410   1.383   8.705 -0.2029 -0.5622  0.3609
 4743SOL    HW125688   2.362   1.303   8.682  0.0235 -0.5478 -0.1791
 4743SOL    HW225689   2.349   1.417   8.770  1.9818  1.5228  1.2959
 4744SOL     OW25690   4.021   1.305   5.983  0.2270 -0.8947  0.0880
 4744SOL    HW125691   4.098   1.334   5.934 -1.5312 -0.1261 -2.1878
 4744SOL    HW225692   3.991   1.246   5.913  0.4066 -1.5267  0.5418
 4745SOL     OW25693   3.221   4.555  11.290 -0.0182  1.0627  0.4724
 4745SOL    HW125694   3.313   4.542  11.266  0.0276  1.2829  0.5327
 4745SOL    HW225695   3.194   4.488  11.353 -0.6129  1.0913  0.2462
 4746SOL     OW25696   2.895   3.540   6.361  0.3704  0.2339  0.3453
 4746SOL    HW125697   2.932   3.584   6.284 -0.3533 -0.2215 -0.2530
 4746SOL    HW225698   2.804   3.534   6.332  0.6715 -1.2307 -0.3362
 4747SOL     OW25699   0.864   2.031  14.936  0.0055 -0.2340  0.2152
 4747SOL    HW125700   0.905   1.990  14.860  0.8563  0.6176  0.2243
 4747SOL    HW225701   0.780   2.059  14.899  0.4078 -0.8406 -1.1694
 4748SOL     OW25702   1.100   0.172   7.108 -0.1688  0.1649  0.0918
 4748SOL    HW125703   1.141   0.088   7.086  0.2225  0.2163  0.6121
 4748SOL    HW225704   1.178   0.218   7.140 -0.0299  1.8887 -2.7234
 4749SOL     OW25705   3.387   2.185  11.785 -0.2098  0.1084 -0.6763
 4749SOL    HW125706   3.394   2.090  11.772  0.8363 -0.0989  1.4274
 4749SOL    HW225707   3.302   2.183  11.830 -1.1049 -1.3988 -2.4163
 4750SOL     OW25708   0.839   3.503  11.362  0.0083  0.2001 -0.3820
 4750SOL    HW125709   0.864   3.454  11.283  1.3818  0.3981 -0.0645
 4750SOL    HW225710   0.816   3.426  11.415  2.0527 -0.0072  0.1862
 4751SOL     OW25711   0.892   0.148   2.240 -0.2080  0.3555  0.2701
 4751SOL    HW125712   0.872   0.137   2.333 -1.5790 -0.9124 -0.1868
 4751SOL    HW225713   0.887   0.058   2.210 -1.4985 -0.0473  1.6735
 4752SOL     OW25714   3.006   0.241  14.122 -0.1132  0.3443 -0.4903
 4752SOL    HW125715   2.982   0.188  14.198 -0.4986  0.8715 -0.2440
 4752SOL    HW225716   3.060   0.304  14.170  0.7873 -0.5794 -0.2837
 4753SOL     OW25717   3.539   1.015   7.130  0.4067  0.2096  0.1261
 4753SOL    HW125718   3.465   0.988   7.184 -0.9957  1.6678 -1.0429
 4753SOL    HW225719   3.599   1.051   7.195  1.6739  0.9416 -1.4384
 4754SOL     OW25720   1.744   1.199   4.435 -0.3156  0.4590  0.5577
 4754SOL    HW125721   1.736   1.295   4.443 -2.7841  0.4532 -1.8609
 4754SOL    HW225722   1.837   1.193   4.418 -0.3529  1.8460 -0.1936
 4755SOL     OW25723   0.222   0.765   3.114 -0.3794  0.4824 -0.4410
 4755SOL    HW125724   0.260   0.696   3.060 -1.6311  0.2684 -1.0504
 4755SOL    HW225725   0.188   0.816   3.041  3.7916  1.7566 -1.4744
 4756SOL     OW25726   4.377   3.398   1.343 -0.2591 -0.4153  0.2746
 4756SOL    HW125727   4.319   3.343   1.395  2.2191  0.4735  3.9104
 4756SOL    HW225728   4.317   3.430   1.275  0.6058  1.2467  0.2753
 4757SOL     OW25729   3.433   2.483   7.224  0.0319  0.0922  0.1250
 4757SOL    HW125730   3.520   2.502   7.259  0.1022 -0.4389  0.2437
 4757SOL    HW225731   3.439   2.515   7.134  1.3991 -0.4664  0.0112
 4758SOL     OW25732   2.143   3.758   7.712 -0.4141  0.3616 -0.3402
 4758SOL    HW125733   2.203   3.782   7.783  0.9231 -0.3786 -1.2100
 4758SOL    HW225734   2.181   3.806   7.637 -1.9842  3.2925  0.7302
 4759SOL     OW25735   2.550   4.567   3.923 -0.7758  0.0673 -0.5500
 4759SOL    HW125736   2.468   4.517   3.927  1.5374 -3.7436 -0.8282
 4759SOL    HW225737   2.548   4.614   4.007  1.3054  1.6065 -1.3611
 4760SOL     OW25738   2.076   4.184   0.144 -0.2403  0.1045  0.2035
 4760SOL    HW125739   2.007   4.243   0.176  1.5324  3.1394 -1.6253
 4760SOL    HW225740   2.074   4.198   0.050  1.6514 -0.4779  0.0830
 4761SOL     OW25741   2.572   2.946   6.559  0.4569  0.7297 -0.3895
 4761SOL    HW125742   2.607   3.017   6.611  0.7064 -1.2739  2.1618
 4761SOL    HW225743   2.651   2.893   6.567 -0.2091  0.1553  2.1351
 4762SOL     OW25744   2.635   2.234   7.765  0.0683 -0.0022  0.6546
 4762SOL    HW125745   2.619   2.150   7.807 -1.9300  0.1540  0.2383
 4762SOL    HW225746   2.683   2.205   7.688 -0.1061  2.3691 -0.3371
 4763SOL     OW25747   1.937   3.359   6.486  0.6711  0.4641  0.1965
 4763SOL    HW125748   1.884   3.289   6.526 -0.4841  0.9795 -0.4308
 4763SOL    HW225749   2.021   3.330   6.523  1.4059  0.7667 -1.2624
 4764SOL     OW25750   4.487   0.312   2.368  0.4641 -0.1358 -0.7723
 4764SOL    HW125751   4.424   0.250   2.403 -0.0288  0.7146 -0.1415
 4764SOL    HW225752   4.443   0.396   2.384  1.4534 -0.0571  1.4412
 4765SOL     OW25753   3.476   2.616   3.989  0.5723  0.2718  0.1872
 4765SOL    HW125754   3.390   2.652   4.010  0.0335 -0.4192 -0.7998
 4765SOL    HW225755   3.518   2.618   4.075  0.2052 -0.0386  0.3740
 4766SOL     OW25756   0.559   3.207   5.043 -0.4691  0.1583 -0.2848
 4766SOL    HW125757   0.595   3.226   4.957 -0.1561  0.1355 -0.1598
 4766SOL    HW225758   0.618   3.258   5.099  1.6417 -1.5436 -0.9772
 4767SOL     OW25759   2.000   2.395   5.213 -0.2387 -0.0027 -0.6008
 4767SOL    HW125760   1.931   2.343   5.173  0.3460 -0.7126 -0.6863
 4767SOL    HW225761   2.060   2.401   5.138  1.0047  2.3767  0.5566
 4768SOL     OW25762   3.492   1.821   5.071  0.1420 -0.0071  0.5233
 4768SOL    HW125763   3.559   1.802   5.137 -0.3421  2.3106  1.6598
 4768SOL    HW225764   3.407   1.807   5.111  0.3661 -0.4040  0.8574
 4769SOL     OW25765   3.346   3.148   1.317 -0.3967  0.7395  0.2739
 4769SOL    HW125766   3.256   3.118   1.309  0.5829 -1.8202 -1.1306
 4769SOL    HW225767   3.390   3.084   1.373 -1.2538  0.2510  0.3724
 4770SOL     OW25768   1.778   3.846   9.897 -0.1284  0.6782 -0.1762
 4770SOL    HW125769   1.717   3.807   9.961 -0.3012  1.2109 -0.0149
 4770SOL    HW225770   1.753   3.803   9.815 -0.1101  1.3506 -0.5269
 4771SOL     OW25771   1.776   0.410   9.300 -0.2730  0.0987  0.6244
 4771SOL    HW125772   1.868   0.388   9.306 -0.2249  0.7481  2.1730
 4771SOL    HW225773   1.745   0.341   9.241 -3.0707  1.9732 -0.1192
 4772SOL     OW25774   1.203   2.931   2.199 -0.2062  0.3369 -0.2643
 4772SOL    HW125775   1.163   2.919   2.286 -0.3027 -1.7684 -0.5872
 4772SOL    HW225776   1.164   2.859   2.149  0.1150 -0.8769  1.2413
 4773SOL     OW25777   1.096   0.433   2.323  0.4116  0.0722 -0.0756
 4773SOL    HW125778   1.080   0.520   2.361  2.1068  0.0904  0.6165
 4773SOL    HW225779   1.009   0.395   2.330 -0.6119  2.6401  1.0478
 4774SOL     OW25780   3.534   1.568   9.576  0.2627 -0.1950 -0.2035
 4774SOL    HW125781   3.585   1.602   9.650 -0.6539  0.5859  0.0736
 4774SOL    HW225782   3.614   1.543   9.531  0.9350 -0.6074  1.2424
 4775SOL     OW25783   2.028   0.534  17.238  0.1097  0.6913  0.7605
 4775SOL    HW125784   2.096   0.538  17.305 -0.2867 -2.1104  1.2986
 4775SOL    HW225785   2.056   0.605  17.179 -0.1547  0.8117  0.7783
 4776SOL     OW25786   3.433   4.231  10.128  0.6268 -0.5021 -0.4270
 4776SOL    HW125787   3.409   4.139  10.122  0.4824 -0.6207  2.0280
 4776SOL    HW225788   3.525   4.226  10.100  1.0340  0.0827  0.8062
 4777SOL     OW25789   1.390   0.105   5.086 -0.3295  0.1315  0.3820
 4777SOL    HW125790   1.466   0.061   5.123 -0.0450  0.6412  0.4083
 4777SOL    HW225791   1.439   0.179   5.050  0.8491 -0.4686  0.7435
 4778SOL     OW25792   2.601   1.364  15.100 -0.4602  0.5640  0.4981
 4778SOL    HW125793   2.691   1.386  15.122 -0.6905  2.1092 -0.0828
 4778SOL    HW225794   2.578   1.457  15.100 -0.1160  0.6492  0.6297
 4779SOL     OW25795   4.572   2.869   8.042  0.0647  0.2570  0.3652
 4779SOL    HW125796   4.592   2.816   7.965 -0.1884 -0.3899  0.7557
 4779SOL    HW225797   4.528   2.812   8.104 -0.0117  0.4786  0.5157
 4780SOL     OW25798   3.673   2.367   3.603 -0.4309 -0.3317  0.0029
 4780SOL    HW125799   3.582   2.393   3.592 -0.1748  0.3335 -0.5530
 4780SOL    HW225800   3.717   2.451   3.596 -2.3005  0.5672 -0.8007
 4781SOL     OW25801   2.934   2.809   5.877 -0.2814  0.2048  0.2115
 4781SOL    HW125802   2.956   2.847   5.962  1.9388 -0.6225  0.0113
 4781SOL    HW225803   2.915   2.719   5.902  0.7815 -0.3848 -1.1043
 4782SOL     OW25804   1.103   0.398  10.930 -0.5623  0.5492 -0.2678
 4782SOL    HW125805   1.104   0.480  10.979 -0.1718  0.1924  0.3294
 4782SOL    HW225806   1.074   0.346  11.005  0.6899  0.1510 -0.0649
 4783SOL     OW25807   1.055   4.143   7.293 -0.5546  0.8127  0.5573
 4783SOL    HW125808   1.056   4.136   7.198 -0.4499 -0.6515  0.6581
 4783SOL    HW225809   0.966   4.110   7.306 -0.3590 -0.8900 -2.3987
 4784SOL     OW25810   4.707   1.912   8.039 -0.7848  0.1205 -0.7659
 4784SOL    HW125811   4.645   1.929   8.110  0.7302 -2.0799  1.0899
 4784SOL    HW225812   4.651   1.862   7.979  0.5854 -2.1450 -0.1866
 4785SOL     OW25813   2.320   2.817   4.359 -0.4002 -0.1634  0.0011
 4785SOL    HW125814   2.235   2.773   4.365  0.0779 -1.0407  0.2813
 4785SOL    HW225815   2.299   2.907   4.383  0.7900 -0.3328  1.6417
 4786SOL     OW25816   3.185   4.540   7.266 -0.1353  0.0979 -0.7974
 4786SOL    HW125817   3.152   4.551   7.355 -2.9860  0.5903 -1.9004
 4786SOL    HW225818   3.262   4.484   7.280 -2.3963 -2.4990  1.4139
 4787SOL     OW25819   3.996   3.135  16.495  0.3880 -0.3281  0.0302
 4787SOL    HW125820   3.934   3.200  16.526  0.9704 -0.4740  1.4927
 4787SOL    HW225821   4.076   3.187  16.502 -0.7548  1.1301  2.2455
 4788SOL     OW25822   1.093   0.279   3.394 -0.7716  0.3252  0.4667
 4788SOL    HW125823   1.083   0.327   3.312  0.7988 -2.5004 -1.3936
 4788SOL    HW225824   1.062   0.332   3.467 -1.9464 -0.0837  0.2619
 4789SOL     OW25825   3.544   1.583   2.162 -0.0181  0.4923  0.0762
 4789SOL    HW125826   3.582   1.509   2.115 -0.8454  0.6421 -0.8387
 4789SOL    HW225827   3.455   1.576   2.126  0.3696  1.7242 -1.1203
 4790SOL     OW25828   0.215   2.853   5.397 -0.0908 -0.1282 -0.4396
 4790SOL    HW125829   0.197   2.760   5.386 -0.5920 -0.1421  0.5579
 4790SOL    HW225830   0.137   2.888   5.354 -0.1208  0.8349  0.3944
 4791SOL     OW25831   1.791   1.240   1.790 -0.3908 -0.3470 -0.2259
 4791SOL    HW125832   1.732   1.200   1.853 -0.3930 -0.7802 -0.4997
 4791SOL    HW225833   1.785   1.178   1.716  0.1672  0.0370 -0.5923
 4792SOL     OW25834   2.981   1.355   2.479 -0.3172  0.0928 -0.3222
 4792SOL    HW125835   2.943   1.435   2.516 -3.2199 -1.0892 -0.7330
 4792SOL    HW225836   2.934   1.351   2.395  0.5898 -0.3917 -0.8016
 4793SOL     OW25837   3.936   2.283   6.548 -0.0927 -0.8429 -0.0574
 4793SOL    HW125838   3.877   2.278   6.623 -0.1094  1.5596  0.0713
 4793SOL    HW225839   4.018   2.304   6.594 -0.6074 -0.1370  0.5373
 4794SOL     OW25840   2.003   3.743  17.383  0.2542  0.1642 -0.1430
 4794SOL    HW125841   2.054   3.752  17.302 -0.0002  2.5342 -0.0516
 4794SOL    HW225842   1.999   3.836  17.404 -1.5453 -0.0831  0.5768
 4795SOL     OW25843   3.675   1.293   4.668 -0.4643 -0.6109  0.4008
 4795SOL    HW125844   3.753   1.311   4.615 -1.0300  1.1627  0.1437
 4795SOL    HW225845   3.672   1.375   4.718 -0.4494 -0.0722 -0.4697
 4796SOL     OW25846   2.392   2.843  16.555 -0.2253 -0.2165 -0.4288
 4796SOL    HW125847   2.349   2.872  16.635 -0.8606 -0.7133 -0.5917
 4796SOL    HW225848   2.390   2.926  16.506  2.2490 -1.5271 -2.7470
 4797SOL     OW25849   2.173   3.041   0.078 -0.2036  0.6014 -0.2651
 4797SOL    HW125850   2.184   3.084   0.163  0.2265 -0.6322  0.3148
 4797SOL    HW225851   2.265   3.036   0.050  0.2675 -1.3215  1.5661
 4798SOL     OW25852   1.574   2.170   7.072 -0.5275  0.2896  0.1757
 4798SOL    HW125853   1.623   2.219   7.005  1.8455 -0.5797  1.2963
 4798SOL    HW225854   1.557   2.082   7.038 -0.9402  0.2612  0.4550
 4799SOL     OW25855   3.615   3.883   4.301 -0.1989  0.4814  0.1895
 4799SOL    HW125856   3.702   3.906   4.332  0.2270 -1.1160  0.1583
 4799SOL    HW225857   3.622   3.790   4.280 -2.0414  0.3810  0.0223
 4800SOL     OW25858   2.173   1.451   2.493 -0.4870 -0.4117  0.3093
 4800SOL    HW125859   2.202   1.542   2.498 -2.2329  0.1433  0.5800
 4800SOL    HW225860   2.130   1.435   2.577  0.9975  2.0209  1.5149
 4801SOL     OW25861   4.013   1.757   7.205 -0.3097  0.3473 -0.0557
 4801SOL    HW125862   4.064   1.836   7.219 -0.7755  0.6942 -0.3402
 4801SOL    HW225863   3.928   1.778   7.243 -0.9839  1.4094 -2.2235
 4802SOL     OW25864   0.231   3.500   8.478 -0.1780  0.4698  0.4953
 4802SOL    HW125865   0.326   3.512   8.474 -0.7482  3.5372 -3.1776
 4802SOL    HW225866   0.225   3.499   8.574 -0.7960 -1.3378  0.4420
 4803SOL     OW25867   2.619   1.217   5.486 -0.0193 -0.2591  0.7967
 4803SOL    HW125868   2.529   1.242   5.465  0.5464  0.5089 -0.6477
 4803SOL    HW225869   2.649   1.185   5.401  1.3670  1.1668  0.7422
 4804SOL     OW25870   0.496   4.241   6.021 -0.9567  0.3292  0.7303
 4804SOL    HW125871   0.580   4.250   6.066  0.7900  2.0308 -2.8361
 4804SOL    HW225872   0.481   4.146   6.026 -0.6256  0.1327 -2.1387
 4805SOL     OW25873   3.302   3.709   5.404  0.1749 -0.0585 -0.4578
 4805SOL    HW125874   3.243   3.781   5.424  1.9838  0.8280  1.7945
 4805SOL    HW225875   3.345   3.744   5.326  0.7005  0.9385  0.2803
 4806SOL     OW25876   2.369   4.193   5.490 -0.5623 -0.6587 -0.1368
 4806SOL    HW125877   2.373   4.121   5.552 -3.0191 -0.7383 -0.0999
 4806SOL    HW225878   2.408   4.152   5.413  1.3078 -0.3691  0.6445
 4807SOL     OW25879   3.780   2.218   7.404  0.2328 -0.3967  0.0332
 4807SOL    HW125880   3.780   2.303   7.361  1.1320 -1.5813 -2.3196
 4807SOL    HW225881   3.799   2.154   7.335 -3.2358 -1.9910  0.5390
 4808SOL     OW25882   4.623   1.881   1.858 -0.0969 -0.3848  0.3812
 4808SOL    HW125883   4.547   1.916   1.812  0.1026  0.1790  0.4905
 4808SOL    HW225884   4.667   1.851   1.778 -0.2768 -1.6991  0.7662
 4809SOL     OW25885   1.365   2.997  15.050 -0.6111 -0.1372  0.3743
 4809SOL    HW125886   1.421   3.018  14.976 -2.6639  3.6093 -0.1154
 4809SOL    HW225887   1.354   3.086  15.084  0.5163  0.1345  0.0481
 4810SOL     OW25888   1.646   1.098  10.139 -0.1397 -0.9026  0.3667
 4810SOL    HW125889   1.579   1.035  10.113 -0.8987  0.0263  0.1014
 4810SOL    HW225890   1.651   1.087  10.234  0.5610  0.4937  0.4850
 4811SOL     OW25891   3.884   4.155   3.327 -0.1864 -0.2488 -0.5982
 4811SOL    HW125892   3.792   4.180   3.335 -0.1659 -0.4268  0.2050
 4811SOL    HW225893   3.914   4.222   3.266  1.3859 -1.6248 -1.3323
 4812SOL     OW25894   0.347   2.049   6.195 -0.3664  0.1784  0.3641
 4812SOL    HW125895   0.252   2.061   6.188 -0.3030  0.3222 -0.2548
 4812SOL    HW225896   0.351   1.954   6.207 -0.8155  0.1090 -0.0150
 4813SOL     OW25897   3.514   4.715   6.215  0.6293  0.0945  0.0762
 4813SOL    HW125898   3.458   4.699   6.290  1.2645  2.2341  0.9952
 4813SOL    HW225899   3.506   4.626   6.178 -0.2162  0.0717  0.3045
 4814SOL     OW25900   1.666   2.255   3.769 -0.0799  0.6632  0.0787
 4814SOL    HW125901   1.732   2.273   3.702 -0.3126  2.9959  0.4588
 4814SOL    HW225902   1.652   2.342   3.806 -0.9354 -0.0687  1.4697
 4815SOL     OW25903   2.713   3.229  17.111  0.4792 -0.7777 -0.1220
 4815SOL    HW125904   2.681   3.249  17.023  0.5269  0.4824  0.1474
 4815SOL    HW225905   2.732   3.317  17.142  1.6856 -0.1639 -2.6038
 4816SOL     OW25906   0.132   2.907   5.749  0.6763  0.2924  0.2676
 4816SOL    HW125907   0.145   2.966   5.675  0.3266 -0.4658 -0.3942
 4816SOL    HW225908   0.209   2.852   5.740  0.7998  0.6424 -0.8314
 4817SOL     OW25909   2.497   1.789  17.182  0.0246  0.6130 -0.0370
 4817SOL    HW125910   2.541   1.812  17.100 -0.5566  0.8533 -0.2770
 4817SOL    HW225911   2.565   1.814  17.246  0.4096  1.3731 -0.7473
 4818SOL     OW25912   0.992   2.620   9.407 -0.3406  0.2734 -0.2660
 4818SOL    HW125913   0.966   2.530   9.423  1.7165 -0.1127  0.8926
 4818SOL    HW225914   0.970   2.626   9.314  0.9329 -1.5652 -0.6804
 4819SOL     OW25915   2.859   0.041  10.573  0.2257 -0.4378  0.4421
 4819SOL    HW125916   2.853   0.119  10.628  2.0053  0.1433 -0.2104
 4819SOL    HW225917   2.926   4.709  10.615  1.2424  1.2987  1.0403
 4820SOL     OW25918   3.224   3.123   5.981 -0.5601 -0.0891  0.4319
 4820SOL    HW125919   3.290   3.188   5.957 -0.4296 -0.1688  0.5754
 4820SOL    HW225920   3.145   3.175   5.973 -1.4789 -1.6780 -0.9426
 4821SOL     OW25921   4.314   2.828   1.519  0.5715 -0.5272  0.5618
 4821SOL    HW125922   4.354   2.901   1.472  0.9282 -0.4318  1.0192
 4821SOL    HW225923   4.382   2.761   1.516 -0.8262 -1.9859  1.0166
 4822SOL     OW25924   2.096   4.647   8.564  0.2410 -0.1185 -0.2259
 4822SOL    HW125925   2.158   4.651   8.636  1.4417 -0.2460 -1.2439
 4822SOL    HW225926   2.149   4.650   8.484  0.9655 -0.3723  0.2510
 4823SOL     OW25927   3.931   2.881  14.458 -0.1702 -0.7225 -0.1967
 4823SOL    HW125928   3.842   2.908  14.479 -0.3648  0.4406 -2.5277
 4823SOL    HW225929   3.943   2.802  14.511 -1.6902 -0.8042  0.0312
 4824SOL     OW25930   4.463   3.934  10.497  0.1874 -0.5568 -0.7540
 4824SOL    HW125931   4.457   4.025  10.529  0.7504 -1.0943  0.9058
 4824SOL    HW225932   4.534   3.900  10.551 -1.5406  0.0062  1.8882
 4825SOL     OW25933   1.504   1.268   5.837  0.2296 -0.0329  0.0903
 4825SOL    HW125934   1.531   1.190   5.886 -1.5686  0.3207  1.6510
 4825SOL    HW225935   1.412   1.244   5.826  0.2364 -0.2181  0.4355
 4826SOL     OW25936   2.113   3.796  12.012  0.3594  0.3326 -0.5588
 4826SOL    HW125937   2.162   3.874  11.986  0.1144  0.2137 -1.3770
 4826SOL    HW225938   2.033   3.841  12.039 -0.1247 -1.7100  1.4746
 4827SOL     OW25939   1.367   4.609   5.734  0.6114  0.1770  0.5238
 4827SOL    HW125940   1.301   4.549   5.770 -2.0746  1.9312 -1.4899
 4827SOL    HW225941   1.440   4.558   5.699  1.2126  1.1235  0.4089
 4828SOL     OW25942   4.298   3.320   5.389  0.0197 -0.0276 -0.0808
 4828SOL    HW125943   4.380   3.297   5.433 -1.9578 -1.9103  2.6305
 4828SOL    HW225944   4.328   3.389   5.330  2.6097  0.9562  2.4068
 4829SOL     OW25945   1.977   4.632  13.390  0.0853 -0.3369 -0.0397
 4829SOL    HW125946   2.032   4.654  13.465 -0.6003 -0.9920  0.6507
 4829SOL    HW225947   1.905   4.578  13.423  0.9026 -1.7132 -0.4909
 4830SOL     OW25948   3.135   1.671   5.749  0.2526 -0.0867 -0.0674
 4830SOL    HW125949   3.196   1.625   5.808 -0.1450  0.4234  0.7403
 4830SOL    HW225950   3.079   1.712   5.815  0.2018 -1.5108  0.7759
 4831SOL     OW25951   1.933   3.103   8.229 -0.5188 -0.0243  0.1608
 4831SOL    HW125952   1.901   3.131   8.315  2.6965  1.2354  0.9459
 4831SOL    HW225953   1.942   3.183   8.178 -2.5676  0.5246  0.6940
 4832SOL     OW25954   3.526   1.439   8.589 -0.0564 -0.2896 -0.6090
 4832SOL    HW125955   3.455   1.415   8.648 -0.4587 -2.0943 -1.8305
 4832SOL    HW225956   3.544   1.361   8.537 -0.1104  0.5198 -1.8583
 4833SOL     OW25957   3.360   4.449  10.774 -0.0713  0.1372  0.4233
 4833SOL    HW125958   3.302   4.458  10.698 -0.3067 -0.9952  0.4759
 4833SOL    HW225959   3.442   4.430  10.728  0.4647  2.9631  0.2170
 4834SOL     OW25960   1.740   1.563   1.997 -0.0820  0.0765  0.2970
 4834SOL    HW125961   1.825   1.608   1.991 -0.0860  0.1899  1.1645
 4834SOL    HW225962   1.706   1.617   2.068 -0.4472 -0.3553  0.4498
 4835SOL     OW25963   2.476   1.821  13.344  0.0542 -0.1554  0.4209
 4835SOL    HW125964   2.495   1.741  13.392  0.6458  0.7722  1.7350
 4835SOL    HW225965   2.467   1.787  13.255 -0.6496  1.5103 -0.1458
 4836SOL     OW25966   1.154   0.170   6.720 -0.4448 -0.1763 -0.6192
 4836SOL    HW125967   1.208   0.091   6.718 -1.1876 -0.7254  0.3619
 4836SOL    HW225968   1.088   0.152   6.653 -1.5278 -1.3306  0.7468
 4837SOL     OW25969   1.287   0.146  15.412  0.7406  0.0486  0.1341
 4837SOL    HW125970   1.256   0.069  15.364  1.0965 -0.1608  0.2445
 4837SOL    HW225971   1.279   0.123  15.505 -0.6897 -0.6053 -0.1506
 4838SOL     OW25972   1.024   3.866   6.159  0.2765 -0.5234 -0.0383
 4838SOL    HW125973   1.079   3.923   6.105  0.0379 -0.5565 -0.3168
 4838SOL    HW225974   0.968   3.830   6.090 -1.5646  1.7427  0.2888
 4839SOL     OW25975   3.693   3.043   5.121 -0.1839 -0.0873 -0.4813
 4839SOL    HW125976   3.692   3.085   5.036  1.8618 -2.8998 -1.9110
 4839SOL    HW225977   3.728   3.111   5.179 -1.9140  1.1958 -0.9252
 4840SOL     OW25978   0.025   1.436   9.354 -0.3191  0.2814  0.1403
 4840SOL    HW125979   4.667   1.415   9.306  0.9452 -1.7953 -1.0725
 4840SOL    HW225980   0.060   1.498   9.290 -0.6042  0.7908  0.4787
 4841SOL     OW25981   1.905   1.882   6.803 -0.1650  0.2186  0.0327
 4841SOL    HW125982   1.966   1.815   6.835  0.0418 -0.5822 -2.0655
 4841SOL    HW225983   1.888   1.858   6.712 -1.2321 -1.4523  0.6792
 4842SOL     OW25984   3.865   3.995  15.576  0.1396  0.2382  0.0247
 4842SOL    HW125985   3.889   3.914  15.531 -1.3974 -2.2443  3.7029
 4842SOL    HW225986   3.946   4.023  15.618 -1.2950  3.8700  0.3800
 4843SOL     OW25987   3.528   0.508   8.517  0.3796  0.8229 -0.2730
 4843SOL    HW125988   3.567   0.562   8.586  1.6210  1.3576 -1.3890
 4843SOL    HW225989   3.452   0.561   8.489 -2.9999 -2.7806  2.0694
 4844SOL     OW25990   1.986   1.552   4.868 -0.6503 -0.2808  0.2930
 4844SOL    HW125991   1.934   1.624   4.833  1.4942 -0.2471 -2.7645
 4844SOL    HW225992   2.070   1.592   4.847 -1.4753  0.9054 -0.7184
 4845SOL     OW25993   0.721   4.325   6.144  0.2856  0.2957 -0.4284
 4845SOL    HW125994   0.739   4.267   6.218 -0.7540  2.1664  1.2654
 4845SOL    HW225995   0.751   4.402   6.192 -0.3135  0.3680 -0.1678
 4846SOL     OW25996   0.630   0.347  12.228  0.1895  0.5467 -0.0969
 4846SOL    HW125997   0.552   0.386  12.266 -0.0489 -1.5243  1.5684
 4846SOL    HW225998   0.598   0.343  12.137 -0.9847  0.1307  0.3348
 4847SOL     OW25999   0.426   1.387   8.550 -0.0146 -0.5314  0.1327
 4847SOL    HW126000   0.426   1.329   8.475 -2.5963 -1.8792  1.1581
 4847SOL    HW226001   0.405   1.467   8.501  1.0516 -1.1256 -1.2925
 4848SOL     OW26002   1.615   2.617   4.604 -0.5499  0.2743 -0.2188
 4848SOL    HW126003   1.535   2.577   4.639 -1.0142  1.2403 -0.1596
 4848SOL    HW226004   1.646   2.649   4.688 -2.2241 -0.8060  0.8164
 4849SOL     OW26005   2.800   0.558   4.831  0.2822  0.3379  0.1841
 4849SOL    HW126006   2.843   0.476   4.811 -0.6119  0.4641 -2.2535
 4849SOL    HW226007   2.766   0.568   4.742  1.7060  2.5919 -0.1171
 4850SOL     OW26008   2.716   2.323  11.816  0.0445  0.3622  0.4399
 4850SOL    HW126009   2.772   2.360  11.884 -1.3528  1.2584  1.1253
 4850SOL    HW226010   2.632   2.324  11.863  0.1085  0.6181  0.5490
 4851SOL     OW26011   0.297   2.996   1.515  0.2730  0.1713  0.0590
 4851SOL    HW126012   0.228   3.040   1.464 -0.1096  1.0323  1.3211
 4851SOL    HW226013   0.299   2.913   1.467 -2.6438  0.0653  0.0832
 4852SOL     OW26014   2.673   1.432   8.498  0.1371  0.0906  0.1518
 4852SOL    HW126015   2.588   1.396   8.473  0.1630 -0.5634  1.0119
 4852SOL    HW226016   2.661   1.497   8.567 -0.5350 -1.8366  1.8444
 4853SOL     OW26017   2.878   1.289   8.377 -0.0575 -0.1577  0.1196
 4853SOL    HW126018   2.817   1.355   8.410 -0.0796 -0.0910 -0.0553
 4853SOL    HW226019   2.930   1.328   8.306 -2.7576  0.3856 -1.5511
 4854SOL     OW26020   0.067   2.205   8.700  0.3505  0.3956 -0.1938
 4854SOL    HW126021   0.037   2.200   8.609  0.3708 -0.2422 -0.1609
 4854SOL    HW226022   4.719   2.240   8.756  0.6623  1.0217 -0.1875
 4855SOL     OW26023   0.111   0.013   8.167  0.1663  0.5816 -0.4365
 4855SOL    HW126024   0.094   0.071   8.242 -1.2599  0.8212 -0.9451
 4855SOL    HW226025   0.051   4.665   8.193  0.4124  0.7826  0.6854
 4856SOL     OW26026   2.631   3.905   8.654  0.2771 -0.5378 -0.1846
 4856SOL    HW126027   2.576   3.904   8.732  0.5161 -1.0199 -0.0182
 4856SOL    HW226028   2.679   3.825   8.675 -0.3410 -0.2544  2.2999
 4857SOL     OW26029   2.137   2.180  12.497  0.7223 -0.2318  0.0017
 4857SOL    HW126030   2.172   2.127  12.569 -1.0531  0.7416  1.5623
 4857SOL    HW226031   2.098   2.252  12.546 -0.4300 -1.0796  0.3361
 4858SOL     OW26032   4.442   0.567   4.518  0.1757 -0.2534  0.2910
 4858SOL    HW126033   4.531   0.531   4.522  0.6139  0.8007  0.0784
 4858SOL    HW226034   4.404   0.516   4.447 -0.8421  0.2988  0.4388
 4859SOL     OW26035   4.371   1.581   7.743  0.0336 -0.8299 -0.0087
 4859SOL    HW126036   4.319   1.524   7.799  1.9175 -2.8710 -0.3612
 4859SOL    HW226037   4.348   1.535   7.663  0.7650 -2.8820  0.9757
 4860SOL     OW26038   3.310   0.257   8.088 -0.2428 -0.3265 -0.2324
 4860SOL    HW126039   3.287   0.308   8.166 -0.7230 -0.0293 -0.5685
 4860SOL    HW226040   3.289   0.165   8.103 -1.3469 -0.3672 -2.0086
 4861SOL     OW26041   1.497   3.058   1.056 -0.1288  0.0793  0.4190
 4861SOL    HW126042   1.515   2.987   1.117  0.0632 -0.2582 -0.0269
 4861SOL    HW226043   1.402   3.059   1.061 -0.2842  0.3734 -2.3839
 4862SOL     OW26044   0.955   2.118   4.307  0.3307  0.1120 -0.5194
 4862SOL    HW126045   1.021   2.157   4.250 -0.2076  2.4753  0.5054
 4862SOL    HW226046   0.963   2.178   4.381 -3.0750  0.6655 -0.5987
 4863SOL     OW26047   2.618   2.878  17.645 -0.1457 -0.4374  0.4820
 4863SOL    HW126048   2.609   2.969  17.672  0.8346  0.1849 -1.2855
 4863SOL    HW226049   2.558   2.827   0.009 -1.3284  1.6144  1.0819
 4864SOL     OW26050   3.823   0.711   0.027  0.3587 -0.0190  0.0159
 4864SOL    HW126051   3.796   0.783  17.661  0.9580 -0.7620 -1.2387
 4864SOL    HW226052   3.755   0.646   0.005  3.8610 -2.6607 -2.9570
 4865SOL     OW26053   3.302   1.708   9.081  0.2388 -0.2547  0.2853
 4865SOL    HW126054   3.231   1.769   9.101  0.1103  0.0619 -1.1101
 4865SOL    HW226055   3.335   1.714   9.170 -2.5753 -1.3410  1.3874
 4866SOL     OW26056   3.125   0.974   4.956 -0.3722  0.7898 -0.4741
 4866SOL    HW126057   3.115   0.916   4.881 -0.6002 -0.9382  0.9047
 4866SOL    HW226058   3.206   0.936   4.989  0.4874  3.3700  0.4012
 4867SOL     OW26059   4.667   4.521   8.311 -0.5020 -0.0781 -0.1196
 4867SOL    HW126060   4.572   4.519   8.319 -0.5901 -0.1879 -1.1663
 4867SOL    HW226061   4.698   4.431   8.322 -0.8677 -0.2544 -0.5282
 4868SOL     OW26062   3.721   4.199  10.257 -0.6126  0.0700 -0.1439
 4868SOL    HW126063   3.751   4.281  10.295 -1.3771  0.1959  0.2056
 4868SOL    HW226064   3.658   4.183  10.328 -0.7978 -1.9885 -0.7648
 4869SOL     OW26065   0.044   0.097   7.704  0.2563  0.5475  0.3778
 4869SOL    HW126066   4.688   0.043   7.691 -0.2746  1.1692  0.9906
 4869SOL    HW226067   0.009   0.159   7.768 -0.4160 -1.2766  1.7769
 4870SOL     OW26068   1.126   4.061   1.238 -0.1963 -0.0644  0.6250
 4870SOL    HW126069   1.201   4.006   1.259  0.6329  0.2566 -1.4890
 4870SOL    HW226070   1.113   4.096   1.326  0.7201 -0.3708  0.8798
 4871SOL     OW26071   2.478   1.067   3.349  0.0487 -0.0957  0.5909
 4871SOL    HW126072   2.475   1.021   3.433  2.5414 -0.1960  0.6310
 4871SOL    HW226073   2.443   1.002   3.289 -0.9596  0.2664  0.7880
 4872SOL     OW26074   2.016   0.579   1.828  0.2246  0.0244 -0.2631
 4872SOL    HW126075   2.094   0.631   1.847  0.1765 -0.1406  0.4003
 4872SOL    HW226076   1.952   0.648   1.808  0.8452  1.1041  1.4017
 4873SOL     OW26077   3.230   3.254   1.023  0.1845  0.2103  0.0372
 4873SOL    HW126078   3.298   3.302   1.070 -1.3688  1.1722  1.3036
 4873SOL    HW226079   3.166   3.326   1.024  0.0879  0.1038  1.4168
 4874SOL     OW26080   3.034   1.460   4.593  0.0102  0.3020  0.0335
 4874SOL    HW126081   3.106   1.457   4.531 -0.9727 -0.5823 -1.0663
 4874SOL    HW226082   3.077   1.422   4.669 -2.3919  0.4724  1.4997
 4875SOL     OW26083   3.335   1.869  15.233  0.5412  0.5326 -0.8535
 4875SOL    HW126084   3.405   1.817  15.194  1.5750  2.5984 -1.7393
 4875SOL    HW226085   3.261   1.808  15.229  1.5693 -0.6107 -2.2980
 4876SOL     OW26086   4.429   4.653   4.823  0.7723  0.3053 -0.4612
 4876SOL    HW126087   4.505   4.620   4.871  0.7839  1.7045  0.4842
 4876SOL    HW226088   4.374   4.575   4.831  0.3286  0.7119  0.5294
 4877SOL     OW26089   2.972   4.457   8.128 -0.6787  1.3426  0.0820
 4877SOL    HW126090   3.024   4.380   8.106 -2.5645  0.5167 -1.5521
 4877SOL    HW226091   2.890   4.442   8.082 -0.4196 -1.5552  0.5728
 4878SOL     OW26092   0.153   3.133   5.123 -1.0448  0.3913  0.8669
 4878SOL    HW126093   0.226   3.172   5.171 -0.6104 -1.4502  1.6864
 4878SOL    HW226094   0.187   3.130   5.034  0.7301 -2.0309  1.6267
 4879SOL     OW26095   0.282   4.593   7.362 -0.3816 -0.1939 -0.3873
 4879SOL    HW126096   0.203   4.549   7.331  1.3305 -2.7886 -1.1271
 4879SOL    HW226097   0.273   4.677   7.317 -1.1015 -0.7988 -1.3730
 4880SOL     OW26098   1.693   0.926   2.710 -0.2016 -0.5959 -0.5774
 4880SOL    HW126099   1.611   0.914   2.662 -0.8170  2.7285 -0.3451
 4880SOL    HW226100   1.749   0.865   2.662  1.0277  0.3373 -0.3089
 4881SOL     OW26101   2.240   3.182   1.476  0.4135 -0.1275  0.1526
 4881SOL    HW126102   2.170   3.182   1.542 -0.1064  0.8848 -0.3898
 4881SOL    HW226103   2.226   3.266   1.432 -0.7326  0.0478  0.8481
 4882SOL     OW26104   4.658   3.881  13.677 -0.5169  0.3009  0.7283
 4882SOL    HW126105   4.716   3.947  13.715 -0.3170  0.5273  0.0416
 4882SOL    HW226106   4.625   3.833  13.753 -1.3279  0.5287  0.5130
 4883SOL     OW26107   3.497   1.521   4.774 -0.1106 -0.9472 -0.3152
 4883SOL    HW126108   3.446   1.462   4.829  0.4960 -1.8054 -0.6681
 4883SOL    HW226109   3.444   1.532   4.695 -1.2907 -0.2544  0.5832
 4884SOL     OW26110   0.239   1.329  11.312  0.5336 -0.5973  0.4126
 4884SOL    HW126111   0.332   1.324  11.288  0.6295  3.2642  0.1281
 4884SOL    HW226112   0.250   1.369  11.399  0.7996  0.8831 -0.3104
 4885SOL     OW26113   2.304   0.729   9.766  0.0834 -0.4407 -0.4704
 4885SOL    HW126114   2.213   0.756   9.750 -0.3176 -0.7252  1.3549
 4885SOL    HW226115   2.331   0.810   9.809  0.0686 -0.1998 -0.9080
 4886SOL     OW26116   2.173   3.322   2.638 -0.0307  0.1785 -0.5209
 4886SOL    HW126117   2.255   3.370   2.625  0.6452 -0.5366  1.2397
 4886SOL    HW226118   2.160   3.278   2.554 -1.3642  2.6239 -1.6097
 4887SOL     OW26119   0.849   0.185  11.566 -0.5208  0.8991 -0.8751
 4887SOL    HW126120   0.818   0.149  11.482 -1.4709  0.9738 -0.5593
 4887SOL    HW226121   0.933   0.208  11.526 -0.5824 -0.8943 -2.0339
 4888SOL     OW26122   2.796   4.245   8.583 -0.2668 -1.0006  0.7120
 4888SOL    HW126123   2.807   4.176   8.647 -0.6656 -0.4854  1.3271
 4888SOL    HW226124   2.713   4.227   8.541  0.3723  1.8139 -1.8295
 4889SOL     OW26125   0.316   1.533   2.964  0.1863  0.0402 -0.4090
 4889SOL    HW126126   0.296   1.611   2.911  1.3401  0.6126 -0.0064
 4889SOL    HW226127   0.316   1.582   3.047  0.3237 -1.2704  0.3652
 4890SOL     OW26128   1.168   1.053   8.537 -0.6836  0.1447  0.4873
 4890SOL    HW126129   1.229   1.127   8.538 -0.3273 -0.1486 -0.7132
 4890SOL    HW226130   1.085   1.096   8.559 -0.8946 -0.4889  0.9347
 4891SOL     OW26131   1.391   3.439   4.381 -0.0073  0.5576 -0.1082
 4891SOL    HW126132   1.375   3.424   4.475  1.1212 -0.5940 -0.0853
 4891SOL    HW226133   1.296   3.437   4.369 -0.0687 -1.5519  0.7175
 4892SOL     OW26134   0.277   1.113   9.365  0.2104 -0.2139  0.1019
 4892SOL    HW126135   0.362   1.076   9.389  0.0493 -0.2232  0.6544
 4892SOL    HW226136   0.229   1.038   9.329 -2.9581  1.4031  0.9834
 4893SOL     OW26137   3.141   3.979   2.511 -0.1164 -0.5801 -0.0825
 4893SOL    HW126138   3.233   3.986   2.536  0.0559  2.1553 -1.4057
 4893SOL    HW226139   3.108   4.066   2.533  0.4476 -0.9379  2.1577
 4894SOL     OW26140   0.394   1.209   0.539  0.0335 -0.2454  0.1087
 4894SOL    HW126141   0.390   1.118   0.509  2.3512 -0.3342  0.0956
 4894SOL    HW226142   0.489   1.214   0.546 -0.1418  0.0791  2.4059
 4895SOL     OW26143   1.665   4.642   1.878 -0.6109  0.3019 -0.4868
 4895SOL    HW126144   1.761   4.640   1.872 -0.4345 -0.2941  2.7613
 4895SOL    HW226145   1.640   4.694   1.802 -3.3105  0.9444  0.8749
 4896SOL     OW26146   0.540   2.308  14.027 -0.0925  0.1232  0.2342
 4896SOL    HW126147   0.563   2.300  14.119 -1.9300  2.2097  0.8751
 4896SOL    HW226148   0.506   2.398  14.021  1.1990  0.5727 -0.3307
 4897SOL     OW26149   3.538   0.562   5.042 -0.2269 -0.4288 -0.2081
 4897SOL    HW126150   3.582   0.565   5.127  1.3689  0.1926 -1.0512
 4897SOL    HW226151   3.609   0.573   4.978  0.7475  1.0794  1.1461
 4898SOL     OW26152   0.971   1.334   8.162 -0.0490 -0.6173 -0.4578
 4898SOL    HW126153   0.941   1.379   8.083  0.6302  0.0601 -0.3206
 4898SOL    HW226154   1.035   1.275   8.123  0.6481 -0.6553  0.7440
 4899SOL     OW26155   0.449   0.949   0.506  0.0981 -0.2043 -0.0954
 4899SOL    HW126156   0.501   0.902   0.572 -0.1024 -0.2544  0.0266
 4899SOL    HW226157   0.494   0.908   0.432 -0.1257 -4.0455  1.8850
 4900SOL     OW26158   0.168   1.023  11.889 -0.0517  0.3991  0.2933
 4900SOL    HW126159   0.155   1.002  11.981  0.8151  0.4223  0.4228
 4900SOL    HW226160   0.263   1.013  11.884  0.0594  1.7014 -0.3372
 4901SOL     OW26161   2.247   3.135  14.562  0.0941 -0.4466 -0.5084
 4901SOL    HW126162   2.326   3.134  14.508  1.8768 -2.8370  2.1311
 4901SOL    HW226163   2.232   3.044  14.587 -0.5337 -0.1553  0.1582
 4902SOL     OW26164   3.089   3.167   0.786 -0.0197  0.0642  0.5910
 4902SOL    HW126165   3.016   3.170   0.847 -0.2909  3.9880  0.1018
 4902SOL    HW226166   3.162   3.199   0.839  1.1234 -1.6478  0.0561
 4903SOL     OW26167   4.658   4.234  10.132  0.2462 -0.9329  0.4108
 4903SOL    HW126168   4.671   4.273  10.046  0.6066 -1.3997  0.2531
 4903SOL    HW226169   4.581   4.178  10.126  1.0198 -1.5536 -3.2516
 4904SOL     OW26170   0.350   3.084  16.410  0.1009 -0.2315  0.3934
 4904SOL    HW126171   0.256   3.078  16.429  0.3636 -1.3540  1.2828
 4904SOL    HW226172   0.363   2.999  16.369 -2.0544 -0.5772  0.4247
 4905SOL     OW26173   0.485   0.879   4.255 -0.0546 -0.3461 -0.5719
 4905SOL    HW126174   0.509   0.791   4.286  0.0771 -0.3884 -0.7946
 4905SOL    HW226175   0.499   0.927   4.337 -2.2433 -0.3487 -0.1995
 4906SOL     OW26176   0.075   0.925   6.005  0.1480 -0.4391  0.2213
 4906SOL    HW126177   0.038   0.901   6.090 -1.5105  1.4504  0.0379
 4906SOL    HW226178   4.717   0.952   5.959  1.1988 -0.0039 -1.3421
 4907SOL     OW26179   3.714   3.527   6.142  0.0612 -0.0169  0.1133
 4907SOL    HW126180   3.766   3.607   6.156  1.7693 -1.6053  2.6911
 4907SOL    HW226181   3.750   3.474   6.212 -2.0470 -0.2919  0.9841
 4908SOL     OW26182   1.001   4.597   6.783  0.3852  0.3204  0.4335
 4908SOL    HW126183   1.006   4.561   6.695 -0.3996 -0.2481  0.6205
 4908SOL    HW226184   1.095   4.612   6.798  0.0730  1.0821  1.6148
 4909SOL     OW26185   3.893   3.102  15.147 -0.2831 -0.4760  0.3675
 4909SOL    HW126186   3.963   3.082  15.209  1.0832  0.9561 -0.7359
 4909SOL    HW226187   3.918   3.187  15.113  0.7772  0.1827  2.7686
 4910SOL     OW26188   1.747   3.567   4.955 -0.1941 -0.0517 -0.1564
 4910SOL    HW126189   1.773   3.518   4.877  0.1449  0.6680 -0.4975
 4910SOL    HW226190   1.825   3.607   4.995  0.4698 -1.6367  0.1040
 4911SOL     OW26191   1.450   0.128   2.602  0.3479  0.6089 -0.2429
 4911SOL    HW126192   1.419   0.076   2.676  0.4256 -0.5914 -1.0537
 4911SOL    HW226193   1.465   0.059   2.538  3.5871  0.3293  0.8067
 4912SOL     OW26194   0.198   2.172   8.168  0.5116  0.6485  0.0691
 4912SOL    HW126195   0.236   2.121   8.240 -0.1949 -1.3668 -0.9969
 4912SOL    HW226196   0.113   2.194   8.206  0.7077  0.2611  0.7289
 4913SOL     OW26197   0.480   3.011   4.195  0.5130  0.4460  0.2610
 4913SOL    HW126198   0.429   3.033   4.273  1.2201 -0.9794  1.1218
 4913SOL    HW226199   0.524   3.095   4.181  1.6514 -0.0030  1.1092
 4914SOL     OW26200   4.466   3.857  12.952  0.2627  0.2918 -0.6182
 4914SOL    HW126201   4.485   3.766  12.975 -0.6279  0.0700 -0.7655
 4914SOL    HW226202   4.474   3.899  13.038 -0.7712  0.5801 -0.6577
 4915SOL     OW26203   3.412   1.038   3.203 -0.4808 -0.1064  0.0948
 4915SOL    HW126204   3.335   1.096   3.205  1.5350  2.5217  1.7368
 4915SOL    HW226205   3.439   1.037   3.294  1.5024 -1.2595 -0.5062
 4916SOL     OW26206   4.503   1.211  12.747  0.3339 -0.1165 -0.5810
 4916SOL    HW126207   4.469   1.257  12.824  1.3216  0.0839 -0.2629
 4916SOL    HW226208   4.596   1.231  12.735  0.0883  1.4856  0.2330
 4917SOL     OW26209   3.613   2.233  11.539 -0.3854  0.5936 -0.0004
 4917SOL    HW126210   3.676   2.163  11.558 -1.5440 -0.4523  0.0062
 4917SOL    HW226211   3.592   2.210  11.448 -1.0672  1.8160 -0.1426
 4918SOL     OW26212   4.529   2.976  12.923  0.4178 -0.2909  0.1393
 4918SOL    HW126213   4.552   2.939  13.008 -2.8660  1.0631  1.6062
 4918SOL    HW226214   4.570   2.916  12.861 -0.9451 -2.1613  1.0667
 4919SOL     OW26215   1.859   2.319  13.469 -0.3048  0.4731 -0.1393
 4919SOL    HW126216   1.767   2.294  13.462  0.2981 -1.0758 -2.5415
 4919SOL    HW226217   1.860   2.397  13.413  1.9229  1.2251  0.9410
 4920SOL     OW26218   3.326   3.317   4.665 -0.5691 -0.1421 -0.3977
 4920SOL    HW126219   3.358   3.288   4.750 -1.9591 -0.1808  0.1132
 4920SOL    HW226220   3.231   3.316   4.681 -0.2101 -0.6196  1.6649
 4921SOL     OW26221   1.123   2.027  17.153  0.4766  0.2587  0.5210
 4921SOL    HW126222   1.089   2.116  17.144 -0.6673 -0.5084 -2.6887
 4921SOL    HW226223   1.213   2.044  17.182  0.2308  1.9174  0.2682
 4922SOL     OW26224   2.246   3.785   0.030 -0.2684 -0.3427  0.4270
 4922SOL    HW126225   2.239   3.723  17.648  0.3756 -1.5706  1.4262
 4922SOL    HW226226   2.169   3.842   0.024 -0.2096 -0.1137  1.9627
 4923SOL     OW26227   4.576   0.882   7.612 -0.0447 -0.6480  0.3746
 4923SOL    HW126228   4.614   0.840   7.535  0.4279  0.0765  0.2156
 4923SOL    HW226229   4.625   0.965   7.610  1.1848 -1.3930 -0.4715
 4924SOL     OW26230   3.052   0.115   2.427  0.1638 -0.1501  0.0795
 4924SOL    HW126231   3.029   0.081   2.340  0.5416 -1.7226  0.6018
 4924SOL    HW226232   3.010   0.201   2.417  1.6059  0.5193 -0.2192
 4925SOL     OW26233   4.315   2.507   7.199 -0.5485  0.0047  0.1937
 4925SOL    HW126234   4.291   2.589   7.243  1.7402  0.0863  1.2572
 4925SOL    HW226235   4.309   2.542   7.110  0.7906 -0.1163  0.0576
 4926SOL     OW26236   0.961   1.361   5.980  0.0631 -0.2648 -0.3067
 4926SOL    HW126237   0.960   1.434   6.042 -1.1769 -0.2920 -0.3065
 4926SOL    HW226238   0.880   1.368   5.931  0.6833  0.7480 -1.1830
 4927SOL     OW26239   4.462   3.144   2.027 -0.2725  0.4300  0.0232
 4927SOL    HW126240   4.387   3.128   1.970 -0.2951  0.2609  0.0994
 4927SOL    HW226241   4.538   3.120   1.974  0.3677  1.0442  0.6692
 4928SOL     OW26242   2.560   2.497   2.574 -0.2561  0.1576 -0.4164
 4928SOL    HW126243   2.567   2.582   2.618  3.4235 -0.1068 -0.4305
 4928SOL    HW226244   2.642   2.456   2.603  0.5409  2.5989  0.8223
 4929SOL     OW26245   0.547   2.244   4.208 -0.2229 -0.0927  0.1023
 4929SOL    HW126246   0.462   2.275   4.176 -0.1303 -0.1688 -0.2239
 4929SOL    HW226247   0.545   2.150   4.189  0.5024 -0.4456  1.7741
 4930SOL     OW26248   1.571   4.200   6.621  0.1581  0.0738  0.4447
 4930SOL    HW126249   1.558   4.112   6.655  1.0926 -0.9161 -1.7773
 4930SOL    HW226250   1.590   4.241   6.706 -0.4231  0.8307  0.2069
 4931SOL     OW26251   3.829   4.182   6.388  0.3026 -0.1929 -0.5150
 4931SOL    HW126252   3.816   4.230   6.470  0.6934  0.1188 -0.6375
 4931SOL    HW226253   3.923   4.191   6.373  0.2436  1.3666  0.0259
 4932SOL     OW26254   2.606   3.778   6.200 -0.2818  0.4866  0.4542
 4932SOL    HW126255   2.609   3.688   6.233  0.1633  0.7690  1.1947
 4932SOL    HW226256   2.520   3.772   6.157 -0.9734 -2.5663  2.2017
 4933SOL     OW26257   2.859   2.405  14.929 -0.1032  1.1155 -0.4481
 4933SOL    HW126258   2.818   2.350  14.862 -0.3590 -0.8191  1.3158
 4933SOL    HW226259   2.901   2.465  14.867 -0.9062  1.4336 -0.6922
 4934SOL     OW26260   2.500   1.718   7.891 -0.1245  0.2507 -0.4752
 4934SOL    HW126261   2.476   1.641   7.942 -0.8355 -0.5502 -2.0446
 4934SOL    HW226262   2.446   1.783   7.938  0.4627  0.0410  0.4939
 4935SOL     OW26263   0.445   1.057   0.174  0.2468  0.9553 -0.2500
 4935SOL    HW126264   0.415   0.971   0.146  3.9526 -0.6113  0.5337
 4935SOL    HW226265   0.362   1.105   0.174 -0.3883 -0.1409 -1.1201
 4936SOL     OW26266   3.157   0.653  10.346  0.7882  0.0964  0.0049
 4936SOL    HW126267   3.231   0.697  10.388 -2.1810  2.6635  2.5601
 4936SOL    HW226268   3.115   0.713  10.285 -0.6433 -3.6987 -2.7362
 4937SOL     OW26269   0.735   0.104  11.350 -0.0577  0.0663 -0.4836
 4937SOL    HW126270   0.734   0.011  11.325 -0.4310 -0.4948  1.5913
 4937SOL    HW226271   0.695   0.147  11.274  3.0335  2.6781 -0.6523
 4938SOL     OW26272   0.496   1.555   6.624 -0.1741 -0.0584  0.0247
 4938SOL    HW126273   0.479   1.613   6.550  1.4487  3.0058  2.0597
 4938SOL    HW226274   0.510   1.608   6.703 -1.9888  2.1609 -1.1113
 4939SOL     OW26275   2.472   1.766   6.196  0.0970 -0.4206 -0.3882
 4939SOL    HW126276   2.446   1.831   6.130 -1.8545 -0.9135 -0.0874
 4939SOL    HW226277   2.384   1.738   6.219  1.0988 -0.8053  3.0146
 4940SOL     OW26278   3.505   2.419  12.540 -0.1524  0.6110 -0.3822
 4940SOL    HW126279   3.500   2.470  12.621 -0.8484 -1.9189  1.1630
 4940SOL    HW226280   3.429   2.363  12.550  0.2176  0.6413  2.6831
 4941SOL     OW26281   4.436   0.205   3.570 -0.1686 -0.3807  0.3447
 4941SOL    HW126282   4.489   0.220   3.648 -0.8353  0.5572  0.6226
 4941SOL    HW226283   4.348   0.223   3.602 -0.2644 -1.3473  0.6402
 4942SOL     OW26284   0.744   4.137   4.370 -0.2579  0.3298 -0.2329
 4942SOL    HW126285   0.767   4.127   4.463  1.9586 -0.1664 -0.8325
 4942SOL    HW226286   0.670   4.197   4.371  0.3758  1.0929  0.8846
 4943SOL     OW26287   2.341   0.766   9.135 -0.5367  0.1847  0.1240
 4943SOL    HW126288   2.298   0.819   9.203  1.7607  2.4378 -0.1854
 4943SOL    HW226289   2.269   0.760   9.071 -0.9716  1.6211  0.4809
 4944SOL     OW26290   0.417   4.396   6.235  0.5029  0.2194  0.9172
 4944SOL    HW126291   0.430   4.350   6.152  0.8795  1.2971  0.3686
 4944SOL    HW226292   0.323   4.409   6.246  0.4033 -0.8111  1.2781
 4945SOL     OW26293   1.542   1.799  10.358 -0.1947  1.0238  0.3432
 4945SOL    HW126294   1.456   1.775  10.322  0.8034  0.3316 -1.5906
 4945SOL    HW226295   1.517   1.827  10.446 -1.7427 -1.1007  0.5833
 4946SOL     OW26296   1.816   1.320   7.390  0.0754  0.5442  0.1034
 4946SOL    HW126297   1.781   1.398   7.432 -2.1415  0.1744 -1.0392
 4946SOL    HW226298   1.869   1.289   7.463 -0.9735 -0.5987  0.3847
 4947SOL     OW26299   1.015   1.365  10.159  0.3254 -0.0172 -0.3154
 4947SOL    HW126300   1.033   1.320  10.242 -0.2835 -0.6260 -0.5153
 4947SOL    HW226301   1.025   1.457  10.185 -0.4772  0.2325 -0.8906
 4948SOL     OW26302   3.924   3.871   2.366  0.3342  0.1575  0.2542
 4948SOL    HW126303   3.990   3.899   2.303  0.3114  0.3767  0.3280
 4948SOL    HW226304   3.975   3.887   2.446  1.1777 -2.2047  0.1954
 4949SOL     OW26305   3.560   0.677   6.683 -0.0943  0.1546  0.7462
 4949SOL    HW126306   3.567   0.770   6.664 -1.7691  0.6314  2.5069
 4949SOL    HW226307   3.547   0.690   6.777  0.7397  3.3660  0.4040
 4950SOL     OW26308   2.193   1.788  14.854  0.2233 -0.8418  0.7891
 4950SOL    HW126309   2.116   1.732  14.850  0.1211 -0.6012 -0.6568
 4950SOL    HW226310   2.209   1.796  14.948  1.3788 -2.1837  0.7187
 4951SOL     OW26311   1.878   4.419   4.797  0.0911  0.4187  0.8230
 4951SOL    HW126312   1.863   4.513   4.807 -1.2969  0.2822  0.0199
 4951SOL    HW226313   1.911   4.400   4.885  1.9682  2.2011  0.5127
 4952SOL     OW26314   0.677   2.755   8.079 -0.1025 -1.0383 -0.1058
 4952SOL    HW126315   0.749   2.812   8.050 -0.3110 -0.9584 -0.4692
 4952SOL    HW226316   0.734   2.694   8.126  0.6206  0.7217  1.3060
 4953SOL     OW26317   4.066   1.315   8.033 -0.3548  0.1196  0.2230
 4953SOL    HW126318   4.060   1.220   8.019 -2.6407  0.2268  0.4513
 4953SOL    HW226319   4.076   1.305   8.127  2.4735  0.1645 -0.0646
 4954SOL     OW26320   4.439   4.120  17.332  0.2814 -0.3090  0.3930
 4954SOL    HW126321   4.372   4.054  17.314  0.9440 -0.7045 -0.6100
 4954SOL    HW226322   4.479   4.081  17.409  1.2862  0.3045  0.1854
 4955SOL     OW26323   0.879   4.647  15.006  0.0724 -0.4090  0.3125
 4955SOL    HW126324   0.842   4.573  15.054 -2.7050 -0.8122 -2.4831
 4955SOL    HW226325   0.887   4.608  14.919  1.1058  2.5393 -0.9040
 4956SOL     OW26326   0.351   2.878   3.645  0.6906 -0.1946 -0.0985
 4956SOL    HW126327   0.382   2.827   3.720 -0.5159  2.9202  2.5125
 4956SOL    HW226328   0.292   2.811   3.610  0.5903 -0.0774 -0.1532
 4957SOL     OW26329   3.254   0.853   3.576 -0.3824 -0.0501 -0.0174
 4957SOL    HW126330   3.261   0.799   3.498 -2.2556  1.2943 -1.1034
 4957SOL    HW226331   3.292   0.795   3.643  0.3199  1.3702  0.8204
 4958SOL     OW26332   4.539   2.157   5.307 -0.2470  0.0381  0.1496
 4958SOL    HW126333   4.577   2.114   5.230 -3.9812  0.7131 -2.0245
 4958SOL    HW226334   4.514   2.081   5.359  0.7105  0.5385  1.3334
 4959SOL     OW26335   1.116   2.916   4.123  0.4092 -0.5575  0.3742
 4959SOL    HW126336   1.096   3.003   4.090  0.2688 -0.8074 -0.1961
 4959SOL    HW226337   1.113   2.923   4.219  1.3851 -0.4539  0.3920
 4960SOL     OW26338   3.799   1.454   9.483  0.3380 -0.6370 -0.0656
 4960SOL    HW126339   3.877   1.502   9.455  0.9932 -1.3761  0.4960
 4960SOL    HW226340   3.803   1.473   9.577  0.3076  0.6697 -0.3287
 4961SOL     OW26341   0.219   2.433  17.446  0.3367 -0.8746  0.4476
 4961SOL    HW126342   0.213   2.528  17.431  2.2427 -0.9127 -0.5774
 4961SOL    HW226343   0.129   2.404  17.459  0.1759 -0.1843  0.8608
 4962SOL     OW26344   1.558   3.165   6.124 -0.2138  0.1785  0.3587
 4962SOL    HW126345   1.537   3.230   6.057 -0.2447 -0.2544 -0.0432
 4962SOL    HW226346   1.508   3.199   6.199  0.1373  2.7478 -0.5788
 4963SOL     OW26347   3.069   1.127   9.428  0.5341  0.1084 -0.0665
 4963SOL    HW126348   3.149   1.177   9.441  0.6401  0.1705 -0.9136
 4963SOL    HW226349   3.005   1.190   9.396 -0.2068 -1.4827 -1.7135
 4964SOL     OW26350   2.531   2.689   8.210  0.2732  0.3376 -0.2687
 4964SOL    HW126351   2.459   2.693   8.273  1.1344  2.3955  0.6056
 4964SOL    HW226352   2.467   2.690   8.139  0.1982  0.0343 -0.2068
 4965SOL     OW26353   2.758   3.251  11.414 -0.6059 -0.4266 -0.0694
 4965SOL    HW126354   2.685   3.309  11.438  0.7439  0.8806  0.9110
 4965SOL    HW226355   2.737   3.163  11.445  1.8581 -0.6647  0.9085
 4966SOL     OW26356   3.928   4.203   4.390  0.0466  0.5982  0.7925
 4966SOL    HW126357   3.900   4.118   4.426 -1.0075  0.1038 -1.1938
 4966SOL    HW226358   4.022   4.187   4.384 -0.5812 -3.2958  0.9097
 4967SOL     OW26359   0.058   0.702   9.064  0.4977  0.3649  0.1428
 4967SOL    HW126360   0.079   0.610   9.078 -0.8694 -0.1183 -0.9674
 4967SOL    HW226361   0.019   0.720   9.149 -2.3379 -0.2757 -1.0037
 4968SOL     OW26362   3.304   4.421   3.078  0.1492  0.4910 -0.0863
 4968SOL    HW126363   3.354   4.360   3.023 -0.6908  2.3383 -2.8774
 4968SOL    HW226364   3.245   4.456   3.011  0.6872 -0.0988 -0.8661
 4969SOL     OW26365   3.720   2.966   6.270  0.4182  0.1596  0.0508
 4969SOL    HW126366   3.704   3.049   6.315 -0.4130 -0.1860  0.3873
 4969SOL    HW226367   3.677   2.906   6.331 -0.9479  0.0781 -0.9857
 4970SOL     OW26368   1.779   2.770  16.159 -0.2911 -0.1348  0.1940
 4970SOL    HW126369   1.748   2.727  16.080  1.0805  1.1674 -1.0472
 4970SOL    HW226370   1.840   2.701  16.187 -0.1597  0.8917  2.4161
 4971SOL     OW26371   3.138   0.406   5.417  0.0335  0.1531 -0.3657
 4971SOL    HW126372   3.148   0.500   5.432  1.9285 -0.2410  0.9053
 4971SOL    HW226373   3.117   0.402   5.323  1.9334 -1.0599 -0.7375
 4972SOL     OW26374   0.908   1.784   4.909  0.6159  0.0668 -0.0191
 4972SOL    HW126375   0.894   1.873   4.876  0.4364  0.2989  0.6742
 4972SOL    HW226376   0.999   1.774   4.883  0.9810 -0.3943  1.4387
 4973SOL     OW26377   0.298   0.089   5.448 -0.1341  0.0863  0.0591
 4973SOL    HW126378   0.352   0.011   5.468 -3.5343 -1.9029  1.4698
 4973SOL    HW226379   0.348   0.149   5.504 -0.0292  0.0278  0.0295
 4974SOL     OW26380   3.664   2.330  11.056  0.5128  0.0126  0.4089
 4974SOL    HW126381   3.642   2.421  11.040  1.5047  0.1606 -0.0427
 4974SOL    HW226382   3.587   2.284  11.022  0.0262 -0.4039  2.0777
 4975SOL     OW26383   1.707   3.512   8.909  0.6834 -0.3257 -0.4373
 4975SOL    HW126384   1.802   3.513   8.918  0.6150  0.6109  0.1403
 4975SOL    HW226385   1.697   3.588   8.852  1.8916  1.1317  1.3203
 4976SOL     OW26386   2.361   1.934   7.215 -0.2394 -0.5111 -0.2346
 4976SOL    HW126387   2.437   1.911   7.268 -0.1733 -0.4451 -0.3006
 4976SOL    HW226388   2.285   1.896   7.260 -0.2460 -1.2383 -0.8575
 4977SOL     OW26389   0.842   3.117   5.561  0.7585 -0.3480  0.4994
 4977SOL    HW126390   0.846   3.128   5.466  0.0969 -0.5348  0.4537
 4977SOL    HW226391   0.756   3.080   5.578 -0.3745  2.2259  0.3246
 4978SOL     OW26392   0.962   2.844   2.061  0.0517  0.1571 -0.3442
 4978SOL    HW126393   0.897   2.912   2.047 -0.4879  0.0588  1.6401
 4978SOL    HW226394   0.923   2.796   2.134 -0.7799 -0.1428 -0.9921
 4979SOL     OW26395   3.006   2.946   0.653 -0.5842  0.7321 -0.1701
 4979SOL    HW126396   3.081   3.002   0.670  0.8316 -1.1137 -0.2744
 4979SOL    HW226397   2.983   2.906   0.737  4.0050 -2.9120 -0.6406
 4980SOL     OW26398   1.571   2.662   5.402  0.7767  0.1035 -0.2201
 4980SOL    HW126399   1.520   2.582   5.413 -0.2887  0.8450  0.2549
 4980SOL    HW226400   1.504   2.730   5.400 -0.6174 -1.3456 -3.0803
 4981SOL     OW26401   4.154   0.402  11.029  0.3826 -0.5267 -0.0801
 4981SOL    HW126402   4.242   0.365  11.040  0.6124 -0.0831 -0.4461
 4981SOL    HW226403   4.126   0.372  10.942  0.5325  0.4761 -0.4678
 4982SOL     OW26404   2.152   1.515   0.877  0.2339  0.5061  0.7812
 4982SOL    HW126405   2.063   1.485   0.893  0.7984 -0.6989  1.6986
 4982SOL    HW226406   2.143   1.608   0.857 -0.5936  0.1118 -0.6411
 4983SOL     OW26407   3.373   0.262   3.492 -0.2693  0.5853  0.3341
 4983SOL    HW126408   3.323   0.333   3.451  2.4762  1.0689 -2.2368
 4983SOL    HW226409   3.452   0.309   3.521  0.3801  0.2900 -0.9741
 4984SOL     OW26410   4.645   3.335  10.294  0.5905 -0.0842 -0.3892
 4984SOL    HW126411   4.712   3.404  10.294 -2.9262  3.3243  1.0323
 4984SOL    HW226412   4.584   3.370  10.230  0.9132  1.2986  0.0601
 4985SOL     OW26413   3.168   1.087   2.956  0.3176 -0.5387  0.3985
 4985SOL    HW126414   3.207   1.089   2.868  1.0243  1.1867  0.7451
 4985SOL    HW226415   3.117   1.007   2.943 -0.0681 -0.1399 -0.5446
 4986SOL     OW26416   2.601   1.410   6.916  0.5548 -0.1580 -0.2466
 4986SOL    HW126417   2.511   1.417   6.949 -0.0208 -0.0239 -1.8648
 4986SOL    HW226418   2.598   1.350   6.842 -0.6649 -1.4824  0.8526
 4987SOL     OW26419   3.746   1.108   8.603  0.2409  0.1428 -0.1573
 4987SOL    HW126420   3.777   1.185   8.555 -0.8946 -0.1675 -1.3906
 4987SOL    HW226421   3.733   1.145   8.690  0.5443  0.5758 -0.2953
 4988SOL     OW26422   0.526   4.104   8.255  0.2891 -0.2500 -0.6557
 4988SOL    HW126423   0.555   4.182   8.301  0.5366 -1.5758  1.4335
 4988SOL    HW226424   0.576   4.030   8.288 -1.1497  0.0336  2.1105
 4989SOL     OW26425   1.476   3.542   5.599 -0.2209 -0.2542  0.6652
 4989SOL    HW126426   1.445   3.477   5.536 -0.5265 -0.6089  1.1808
 4989SOL    HW226427   1.467   3.615   5.538  0.2318 -1.0595 -0.3736
 4990SOL     OW26428   4.699   3.249   5.272 -0.0933 -0.1106 -0.7180
 4990SOL    HW126429   0.037   3.207   5.211 -0.7499 -3.9581  1.2985
 4990SOL    HW226430   4.627   3.271   5.213 -1.7585  0.0429  1.3581
 4991SOL     OW26431   2.325   1.374   7.014 -0.3479  0.3278  0.2332
 4991SOL    HW126432   2.361   1.291   7.045  0.8054  0.3523 -1.0476
 4991SOL    HW226433   2.251   1.383   7.074 -0.9071  0.3172 -0.4692
 4992SOL     OW26434   2.245   0.372   2.122  0.8858  0.3251 -0.4151
 4992SOL    HW126435   2.274   0.298   2.069  0.2635 -0.6691  0.6511
 4992SOL    HW226436   2.301   0.443   2.091 -3.2058  3.2434 -1.0580
 4993SOL     OW26437   1.414   3.143   2.380  0.5150  0.3381  0.0430
 4993SOL    HW126438   1.402   3.149   2.285  2.7666 -1.2716 -0.3623
 4993SOL    HW226439   1.510   3.148   2.386  0.6300 -1.7820 -0.1928
 4994SOL     OW26440   3.227   2.427  16.069 -0.0115  0.0302  0.2294
 4994SOL    HW126441   3.142   2.470  16.060 -0.4592 -0.3317  2.8382
 4994SOL    HW226442   3.281   2.505  16.083  0.3775 -0.3153  0.6605
 4995SOL     OW26443   3.832   1.383   2.429  0.5986 -0.2917  0.5072
 4995SOL    HW126444   3.924   1.406   2.426 -0.0112  1.8874 -1.0899
 4995SOL    HW226445   3.805   1.393   2.521  0.6110 -0.4167  0.5244
 4996SOL     OW26446   0.999   2.446  12.860 -0.4560  0.0733  0.4475
 4996SOL    HW126447   1.000   2.420  12.768 -0.4052  0.7196  0.2644
 4996SOL    HW226448   0.905   2.435  12.873 -0.3640 -2.7253 -1.2415
 4997SOL     OW26449   2.438   1.752   4.605  0.2993  0.5524  0.4261
 4997SOL    HW126450   2.382   1.778   4.532 -1.1275  1.2786  1.7477
 4997SOL    HW226451   2.510   1.815   4.601  2.1086 -1.5071  0.6090
 4998SOL     OW26452   3.286   3.991   9.809  0.2193  0.2012  0.0806
 4998SOL    HW126453   3.250   4.048   9.876  0.6416 -3.9601  3.8670
 4998SOL    HW226454   3.226   3.997   9.734 -2.4050 -0.2468  2.1699
 4999SOL     OW26455   0.534   3.003   8.025 -0.0570 -0.7908 -0.1927
 4999SOL    HW126456   0.555   3.024   7.934 -1.4518  1.1634 -0.0840
 4999SOL    HW226457   0.582   2.925   8.051 -2.1732 -1.8656  0.5111
 5000SOL     OW26458   0.432   0.269   0.678 -0.0094  0.0673 -0.2251
 5000SOL    HW126459   0.412   0.349   0.628  1.3249  1.1234  0.9269
 5000SOL    HW226460   0.522   0.292   0.704 -0.2070 -0.2559  0.7358
 5001SOL     OW26461   3.451   1.140   8.845 -0.1223 -0.1801  0.8284
 5001SOL    HW126462   3.486   1.212   8.898 -1.7902  1.1162  0.1842
 5001SOL    HW226463   3.457   1.070   8.910 -1.4044 -0.7296  0.3494
 5002SOL     OW26464   4.028   0.783   4.652 -0.1795 -0.1201  0.3572
 5002SOL    HW126465   4.104   0.839   4.667 -0.6858  0.8007 -0.5044
 5002SOL    HW226466   4.032   0.772   4.557 -0.5670  0.9475  0.2124
 5003SOL     OW26467   0.503   4.218  11.012 -0.7775  0.3782  0.0617
 5003SOL    HW126468   0.452   4.138  11.024  1.8805 -1.0536  1.9230
 5003SOL    HW226469   0.471   4.273  11.083  1.6623  1.6076  0.2013
 5004SOL     OW26470   3.879   0.436   7.345 -0.4431 -0.4115 -0.4045
 5004SOL    HW126471   3.899   0.348   7.375  1.9870  0.2449 -0.1035
 5004SOL    HW226472   3.854   0.476   7.429 -0.2561 -0.2073 -0.4448
 5005SOL     OW26473   3.543   4.538   4.023  0.1709  0.0240 -0.5766
 5005SOL    HW126474   3.555   4.571   3.934 -1.3754  2.7869  0.2544
 5005SOL    HW226475   3.466   4.482   4.017  2.5753 -3.1004 -2.0002
 5006SOL     OW26476   3.839   3.559   3.758 -0.4639  0.0603  0.2066
 5006SOL    HW126477   3.889   3.616   3.699  0.0422 -0.6788 -0.0800
 5006SOL    HW226478   3.816   3.491   3.694  0.0150 -0.5568  0.7036
 5007SOL     OW26479   1.871   2.885  13.482  0.3450  0.2312 -0.3248
 5007SOL    HW126480   1.959   2.923  13.479  1.8086 -3.3058 -1.7462
 5007SOL    HW226481   1.883   2.790  13.483  0.3325  0.2130 -2.0074
 5008SOL     OW26482   0.901   4.125   5.194 -0.3586  0.7457  0.2034
 5008SOL    HW126483   0.985   4.168   5.179  0.8365 -1.6311  0.0881
 5008SOL    HW226484   0.895   4.110   5.288 -0.2795 -0.4354  0.0164
 5009SOL     OW26485   1.309   0.238   1.867 -0.5379  0.0234 -0.0535
 5009SOL    HW126486   1.384   0.187   1.896 -1.1807 -0.1329  1.3473
 5009SOL    HW226487   1.270   0.186   1.796 -2.5442  0.2994  0.8325
 5010SOL     OW26488   3.936   1.118   9.232 -0.2010  0.0383  0.4639
 5010SOL    HW126489   3.872   1.167   9.180 -0.7065  1.4661  2.4198
 5010SOL    HW226490   4.007   1.160   9.185 -0.0678 -1.0272 -0.2862
 5011SOL     OW26491   1.844   4.543  13.987 -0.3086 -0.7887  0.2952
 5011SOL    HW126492   1.873   4.603  13.918 -2.1888 -0.3462 -0.0947
 5011SOL    HW226493   1.752   4.567  13.982  0.1428  0.7099 -0.8108
 5012SOL     OW26494   4.071   2.936   6.756  0.0146  0.2432 -0.2098
 5012SOL    HW126495   4.013   2.947   6.681 -2.0225 -3.0192  0.9096
 5012SOL    HW226496   4.140   2.881   6.721  0.3624  0.6476 -0.1664
 5013SOL     OW26497   3.715   2.709  13.574  0.9284  0.1857  0.3105
 5013SOL    HW126498   3.678   2.753  13.498  1.1077  0.7121  0.5281
 5013SOL    HW226499   3.630   2.701  13.619  0.3485 -0.2499 -0.8687
 5014SOL     OW26500   0.176   1.402   4.212  0.7483 -0.7444  0.1811
 5014SOL    HW126501   0.270   1.391   4.194  0.5293 -0.8127 -0.9044
 5014SOL    HW226502   0.147   1.321   4.254  0.9413 -1.0173 -0.2153
 5015SOL     OW26503   2.365   3.383   3.674  0.4139 -0.6003  0.3775
 5015SOL    HW126504   2.321   3.300   3.656  0.5822 -0.4459 -0.7541
 5015SOL    HW226505   2.331   3.435   3.601 -2.4056 -1.2834  1.1859
 5016SOL     OW26506   2.382   3.618  16.976  0.1227  0.4810 -0.3636
 5016SOL    HW126507   2.467   3.604  17.017  0.9405  1.0397 -1.8571
 5016SOL    HW226508   2.383   3.704  16.934  0.2827  0.9582  0.6090
 5017SOL     OW26509   0.448   2.259   6.437  0.2014 -0.2993 -0.0791
 5017SOL    HW126510   0.432   2.225   6.525 -3.7671  1.4533 -0.1316
 5017SOL    HW226511   0.379   2.325   6.426 -0.6407 -1.4124 -1.4380
 5018SOL     OW26512   3.895   1.808   7.870  0.2041  0.2264 -0.1172
 5018SOL    HW126513   3.899   1.722   7.910  4.1962  0.4567  0.0394
 5018SOL    HW226514   3.988   1.815   7.847  0.6229 -0.8869  1.2315
 5019SOL     OW26515   1.987   4.419   2.944 -0.0008 -0.3042 -0.1956
 5019SOL    HW126516   2.004   4.359   2.871  1.1797 -1.1420  0.7687
 5019SOL    HW226517   1.944   4.355   3.000  1.7990 -1.7929 -0.5315
 5020SOL     OW26518   2.583   0.423  13.883 -0.4068 -0.5367 -0.0357
 5020SOL    HW126519   2.564   0.515  13.903  2.0233  0.2134 -1.1181
 5020SOL    HW226520   2.666   0.415  13.930 -1.4670 -2.0579  1.5720
 5021SOL     OW26521   0.854   4.606   4.519 -0.1277 -0.2376 -0.2468
 5021SOL    HW126522   0.893   4.549   4.453  1.1810  2.4220 -1.7443
 5021SOL    HW226523   0.911   4.583   4.592 -0.2957 -1.1202 -0.3951
 5022SOL     OW26524   3.954   3.006   0.320  0.0542 -0.2927  0.3484
 5022SOL    HW126525   3.984   3.096   0.304 -0.0628 -0.2389  0.4379
 5022SOL    HW226526   3.861   3.016   0.299 -0.6175 -0.2230  3.3970
 5023SOL     OW26527   4.360   0.188   1.910 -0.0922  0.0641  0.0429
 5023SOL    HW126528   4.301   0.256   1.878 -1.3969 -1.8387 -1.5928
 5023SOL    HW226529   4.329   0.164   1.997 -1.1900 -0.1772 -0.4039
 5024SOL     OW26530   1.224   2.818  11.025 -0.3986 -0.3343  0.2636
 5024SOL    HW126531   1.136   2.851  11.005  0.2468  2.3423  1.7507
 5024SOL    HW226532   1.271   2.849  10.948 -1.9801  0.7915 -0.2528
 5025SOL     OW26533   1.299   0.517  11.443  0.4825  0.2601 -0.0364
 5025SOL    HW126534   1.334   0.526  11.355  1.3360 -0.7492  0.1966
 5025SOL    HW226535   1.284   0.609  11.463 -3.5734 -0.5316  0.5639
 5026SOL     OW26536   3.005   1.682   0.931 -0.1302  0.3306 -0.2137
 5026SOL    HW126537   3.006   1.643   1.018 -2.7738  0.8923  0.0461
 5026SOL    HW226538   2.922   1.656   0.891 -0.0960  0.3631 -0.3059
 5027SOL     OW26539   0.825   2.544   1.306 -0.2341 -0.5437  0.7871
 5027SOL    HW126540   0.868   2.458   1.307  0.3194 -0.2411  2.5658
 5027SOL    HW226541   0.833   2.573   1.397 -0.3608  1.9533  0.0075
 5028SOL     OW26542   4.222   1.181   0.540  0.0974 -0.8604 -0.2346
 5028SOL    HW126543   4.178   1.100   0.564 -1.6914  0.1998  0.0623
 5028SOL    HW226544   4.309   1.141   0.533  0.1575 -0.4395 -1.7415
 5029SOL     OW26545   4.676   3.654  10.301 -0.3272 -0.8445  0.0093
 5029SOL    HW126546   4.591   3.697  10.295  0.2313  0.4644  1.2494
 5029SOL    HW226547   4.669   3.633  10.394 -0.6244 -0.1865  0.1302
 5030SOL     OW26548   2.202   3.580   3.225 -0.0278  0.8357  0.2447
 5030SOL    HW126549   2.273   3.557   3.165 -0.2320  2.6049 -0.6776
 5030SOL    HW226550   2.161   3.647   3.171 -3.4739 -1.0740  0.5291
 5031SOL     OW26551   1.884   2.179   9.749 -0.1674 -0.3512  0.0942
 5031SOL    HW126552   1.901   2.261   9.702  3.3212 -1.4052 -0.4843
 5031SOL    HW226553   1.914   2.210   9.835  2.0493  0.9317 -1.1576
 5032SOL     OW26554   4.698   3.761   0.809  0.4871 -0.5282 -0.5472
 5032SOL    HW126555   0.034   3.830   0.842  0.4299 -1.4955  1.5563
 5032SOL    HW226556   0.021   3.677   0.820  0.9348  0.2500  3.4122
 5033SOL     OW26557   4.644   2.386   4.718  0.0259  0.4050  0.2215
 5033SOL    HW126558   4.577   2.393   4.650 -2.2441 -0.5510  2.3413
 5033SOL    HW226559   4.589   2.364   4.794 -0.8718 -3.7031 -1.6022
 5034SOL     OW26560   4.505   2.721   6.496  0.4713 -0.1753 -0.5453
 5034SOL    HW126561   4.529   2.810   6.522  0.8022 -0.7821  1.2511
 5034SOL    HW226562   4.596   2.693   6.483  0.7003  0.1548  0.3460
 5035SOL     OW26563   4.015   1.468  16.850 -0.1877 -0.3912  0.0311
 5035SOL    HW126564   4.052   1.466  16.938 -0.1333 -2.9601 -0.0646
 5035SOL    HW226565   3.922   1.471  16.872 -0.1770 -0.1472  0.0512
 5036SOL     OW26566   2.432   1.637   7.206 -0.1745  0.0234 -0.5154
 5036SOL    HW126567   2.355   1.583   7.224  0.1793  0.4479  2.3603
 5036SOL    HW226568   2.502   1.606   7.264 -0.3007  0.3973 -0.1581
 5037SOL     OW26569   2.114   2.916   6.622 -0.7532  0.0165  0.3284
 5037SOL    HW126570   2.120   2.831   6.578 -0.6524  0.3118 -0.2270
 5037SOL    HW226571   2.176   2.911   6.695 -2.0425  0.2952  1.4565
 5038SOL     OW26572   1.081   1.227  12.482 -0.1812 -0.1801  0.4674
 5038SOL    HW126573   1.051   1.147  12.524 -3.5984 -0.5420 -2.6359
 5038SOL    HW226574   1.167   1.195  12.457  1.5175  3.9361  1.0065
 5039SOL     OW26575   3.510   2.133   7.880 -0.0119 -0.2677  0.0317
 5039SOL    HW126576   3.466   2.139   7.965  0.7174  2.3406  0.2255
 5039SOL    HW226577   3.518   2.039   7.867  2.2261 -0.1047  0.2494
 5040SOL     OW26578   4.110   2.363   1.807  0.7084  0.4147 -0.4019
 5040SOL    HW126579   4.175   2.341   1.741  0.0465  0.0980 -0.9558
 5040SOL    HW226580   4.056   2.432   1.768  1.8186  1.4505 -0.0900
 5041SOL     OW26581   3.611   3.751   2.584 -0.0616 -0.5213  0.3055
 5041SOL    HW126582   3.529   3.712   2.615 -0.6971 -0.5526 -1.4287
 5041SOL    HW226583   3.572   3.813   2.523  0.3495 -0.9115 -0.3527
 5042SOL     OW26584   3.074   0.435   4.028 -0.0388  0.2625  0.1918
 5042SOL    HW126585   3.073   0.345   4.059  2.2732  0.0140 -0.4451
 5042SOL    HW226586   3.076   0.493   4.103  0.7348 -2.3525  2.1883
 5043SOL     OW26587   0.434   4.527   5.785 -0.4671  0.2269  0.0582
 5043SOL    HW126588   0.520   4.550   5.819 -0.8341  2.1665 -0.3072
 5043SOL    HW226589   0.385   4.501   5.864 -3.0589 -0.5871 -1.8145
 5044SOL     OW26590   2.430   0.061   3.597  0.7601  0.2283  0.1298
 5044SOL    HW126591   2.358   4.720   3.596  2.0945 -1.2300 -2.4496
 5044SOL    HW226592   2.418   0.097   3.685 -2.4697  0.2981 -0.3525
 5045SOL     OW26593   3.444   2.730   3.558  0.2731 -0.3757  0.0993
 5045SOL    HW126594   3.419   2.701   3.470 -1.1854 -0.0112  0.3879
 5045SOL    HW226595   3.364   2.766   3.595 -0.1554 -0.5956 -0.6067
 5046SOL     OW26596   1.538   4.548   0.255  0.9710 -0.3195 -0.4390
 5046SOL    HW126597   1.618   4.536   0.204  1.0187 -1.5055 -0.0785
 5046SOL    HW226598   1.576   4.554   0.342  0.1684 -0.1381 -0.0996
 5047SOL     OW26599   1.211   4.485   4.377  0.4008  0.0502  0.1406
 5047SOL    HW126600   1.138   4.522   4.425  0.2199  0.7485 -0.6722
 5047SOL    HW226601   1.213   4.394   4.408  0.2267  0.3360  1.0001
 5048SOL     OW26602   2.217   1.451   0.426  0.0940 -0.3997 -0.1044
 5048SOL    HW126603   2.166   1.495   0.495  0.1230  2.1339 -1.6825
 5048SOL    HW226604   2.154   1.460   0.354 -2.3840 -1.1557  1.9561
 5049SOL     OW26605   2.028   3.318  14.822 -0.9604 -0.2351  0.0377
 5049SOL    HW126606   2.040   3.224  14.840  1.8981  0.4705  1.7378
 5049SOL    HW226607   1.936   3.323  14.849 -0.1408  1.5160  2.4827
 5050SOL     OW26608   1.621   0.551   9.505  0.3724  0.1078  0.0826
 5050SOL    HW126609   1.670   0.502   9.439  1.0077 -1.7784  1.9434
 5050SOL    HW226610   1.562   0.603   9.450 -2.0462 -2.3211  0.3852
 5051SOL     OW26611   1.767   0.187   2.582 -0.3837 -0.2479  0.0435
 5051SOL    HW126612   1.700   0.139   2.534  1.4475 -3.2924  0.4910
 5051SOL    HW226613   1.841   0.126   2.590  0.4186  1.0006  2.2638
 5052SOL     OW26614   0.529   1.762   2.297 -0.4750  0.8571 -0.0235
 5052SOL    HW126615   0.560   1.755   2.387  2.1960 -1.9911 -1.1610
 5052SOL    HW226616   0.447   1.808   2.315 -0.9877 -0.6930  1.5597
 5053SOL     OW26617   1.296   3.482  10.320 -0.2391 -0.3751 -0.0325
 5053SOL    HW126618   1.360   3.537  10.275 -0.2211 -0.9886 -0.7493
 5053SOL    HW226619   1.208   3.508  10.291 -0.1908 -0.6834 -0.4645
 5054SOL     OW26620   0.215   2.082   2.842 -0.5467 -0.3204 -0.2685
 5054SOL    HW126621   0.282   2.121   2.786  0.9122  0.5197  2.0952
 5054SOL    HW226622   0.205   2.145   2.914 -3.1787 -3.0924  1.8064
 5055SOL     OW26623   3.201   1.075  12.564 -0.1198  0.2506 -0.0628
 5055SOL    HW126624   3.193   1.094  12.471  0.5666 -0.7200 -0.3145
 5055SOL    HW226625   3.109   1.063  12.589 -0.1655  0.5730 -0.0688
 5056SOL     OW26626   4.003   1.615   6.973  0.2337  0.0044  0.4807
 5056SOL    HW126627   4.038   1.682   7.032  0.0835  2.0717 -1.7740
 5056SOL    HW226628   3.990   1.538   7.029 -0.3882  1.8771  2.8778
 5057SOL     OW26629   1.341   3.726  16.123  0.2806 -0.2046 -0.3456
 5057SOL    HW126630   1.385   3.792  16.177 -0.2062  0.1311 -0.3551
 5057SOL    HW226631   1.411   3.661  16.127  0.3991  0.0837  1.9282
 5058SOL     OW26632   0.069   3.614   7.040 -0.3527  0.2778  0.8439
 5058SOL    HW126633   0.001   3.572   6.987 -0.5453 -0.5398  1.7121
 5058SOL    HW226634   0.017   3.616   7.121  0.0142  0.2613  1.0833
 5059SOL     OW26635   0.538   1.855   4.844  0.3629  0.5092 -0.0578
 5059SOL    HW126636   0.547   1.948   4.864  2.8171 -0.1716  2.0094
 5059SOL    HW226637   0.551   1.820   4.932 -0.1950  1.3117  0.3469
 5060SOL     OW26638   1.308   4.084   6.790 -0.0702 -0.7097  0.7121
 5060SOL    HW126639   1.367   4.020   6.750  0.1052 -1.2383  1.7984
 5060SOL    HW226640   1.327   4.062   6.881  0.9868 -2.0198  0.1859
 5061SOL     OW26641   0.211   0.347   4.282  0.1043 -0.2473 -0.0631
 5061SOL    HW126642   0.271   0.300   4.340 -0.9335 -0.0468  1.1954
 5061SOL    HW226643   0.210   0.436   4.318  1.8831 -0.4493  0.4553
 5062SOL     OW26644   3.764   4.712  11.229  0.7160 -0.8905  0.1327
 5062SOL    HW126645   3.684   0.042  11.230  0.2261 -1.6374 -0.7579
 5062SOL    HW226646   3.794   4.722  11.320  1.7995 -0.3505 -0.2730
 5063SOL     OW26647   0.492   0.690  11.179 -0.7669 -0.2450 -0.1166
 5063SOL    HW126648   0.481   0.633  11.255 -1.8335  0.3919  0.1908
 5063SOL    HW226649   0.484   0.614  11.121  0.0844  0.1407 -0.7414
 5064SOL     OW26650   4.243   4.020   6.976 -0.6154 -0.0907  0.0528
 5064SOL    HW126651   4.337   4.034   6.966 -0.8407  0.2089 -1.6412
 5064SOL    HW226652   4.212   4.104   7.009 -1.6602  0.0121 -1.2156
 5065SOL     OW26653   4.617   2.582   2.512 -0.8818  0.3310 -0.0718
 5065SOL    HW126654   4.602   2.495   2.548 -0.5126  0.5657  0.6570
 5065SOL    HW226655   4.570   2.581   2.429  1.2584  1.2471 -1.2982
 5066SOL     OW26656   4.114   2.143   6.396  0.3837 -0.2005  0.0964
 5066SOL    HW126657   4.024   2.171   6.416  0.4141 -0.2528  0.3004
 5066SOL    HW226658   4.143   2.218   6.344  0.7336 -0.9460 -0.7715
 5067SOL     OW26659   2.864   0.678   2.897 -0.4253 -0.0183  0.2301
 5067SOL    HW126660   2.868   0.604   2.836 -0.9605  0.5612 -0.4974
 5067SOL    HW226661   2.867   0.750   2.834  2.5264  0.8894  1.4309
 5068SOL     OW26662   3.434   2.261  10.897 -0.3531  0.6240  0.1028
 5068SOL    HW126663   3.372   2.334  10.893 -0.9388  0.0446 -1.8617
 5068SOL    HW226664   3.458   2.261  10.804 -0.2469 -0.1658  0.1303
 5069SOL     OW26665   1.312   3.399   5.779  0.1861 -0.6022  0.0984
 5069SOL    HW126666   1.378   3.451   5.733  2.1008 -0.9544  2.4459
 5069SOL    HW226667   1.232   3.439   5.746  1.6718  1.0942 -1.4108
 5070SOL     OW26668   2.122   2.472   1.698  0.2107 -0.6228 -0.2570
 5070SOL    HW126669   2.097   2.425   1.618 -0.0418  0.4340 -0.8027
 5070SOL    HW226670   2.217   2.459   1.691 -0.1233 -1.4463 -3.2228
 5071SOL     OW26671   1.654   2.028   8.238 -0.6341 -0.1050  0.8013
 5071SOL    HW126672   1.606   1.960   8.191  1.8229 -1.3350  0.0210
 5071SOL    HW226673   1.603   2.108   8.231 -0.7050 -0.1176  1.1673
 5072SOL     OW26674   3.747   0.701  15.717  0.3057 -0.4247  0.1660
 5072SOL    HW126675   3.750   0.640  15.644  1.1242 -1.1394  0.8106
 5072SOL    HW226676   3.693   0.657  15.782 -1.3833  1.9815  0.4245
 5073SOL     OW26677   2.085   0.292   4.657  0.1322  0.8106  0.5641
 5073SOL    HW126678   1.999   0.257   4.680 -0.2883  0.6851 -1.2067
 5073SOL    HW226679   2.113   0.334   4.739  0.0146  0.7083  0.6561
 5074SOL     OW26680   0.431   3.418   4.514 -0.3106 -0.2236  0.0255
 5074SOL    HW126681   0.493   3.349   4.488 -1.1892 -1.2396  0.6105
 5074SOL    HW226682   0.414   3.401   4.607 -0.5421 -4.3670 -0.7758
 5075SOL     OW26683   4.076   0.258  10.800  0.0751  0.2383 -0.2099
 5075SOL    HW126684   3.994   0.219  10.829 -0.1975  0.4602 -0.6931
 5075SOL    HW226685   4.125   0.178  10.781  2.2959  1.9257 -1.5148
 5076SOL     OW26686   1.840   1.360   2.430  0.0561 -0.3039  0.0476
 5076SOL    HW126687   1.917   1.354   2.374  0.4011 -1.0984  0.5981
 5076SOL    HW226688   1.818   1.267   2.426 -1.2343  0.1909 -3.6857
 5077SOL     OW26689   1.375   3.459  15.701 -0.6056 -0.4799  0.1043
 5077SOL    HW126690   1.455   3.457  15.753 -1.5905  0.4936  1.6229
 5077SOL    HW226691   1.385   3.543  15.658 -0.9226  0.0227  1.0232
 5078SOL     OW26692   0.257   1.919   8.032 -0.4764 -0.2403  0.1426
 5078SOL    HW126693   0.262   1.931   7.937  1.1893  0.1490  0.2794
 5078SOL    HW226694   0.170   1.957   8.047  0.5161  1.7687  0.8625
 5079SOL     OW26695   0.313   2.088   4.919  0.1654  0.2434 -0.1450
 5079SOL    HW126696   0.401   2.106   4.885  0.5684 -1.3679  0.0423
 5079SOL    HW226697   0.258   2.155   4.879  0.3555  0.7887  0.5057
 5080SOL     OW26698   0.076   1.923   6.786 -0.9167  0.9091  0.3217
 5080SOL    HW126699   0.161   1.954   6.817 -2.1644  2.8037  1.8934
 5080SOL    HW226700   0.091   1.941   6.693 -1.7682 -2.7481 -0.5144
 5081SOL     OW26701   4.456   4.226   3.449 -0.3594 -0.0019 -0.6104
 5081SOL    HW126702   4.395   4.172   3.500  1.1250 -1.3422 -0.2510
 5081SOL    HW226703   4.384   4.259   3.394 -1.0481 -0.2601  0.1435
 5082SOL     OW26704   4.435   2.017   2.073  0.0065 -0.1877 -0.3595
 5082SOL    HW126705   4.421   1.977   1.987  2.2989  1.0520 -1.3222
 5082SOL    HW226706   4.431   2.111   2.054  1.8254 -0.0893 -0.2435
 5083SOL     OW26707   3.703   3.589  12.013 -0.0757  0.0727  0.0674
 5083SOL    HW126708   3.626   3.640  12.035 -0.5906 -0.2493 -0.9991
 5083SOL    HW226709   3.687   3.503  12.053  0.3591 -0.2404 -0.4152
 5084SOL     OW26710   1.621   0.906  12.210  0.0100  0.2578 -0.3189
 5084SOL    HW126711   1.534   0.903  12.170  0.3758  1.4584 -1.1855
 5084SOL    HW226712   1.679   0.915  12.133 -0.4431 -1.6376 -0.8830
 5085SOL     OW26713   0.609   4.311   1.878 -0.2722 -0.0127 -0.3831
 5085SOL    HW126714   0.630   4.355   1.961  0.7918 -0.8484 -0.2120
 5085SOL    HW226715   0.538   4.369   1.849  0.1351  0.2539 -0.8430
 5086SOL     OW26716   0.754   1.297  10.068 -0.1155  0.2308 -0.2240
 5086SOL    HW126717   0.846   1.315  10.086 -0.1787 -1.8378  2.1943
 5086SOL    HW226718   0.751   1.204  10.090 -1.9647  0.4019  0.2930
 5087SOL     OW26719   4.662   3.050   1.880  0.5801  0.0156  0.1877
 5087SOL    HW126720   0.007   3.042   1.948  2.3522 -1.4657 -1.7057
 5087SOL    HW226721   4.704   3.033   1.796  1.5865 -2.4513  1.1757
 5088SOL     OW26722   1.172   1.872  16.945  0.8033 -0.1663 -0.4657
 5088SOL    HW126723   1.114   1.916  16.882 -1.7986 -1.2600  1.1632
 5088SOL    HW226724   1.161   1.926  17.023 -0.4954 -0.5165 -0.4133
 5089SOL     OW26725   4.261   2.673   3.162 -0.3549 -0.5311 -0.2569
 5089SOL    HW126726   4.179   2.722   3.156 -0.4576 -0.5046  1.6519
 5089SOL    HW226727   4.312   2.691   3.082  0.4471  1.2445  0.6596
 5090SOL     OW26728   0.138   4.103   6.706 -0.4638  0.0401  0.1428
 5090SOL    HW126729   0.220   4.148   6.689 -0.6284  0.7785  1.2600
 5090SOL    HW226730   0.146   4.080   6.799 -0.2206  0.1711  0.1537
 5091SOL     OW26731   1.895   1.260   2.699 -0.0516  0.0802  0.2156
 5091SOL    HW126732   1.846   1.282   2.778 -0.3271 -1.2358  0.4091
 5091SOL    HW226733   1.837   1.284   2.627 -1.6648 -1.3246  1.0605
 5092SOL     OW26734   1.038   1.222  16.862 -0.0367  0.7730 -0.4244
 5092SOL    HW126735   1.005   1.154  16.803  1.1908 -0.1061 -0.1008
 5092SOL    HW226736   1.068   1.163  16.931 -0.6677 -0.3101 -1.0668
 5093SOL     OW26737   4.659   2.377   1.814  0.3109 -0.4962  0.0761
 5093SOL    HW126738   4.686   2.293   1.777 -1.2754 -1.1732  0.4566
 5093SOL    HW226739   0.022   2.397   1.852  1.7566 -0.2725 -3.2467
 5094SOL     OW26740   2.482   0.663   6.369  0.2679  0.1004 -0.4497
 5094SOL    HW126741   2.394   0.627   6.360  0.0773 -0.2117  2.5594
 5094SOL    HW226742   2.525   0.595   6.317  1.4380 -1.2770  2.3564
 5095SOL     OW26743   1.257   3.649   3.475  0.1579  0.2195  0.5954
 5095SOL    HW126744   1.257   3.657   3.571 -1.8894  2.0325  0.4370
 5095SOL    HW226745   1.331   3.709   3.462 -0.4968  1.5171  2.8944
 5096SOL     OW26746   3.144   2.612   8.967 -0.4642 -0.0258  0.1737
 5096SOL    HW126747   3.076   2.673   8.995 -0.9086 -0.4551  0.0460
 5096SOL    HW226748   3.217   2.640   9.022  1.5144 -2.1169 -1.3663
 5097SOL     OW26749   2.737   1.917   7.162 -0.1916 -0.3248 -0.2780
 5097SOL    HW126750   2.767   1.980   7.097 -1.5800 -0.2612 -0.8640
 5097SOL    HW226751   2.821   1.888   7.197 -0.2479 -1.4550 -1.0860
 5098SOL     OW26752   1.583   2.554   6.538 -0.1168 -0.1887 -0.3462
 5098SOL    HW126753   1.501   2.511   6.514 -0.5152  1.1174 -1.3257
 5098SOL    HW226754   1.568   2.644   6.510  2.7763  1.0992  2.3220
 5099SOL     OW26755   1.319   3.452   6.828 -0.5905  0.3447  0.1753
 5099SOL    HW126756   1.405   3.469   6.792 -0.3203 -0.7059  0.3074
 5099SOL    HW226757   1.328   3.356   6.825 -1.8492  0.2522 -0.9069
 5100SOL     OW26758   1.476   3.417   2.838  0.2851  0.2652 -0.0762
 5100SOL    HW126759   1.468   3.490   2.776 -2.3226 -0.4035 -0.5356
 5100SOL    HW226760   1.568   3.428   2.862  0.0057  1.6718  0.3985
 5101SOL     OW26761   3.167   2.983   1.055 -0.2577 -0.7757  0.1423
 5101SOL    HW126762   3.201   2.993   1.144 -0.2403 -1.6227  0.2254
 5101SOL    HW226763   3.202   3.066   1.022 -2.3306 -0.0155 -0.1739
 5102SOL     OW26764   2.395   1.500   2.718  0.1497 -0.0060  0.0481
 5102SOL    HW126765   2.469   1.542   2.762 -1.7401  2.1785  1.1768
 5102SOL    HW226766   2.326   1.563   2.741 -1.5133 -1.9668  0.3615
 5103SOL     OW26767   4.564   2.844   1.095 -0.1076  0.0833  0.5517
 5103SOL    HW126768   4.604   2.853   1.181  1.4393  1.6977 -0.3331
 5103SOL    HW226769   4.507   2.919   1.077  0.9734  0.1856 -2.4653
 5104SOL     OW26770   1.855   4.489   3.549 -0.2161  0.4984  0.6409
 5104SOL    HW126771   1.931   4.451   3.504  0.5031  0.6804  1.6953
 5104SOL    HW226772   1.784   4.466   3.490  0.7594 -1.4479  0.2163
 5105SOL     OW26773   4.646   3.038   6.892 -0.5538  0.0571 -0.2543
 5105SOL    HW126774   4.683   2.955   6.864 -0.2445 -0.6128  2.1864
 5105SOL    HW226775   4.644   3.016   6.985  1.1078  0.6848 -0.0654
 5106SOL     OW26776   2.432   1.235   3.844 -0.1021  0.3911  0.4131
 5106SOL    HW126777   2.472   1.152   3.870 -1.1898 -0.5210 -0.8280
 5106SOL    HW226778   2.441   1.229   3.748 -0.2967  0.1959  0.4065
 5107SOL     OW26779   1.769   3.327   8.050  0.3735 -0.7345  0.2124
 5107SOL    HW126780   1.840   3.342   8.113 -0.1471  0.7935  0.4387
 5107SOL    HW226781   1.707   3.288   8.111  0.5625 -0.9332  0.2792
 5108SOL     OW26782   4.667   3.266   8.121 -0.2269  0.1579  0.4992
 5108SOL    HW126783   4.657   3.309   8.036  0.7367  0.8359  0.7307
 5108SOL    HW226784   4.719   3.332   8.167  1.4373 -1.5450  1.0737
 5109SOL     OW26785   4.591   3.789   2.455  0.1705 -0.2704 -0.0472
 5109SOL    HW126786   4.499   3.801   2.478  0.1145  0.2256 -0.5181
 5109SOL    HW226787   4.577   3.733   2.378 -0.7754  0.8323 -0.6819
 5110SOL     OW26788   3.056   3.210   3.340 -0.3068  0.4763 -0.2675
 5110SOL    HW126789   3.115   3.182   3.270  0.3270  0.0786  0.4374
 5110SOL    HW226790   3.016   3.126   3.359 -1.2233  0.9652 -0.0586
 5111SOL     OW26791   0.104   1.374   8.949 -0.0415  0.5393 -0.6218
 5111SOL    HW126792   0.166   1.436   8.912 -0.4614  0.3341 -1.6686
 5111SOL    HW226793   0.144   1.341   9.029  0.4599 -0.5115 -1.3042
 5112SOL     OW26794   4.372   0.353   6.894 -0.1190 -0.3184 -0.2153
 5112SOL    HW126795   4.433   0.404   6.839 -0.3927  0.4452  0.1829
 5112SOL    HW226796   4.391   0.394   6.979  1.6552  0.9032 -1.1853
 5113SOL     OW26797   4.581   1.797   5.017  0.2110  0.7183 -0.1423
 5113SOL    HW126798   4.490   1.827   5.016 -0.0756 -0.0921  1.1131
 5113SOL    HW226799   4.603   1.824   4.928  0.6050 -0.7639 -0.4873
 5114SOL     OW26800   2.629   2.646  17.249  0.2009 -0.1197  0.1747
 5114SOL    HW126801   2.580   2.640  17.167  1.5743 -1.3522 -0.5669
 5114SOL    HW226802   2.591   2.716  17.302 -1.7990  0.4047 -1.9634
 5115SOL     OW26803   3.900   1.765   3.319  0.4236 -0.1045 -0.5211
 5115SOL    HW126804   3.951   1.789   3.241 -1.1491 -0.8639 -1.7705
 5115SOL    HW226805   3.972   1.768   3.382 -0.0029 -1.4152  0.0196
 5116SOL     OW26806   2.541   3.697   4.472  0.1807  0.2335 -0.1789
 5116SOL    HW126807   2.493   3.718   4.552  1.8217 -0.6810  1.0527
 5116SOL    HW226808   2.591   3.619   4.495 -2.1863 -0.9177  1.0802
 5117SOL     OW26809   1.192   3.268  12.097 -0.6956 -0.1283  0.2775
 5117SOL    HW126810   1.097   3.267  12.104 -0.7046 -2.0631 -0.1576
 5117SOL    HW226811   1.196   3.282  12.003 -0.3240  1.8502  0.5809
 5118SOL     OW26812   3.407   4.273  13.347 -0.3295  0.2857  0.5717
 5118SOL    HW126813   3.333   4.332  13.332 -0.3632  0.5970  1.9727
 5118SOL    HW226814   3.369   4.211  13.410  2.4654 -0.8938  1.1288
 5119SOL     OW26815   3.489   2.010  14.901  0.4030 -0.1888  0.3057
 5119SOL    HW126816   3.539   2.002  14.983  0.0296  0.2259  0.5761
 5119SOL    HW226817   3.398   1.998  14.928 -0.7198  1.2230 -2.8756
 5120SOL     OW26818   4.032   1.320   1.933 -0.0787 -0.6463  0.3829
 5120SOL    HW126819   4.019   1.402   1.980 -0.9359 -1.0688  0.8750
 5120SOL    HW226820   4.078   1.276   2.004 -0.7257  0.0085  1.2026
 5121SOL     OW26821   2.099   3.433  14.477 -0.6368  0.8521 -0.7091
 5121SOL    HW126822   2.109   3.525  14.502  0.0517  0.7517 -0.6264
 5121SOL    HW226823   2.160   3.387  14.534 -1.1662 -0.8214 -1.4988
 5122SOL     OW26824   3.488   3.642  15.960  0.1128 -0.0010  0.1864
 5122SOL    HW126825   3.406   3.682  15.931  0.8836  0.0538 -1.8634
 5122SOL    HW226826   3.456   3.552  15.960  1.3931 -0.4562 -0.0039
 5123SOL     OW26827   2.806   3.537  13.325  0.5372  0.0327 -0.1563
 5123SOL    HW126828   2.845   3.598  13.261  1.4373 -2.3526 -1.8571
 5123SOL    HW226829   2.848   3.561  13.408 -0.3941  1.5958 -0.1435
 5124SOL     OW26830   4.665   0.383   4.769  0.1703 -0.1335  0.8322
 5124SOL    HW126831   4.668   0.336   4.853  3.0268 -1.3007  0.0605
 5124SOL    HW226832   0.001   0.324   4.721  0.2900  0.9376 -0.3402
 5125SOL     OW26833   2.822   4.182   3.219  0.4388 -0.3046  0.5047
 5125SOL    HW126834   2.762   4.249   3.186  2.0069  0.9371  0.1548
 5125SOL    HW226835   2.818   4.205   3.312 -0.5358  0.8977  0.1601
 5126SOL     OW26836   1.391   0.309   0.819  0.0913  0.4593  0.3190
 5126SOL    HW126837   1.443   0.346   0.891 -0.5436  0.1342  0.9483
 5126SOL    HW226838   1.439   0.229   0.797 -1.0764 -0.1125 -0.1268
 5127SOL     OW26839   4.383   4.647   3.691 -0.0217 -0.4339  0.5875
 5127SOL    HW126840   4.438   4.578   3.727  0.5783  0.8622  2.1423
 5127SOL    HW226841   4.438   4.716   3.655  0.4255 -1.1313 -0.0456
 5128SOL     OW26842   2.652   0.222  11.433  0.0881  0.0897  0.4362
 5128SOL    HW126843   2.670   0.156  11.365 -1.8730 -0.8095  0.7828
 5128SOL    HW226844   2.743   0.243  11.452 -0.3737  1.5003  1.0757
 5129SOL     OW26845   3.317   1.369   4.099 -0.2643  0.2550  0.3231
 5129SOL    HW126846   3.408   1.350   4.120 -0.1938 -0.1098 -0.3043
 5129SOL    HW226847   3.336   1.416   4.018  1.0333 -0.9511 -0.0774
 5130SOL     OW26848   1.002   2.936   8.586  0.1255 -0.5063 -0.5987
 5130SOL    HW126849   1.081   2.990   8.579 -0.5614  0.2281 -2.9558
 5130SOL    HW226850   0.938   2.998   8.623  0.5362  0.7632 -1.9871
 5131SOL     OW26851   1.638   2.353   3.164  0.6853  0.1783  0.2391
 5131SOL    HW126852   1.546   2.375   3.180  0.6198  1.0385 -1.3419
 5131SOL    HW226853   1.655   2.417   3.095 -0.7891 -1.2172 -1.4557
 5132SOL     OW26854   4.027   0.851   3.739  0.6196 -0.0601 -0.0750
 5132SOL    HW126855   4.006   0.843   3.832  2.4169 -0.8105  0.2676
 5132SOL    HW226856   4.080   0.930   3.737  0.2702  0.1584 -0.6904
 5133SOL     OW26857   2.540   2.909   8.640 -0.4667 -0.1489 -0.0714
 5133SOL    HW126858   2.458   2.867   8.614 -0.4074 -0.5274  0.3469
 5133SOL    HW226859   2.596   2.832   8.654 -0.1718  0.3170  1.3294
 5134SOL     OW26860   2.051   3.212   2.121  0.2266 -0.1710 -0.7920
 5134SOL    HW126861   2.095   3.191   2.203 -0.9021  0.0152 -0.1399
 5134SOL    HW226862   1.963   3.225   2.155  0.1568 -0.1708 -0.9719
 5135SOL     OW26863   0.806   3.129   5.297 -0.6077  0.2511 -0.0780
 5135SOL    HW126864   0.775   3.067   5.230 -3.0634  0.0508  1.2468
 5135SOL    HW226865   0.792   3.214   5.256  0.5865  0.9565  0.9539
 5136SOL     OW26866   0.880   0.917   8.088  0.3742 -0.3391  0.1430
 5136SOL    HW126867   0.933   0.913   8.168  0.8138  0.2471 -0.1203
 5136SOL    HW226868   0.814   0.983   8.107 -1.5761 -2.2419  0.0374
 5137SOL     OW26869   1.888   0.053   8.753 -0.5011 -0.5330 -0.0141
 5137SOL    HW126870   1.814   0.061   8.693  1.6238  1.2254 -2.3934
 5137SOL    HW226871   1.955   0.012   8.698  1.0109  0.6466  0.9613
 5138SOL     OW26872   2.661   0.399   6.769 -0.0972 -0.3644 -0.0984
 5138SOL    HW126873   2.689   0.393   6.678 -1.6059 -2.4468 -0.4272
 5138SOL    HW226874   2.606   0.477   6.780 -0.0550 -0.3660  0.1325
 5139SOL     OW26875   3.045   3.300   6.459  0.0346 -0.2467  0.0052
 5139SOL    HW126876   3.117   3.319   6.399  1.7365  0.1307  2.1682
 5139SOL    HW226877   2.975   3.351   6.417  0.0530  0.3236  0.6724
 5140SOL     OW26878   3.969   2.026   5.216  0.0313 -0.3327 -0.2465
 5140SOL    HW126879   4.064   2.038   5.222  0.0626 -1.2593  0.9310
 5140SOL    HW226880   3.937   2.115   5.230 -2.0011 -0.9413 -1.0009
 5141SOL     OW26881   0.292   0.340   8.407  0.4037  0.1168 -0.2342
 5141SOL    HW126882   0.359   0.374   8.348  0.8515  1.3643  1.0032
 5141SOL    HW226883   0.345   0.328   8.486  2.8005 -0.6727 -1.9277
 5142SOL     OW26884   3.250   2.655   1.800  0.1035 -0.5353  0.2761
 5142SOL    HW126885   3.225   2.747   1.806  1.8268 -0.0799  0.4355
 5142SOL    HW226886   3.167   2.610   1.784  0.1944  0.0540 -1.8364
 5143SOL     OW26887   1.495   0.767  17.536  0.2018 -0.0659 -0.2371
 5143SOL    HW126888   1.438   0.779  17.461  0.2442  2.8238  0.1878
 5143SOL    HW226889   1.432   0.786  17.605  1.0857  2.2756 -0.0852
 5144SOL     OW26890   2.648   4.031  12.133  0.2969  0.0351  0.0674
 5144SOL    HW126891   2.692   4.101  12.181  0.1902  0.3861 -0.3459
 5144SOL    HW226892   2.579   4.082  12.091  0.0481  0.4022  0.9248
 5145SOL     OW26893   4.418   1.326   5.224  0.0619 -0.3928 -0.1973
 5145SOL    HW126894   4.409   1.340   5.129  1.1587 -1.1946 -0.4127
 5145SOL    HW226895   4.449   1.236   5.230 -2.1376 -1.1158  0.3265
 5146SOL     OW26896   3.697   1.099   3.005 -0.5202 -0.2819 -0.4768
 5146SOL    HW126897   3.747   1.054   3.073  0.9635  0.9663 -0.7363
 5146SOL    HW226898   3.620   1.047   2.984 -2.2481  2.2400 -0.4262
 5147SOL     OW26899   1.549   3.858   1.694 -0.1615 -0.8503 -0.2121
 5147SOL    HW126900   1.514   3.868   1.605  0.8173 -0.7779 -0.5909
 5147SOL    HW226901   1.478   3.889   1.750  0.8137 -1.8385  1.5668
 5148SOL     OW26902   4.236   4.083   9.379 -0.1188  0.4658  0.2917
 5148SOL    HW126903   4.143   4.098   9.392 -0.2187 -0.2534  0.3877
 5148SOL    HW226904   4.238   3.999   9.333  0.5125  1.3248 -1.2728
 5149SOL     OW26905   4.112   4.351   6.811 -0.4062 -0.0198 -0.2825
 5149SOL    HW126906   4.131   4.445   6.813  0.0309 -0.1607  1.8187
 5149SOL    HW226907   4.072   4.345   6.898 -0.4247 -1.6787 -0.4154
 5150SOL     OW26908   1.032   0.012   5.535  0.5217  0.0694 -0.2839
 5150SOL    HW126909   1.031   4.677   5.458 -2.7969 -0.3151  0.0521
 5150SOL    HW226910   1.123   0.039   5.547  0.2360  0.7987  0.2256
 5151SOL     OW26911   2.780   1.234   4.680  0.2935 -0.8057 -0.0297
 5151SOL    HW126912   2.729   1.181   4.742 -0.1469  1.5137  1.5832
 5151SOL    HW226913   2.812   1.300   4.742 -1.3376 -0.4480  0.4237
 5152SOL     OW26914   4.144   4.682   2.680 -0.1369  0.0712  0.3407
 5152SOL    HW126915   4.077   4.663   2.614  1.1873  1.3612 -1.3796
 5152SOL    HW226916   4.195   4.602   2.694  1.1025  0.8428  0.1775
 5153SOL     OW26917   3.332   2.714   5.688  0.2655 -0.7620 -0.4298
 5153SOL    HW126918   3.357   2.777   5.755 -1.0951 -0.5085 -0.1626
 5153SOL    HW226919   3.254   2.759   5.657 -0.1628 -0.5833  0.8796
 5154SOL     OW26920   0.277   2.433   3.317 -0.5159  0.3090  0.1678
 5154SOL    HW126921   0.257   2.463   3.228 -1.2338 -0.0004  0.2210
 5154SOL    HW226922   0.220   2.356   3.318 -0.2955  0.1625  1.0159
 5155SOL     OW26923   1.175   3.867   7.578  0.1007  0.5091  0.8765
 5155SOL    HW126924   1.083   3.867   7.603 -0.4902 -3.5126 -1.2800
 5155SOL    HW226925   1.174   3.830   7.490 -2.6442  0.3485  0.9747
 5156SOL     OW26926   0.331   1.599   4.618  0.2156  0.0908  0.2739
 5156SOL    HW126927   0.422   1.632   4.619  1.2336 -2.7273  0.0250
 5156SOL    HW226928   0.342   1.514   4.576  1.2800 -1.5893  3.9270
 5157SOL     OW26929   1.488   3.186  15.896  0.7029 -0.5647  0.7893
 5157SOL    HW126930   1.546   3.223  15.830  0.7693 -0.5672  0.8463
 5157SOL    HW226931   1.399   3.187  15.861  0.2697  0.8291  1.9530
 5158SOL     OW26932   2.963   4.496  16.998 -0.0328 -0.9089 -0.3044
 5158SOL    HW126933   2.942   4.507  16.905  1.4754  0.2644 -0.5100
 5158SOL    HW226934   3.054   4.466  16.988  0.6864  0.5989  1.7756
 5159SOL     OW26935   2.988   2.008   6.806 -0.3515 -0.3129 -0.0191
 5159SOL    HW126936   2.991   1.963   6.722  1.2867 -1.4734  0.6587
 5159SOL    HW226937   3.082   2.010   6.822 -0.1810 -1.6530 -0.8755
 5160SOL     OW26938   4.378   1.321  12.285 -0.2976  0.4280 -0.5672
 5160SOL    HW126939   4.425   1.268  12.348  0.8230  2.2521  0.1249
 5160SOL    HW226940   4.354   1.262  12.214 -2.4543  1.1827 -0.4738
 5161SOL     OW26941   4.577   3.021   2.255  0.2062 -0.0002  0.0881
 5161SOL    HW126942   4.545   3.099   2.210 -0.5581  1.9891  4.0427
 5161SOL    HW226943   4.658   3.047   2.299 -0.0583  1.6923 -0.4450
 5162SOL     OW26944   1.339   4.582   1.570  0.1304 -0.1251  0.2269
 5162SOL    HW126945   1.267   4.558   1.511 -0.0714 -1.6356  1.0801
 5162SOL    HW226946   1.331   4.503   1.624 -0.1370 -0.2006  0.0798
 5163SOL     OW26947   3.964   3.108   8.544 -0.0613  0.2186 -0.2318
 5163SOL    HW126948   3.921   3.193   8.558  0.8776  0.7231 -0.3562
 5163SOL    HW226949   4.056   3.132   8.532 -0.7457  3.0841  0.2238
 5164SOL     OW26950   0.170   0.118   1.277 -0.6604 -0.9776  0.4180
 5164SOL    HW126951   0.119   0.176   1.220  1.2129  1.0917  0.8288
 5164SOL    HW226952   0.157   0.030   1.240 -0.8196 -0.4021 -0.9039
 5165SOL     OW26953   3.237   1.679   7.665 -0.2075 -0.5635  0.4742
 5165SOL    HW126954   3.161   1.621   7.665  0.2027 -1.0862  2.2245
 5165SOL    HW226955   3.251   1.685   7.570  0.3807  1.9768  0.7261
 5166SOL     OW26956   0.057   0.367   5.296  0.1155 -0.0931 -0.0989
 5166SOL    HW126957   0.078   0.278   5.268 -1.0311 -1.0037  1.9609
 5166SOL    HW226958   0.086   0.360   5.387 -1.3786 -1.8497  0.2374
 5167SOL     OW26959   4.554   2.883   9.389  0.1316  0.1017 -0.7456
 5167SOL    HW126960   4.626   2.939   9.417  0.0088  0.4239 -1.0792
 5167SOL    HW226961   4.592   2.833   9.316 -1.3186 -0.4888 -1.0944
 5168SOL     OW26962   0.756   4.638   2.523  0.1005  0.4954  0.7253
 5168SOL    HW126963   0.732   4.682   2.441 -1.6619 -1.3934  0.2235
 5168SOL    HW226964   0.674   4.603   2.560 -0.1645  0.4348  0.0870
 5169SOL     OW26965   0.958   3.953   5.686  0.2714  0.0905 -0.8969
 5169SOL    HW126966   1.037   3.900   5.695  0.1333 -0.0342 -0.4028
 5169SOL    HW226967   0.892   3.884   5.683 -1.0166  1.2981 -0.3805
 5170SOL     OW26968   2.373   3.804   6.045 -0.0725  0.2022 -0.0107
 5170SOL    HW126969   2.338   3.720   6.076  0.6568 -0.3601 -0.7051
 5170SOL    HW226970   2.295   3.859   6.039 -0.4413 -0.2066  0.9998
 5171SOL     OW26971   3.982   3.728   7.414  0.2780  0.0408 -0.1650
 5171SOL    HW126972   3.933   3.660   7.367  0.9736 -0.9706  0.5704
 5171SOL    HW226973   3.997   3.790   7.343 -2.4835 -0.2413 -0.9923
 5172SOL     OW26974   1.842   2.543   4.099  0.0276  0.5685 -0.1836
 5172SOL    HW126975   1.799   2.470   4.144 -1.6277  1.9453  0.4677
 5172SOL    HW226976   1.932   2.522   4.126 -0.6417  0.4024  1.9545
 5173SOL     OW26977   3.231   2.246   9.800 -0.4888  1.0546 -0.5666
 5173SOL    HW126978   3.136   2.247   9.814 -0.8591 -1.5670 -2.8560
 5173SOL    HW226979   3.237   2.278   9.709  1.0645  0.4016 -0.6895
 5174SOL     OW26980   0.721   1.594   9.159 -0.2392 -0.1855 -0.5935
 5174SOL    HW126981   0.767   1.528   9.107 -0.1235 -0.1761 -0.5035
 5174SOL    HW226982   0.784   1.597   9.231 -2.6230 -0.0436  1.4818
 5175SOL     OW26983   4.104   4.189   5.896 -0.2776 -0.3357 -0.9654
 5175SOL    HW126984   4.118   4.115   5.956  1.1133  0.3025 -0.5117
 5175SOL    HW226985   4.089   4.261   5.957  1.4841  1.6828 -2.9432
 5176SOL     OW26986   3.074   4.473   3.846 -0.3801  0.2563  0.4030
 5176SOL    HW126987   3.119   4.488   3.762 -1.8904  0.8077 -0.3044
 5176SOL    HW226988   2.990   4.443   3.813 -1.1168  1.9002  0.7894
 5177SOL     OW26989   2.797   2.520   3.452  0.2245 -0.2794 -0.3716
 5177SOL    HW126990   2.705   2.545   3.453  0.4047  0.2791  1.0438
 5177SOL    HW226991   2.792   2.452   3.519 -0.6173 -0.4077 -0.5624
 5178SOL     OW26992   3.497   1.891   2.147 -0.0098 -0.4176 -0.8986
 5178SOL    HW126993   3.550   1.811   2.145 -1.7838 -1.5449 -2.7170
 5178SOL    HW226994   3.437   1.868   2.217  0.3099  0.6531 -0.2752
 5179SOL     OW26995   4.477   4.419  12.299  0.7745  0.2811  0.0963
 5179SOL    HW126996   4.533   4.496  12.305  0.1963  0.7518 -0.5103
 5179SOL    HW226997   4.541   4.355  12.267  0.4633 -0.3884  0.8014
 5180SOL     OW26998   0.496   0.943  11.105  0.2316  0.3038 -0.2880
 5180SOL    HW126999   0.468   0.854  11.126 -0.0735  0.4054 -0.2686
 5180SOL    HW227000   0.451   0.999  11.169 -1.6204  0.0171 -1.3453
 5181SOL     OW27001   0.181   2.304  11.763 -0.2764  0.8834 -0.2235
 5181SOL    HW127002   0.235   2.379  11.739  0.9839 -0.3214 -1.1882
 5181SOL    HW227003   0.236   2.243  11.812 -3.7949 -1.8370  0.3010
 5182SOL     OW27004   2.603   3.830  12.398 -0.3379  0.4196 -0.0437
 5182SOL    HW127005   2.580   3.792  12.483  0.8085 -0.6330 -0.1938
 5182SOL    HW227006   2.690   3.863  12.419  0.3021 -1.0974 -0.2968
 5183SOL     OW27007   2.460   2.131   6.865  0.1258 -0.2941  0.1655
 5183SOL    HW127008   2.526   2.091   6.810 -0.7104  1.5757 -2.1700
 5183SOL    HW227009   2.390   2.067   6.877  1.3266 -1.3118  1.8341
 5184SOL     OW27010   1.756   3.147  15.158 -0.2158  0.9968 -0.5262
 5184SOL    HW127011   1.842   3.127  15.196 -0.2569 -0.1092 -1.0011
 5184SOL    HW227012   1.715   3.190  15.233  1.3545 -2.2129  2.1829
 5185SOL     OW27013   4.714   4.446   3.983  0.6873 -0.0378  0.2315
 5185SOL    HW127014   4.621   4.444   4.003  0.3377 -0.1879 -1.4559
 5185SOL    HW227015   0.003   4.538   4.007  0.3666  0.2585 -0.7609
 5186SOL     OW27016   0.842   2.357   3.993 -0.0959 -0.2380  0.2319
 5186SOL    HW127017   0.874   2.378   3.905  0.1084 -1.3752  0.0420
 5186SOL    HW227018   0.821   2.264   3.983  1.0631 -0.5128  0.3131
 5187SOL     OW27019   2.177   1.515   8.782 -0.1715 -0.1907  0.8183
 5187SOL    HW127020   2.084   1.513   8.807 -0.6177 -2.8495 -1.0642
 5187SOL    HW227021   2.169   1.566   8.701 -0.4068  0.3860  1.2043
 5188SOL     OW27022   3.706   2.021  11.698  0.4118  0.4896 -0.1182
 5188SOL    HW127023   3.696   1.956  11.628 -0.4412  0.6158 -0.1081
 5188SOL    HW227024   3.686   1.973  11.779 -1.9275 -0.4744 -1.2628
 5189SOL     OW27025   1.169   0.766   1.469  0.2206 -0.3969  0.0481
 5189SOL    HW127026   1.157   0.839   1.529  0.1842 -1.3422  1.1881
 5189SOL    HW227027   1.083   0.723   1.478 -0.5206  1.1279  0.1813
 5190SOL     OW27028   3.319   0.401   7.780  0.4459  0.2691 -0.0553
 5190SOL    HW127029   3.380   0.473   7.765 -0.3482  1.0071  0.2901
 5190SOL    HW227030   3.242   0.446   7.816 -0.3358 -1.1911  0.0960
 5191SOL     OW27031   1.853   1.925  12.352 -0.4993 -0.1010 -0.1482
 5191SOL    HW127032   1.854   1.857  12.420 -2.4175  0.6377  0.6353
 5191SOL    HW227033   1.819   2.002  12.399  1.4838  0.4615  0.3512
 5192SOL     OW27034   3.469   2.934   8.060 -0.0462 -0.2873 -0.3549
 5192SOL    HW127035   3.382   2.894   8.066 -0.1424  0.1631  1.3880
 5192SOL    HW227036   3.473   2.967   7.971 -3.1901  1.8625  0.3028
 5193SOL     OW27037   1.823   4.662   6.751 -0.2674 -0.1066 -0.1966
 5193SOL    HW127038   1.879   4.689   6.678  2.0800 -2.7840  0.6190
 5193SOL    HW227039   1.891   4.621   6.804  0.2830  0.7222 -0.2582
 5194SOL     OW27040   3.101   0.331   9.759  0.1576  0.0334 -0.2486
 5194SOL    HW127041   3.129   0.278   9.684  0.1642  0.5334 -0.5977
 5194SOL    HW227042   3.029   0.271   9.780  0.5829 -0.1562  0.6749
 5195SOL     OW27043   4.652   3.515   2.835  0.1640 -0.2119  0.0503
 5195SOL    HW127044   4.676   3.541   2.747  1.0844  1.4261  0.7896
 5195SOL    HW227045   4.704   3.437   2.856 -0.2622  0.4416  3.6099
 5196SOL     OW27046   4.222   2.138  16.653  0.1418 -0.4186  0.1945
 5196SOL    HW127047   4.190   2.076  16.719 -1.6422 -0.0420 -0.3269
 5196SOL    HW227048   4.141   2.159  16.606  0.1442  2.2497  1.4293
 5197SOL     OW27049   3.861   4.684   1.492 -0.2751  0.3826 -0.7775
 5197SOL    HW127050   3.803   4.608   1.484 -0.6349  0.5741 -0.0353
 5197SOL    HW227051   3.803   0.024   1.448 -0.7977  1.5731  1.5563
 5198SOL     OW27052   0.342   3.156   3.648  0.0220  0.3130  0.4077
 5198SOL    HW127053   0.331   3.061   3.635 -0.9893 -0.0372  3.7005
 5198SOL    HW227054   0.437   3.156   3.646  0.0357 -0.7392  1.1202
 5199SOL     OW27055   3.535   3.882   7.546 -0.1543 -0.3653 -0.6431
 5199SOL    HW127056   3.501   3.852   7.630  1.9229 -0.2841  0.2252
 5199SOL    HW227057   3.460   3.852   7.496  0.3441 -0.2888 -1.4379
 5200SOL     OW27058   1.746   2.985   0.962  0.0466 -0.3368  0.8576
 5200SOL    HW127059   1.806   3.048   1.002  0.2784 -1.2618  1.9874
 5200SOL    HW227060   1.661   3.010   1.000  0.3472  0.6605  0.8627
 5201SOL     OW27061   4.122   0.815  16.210 -0.3133  0.2032  0.0584
 5201SOL    HW127062   4.050   0.875  16.225  1.2862  3.0322 -3.7153
 5201SOL    HW227063   4.171   0.816  16.293  0.5169 -2.2292 -0.3755
 5202SOL     OW27064   3.371   0.443   6.781  0.3636 -0.3250  0.0910
 5202SOL    HW127065   3.308   0.396   6.836  0.8178 -1.5394 -0.4245
 5202SOL    HW227066   3.431   0.483   6.844  2.2614 -0.2161 -1.7966
 5203SOL     OW27067   2.285   3.471   8.233  0.0912 -0.0083  0.0371
 5203SOL    HW127068   2.339   3.396   8.208 -1.9081 -0.9903 -1.3207
 5203SOL    HW227069   2.255   3.461   8.324 -3.6100 -0.7842 -1.2755
 5204SOL     OW27070   4.519   1.514   5.915 -0.0087  0.3160  0.7252
 5204SOL    HW127071   4.609   1.540   5.897 -0.0616  0.8971  1.3200
 5204SOL    HW227072   4.487   1.586   5.969 -1.8372  0.8760 -1.1001
 5205SOL     OW27073   4.645   1.454   7.566  0.6283  0.1713 -0.1995
 5205SOL    HW127074   4.559   1.443   7.605  0.0408  0.1980 -1.4966
 5205SOL    HW227075   4.632   1.540   7.526 -0.0744 -0.1209 -0.5936
 5206SOL     OW27076   3.684   1.669  12.765 -0.4525  0.5759 -0.1999
 5206SOL    HW127077   3.623   1.654  12.838 -1.1213  2.6283 -0.3429
 5206SOL    HW227078   3.745   1.728  12.810  2.1705 -1.7506 -0.7212
 5207SOL     OW27079   3.263   2.621  14.604  0.0884 -0.1649 -0.4179
 5207SOL    HW127080   3.268   2.706  14.648  0.0929 -1.2004  1.5638
 5207SOL    HW227081   3.341   2.618  14.548  0.0407  1.6154 -0.5752
 5208SOL     OW27082   3.464   0.933   2.965  0.4342  0.1517 -0.0788
 5208SOL    HW127083   3.397   0.865   2.979  1.1518 -0.9150 -1.9012
 5208SOL    HW227084   3.467   0.974   3.052  2.7033  1.7269 -0.9229
 5209SOL     OW27085   3.385   2.892   4.105  0.3188  0.2329 -0.4927
 5209SOL    HW127086   3.371   2.951   4.031 -1.6142  1.8222  1.1062
 5209SOL    HW227087   3.295   2.865   4.126  1.7706 -4.7183 -0.8027
 5210SOL     OW27088   1.878   3.490  15.378  0.5344 -0.0688 -0.3241
 5210SOL    HW127089   1.937   3.490  15.454  1.5348 -1.6519 -1.1041
 5210SOL    HW227090   1.863   3.395  15.378 -0.4410  0.0885 -0.1296
 5211SOL     OW27091   4.220   1.168  12.924 -0.6569  0.6091 -0.3686
 5211SOL    HW127092   4.215   1.174  12.829  0.9044  0.3200 -0.4673
 5211SOL    HW227093   4.199   1.075  12.935  0.3107  0.2907 -1.1941
 5212SOL     OW27094   0.688   4.526   7.345  0.4598 -0.2827 -0.4142
 5212SOL    HW127095   0.677   4.604   7.399  1.7431  0.4480 -1.2259
 5212SOL    HW227096   0.633   4.463   7.393 -0.7501  1.1790  0.1310
 5213SOL     OW27097   1.473   1.724   5.797  0.3141  0.6723 -0.0424
 5213SOL    HW127098   1.540   1.659   5.777 -0.3037 -0.4126  1.4996
 5213SOL    HW227099   1.486   1.781   5.720  0.1302  0.2005 -0.4198
 5214SOL     OW27100   1.657   3.023  15.649  0.1685  0.3621  0.6385
 5214SOL    HW127101   1.715   3.038  15.724  1.9941  0.7842 -0.8438
 5214SOL    HW227102   1.589   2.970  15.690 -0.6942  1.3906  0.5402
 5215SOL     OW27103   2.841   0.593   2.471 -0.6824  0.4898  0.1933
 5215SOL    HW127104   2.896   0.671   2.466 -0.2369  0.0427 -1.8853
 5215SOL    HW227105   2.820   0.595   2.564  0.4514 -0.9763  0.4770
 5216SOL     OW27106   3.503   1.415   8.965 -0.0197 -0.0021 -0.4476
 5216SOL    HW127107   3.425   1.410   8.909 -1.1025 -1.4649  1.1929
 5216SOL    HW227108   3.540   1.499   8.937 -0.9392  1.0888  1.5939
 5217SOL     OW27109   0.782   4.097  17.222 -0.3068 -0.1127 -0.2212
 5217SOL    HW127110   0.732   4.037  17.278 -0.5035  2.3354  2.2306
 5217SOL    HW227111   0.712   4.160  17.206 -0.3181  0.1185  0.7405
 5218SOL     OW27112   2.649   3.397   8.389  0.0031 -0.1556  0.5616
 5218SOL    HW127113   2.674   3.488   8.402  2.3318 -0.6511 -0.3133
 5218SOL    HW227114   2.674   3.382   8.297  1.0355  0.0959  0.8049
 5219SOL     OW27115   4.445   3.475  12.114  0.5256 -0.1159 -0.2318
 5219SOL    HW127116   4.481   3.404  12.062  0.3715 -1.3919  1.4134
 5219SOL    HW227117   4.356   3.449  12.138 -0.0791  4.2514  2.3044
 5220SOL     OW27118   0.042   1.609   5.890  0.4201  0.1056  0.5141
 5220SOL    HW127119   0.137   1.601   5.900  0.2989 -0.4777  1.1305
 5220SOL    HW227120   0.021   1.680   5.951  2.2809 -1.4229  2.9452
 5221SOL     OW27121   4.168   4.368   3.809 -0.0050 -0.2047  0.3623
 5221SOL    HW127122   4.086   4.366   3.759 -0.1708 -0.4974  0.6508
 5221SOL    HW227123   4.229   4.404   3.744  1.3334  1.9245  2.8060
 5222SOL     OW27124   1.476   3.324   1.905  0.2233 -0.5823 -0.4073
 5222SOL    HW127125   1.505   3.367   1.825  1.1260 -0.8293 -0.2155
 5222SOL    HW227126   1.384   3.350   1.902 -0.3325 -2.5032 -0.5621
 5223SOL     OW27127   3.344   3.692   7.993  0.0145 -0.4736 -0.7367
 5223SOL    HW127128   3.394   3.721   8.069 -1.2369  2.2507 -0.9672
 5223SOL    HW227129   3.382   3.605   7.979 -1.3010 -1.4996  2.0932
 5224SOL     OW27130   4.584   2.268   9.059 -0.2342  0.1890  0.6724
 5224SOL    HW127131   4.542   2.182   9.061  2.1393 -0.9731  0.0778
 5224SOL    HW227132   4.622   2.267   9.147  0.8376 -1.7789  0.1853
 5225SOL     OW27133   4.241   1.560   2.592  0.3088 -0.6426 -0.4678
 5225SOL    HW127134   4.311   1.503   2.561 -0.5047 -0.9807 -1.6779
 5225SOL    HW227135   4.173   1.528   2.533  0.4550 -1.5520 -0.1477
 5226SOL     OW27136   4.215   4.371  13.594 -0.0611  0.0742  0.7108
 5226SOL    HW127137   4.243   4.287  13.557  1.2797  0.6427  0.4408
 5226SOL    HW227138   4.177   4.405  13.513 -0.6237 -0.4871  0.7478
 5227SOL     OW27139   0.115   2.025   6.529  0.1033 -0.2269 -0.0213
 5227SOL    HW127140   0.191   1.979   6.493  2.3060  2.7309  0.8360
 5227SOL    HW227141   0.078   2.063   6.450 -0.0970 -1.4400 -0.5187
 5228SOL     OW27142   3.086   3.453  17.186 -0.2032  0.4528 -0.1490
 5228SOL    HW127143   3.148   3.490  17.249 -0.7699  1.7557 -0.3421
 5228SOL    HW227144   3.052   3.532  17.144 -4.1241 -1.4886 -0.6114
 5229SOL     OW27145   1.539   0.840   7.179 -0.5706 -0.3860  0.1636
 5229SOL    HW127146   1.585   0.853   7.096 -0.2198 -2.4220  0.0474
 5229SOL    HW227147   1.610   0.877   7.231 -1.0731  1.3618 -0.3882
 5230SOL     OW27148   1.298   2.591   3.460  0.2704  0.4939 -0.4155
 5230SOL    HW127149   1.263   2.555   3.542  0.2874  1.0228 -0.1790
 5230SOL    HW227150   1.332   2.678   3.478  1.3928  0.4977 -2.4955
 5231SOL     OW27151   0.123   2.231  16.263  0.2054  0.7473  0.4511
 5231SOL    HW127152   0.095   2.319  16.288 -1.4045  0.5517 -0.6633
 5231SOL    HW227153   0.095   2.176  16.336  3.4380  1.2599  2.0527
 5232SOL     OW27154   3.511   3.322   1.008 -0.0945  0.4397 -0.0957
 5232SOL    HW127155   3.528   3.336   1.101 -0.1282  1.9006 -0.3199
 5232SOL    HW227156   3.516   3.226   1.001 -3.2517  0.2128  0.7211
 5233SOL     OW27157   2.326   3.863   6.901 -0.4341  0.1999  0.1098
 5233SOL    HW127158   2.367   3.879   6.816  1.9642  0.1570  1.2466
 5233SOL    HW227159   2.248   3.825   6.861  0.4975  0.8733 -2.3233
 5234SOL     OW27160   2.573   3.295   2.414  0.0396 -0.1748  0.6306
 5234SOL    HW127161   2.578   3.233   2.341 -0.3516  2.4755 -1.6369
 5234SOL    HW227162   2.640   3.253   2.468  0.8481 -1.5657 -1.4521
 5235SOL     OW27163   0.180   0.142   6.157 -0.1719 -0.1162 -0.3189
 5235SOL    HW127164   0.092   0.111   6.178 -0.5585  0.4633 -1.0781
 5235SOL    HW227165   0.146   0.227   6.131 -0.3304 -0.4259 -1.1295
 5236SOL     OW27166   1.628   4.691   2.434 -0.3728 -0.1518 -0.2888
 5236SOL    HW127167   1.633   4.596   2.430  1.1094 -0.2040  2.6105
 5236SOL    HW227168   1.709   4.720   2.392  0.3417  0.5520  1.5618
 5237SOL     OW27169   3.904   0.690  16.041  0.2072  0.1626 -0.4445
 5237SOL    HW127170   3.819   0.733  16.051  0.7725  1.4577 -1.1269
 5237SOL    HW227171   3.943   0.709  16.127  0.3688  1.3205 -0.7709
 5238SOL     OW27172   0.535   3.501   9.559 -0.1750  0.2135 -0.1312
 5238SOL    HW127173   0.627   3.475   9.565 -0.2345 -0.2275 -1.1410
 5238SOL    HW227174   0.506   3.464   9.476  2.5612 -0.6151 -0.7161
 5239SOL     OW27175   0.138   3.667  13.098 -0.0369  0.4445  0.3443
 5239SOL    HW127176   0.099   3.752  13.078 -1.0687 -0.1026  0.0150
 5239SOL    HW227177   0.060   3.629  13.139  0.4491  0.8127  1.6100
 5240SOL     OW27178   1.047   4.561   1.870 -0.1286 -0.6306 -0.3217
 5240SOL    HW127179   1.126   4.561   1.817  1.3245 -1.2192  1.8213
 5240SOL    HW227180   1.013   4.474   1.851 -0.8995 -0.3575 -0.2093
 5241SOL     OW27181   2.156   4.097   9.374  0.0117 -0.0197  0.8546
 5241SOL    HW127182   2.155   4.004   9.398  0.4757 -0.9265 -2.6000
 5241SOL    HW227183   2.116   4.086   9.288 -0.6204  2.7097  0.8071
 5242SOL     OW27184   0.616   1.273   3.384 -0.9446  0.2805 -0.2491
 5242SOL    HW127185   0.614   1.191   3.433 -1.1719  0.7549  0.5431
 5242SOL    HW227186   0.558   1.245   3.314 -1.0606 -0.0866 -0.0053
 5243SOL     OW27187   4.488   3.199  13.828 -0.0036 -0.1351 -0.2407
 5243SOL    HW127188   4.425   3.127  13.824 -1.1882  0.7177  2.9960
 5243SOL    HW227189   4.569   3.150  13.815 -0.2395 -0.6128  0.0830
 5244SOL     OW27190   3.393   2.894   2.997 -0.8533  0.6895 -0.2249
 5244SOL    HW127191   3.342   2.908   2.917 -0.6574  1.7176 -0.1718
 5244SOL    HW227192   3.458   2.960   2.974  0.3146 -0.7507 -1.0790
 5245SOL     OW27193   3.921   3.558   4.018  0.0525  0.2617  0.6348
 5245SOL    HW127194   3.987   3.624   3.996 -0.9975  2.5661  4.5595
 5245SOL    HW227195   3.864   3.555   3.941 -0.3091  2.0360  0.8559
 5246SOL     OW27196   0.909   1.064   7.566  0.1762  0.4465 -0.0408
 5246SOL    HW127197   0.975   1.120   7.525 -1.0930  1.9299 -0.0804
 5246SOL    HW227198   0.948   0.977   7.562 -0.3229  0.1841  0.8952
 5247SOL     OW27199   2.935   4.107   6.471  0.7674  0.5634 -0.0315
 5247SOL    HW127200   3.013   4.160   6.479  1.4821 -0.3043 -1.2540
 5247SOL    HW227201   2.863   4.170   6.472  1.3276  1.1868  0.8912
 5248SOL     OW27202   0.135   2.348   7.171  0.5699  0.3657 -0.4434
 5248SOL    HW127203   0.122   2.391   7.256  1.5019  0.5210 -0.3806
 5248SOL    HW227204   0.083   2.267   7.176 -0.8158  1.3144  0.5987
 5249SOL     OW27205   0.500   4.010   2.382  0.0914  0.3478 -0.7790
 5249SOL    HW127206   0.577   3.984   2.333  1.6122  2.8998  0.2571
 5249SOL    HW227207   0.507   3.963   2.465  2.5671  0.5085 -0.9115
 5250SOL     OW27208   3.286   3.731  10.225 -0.2754 -0.0777 -0.1037
 5250SOL    HW127209   3.204   3.704  10.183  0.3374 -0.7095 -0.9078
 5250SOL    HW227210   3.354   3.674  10.188  1.8368  1.4168  1.4177
 5251SOL     OW27211   3.672   2.198   9.575 -0.1156 -0.1447  0.2378
 5251SOL    HW127212   3.694   2.207   9.482 -0.6362 -1.8326 -0.0437
 5251SOL    HW227213   3.708   2.276   9.618  2.6412 -1.3802  0.1845
 5252SOL     OW27214   4.192   3.255   2.159  0.2532  0.0363 -0.3203
 5252SOL    HW127215   4.274   3.240   2.205  0.0509  0.8191  0.2985
 5252SOL    HW227216   4.157   3.166   2.154 -1.3483  0.7980 -2.6405
 5253SOL     OW27217   4.139   2.470   3.303 -0.2010  0.3463 -0.3851
 5253SOL    HW127218   4.188   2.531   3.248 -1.9136 -0.3581 -2.7452
 5253SOL    HW227219   4.087   2.535   3.350 -0.4282  0.5941 -0.9754
 5254SOL     OW27220   1.632   0.320   3.051 -0.1746  0.2060 -0.2184
 5254SOL    HW127221   1.715   0.363   3.033  0.8448 -2.6996 -2.4811
 5254SOL    HW227222   1.593   0.324   2.964  0.3064 -2.9934 -0.5865
 5255SOL     OW27223   2.771   4.527   5.736 -1.0195 -0.4812  0.4605
 5255SOL    HW127224   2.863   4.551   5.744 -0.7153 -1.6228  0.4605
 5255SOL    HW227225   2.719   4.599   5.771  2.0723  2.3870 -0.8358
 5256SOL     OW27226   0.366   1.498   3.624  0.4932  0.3570  0.1105
 5256SOL    HW127227   0.358   1.428   3.689  0.0969  1.0663  0.8265
 5256SOL    HW227228   0.456   1.522   3.645 -0.2942  1.3990  2.3036
 5257SOL     OW27229   1.892   2.963   2.611 -0.5874 -0.0038 -0.1052
 5257SOL    HW127230   1.871   2.903   2.682  1.7946  0.6572  1.1698
 5257SOL    HW227231   1.805   3.002   2.601 -1.1012 -0.9948  0.5899
 5258SOL     OW27232   0.765   2.268   6.787  0.3751  0.1247  0.0036
 5258SOL    HW127233   0.821   2.345   6.794  1.1892 -0.6152  1.7347
 5258SOL    HW227234   0.685   2.311   6.758 -0.1087 -0.5461  0.3516
 5259SOL     OW27235   3.134   1.922   9.117  0.4330 -0.3511  0.4960
 5259SOL    HW127236   3.056   1.972   9.091  0.6993 -0.3991 -0.3762
 5259SOL    HW227237   3.155   1.967   9.199 -0.5785 -0.3200  0.7374
 5260SOL     OW27238   2.930   3.081   9.121 -0.0125 -0.2433  0.5327
 5260SOL    HW127239   2.872   3.138   9.072 -0.0070 -0.7138 -0.0302
 5260SOL    HW227240   2.886   3.085   9.206 -0.9686  0.9606 -0.0196
 5261SOL     OW27241   2.940   1.788   4.279 -0.0109 -0.1890  0.0175
 5261SOL    HW127242   3.014   1.728   4.281 -0.8279 -1.1595  1.7889
 5261SOL    HW227243   2.901   1.764   4.194  1.7032 -0.6966 -0.6183
 5262SOL     OW27244   4.633   4.684  13.235 -0.8035  0.2569  0.6773
 5262SOL    HW127245   4.689   0.019  13.183  0.0731  0.6789  2.0746
 5262SOL    HW227246   4.640   4.594  13.204  0.4875  0.4300  0.4659
 5263SOL     OW27247   0.900   1.998   0.654 -0.0929 -0.4419 -0.0933
 5263SOL    HW127248   0.908   1.906   0.679  0.1508 -0.2085  0.7043
 5263SOL    HW227249   0.982   2.027   0.693 -0.1533  0.8651 -0.9232
 5264SOL     OW27250   4.582   1.727   2.755  0.1505 -0.1799  0.1240
 5264SOL    HW127251   4.672   1.749   2.730 -0.1036 -0.5318 -1.0872
 5264SOL    HW227252   4.534   1.754   2.676  0.2486 -2.1861 -0.6069
 5265SOL     OW27253   0.302   2.529   3.062  0.5748  0.2448 -0.4769
 5265SOL    HW127254   0.375   2.471   3.039  0.2665 -0.1277 -0.5226
 5265SOL    HW227255   0.360   2.586   3.112  0.4354 -0.2209  0.2101
 5266SOL     OW27256   4.657   0.626  15.622 -0.1270  0.5143  0.0053
 5266SOL    HW127257   0.002   0.692  15.641 -0.2399  0.4043  0.8037
 5266SOL    HW227258   4.612   0.657  15.544 -0.9771  1.2796  0.7928
 5267SOL     OW27259   0.889   1.674   8.850 -0.0501 -0.2058 -0.4519
 5267SOL    HW127260   0.821   1.725   8.894  0.6965  1.8719 -1.6958
 5267SOL    HW227261   0.861   1.667   8.758  1.5307  1.2310 -1.0450
 5268SOL     OW27262   1.551   1.083   4.260 -0.1331 -0.3146  0.1428
 5268SOL    HW127263   1.501   1.106   4.339 -2.6694 -1.0666 -1.2598
 5268SOL    HW227264   1.634   1.081   4.308  0.1878 -1.4706 -0.4736
 5269SOL     OW27265   2.224   4.044  12.071 -0.9562  0.1342  0.3807
 5269SOL    HW127266   2.279   4.039  12.149 -0.4785  3.8135  0.2694
 5269SOL    HW227267   2.253   4.129  12.039 -1.4680  0.0916 -0.1992
 5270SOL     OW27268   4.212   1.483   3.896 -0.3876  0.1664 -0.3673
 5270SOL    HW127269   4.292   1.504   3.944 -2.1362  3.6095  1.0477
 5270SOL    HW227270   4.217   1.388   3.896  1.3672  0.2606 -0.0077
 5271SOL     OW27271   2.283   0.907   4.561 -0.1129 -0.0021  0.2449
 5271SOL    HW127272   2.265   0.888   4.469  1.6464  0.1992 -0.1439
 5271SOL    HW227273   2.320   0.824   4.588  0.0615 -0.2263 -0.6610
 5272SOL     OW27274   1.311   0.113   3.910  0.0460 -0.4079 -0.1084
 5272SOL    HW127275   1.364   0.170   3.854  1.1473 -1.2651  0.0490
 5272SOL    HW227276   1.229   0.161   3.905  0.7947  0.9645  0.9164
 5273SOL     OW27277   1.632   3.530   6.163 -0.1270 -0.2881 -0.1398
 5273SOL    HW127278   1.648   3.485   6.246 -2.9660 -0.4075  0.3426
 5273SOL    HW227279   1.593   3.465   6.105  1.2992  1.1932 -2.7676
 5274SOL     OW27280   3.632   1.819  11.544  0.6480  0.5891 -0.1451
 5274SOL    HW127281   3.649   1.862  11.460  0.0597 -0.5588 -0.8516
 5274SOL    HW227282   3.607   1.733  11.509 -2.6502  1.5749 -0.2117
 5275SOL     OW27283   3.160   3.637   7.122  0.3562 -0.4188  0.1524
 5275SOL    HW127284   3.094   3.683   7.174  0.1551  0.5275 -0.9443
 5275SOL    HW227285   3.238   3.689   7.139 -0.0301  0.6197 -1.2916
 5276SOL     OW27286   1.433   2.135   2.647  0.5312 -0.0718  0.6146
 5276SOL    HW127287   1.515   2.133   2.696  2.1515  2.5995 -2.0314
 5276SOL    HW227288   1.471   2.136   2.560  0.2751 -2.8550  0.4871
 5277SOL     OW27289   4.640   2.226   2.322  0.3198  0.2777  0.1954
 5277SOL    HW127290   4.707   2.275   2.275  2.1876 -1.6437  0.8354
 5277SOL    HW227291   4.582   2.212   2.248  0.4579 -1.7952  0.4712
 5278SOL     OW27292   4.662   3.281   6.465  0.1652 -0.0481  0.2865
 5278SOL    HW127293   0.013   3.266   6.406  0.0083 -0.2104  0.1308
 5278SOL    HW227294   4.602   3.327   6.406  0.3734 -0.9833 -0.6517
 5279SOL     OW27295   3.717   0.268   3.708  0.8315 -0.0222  0.1705
 5279SOL    HW127296   3.794   0.288   3.762 -0.3720  0.4879  1.6964
 5279SOL    HW227297   3.744   0.178   3.687 -2.1694 -0.0953 -3.3460
 5280SOL     OW27298   1.067   4.714   0.314 -0.3343  0.0829 -0.3704
 5280SOL    HW127299   1.157   0.024   0.325 -0.8494  0.9933  1.3767
 5280SOL    HW227300   1.038   0.042   0.391  0.9306  0.1514  0.0660
 5281SOL     OW27301   4.446   3.319  15.638  0.3905  0.0437  0.3244
 5281SOL    HW127302   4.494   3.402  15.645  0.6304 -0.2352  1.9464
 5281SOL    HW227303   4.514   3.252  15.647 -0.2192 -0.5850  0.2025
 5282SOL     OW27304   2.192   0.447   7.893  0.3249  0.3205  0.0618
 5282SOL    HW127305   2.194   0.397   7.812  0.5732 -2.6040  1.8478
 5282SOL    HW227306   2.242   0.389   7.951 -1.7399 -0.4967  1.0389
 5283SOL     OW27307   3.431   2.156   9.121 -0.3202  0.1615  0.2467
 5283SOL    HW127308   3.386   2.072   9.133 -0.4035  0.2702  0.6671
 5283SOL    HW227309   3.376   2.201   9.056 -2.3039 -2.3979  0.1331
 5284SOL     OW27310   1.893   0.387   5.309  0.6756 -1.1534 -0.2790
 5284SOL    HW127311   1.932   0.301   5.299 -0.1709 -1.5005 -0.5585
 5284SOL    HW227312   1.898   0.435   5.227 -0.1770  0.8429  0.8115
 5285SOL     OW27313   1.493   3.661  15.190  0.2230 -0.0501 -0.1843
 5285SOL    HW127314   1.532   3.583  15.229 -0.2889 -0.9008 -1.3508
 5285SOL    HW227315   1.566   3.722  15.197 -0.3705  0.5855  0.4428
 5286SOL     OW27316   3.375   0.856   5.046 -0.0231  0.0401  0.4399
 5286SOL    HW127317   3.440   0.858   5.117  1.4181 -3.1639 -0.7846
 5286SOL    HW227318   3.423   0.837   4.965  1.0902  0.2005  1.0663
 5287SOL     OW27319   1.413   1.767   6.447  0.3617  0.1017 -0.3184
 5287SOL    HW127320   1.348   1.764   6.518 -0.4837 -0.4272 -1.1196
 5287SOL    HW227321   1.398   1.679   6.411 -0.7964  0.4860 -0.7570
 5288SOL     OW27322   2.489   1.780   3.482 -0.6342  0.2931 -0.0769
 5288SOL    HW127323   2.529   1.761   3.567 -0.3318  0.4127 -0.1942
 5288SOL    HW227324   2.533   1.862   3.459  0.0200 -0.7588 -2.4869
 5289SOL     OW27325   3.863   0.882   8.720  0.0664 -0.1289 -0.1553
 5289SOL    HW127326   3.874   0.939   8.645 -1.6129  3.7191  2.5260
 5289SOL    HW227327   3.951   0.889   8.758  0.0720 -1.5134  0.0817
 5290SOL     OW27328   0.968   0.776   5.052  0.4907  0.4458  0.1674
 5290SOL    HW127329   0.915   0.814   5.121 -0.8745 -0.7634 -0.2185
 5290SOL    HW227330   1.054   0.767   5.092  0.5803 -0.9549 -0.3063
 5291SOL     OW27331   3.125   4.198   9.492  0.1160 -0.3960  0.1590
 5291SOL    HW127332   3.052   4.250   9.457  0.3609  0.6351  1.2041
 5291SOL    HW227333   3.201   4.236   9.447 -1.6516  2.9043 -0.0986
 5292SOL     OW27334   0.326   3.199   8.060  0.3628 -0.3946 -0.0843
 5292SOL    HW127335   0.259   3.156   8.113  1.0718  0.5438  1.5718
 5292SOL    HW227336   0.390   3.129   8.048  1.0972  0.1860  0.4325
 5293SOL     OW27337   3.098   4.629   7.802 -0.1314  0.5774  0.0664
 5293SOL    HW127338   3.188   4.648   7.828  0.8400 -0.8317 -2.2651
 5293SOL    HW227339   3.072   4.554   7.855  0.7739  1.1098  1.2868
 5294SOL     OW27340   1.165   1.570   4.636 -0.0936 -0.1660 -0.2064
 5294SOL    HW127341   1.148   1.663   4.624  1.2199  0.1052  0.0480
 5294SOL    HW227342   1.127   1.557   4.723 -2.1484  1.8608 -0.8056
 5295SOL     OW27343   3.160   2.527   8.010  0.3348  0.3228 -0.6314
 5295SOL    HW127344   3.180   2.503   8.100  1.0869  0.5684 -0.7339
 5295SOL    HW227345   3.136   2.442   7.974  1.2811 -1.0036  1.9292
 5296SOL     OW27346   1.605   1.986   7.700 -0.3961 -0.4632 -0.4060
 5296SOL    HW127347   1.666   2.050   7.737 -2.0903  0.1756  1.3318
 5296SOL    HW227348   1.526   2.030   7.732 -1.2397 -0.5960 -2.3066
 5297SOL     OW27349   0.698   1.687  17.178  0.2480 -0.1952  0.6625
 5297SOL    HW127350   0.645   1.761  17.149  0.8739 -0.1022 -0.2239
 5297SOL    HW227351   0.732   1.658  17.093  3.1196 -0.1627  1.8201
 5298SOL     OW27352   2.492   1.573   5.944  0.3132  0.2641  0.1890
 5298SOL    HW127353   2.519   1.665   5.939 -1.7213  0.9926  2.8689
 5298SOL    HW227354   2.549   1.529   6.006 -2.0281 -2.3515  0.4583
 5299SOL     OW27355   3.160   0.027   7.046  0.1579  0.3130 -0.1037
 5299SOL    HW127356   3.197   4.694   7.115 -1.9626  0.5973  1.2605
 5299SOL    HW227357   3.101   4.693   6.995 -0.0328  0.5692 -0.1666
 5300SOL     OW27358   0.730   3.715   2.208 -0.2490  0.0071 -0.2899
 5300SOL    HW127359   0.706   3.703   2.299 -0.1565 -0.5350 -0.3352
 5300SOL    HW227360   0.686   3.643   2.163 -0.7343  0.4814 -0.5620
 5301SOL     OW27361   1.150   4.285   4.733 -0.1671  0.1590  0.3957
 5301SOL    HW127362   1.169   4.201   4.692  1.4662 -0.3808  2.2302
 5301SOL    HW227363   1.057   4.307   4.730  0.1902  1.5466 -0.6756
 5302SOL     OW27364   4.677   0.167   9.090  1.2027  0.0349 -0.2779
 5302SOL    HW127365   4.646   0.139   9.004 -0.0956 -0.6585  0.4308
 5302SOL    HW227366   4.718   0.086   9.121  1.0055  0.1864  0.3803
 5303SOL     OW27367   4.289   4.418   6.036  0.7582 -0.1300 -0.1566
 5303SOL    HW127368   4.221   4.481   6.012  0.4714  1.2398  4.3177
 5303SOL    HW227369   4.368   4.447   5.990  0.5545  0.3403 -0.2050
 5304SOL     OW27370   0.119   3.816   1.176  0.4783  0.4264  0.5767
 5304SOL    HW127371   0.198   3.850   1.133  1.2880 -0.5141  1.3101
 5304SOL    HW227372   0.157   3.789   1.260 -2.4972 -0.8912  1.5007
 5305SOL     OW27373   4.622   3.288   7.083 -0.1746  0.0478  0.7436
 5305SOL    HW127374   4.537   3.244   7.084 -1.3960  2.3908  0.9514
 5305SOL    HW227375   4.596   3.360   7.025 -0.0965 -0.1251  0.4949
 5306SOL     OW27376   4.677   0.571   8.191  0.1807 -0.0370 -0.4563
 5306SOL    HW127377   4.664   0.601   8.281 -0.0506  0.1004 -0.5376
 5306SOL    HW227378   4.632   0.626   8.127 -0.3225 -1.3116 -1.1984
 5307SOL     OW27379   2.004   1.574   4.529 -0.2305  0.6019  1.1163
 5307SOL    HW127380   1.918   1.616   4.522  0.8979  2.4846 -1.3956
 5307SOL    HW227381   2.062   1.650   4.539  0.2436  0.5425 -1.2550
 5308SOL     OW27382   2.175   0.659   4.794  0.0118  0.3687 -0.6154
 5308SOL    HW127383   2.257   0.666   4.744  0.2142  0.8086 -0.2235
 5308SOL    HW227384   2.183   0.745   4.835  0.8361 -0.3793  0.8039
 5309SOL     OW27385   2.095   1.869   5.608 -0.1091 -0.4594  0.0756
 5309SOL    HW127386   2.187   1.858   5.633 -0.1218 -1.2249 -0.2330
 5309SOL    HW227387   2.060   1.943   5.657  0.8386  1.0780 -1.5437
 5310SOL     OW27388   4.656   1.542   6.637  0.1213  0.0485 -0.4799
 5310SOL    HW127389   4.658   1.617   6.696 -2.0457 -0.9583  0.8558
 5310SOL    HW227390   0.016   1.560   6.590 -0.6777  0.5746 -1.6646
 5311SOL     OW27391   2.156   3.721  17.150 -0.6061  0.4392  0.3872
 5311SOL    HW127392   2.197   3.724  17.064  1.4008 -0.9012  1.3055
 5311SOL    HW227393   2.233   3.740  17.205  0.4327 -0.6366 -0.7180
 5312SOL     OW27394   1.531   2.577   6.116  0.1617  0.2443 -0.1265
 5312SOL    HW127395   1.543   2.482   6.114  2.2417  0.4972 -0.0565
 5312SOL    HW227396   1.435   2.581   6.115  0.1420 -0.1733  1.0741
 5313SOL     OW27397   3.572   2.469   6.764  0.0153 -0.2210 -0.4060
 5313SOL    HW127398   3.525   2.529   6.823  2.3113  1.1790  0.0099
 5313SOL    HW227399   3.507   2.399   6.764  0.6829 -0.8385 -0.9482
 5314SOL     OW27400   3.333   4.405  11.544  0.4892  0.2367 -0.4116
 5314SOL    HW127401   3.373   4.375  11.625  3.3715  0.4333 -1.7498
 5314SOL    HW227402   3.394   4.474  11.516 -1.0324  1.4404 -0.7803
 5315SOL     OW27403   0.199   4.078   8.108 -0.0108 -0.8408 -0.4239
 5315SOL    HW127404   0.148   4.159   8.111  0.6175 -0.4925  1.0126
 5315SOL    HW227405   0.276   4.112   8.153 -0.3718 -0.9761  0.2825
 5316SOL     OW27406   2.383   0.678   5.003  0.1115 -0.0056 -0.3233
 5316SOL    HW127407   2.407   0.688   4.910 -1.1454  1.7144 -0.4773
 5316SOL    HW227408   2.426   0.755   5.040  0.0568  0.9171 -2.1328
 5317SOL     OW27409   3.819   0.102  15.787 -0.7606 -0.1450  0.5883
 5317SOL    HW127410   3.894   0.086  15.731 -0.3747 -0.9551  1.3422
 5317SOL    HW227411   3.776   0.016  15.784 -0.3106 -0.3197 -0.9818
 5318SOL     OW27412   0.369   3.581   6.430  0.2744 -0.1883 -0.2267
 5318SOL    HW127413   0.429   3.628   6.489  3.3855  0.3252 -3.7683
 5318SOL    HW227414   0.344   3.519   6.498 -2.3949  1.7611  0.5626
 5319SOL     OW27415   0.692   0.289  16.311 -0.7263  0.1160 -0.3298
 5319SOL    HW127416   0.680   0.236  16.232 -0.6713 -2.2119  1.2285
 5319SOL    HW227417   0.694   0.224  16.381  0.1674  1.2281  0.6765
 5320SOL     OW27418   1.826   3.195   6.180  0.0535 -0.7035 -0.2805
 5320SOL    HW127419   1.861   3.164   6.264  0.5751 -1.3682 -0.7462
 5320SOL    HW227420   1.733   3.175   6.192 -0.1676  1.1653  1.1352
 5321SOL     OW27421   1.970   0.302  15.588  0.2062  0.2249 -0.0488
 5321SOL    HW127422   2.025   0.243  15.536  2.0272  2.2748 -0.4353
 5321SOL    HW227423   1.882   0.275  15.562 -0.3754  0.2146  1.9818
 5322SOL     OW27424   0.595   3.129   0.409  0.3879  0.4270 -0.0549
 5322SOL    HW127425   0.557   3.168   0.488  1.3531  1.4151 -0.0914
 5322SOL    HW227426   0.518   3.078   0.383  1.2777  0.1520 -2.1445
 5323SOL     OW27427   1.423   2.916   1.990 -0.3858 -0.0147 -0.0570
 5323SOL    HW127428   1.445   2.841   1.935  0.8810 -1.0529  1.8257
 5323SOL    HW227429   1.347   2.878   2.034 -0.3529 -0.3939 -0.3281
 5324SOL     OW27430   2.291   4.073  14.661  0.1058 -0.3413 -0.4865
 5324SOL    HW127431   2.300   3.988  14.618 -0.8674 -1.5503  1.6816
 5324SOL    HW227432   2.196   4.082  14.669  0.4652  2.9442 -0.0218
 5325SOL     OW27433   3.865   2.920   0.835 -0.6622  0.2181  0.2384
 5325SOL    HW127434   3.780   2.964   0.831  0.3246  2.1972  1.2810
 5325SOL    HW227435   3.897   2.933   0.746  1.6705  1.8626  1.3357
 5326SOL     OW27436   0.383   1.920   7.434 -0.0880 -1.1677 -0.4558
 5326SOL    HW127437   0.441   1.843   7.435 -0.0507 -1.1359 -0.1598
 5326SOL    HW227438   0.449   1.979   7.469 -1.0982  0.4138 -1.2399
 5327SOL     OW27439   3.508   3.500   8.223  0.3890 -0.4539 -0.1443
 5327SOL    HW127440   3.431   3.444   8.230 -0.0424  0.2128  0.4823
 5327SOL    HW227441   3.553   3.461   8.299 -0.5282 -1.9839 -0.3812
 5328SOL     OW27442   1.450   3.993  17.157 -0.1158 -0.1955 -0.3748
 5328SOL    HW127443   1.419   3.951  17.077  1.5472 -2.4058  0.1455
 5328SOL    HW227444   1.400   3.944  17.222  0.1623 -1.1973 -0.9098
 5329SOL     OW27445   3.987   1.978  15.160 -0.2275  0.4567  0.1461
 5329SOL    HW127446   3.968   1.885  15.171 -1.0369  0.4704 -1.0565
 5329SOL    HW227447   3.937   1.985  15.079 -0.5273  1.5174  0.4194
 5330SOL     OW27448   2.962   2.419   4.501 -0.3953 -0.3892  0.4596
 5330SOL    HW127449   2.936   2.329   4.521  0.5462 -0.4201  1.5850
 5330SOL    HW227450   2.967   2.413   4.405  0.7064 -2.3673  0.6438
 5331SOL     OW27451   3.161   2.036   8.593 -0.5333  0.1971 -1.1245
 5331SOL    HW127452   3.106   2.093   8.649  0.2821  0.4133 -0.5360
 5331SOL    HW227453   3.102   2.010   8.523 -1.2463 -0.4661 -0.2808
 5332SOL     OW27454   0.207   4.542   2.094 -0.9438 -0.1730 -0.2000
 5332SOL    HW127455   0.215   4.637   2.086  1.9109 -0.4941 -1.2790
 5332SOL    HW227456   0.184   4.518   2.004  0.0669  0.1820 -0.5541
 5333SOL     OW27457   4.090   0.436   7.692  0.1872 -0.3807  0.2476
 5333SOL    HW127458   4.031   0.370   7.658 -1.3317  0.4632  1.2725
 5333SOL    HW227459   4.068   0.501   7.626  0.8999  2.0709  2.4260
 5334SOL     OW27460   2.447   4.199   2.802 -0.0118 -0.1638 -0.3637
 5334SOL    HW127461   2.509   4.246   2.747  2.2183 -2.8898 -0.1698
 5334SOL    HW227462   2.444   4.243   2.888  0.3922  2.0981 -1.5046
 5335SOL     OW27463   1.993   4.192  14.359  0.5365 -0.1917  0.5095
 5335SOL    HW127464   1.907   4.174  14.320  1.2601 -1.3053 -0.5823
 5335SOL    HW227465   2.023   4.102  14.372  1.6312  0.0775 -0.1647
 5336SOL     OW27466   3.254   0.398   1.372 -0.0785 -0.5862  0.7505
 5336SOL    HW127467   3.282   0.468   1.430  1.7621 -0.5801 -0.1383
 5336SOL    HW227468   3.291   0.421   1.287  0.6701  1.1525  1.5464
 5337SOL     OW27469   4.223   2.098  10.142  0.1860 -0.3235 -0.4209
 5337SOL    HW127470   4.167   2.026  10.112  1.3037 -1.8817  1.2239
 5337SOL    HW227471   4.278   2.049  10.203 -1.1070 -0.7135  0.4394
 5338SOL     OW27472   1.582   1.371   7.242  0.1305 -0.0991 -0.5704
 5338SOL    HW127473   1.638   1.305   7.283 -0.8869 -1.5517 -1.5239
 5338SOL    HW227474   1.646   1.425   7.194 -1.1933  1.1685 -0.9366
 5339SOL     OW27475   0.824   2.097   6.981  0.4202  0.3819 -0.1503
 5339SOL    HW127476   0.795   2.123   6.893  0.5754 -0.6617 -0.5099
 5339SOL    HW227477   0.847   2.179   7.025 -0.1276  1.3607 -1.6837
 5340SOL     OW27478   2.670   4.539   6.957 -0.4533  0.2617 -0.2553
 5340SOL    HW127479   2.652   4.454   6.995 -2.2762  0.5594 -0.4474
 5340SOL    HW227480   2.610   4.599   7.002  1.3555  0.9602  1.2230
 5341SOL     OW27481   2.784   3.340   4.900  0.0046  0.0735 -0.3472
 5341SOL    HW127482   2.813   3.367   4.987 -1.1135  0.4792 -0.0929
 5341SOL    HW227483   2.740   3.260   4.929 -1.4713  1.4144  1.1335
 5342SOL     OW27484   3.759   0.223  13.991  0.3699 -0.4017 -0.6522
 5342SOL    HW127485   3.846   0.192  14.016  0.6436  1.1206  0.2692
 5342SOL    HW227486   3.757   0.311  14.029 -0.7105 -1.8192  2.5902
 5343SOL     OW27487   0.037   3.711   5.454  0.1454 -0.3446 -0.4902
 5343SOL    HW127488   4.690   3.697   5.519  0.2277 -0.1244 -0.3540
 5343SOL    HW227489   0.047   3.629   5.407 -0.1599 -0.2603 -0.7052
 5344SOL     OW27490   2.954   0.654   2.198 -1.0496  0.2454 -0.1478
 5344SOL    HW127491   2.929   0.745   2.182  2.3499  1.8225  3.4529
 5344SOL    HW227492   2.906   0.646   2.280 -0.9437 -1.4877 -0.2652
 5345SOL     OW27493   0.312   0.372   6.734 -0.9230 -0.5271 -0.6112
 5345SOL    HW127494   0.365   0.319   6.794 -1.2246  1.0923  1.0674
 5345SOL    HW227495   0.290   0.303   6.671 -1.6870  1.7456 -2.8148
 5346SOL     OW27496   1.992   2.387   8.993  0.2935  0.2549 -0.0250
 5346SOL    HW127497   2.006   2.309   8.939 -1.5336 -0.5494  0.6671
 5346SOL    HW227498   1.933   2.352   9.060 -1.8268 -0.6789 -2.4026
 5347SOL     OW27499   0.253   1.758  13.688 -0.3366  0.2812  0.4579
 5347SOL    HW127500   0.256   1.681  13.630 -1.4410  0.6036 -0.0152
 5347SOL    HW227501   0.308   1.731  13.762 -0.3208 -0.5211  0.1560
 5348SOL     OW27502   3.063   1.233   7.189  0.0249 -0.2340  0.3290
 5348SOL    HW127503   3.116   1.194   7.120  2.5293  0.7724  1.6876
 5348SOL    HW227504   2.975   1.221   7.154 -0.1234  1.1281  0.2475
 5349SOL     OW27505   3.608   3.035  17.066 -0.5918  0.2156 -0.3198
 5349SOL    HW127506   3.528   3.060  17.113 -0.4496 -0.1158  0.1011
 5349SOL    HW227507   3.587   3.064  16.977  1.2774  1.7265 -0.2543
 5350SOL     OW27508   4.196   4.702  16.484  0.0111  0.0117  0.3048
 5350SOL    HW127509   4.197   0.051  16.421 -0.0688 -0.5862 -0.3740
 5350SOL    HW227510   4.123   0.014  16.535  0.6068 -0.1975  1.3128
 5351SOL     OW27511   2.700   0.202  14.536 -0.2171  0.4767 -0.3813
 5351SOL    HW127512   2.696   0.109  14.557 -1.1392  1.2546  2.7673
 5351SOL    HW227513   2.779   0.235  14.578 -0.3077  1.4059 -0.9236
 5352SOL     OW27514   1.379   0.647   2.719  0.0152  0.1179  0.6250
 5352SOL    HW127515   1.401   0.653   2.812  0.0087  1.7020  0.5252
 5352SOL    HW227516   1.388   0.739   2.692  3.2831  0.0005  1.3131
 5353SOL     OW27517   3.927   2.188  11.712  0.9436  0.5525  0.2197
 5353SOL    HW127518   3.855   2.130  11.689  1.6790 -1.3113  2.6510
 5353SOL    HW227519   3.897   2.213  11.799 -1.6970  1.1296 -0.8655
 5354SOL     OW27520   2.231   0.774  13.097 -0.2233  0.7591 -0.0575
 5354SOL    HW127521   2.254   0.837  13.165 -2.5794  0.2271  1.2250
 5354SOL    HW227522   2.283   0.805  13.022  1.4776  0.2565  0.9129
 5355SOL     OW27523   4.598   3.518  12.449  0.3397  0.2247 -0.2718
 5355SOL    HW127524   4.512   3.477  12.454  0.7708 -0.5089  1.1906
 5355SOL    HW227525   4.645   3.484  12.525 -1.5971  0.6894  1.1423
 5356SOL     OW27526   1.538   4.320   4.830  0.0922 -0.6380  0.4392
 5356SOL    HW127527   1.599   4.318   4.904  0.5122 -0.0648  0.1102
 5356SOL    HW227528   1.574   4.250   4.775  0.9894 -0.2769  0.5543
 5357SOL     OW27529   0.052   3.936   4.437 -0.0032  0.0721  0.6632
 5357SOL    HW127530   0.079   3.904   4.523 -1.9912 -2.2395  0.4323
 5357SOL    HW227531   4.697   3.881   4.424 -0.4076  0.5640  0.9599
 5358SOL     OW27532   2.416   4.352   8.609 -0.5575  0.6994 -0.3422
 5358SOL    HW127533   2.466   4.284   8.564  1.9238  1.1857  1.6799
 5358SOL    HW227534   2.403   4.403   8.529 -0.9113  3.9399  1.8098
 5359SOL     OW27535   1.150   1.785   3.746 -0.2107 -0.2512  0.3339
 5359SOL    HW127536   1.088   1.727   3.701  0.3340  0.7584 -1.7053
 5359SOL    HW227537   1.235   1.764   3.706 -1.0533 -0.6745 -1.2210
 5360SOL     OW27538   1.793   3.537   4.340  0.4286  0.4179 -0.1712
 5360SOL    HW127539   1.742   3.470   4.294  2.0166  0.4807 -2.0203
 5360SOL    HW227540   1.741   3.615   4.324 -1.9212 -1.0838  0.1662
 5361SOL     OW27541   1.410   0.910  10.275 -0.2071  0.2455 -0.2793
 5361SOL    HW127542   1.364   0.827  10.270  0.0185  0.3677 -4.4066
 5361SOL    HW227543   1.340   0.965  10.240 -0.3016  0.8015  0.7573
 5362SOL     OW27544   1.735   1.958   9.744 -0.2492  0.6586 -0.1259
 5362SOL    HW127545   1.715   1.961   9.838 -1.0064 -2.9409 -0.1443
 5362SOL    HW227546   1.797   2.030   9.732 -0.3165  0.4501 -1.6643
 5363SOL     OW27547   1.364   1.365   9.289  0.0164  0.1216 -0.1233
 5363SOL    HW127548   1.311   1.444   9.273  1.1279  0.5307 -1.7765
 5363SOL    HW227549   1.412   1.385   9.370 -0.4840  0.1833  0.1575
 5364SOL     OW27550   3.861   0.818  17.022  0.0335 -0.2705  0.1696
 5364SOL    HW127551   3.864   0.902  17.068 -0.7747 -1.0157  1.5731
 5364SOL    HW227552   3.954   0.795  17.016  0.3089  1.2622 -1.6838
 5365SOL     OW27553   0.761   2.285   3.453 -0.5583 -0.2751  0.6093
 5365SOL    HW127554   0.690   2.284   3.388 -0.3866  0.6068  0.4117
 5365SOL    HW227555   0.741   2.211   3.509  0.5647 -1.0606 -0.0299
 5366SOL     OW27556   0.066   1.967   3.441  0.2440 -0.0286 -0.0777
 5366SOL    HW127557   0.024   1.928   3.518  1.6224  1.1157  1.2511
 5366SOL    HW227558   0.154   1.931   3.446  0.6209  1.0038  0.5672
 5367SOL     OW27559   1.893   2.281   3.581  0.8891  0.1931 -0.1403
 5367SOL    HW127560   1.875   2.259   3.489 -1.4450  0.8015  0.1568
 5367SOL    HW227561   1.888   2.377   3.584  0.6095  0.2224 -1.2586
 5368SOL     OW27562   3.287   1.628   6.526  0.1878 -0.6062  0.6266
 5368SOL    HW127563   3.371   1.588   6.549 -0.8829 -4.2712 -1.7173
 5368SOL    HW227564   3.258   1.577   6.450  0.2066  2.1217 -1.2049
 5369SOL     OW27565   4.552   3.931  10.191  1.3073 -0.2221 -0.3930
 5369SOL    HW127566   4.511   3.984  10.123  1.3840  0.4407  0.0787
 5369SOL    HW227567   4.495   3.952  10.265 -1.1173 -2.4624 -1.6031
 5370SOL     OW27568   2.948   3.394  14.837 -0.0871  0.6638  0.1932
 5370SOL    HW127569   2.860   3.385  14.875  0.9091 -1.0221  2.0970
 5370SOL    HW227570   2.923   3.460  14.772  1.7262  1.0247 -0.1408
 5371SOL     OW27571   1.667   3.904   9.260 -0.1259 -0.1601 -0.2120
 5371SOL    HW127572   1.650   3.819   9.218 -0.7145  0.0173 -0.3305
 5371SOL    HW227573   1.629   3.878   9.344 -0.3253 -0.4754 -0.3953
 5372SOL     OW27574   0.707   0.823   6.016 -0.0413 -0.0810  0.4562
 5372SOL    HW127575   0.693   0.728   6.013 -2.8027  0.3853 -0.9128
 5372SOL    HW227576   0.639   0.854   6.076 -1.3034 -0.8127 -0.6130
 5373SOL     OW27577   0.682   2.337  15.939  0.4582 -0.1069  0.4119
 5373SOL    HW127578   0.682   2.311  15.846  0.6317 -2.5059  1.0862
 5373SOL    HW227579   0.622   2.411  15.947  2.2368  1.1994  1.4917
 5374SOL     OW27580   0.596   2.870   6.104  0.3247 -0.2264  0.1641
 5374SOL    HW127581   0.548   2.892   6.184  1.3024  0.0625  0.6732
 5374SOL    HW227582   0.542   2.794   6.084  2.3653 -1.1455 -1.7514
 5375SOL     OW27583   1.963   4.107  12.552  0.2376  0.3122 -0.1073
 5375SOL    HW127584   2.017   4.176  12.514  2.3446 -1.4885 -0.3876
 5375SOL    HW227585   1.950   4.136  12.642  1.8948  1.5412 -0.2740
 5376SOL     OW27586   0.381   1.207   2.471  0.1903  0.0476 -0.1042
 5376SOL    HW127587   0.308   1.208   2.534  1.4381 -1.0361  1.3395
 5376SOL    HW227588   0.422   1.283   2.512  2.2911 -0.2138 -1.7563
 5377SOL     OW27589   3.380   1.894   8.203  0.0736 -0.0754  0.0567
 5377SOL    HW127590   3.368   1.915   8.296 -0.7730 -1.9499  0.3634
 5377SOL    HW227591   3.368   1.800   8.190  3.3202 -0.4795  0.0892
 5378SOL     OW27592   3.205   2.831   7.994  0.0342 -0.0103  0.0301
 5378SOL    HW127593   3.184   2.738   8.000  1.9201 -0.4440 -0.0424
 5378SOL    HW227594   3.116   2.866   7.998  0.5912  1.1020  2.9164
 5379SOL     OW27595   3.504   2.825  13.457 -0.0281  0.3715 -0.0923
 5379SOL    HW127596   3.423   2.845  13.504 -0.0932  0.5741 -0.2946
 5379SOL    HW227597   3.551   2.908  13.467  3.6412 -1.9983  2.7638
 5380SOL     OW27598   2.206   2.266  11.502 -0.1350 -0.2313 -0.3563
 5380SOL    HW127599   2.264   2.340  11.488  0.7217 -0.9574 -0.5840
 5380SOL    HW227600   2.196   2.267  11.597  0.5750 -1.0489 -0.2740
 5381SOL     OW27601   4.293   0.015  15.648 -0.2278  0.0873  0.7138
 5381SOL    HW127602   4.381   0.047  15.671 -0.5215  0.2674  1.6026
 5381SOL    HW227603   4.316   4.671  15.584  0.2868  1.4051 -0.4648
 5382SOL     OW27604   3.373   0.186   9.708 -0.1111  0.0622 -0.2464
 5382SOL    HW127605   3.370   0.099   9.746 -1.9467 -0.6615 -2.0677
 5382SOL    HW227606   3.289   0.188   9.663 -1.8132  1.9894  2.9622
 5383SOL     OW27607   1.678   1.302   4.075  0.7021 -0.1468 -0.1141
 5383SOL    HW127608   1.727   1.384   4.082 -0.7371  0.8252 -1.6570
 5383SOL    HW227609   1.725   1.255   4.144  1.1685  1.7199  0.8419
 5384SOL     OW27610   2.069   0.692   8.721 -0.4432 -0.4354 -0.0523
 5384SOL    HW127611   1.991   0.739   8.690  0.2595  0.3080 -0.6793
 5384SOL    HW227612   2.131   0.724   8.656 -1.4296 -0.6375 -1.0925
 5385SOL     OW27613   0.165   4.071   3.493 -0.1573  0.0377 -0.2379
 5385SOL    HW127614   0.107   4.033   3.558 -0.7298 -0.3070 -0.9432
 5385SOL    HW227615   0.114   4.055   3.413  2.1800  0.4798 -1.8395
 5386SOL     OW27616   0.545   3.944   6.511  0.0305 -0.2956  0.1545
 5386SOL    HW127617   0.450   3.952   6.520 -0.0062 -2.4352  1.7097
 5386SOL    HW227618   0.568   3.930   6.603  0.9809 -1.4324 -0.2561
 5387SOL     OW27619   1.680   2.522   8.792  0.3502  0.2190 -0.8168
 5387SOL    HW127620   1.652   2.552   8.706 -0.2008  2.8795  0.2912
 5387SOL    HW227621   1.761   2.479   8.763  1.1500  2.0075 -1.2482
 5388SOL     OW27622   2.498   1.561  13.134 -0.0398  0.3723  0.1702
 5388SOL    HW127623   2.502   1.470  13.161  1.0050  1.3959  3.4293
 5388SOL    HW227624   2.587   1.569  13.099  0.6960 -2.6077  1.3577
 5389SOL     OW27625   1.614   2.837   2.561  0.2334  0.5904 -0.1174
 5389SOL    HW127626   1.522   2.840   2.538  0.3926  2.0127 -0.5857
 5389SOL    HW227627   1.652   2.858   2.476  0.8496 -0.7219 -0.1642
 5390SOL     OW27628   3.683   4.346   6.648 -0.5675  0.4949 -0.3837
 5390SOL    HW127629   3.602   4.313   6.610 -0.9890  2.5469 -1.2675
 5390SOL    HW227630   3.650   4.434   6.666 -1.5340  0.0575 -0.0443
 5391SOL     OW27631   0.311   1.621   5.980 -0.3451  0.2694  0.4190
 5391SOL    HW127632   0.399   1.605   6.016 -0.7182  0.6596  1.4961
 5391SOL    HW227633   0.329   1.698   5.926  1.4212  0.0065  0.6182
 5392SOL     OW27634   0.817   1.229   1.624  0.5342 -0.3402 -0.0914
 5392SOL    HW127635   0.741   1.288   1.626  1.2770  0.6159  0.2477
 5392SOL    HW227636   0.802   1.196   1.713  1.2195 -0.4761 -0.0238
 5393SOL     OW27637   4.659   1.641   2.245  0.2791  0.6978 -0.5524
 5393SOL    HW127638   4.575   1.685   2.258 -0.0262 -0.0217 -0.0604
 5393SOL    HW227639   4.682   1.622   2.336  1.7276 -0.1683 -1.0968
 5394SOL     OW27640   2.292   0.544   9.323  0.0220  0.5955 -0.0958
 5394SOL    HW127641   2.359   0.477   9.314 -0.0225  0.2925  1.9044
 5394SOL    HW227642   2.317   0.574   9.410  1.5770 -0.2147 -0.2694
 5395SOL     OW27643   0.856   1.513   6.708  0.0545 -0.4374 -0.3992
 5395SOL    HW127644   0.790   1.573   6.673 -0.7410  1.0229  3.6045
 5395SOL    HW227645   0.808   1.445   6.755  1.8509 -1.2942  0.2296
 5396SOL     OW27646   1.186   3.532   2.173  0.1449  0.1257 -0.1982
 5396SOL    HW127647   1.166   3.443   2.143  1.0782  0.0784 -0.6774
 5396SOL    HW227648   1.106   3.544   2.224  2.1761 -1.1278  3.3450
 5397SOL     OW27649   0.075   0.890  15.264 -0.0960  0.2387 -0.3143
 5397SOL    HW127650   0.077   0.985  15.276  0.6762  0.0274  1.2968
 5397SOL    HW227651   0.109   0.869  15.351  0.4496  0.7635 -0.4007
 5398SOL     OW27652   2.168   4.057   5.188  0.8378 -0.2741 -0.0593
 5398SOL    HW127653   2.193   4.042   5.097  0.1504 -0.9783 -0.1409
 5398SOL    HW227654   2.249   4.083   5.231  0.7443 -2.4208  1.4434
 5399SOL     OW27655   0.569   2.172  16.139 -0.4691 -0.1747  0.2178
 5399SOL    HW127656   0.603   2.206  16.056 -1.9586  1.3274  0.2065
 5399SOL    HW227657   0.476   2.174  16.117 -0.5625 -1.9179  0.4961
 5400SOL     OW27658   1.683   2.597   3.006  0.1191 -0.1505  0.5668
 5400SOL    HW127659   1.714   2.606   2.915 -0.5338  1.4075  0.5016
 5400SOL    HW227660   1.754   2.654   3.035 -1.1281  1.2598  0.8682
 5401SOL     OW27661   1.472   4.510   1.252  0.4486 -0.0204  0.2111
 5401SOL    HW127662   1.524   4.485   1.328  1.3857  2.5205  0.4113
 5401SOL    HW227663   1.520   4.455   1.190  0.3101 -1.5371  1.4456
 5402SOL     OW27664   3.156   4.378   7.047 -0.4062 -0.7620 -0.1372
 5402SOL    HW127665   3.062   4.380   7.066 -0.5098 -0.8112 -0.6436
 5402SOL    HW227666   3.179   4.459   7.093 -1.2132  0.1084 -1.2768
 5403SOL     OW27667   1.711   3.237  14.349  0.1026 -0.0433 -0.0572
 5403SOL    HW127668   1.650   3.179  14.396  1.3244 -1.8553 -0.7254
 5403SOL    HW227669   1.665   3.308  14.306 -0.0685  0.2865  0.6656
 5404SOL     OW27670   4.020   2.632  14.641  0.4049 -0.0721  0.3974
 5404SOL    HW127671   3.983   2.612  14.727  0.6813 -2.1707  0.0145
 5404SOL    HW227672   4.071   2.712  14.656 -0.0382  0.4144 -0.7163
 5405SOL     OW27673   4.572   2.268   3.658 -0.2542  0.4392 -0.2870
 5405SOL    HW127674   4.633   2.206   3.698 -0.8736 -1.0425 -1.6259
 5405SOL    HW227675   4.625   2.343   3.632 -1.3945  1.9226  1.7127
 5406SOL     OW27676   4.270   2.448  11.033 -0.3481  0.1017 -0.5880
 5406SOL    HW127677   4.363   2.456  11.051 -0.4814 -2.1302  1.2011
 5406SOL    HW227678   4.230   2.529  11.065 -1.6350  0.0934 -2.2087
 5407SOL     OW27679   0.689   2.087  14.093 -0.5064 -0.0591 -0.4787
 5407SOL    HW127680   0.679   2.031  14.017  3.0007 -2.5464  0.8389
 5407SOL    HW227681   0.634   2.153  14.052  3.4016  3.0693 -0.7490
 5408SOL     OW27682   1.813   3.204   0.074 -0.2996 -0.0397 -0.4309
 5408SOL    HW127683   1.747   3.137   0.085  0.9978 -1.1890  0.3723
 5408SOL    HW227684   1.861   3.188   0.155 -0.4676 -0.5472 -0.4359
 5409SOL     OW27685   1.893   2.905   3.493 -0.5640  0.3446 -0.0884
 5409SOL    HW127686   1.877   2.933   3.403 -1.2619  0.1596 -0.0248
 5409SOL    HW227687   1.986   2.883   3.486 -0.4439  0.4704  1.0365
 5410SOL     OW27688   0.482   3.375   8.944  0.1873 -0.1200 -0.7224
 5410SOL    HW127689   0.413   3.390   9.009 -0.0714  0.4858 -1.1357
 5410SOL    HW227690   0.490   3.463   8.907  1.9406  0.0464  0.0664
 5411SOL     OW27691   0.393   1.045   7.674  0.0265  0.1505 -0.0916
 5411SOL    HW127692   0.365   0.957   7.697 -1.3853  0.5444 -0.3361
 5411SOL    HW227693   0.478   1.018   7.639  1.0462  2.8455  0.2787
 5412SOL     OW27694   2.839   1.148  12.911 -0.3281 -0.2112  0.1040
 5412SOL    HW127695   2.756   1.103  12.924 -0.5855  0.8652  2.1175
 5412SOL    HW227696   2.803   1.233  12.885  1.3216  0.4332 -0.1199
 5413SOL     OW27697   3.680   4.662   9.045  0.1669 -0.0409 -1.0885
 5413SOL    HW127698   3.757   4.666   8.988 -1.1297  1.8602 -2.7589
 5413SOL    HW227699   3.614   4.686   8.979 -0.3836  1.7848  0.1251
 5414SOL     OW27700   1.596   4.216   5.107  0.1650  0.3023  0.3345
 5414SOL    HW127701   1.623   4.266   5.184 -3.0273 -0.0991  1.7106
 5414SOL    HW227702   1.679   4.179   5.078  0.8282  1.0998  1.2425
 5415SOL     OW27703   2.252   0.722  15.340  0.5764 -0.1132  0.1394
 5415SOL    HW127704   2.345   0.700  15.349  0.3081 -1.2901  0.0618
 5415SOL    HW227705   2.251   0.798  15.282  1.1402 -0.6052 -0.5303
 5416SOL     OW27706   0.831   4.387   7.148  0.0513  0.8475  0.0390
 5416SOL    HW127707   0.784   4.444   7.209  1.5344  2.8243 -0.6663
 5416SOL    HW227708   0.787   4.308   7.179  0.5345  0.6237  0.1575
 5417SOL     OW27709   4.200   3.614   3.915  0.3171 -0.0940  0.0925
 5417SOL    HW127710   4.243   3.556   3.977 -0.1730 -0.4556  0.0951
 5417SOL    HW227711   4.272   3.676   3.905 -1.6527  1.6059 -3.6609
 5418SOL     OW27712   3.766   2.791  17.050  0.2808  0.4100  0.2479
 5418SOL    HW127713   3.790   2.882  17.069  1.0703  0.1115  0.7123
 5418SOL    HW227714   3.716   2.764  17.127  0.8208 -2.5184 -0.4284
 5419SOL     OW27715   0.952   1.710   6.864 -0.0449 -0.3864 -0.1298
 5419SOL    HW127716   1.021   1.668   6.916 -0.6963  1.3321  2.1234
 5419SOL    HW227717   0.934   1.636   6.807 -0.6334  1.2460 -2.0545
 5420SOL     OW27718   1.489   3.098   6.587  0.5943  0.9004  0.3936
 5420SOL    HW127719   1.428   3.049   6.532  1.5304 -0.0939  0.2500
 5420SOL    HW227720   1.522   3.034   6.650  0.9459 -0.9076 -1.6067
 5421SOL     OW27721   4.539   1.832   5.977 -0.0379 -0.8448 -0.0058
 5421SOL    HW127722   4.593   1.901   5.939 -1.9710  1.4784  1.4721
 5421SOL    HW227723   4.570   1.841   6.066 -1.3825 -3.5470  0.7487
 5422SOL     OW27724   2.381   1.521   4.269 -0.3194 -0.7241 -0.4103
 5422SOL    HW127725   2.342   1.449   4.219 -0.1906  0.4145 -2.1534
 5422SOL    HW227726   2.377   1.590   4.202 -0.4999 -0.3530 -0.0177
 5423SOL     OW27727   0.917   2.834   8.890  0.0931  0.1583 -0.0937
 5423SOL    HW127728   0.918   2.926   8.864  0.3498  0.3265  0.5181
 5423SOL    HW227729   0.933   2.793   8.805  0.1828 -0.1104  0.0557
 5424SOL     OW27730   2.452   1.422   1.009 -0.3540  0.4993  0.0737
 5424SOL    HW127731   2.492   1.472   1.080 -0.7064  0.2535  0.4402
 5424SOL    HW227732   2.494   1.458   0.930 -0.8485  2.7227  0.8357
 5425SOL     OW27733   4.142   3.520   0.290 -0.2616 -0.5773 -0.1976
 5425SOL    HW127734   4.083   3.508   0.364 -1.8760 -1.7142 -1.6575
 5425SOL    HW227735   4.090   3.576   0.232 -1.5982 -1.4237  0.1981
 5426SOL     OW27736   0.766   3.484  15.226 -0.2800  0.2569 -0.2172
 5426SOL    HW127737   0.857   3.500  15.248 -0.0036 -2.1119  0.3713
 5426SOL    HW227738   0.756   3.389  15.235  1.4844  0.0887 -0.0734
 5427SOL     OW27739   3.179   2.534   3.963 -0.1203  0.6967 -0.1404
 5427SOL    HW127740   3.207   2.565   4.049 -2.7113 -1.4947  1.5043
 5427SOL    HW227741   3.095   2.490   3.971 -0.4418  1.6015  1.2992
 5428SOL     OW27742   4.298   0.207   7.447  0.1242 -0.3167 -0.2792
 5428SOL    HW127743   4.341   0.285   7.412 -1.3872 -0.0652 -1.5500
 5428SOL    HW227744   4.362   0.161   7.501  0.7921  2.4462  1.2842
 5429SOL     OW27745   3.659   2.379   8.472 -0.3662  0.8410  0.5958
 5429SOL    HW127746   3.679   2.471   8.489 -0.9635  1.0552  0.1176
 5429SOL    HW227747   3.644   2.352   8.563  2.0059 -1.2698  0.3471
 5430SOL     OW27748   3.486   3.346  13.778  0.2234 -0.1916  0.4265
 5430SOL    HW127749   3.396   3.335  13.808 -0.0763 -0.8200 -0.7234
 5430SOL    HW227750   3.504   3.430  13.821  0.7423 -0.8899  1.5706
 5431SOL     OW27751   1.216   1.043  10.133 -0.4107 -0.2043  0.3038
 5431SOL    HW127752   1.131   1.087  10.125  0.0521  0.5368 -0.4383
 5431SOL    HW227753   1.198   0.978  10.065  1.0188  0.8930 -1.0855
 5432SOL     OW27754   3.051   2.391  14.645  0.8594  0.2307  0.3313
 5432SOL    HW127755   3.045   2.388  14.550 -0.4481  0.1595  0.4183
 5432SOL    HW227756   3.067   2.484  14.659  2.3433  0.1289 -0.7523
 5433SOL     OW27757   3.231   4.391   8.522  0.1884  0.3873  0.5024
 5433SOL    HW127758   3.210   4.301   8.548 -0.1241  0.6534  1.1677
 5433SOL    HW227759   3.284   4.384   8.443  0.6398 -2.1603  1.0136
 5434SOL     OW27760   2.776   1.720  16.096 -0.2485 -0.0266  0.0926
 5434SOL    HW127761   2.713   1.791  16.099 -0.5867 -0.2952 -0.6619
 5434SOL    HW227762   2.804   1.711  16.188 -0.0681 -1.9326 -0.1307
 5435SOL     OW27763   2.262   0.719   7.319  0.0627 -0.1674 -0.1283
 5435SOL    HW127764   2.339   0.673   7.283 -0.7045 -2.0088  0.5767
 5435SOL    HW227765   2.282   0.730   7.412 -0.3551 -0.0826 -0.0523
 5436SOL     OW27766   2.040   2.670  16.903 -0.6249 -0.2626 -0.2288
 5436SOL    HW127767   1.956   2.675  16.857 -1.2142  0.3595  0.9105
 5436SOL    HW227768   2.033   2.719  16.985 -0.2088  0.5336 -0.6783
 5437SOL     OW27769   0.671   1.705   5.841 -0.3505  0.6885 -0.3242
 5437SOL    HW127770   0.665   1.801   5.845  1.2454  0.7763  0.2877
 5437SOL    HW227771   0.700   1.693   5.932 -0.5040 -0.4880 -0.4288
 5438SOL     OW27772   0.357   0.388   2.669  0.2000 -0.5822  0.5306
 5438SOL    HW127773   0.446   0.367   2.643 -0.7135 -4.5194  0.5570
 5438SOL    HW227774   0.319   0.412   2.584 -0.5690 -0.5036  0.8906
 5439SOL     OW27775   3.342   3.043  13.592  0.3624  0.0670 -0.0568
 5439SOL    HW127776   3.436   3.061  13.600  0.1166  0.4831  1.8234
 5439SOL    HW227777   3.330   3.013  13.682 -0.9016 -1.0004 -0.5876
 5440SOL     OW27778   4.108   0.129   9.317  0.0412  0.0265 -0.0399
 5440SOL    HW127779   4.103   0.094   9.406 -1.9111 -1.8587 -0.8687
 5440SOL    HW227780   4.020   0.101   9.292  0.1071 -1.1988  1.1198
 5441SOL     OW27781   0.377   1.530  14.860 -0.0949  0.1255 -0.4318
 5441SOL    HW127782   0.413   1.592  14.797  0.0227 -0.2648 -0.7456
 5441SOL    HW227783   0.377   1.457  14.798 -1.3895 -0.3065  0.0814
 5442SOL     OW27784   3.853   1.334   8.492 -0.1444  0.6862 -0.2471
 5442SOL    HW127785   3.835   1.407   8.551 -1.2122  0.0553  0.2010
 5442SOL    HW227786   3.938   1.363   8.457  1.2618 -4.9701 -1.4638
 5443SOL     OW27787   1.712   2.095   5.476 -0.2190  0.0691 -0.6306
 5443SOL    HW127788   1.794   2.109   5.524 -0.2747  0.2402 -0.5850
 5443SOL    HW227789   1.745   2.035   5.410  0.3896  1.5378 -1.6505
 5444SOL     OW27790   3.131   4.091  11.988  0.4156  0.2855  0.0581
 5444SOL    HW127791   3.181   4.173  11.983  0.1263  0.4870  0.4305
 5444SOL    HW227792   3.142   4.059  11.898 -0.4448 -0.4924  0.2302
 5445SOL     OW27793   1.385   2.367   8.691 -0.3746  0.0744  0.9449
 5445SOL    HW127794   1.372   2.413   8.608 -0.1732  0.4605  1.1234
 5445SOL    HW227795   1.476   2.341   8.677 -1.1422 -2.1112  0.0835
 5446SOL     OW27796   0.901   2.135   1.890 -0.4616 -0.2005  0.2004
 5446SOL    HW127797   0.848   2.211   1.868 -0.4788 -0.1001  0.5983
 5446SOL    HW227798   0.991   2.168   1.884 -0.4057  0.2436  3.4720
 5447SOL     OW27799   0.012   3.699   5.138  0.1763 -0.6473  0.1211
 5447SOL    HW127800   0.079   3.731   5.077  1.6515 -0.9855  1.5304
 5447SOL    HW227801   0.018   3.772   5.200  1.0209  0.9756 -1.8720
 5448SOL     OW27802   0.585   2.113   2.901  0.4222  0.9454 -0.1607
 5448SOL    HW127803   0.666   2.149   2.937  0.9685  0.0457 -0.5209
 5448SOL    HW227804   0.609   2.028   2.867  0.2093  0.6559  0.4040
 5449SOL     OW27805   3.220   0.709   0.545  0.9923  0.2672 -0.3484
 5449SOL    HW127806   3.161   0.689   0.617 -1.6926  0.3782 -2.5072
 5449SOL    HW227807   3.168   0.677   0.471  1.9072 -1.5089 -0.2227
 5450SOL     OW27808   4.668   0.832   7.025  0.3749 -0.1876 -0.5213
 5450SOL    HW127809   0.040   0.848   7.016  0.6207 -2.2565 -1.5115
 5450SOL    HW227810   4.641   0.875   6.944  0.2067 -0.2955 -0.5220
 5451SOL     OW27811   1.380   0.351   6.584 -0.0283  0.2817 -0.1298
 5451SOL    HW127812   1.399   0.445   6.593  0.2561  0.1220  0.9078
 5451SOL    HW227813   1.346   0.348   6.674 -0.5855 -0.6563 -0.3727
 5452SOL     OW27814   2.641   3.135   7.592 -0.2842 -0.2760  0.2338
 5452SOL    HW127815   2.656   3.111   7.500 -2.5219 -0.1811 -0.1541
 5452SOL    HW227816   2.647   3.230   7.601 -2.6018 -0.2118  1.2479
 5453SOL     OW27817   0.286   3.777   3.799  0.5892  0.1615  0.2216
 5453SOL    HW127818   0.313   3.816   3.882  0.8645  3.1317 -1.2661
 5453SOL    HW227819   0.190   3.775   3.798  0.5776  1.0878  0.1305
 5454SOL     OW27820   2.397   0.932  17.040  0.2804  0.0463 -0.4662
 5454SOL    HW127821   2.433   1.018  17.019  0.9843 -0.6846 -2.2171
 5454SOL    HW227822   2.414   0.891  16.955  0.2489  0.1265 -0.5109
 5455SOL     OW27823   3.430   1.699   8.599 -0.4324  0.1298 -0.0157
 5455SOL    HW127824   3.470   1.710   8.685 -2.5250 -2.2941  1.2691
 5455SOL    HW227825   3.470   1.615   8.578 -0.8752 -0.3243  0.9570
 5456SOL     OW27826   1.736   2.276   2.236 -0.1931  0.0973  0.2845
 5456SOL    HW127827   1.688   2.357   2.254  0.9074  0.8247 -0.0424
 5456SOL    HW227828   1.737   2.284   2.141 -3.0024 -1.7661  0.0909
 5457SOL     OW27829   0.576   4.648   9.156 -0.5815  0.0253  0.2249
 5457SOL    HW127830   0.654   4.601   9.187 -0.5951  0.9499  1.6574
 5457SOL    HW227831   0.610   4.711   9.093  0.6047  0.0416  0.8762
 5458SOL     OW27832   2.387   0.993   5.354  0.0298 -0.3286  0.2405
 5458SOL    HW127833   2.352   1.062   5.410  0.3618  0.0515 -0.0221
 5458SOL    HW227834   2.304   0.946   5.348  0.7056 -1.7186  1.7706
 5459SOL     OW27835   2.234   4.395  14.843  0.4086  0.1305 -0.1702
 5459SOL    HW127836   2.143   4.387  14.814  0.6328 -0.8452 -0.6134
 5459SOL    HW227837   2.225   4.394  14.938 -1.3287 -0.2710 -0.3454
 5460SOL     OW27838   0.478   3.644   9.136  0.3322  0.3290  1.0096
 5460SOL    HW127839   0.446   3.684   9.217 -1.3091  0.0373  0.5046
 5460SOL    HW227840   0.412   3.577   9.116 -0.6094  1.3924  0.5303
 5461SOL     OW27841   3.494   2.875  11.467  0.0611 -0.1640 -0.1642
 5461SOL    HW127842   3.445   2.909  11.541  1.0372  0.9037 -0.0194
 5461SOL    HW227843   3.469   2.782  11.458  1.1626 -0.4794  0.0636
 5462SOL     OW27844   0.562   1.083   3.817  0.3381 -0.1074  0.2720
 5462SOL    HW127845   0.597   0.994   3.829 -0.9421 -0.6542 -0.1221
 5462SOL    HW227846   0.472   1.068   3.791  0.4378 -1.8845  0.9539
 5463SOL     OW27847   2.499   3.557   5.780 -0.4056  0.8038 -0.0535
 5463SOL    HW127848   2.573   3.521   5.730  0.6159 -1.2768  2.9560
 5463SOL    HW227849   2.509   3.515   5.865  2.6551  0.4432 -0.5819
 5464SOL     OW27850   1.772   1.568   7.142 -0.1045  0.0602 -0.1232
 5464SOL    HW127851   1.857   1.608   7.125 -0.2740  0.8893  0.9645
 5464SOL    HW227852   1.729   1.637   7.192 -3.8544 -1.3936 -1.2830
 5465SOL     OW27853   4.459   0.583  17.246 -0.2266 -0.4278  0.1879
 5465SOL    HW127854   4.431   0.673  17.259  1.4026 -0.1335  1.5843
 5465SOL    HW227855   4.384   0.539  17.287  0.8891 -1.0526  1.5565
 5466SOL     OW27856   0.971   0.410   5.318 -0.0058 -0.2500  0.1510
 5466SOL    HW127857   0.903   0.346   5.296 -0.7676  0.5836  0.0390
 5466SOL    HW227858   0.925   0.468   5.379  1.2493 -0.8826  1.6887
 5467SOL     OW27859   4.072   2.299   8.300 -0.2947  0.2185  0.3456
 5467SOL    HW127860   4.060   2.256   8.384 -1.9783  0.5057  0.2486
 5467SOL    HW227861   4.076   2.394   8.314  2.2137  0.0929  0.5448
 5468SOL     OW27862   2.490   4.103   3.097  0.3713 -0.0234  0.2844
 5468SOL    HW127863   2.485   4.050   3.176 -0.4636  2.5941  2.0229
 5468SOL    HW227864   2.570   4.149   3.122  1.1547 -0.6840 -1.0181
 5469SOL     OW27865   4.116   0.659   8.717 -0.0875 -0.1828 -0.0004
 5469SOL    HW127866   4.101   0.732   8.777  1.8793  0.1271  0.0919
 5469SOL    HW227867   4.211   0.658   8.709  0.0892 -2.7088  2.1524
 5470SOL     OW27868   0.326   1.659   5.016  0.4737  0.4745 -0.5132
 5470SOL    HW127869   0.315   1.679   4.923  1.4155  0.9645 -0.5313
 5470SOL    HW227870   0.241   1.629   5.048  1.8233 -1.4494  1.2248
 5471SOL     OW27871   3.730   2.371  13.371  0.3573  0.5453 -0.2083
 5471SOL    HW127872   3.788   2.395  13.299  1.5065  0.4052  0.6740
 5471SOL    HW227873   3.679   2.299  13.334  1.1736 -0.9057  1.4899
 5472SOL     OW27874   1.297   0.293   4.499  0.1846 -0.3287  0.2192
 5472SOL    HW127875   1.358   0.366   4.501 -0.2164 -0.0615  2.3492
 5472SOL    HW227876   1.344   0.214   4.470  0.9352  0.9320 -1.9568
 5473SOL     OW27877   3.007   0.177  11.870  0.3085 -0.1323  0.2100
 5473SOL    HW127878   3.054   0.136  11.798 -1.0156 -1.9043  0.3643
 5473SOL    HW227879   3.019   0.269  11.846  1.9981  0.0910  1.9368
 5474SOL     OW27880   2.274   2.652  17.232  0.5786  0.2894  0.3131
 5474SOL    HW127881   2.197   2.697  17.268  1.0493  0.8317  0.6420
 5474SOL    HW227882   2.349   2.671  17.288  0.8268 -0.1395  0.1279
 5475SOL     OW27883   0.876   0.251   5.771  0.0410 -0.2786 -0.1595
 5475SOL    HW127884   0.812   0.287   5.710 -0.3980 -0.3647  0.2448
 5475SOL    HW227885   0.922   0.185   5.719  0.7058  0.4115 -0.4496
 5476SOL     OW27886   3.510   4.545   7.248  0.1291 -0.7024  0.5728
 5476SOL    HW127887   3.521   4.509   7.336 -0.8379  0.4812  1.1903
 5476SOL    HW227888   3.497   4.637   7.272 -0.8735 -0.3123 -1.4829
 5477SOL     OW27889   3.837   3.211   5.315  0.4345 -1.0103 -0.7085
 5477SOL    HW127890   3.782   3.237   5.389  0.6258 -0.0104 -0.9274
 5477SOL    HW227891   3.918   3.239   5.357 -0.4387  2.4802 -1.3842
 5478SOL     OW27892   3.220   3.808   8.841  0.3333 -0.3581 -0.4993
 5478SOL    HW127893   3.188   3.815   8.751  1.4793  0.7506 -0.8171
 5478SOL    HW227894   3.249   3.897   8.860  0.3432 -0.3456 -0.5743
 5479SOL     OW27895   0.071   2.633  10.726 -0.1495  0.2563 -0.8334
 5479SOL    HW127896   0.013   2.612  10.799 -0.8611  0.4763 -1.3424
 5479SOL    HW227897   0.094   2.724  10.744  0.0841  0.4238 -2.0001
 5480SOL     OW27898   0.187   0.687   2.675 -0.2557  0.0715 -0.1619
 5480SOL    HW127899   0.225   0.774   2.666  1.7599 -1.0497 -2.5675
 5480SOL    HW227900   0.177   0.656   2.585  0.7819 -1.4224  0.2273
 5481SOL     OW27901   1.737   2.871   3.701 -0.1984  0.1307  0.2310
 5481SOL    HW127902   1.802   2.882   3.631  0.5675 -0.4124  0.8489
 5481SOL    HW227903   1.782   2.891   3.783 -0.4582 -0.3451  0.4838
 5482SOL     OW27904   3.101   0.032   2.703 -0.0769  0.4317 -0.0465
 5482SOL    HW127905   3.078   0.058   2.614  1.4495 -1.9013 -1.1393
 5482SOL    HW227906   3.185   4.715   2.677 -0.3601 -0.8397  0.9112
 5483SOL     OW27907   0.114   4.245  11.030 -0.7599  0.2558 -0.3359
 5483SOL    HW127908   0.137   4.269  11.119  1.6559  1.8415 -1.4162
 5483SOL    HW227909   0.154   4.306  10.968 -0.3370  0.6690  0.3414
 5484SOL     OW27910   3.876   1.363   4.956 -0.3332  0.0060 -0.3097
 5484SOL    HW127911   3.812   1.388   5.023 -0.8974  1.8222 -1.5409
 5484SOL    HW227912   3.880   1.449   4.914  0.5952 -0.7675 -1.7767
 5485SOL     OW27913   4.665   1.515   2.476  0.3418 -0.3686 -0.2740
 5485SOL    HW127914   4.677   1.428   2.439 -2.5087  0.0007 -2.0572
 5485SOL    HW227915   4.574   1.508   2.505 -0.8096  0.2268 -3.7213
 5486SOL     OW27916   1.308   2.138   8.126 -0.1830  0.1802 -0.5315
 5486SOL    HW127917   1.372   2.205   8.151 -0.6123 -0.5465  2.6169
 5486SOL    HW227918   1.230   2.191   8.108  0.1796 -0.2488 -3.2264
 5487SOL     OW27919   3.662   1.403   8.012  0.5084 -0.4986  0.1774
 5487SOL    HW127920   3.729   1.471   8.015 -1.2905  1.2290  0.7732
 5487SOL    HW227921   3.605   1.444   8.077  1.0964  1.0950 -0.3157
 5488SOL     OW27922   4.673   3.885   2.848  0.4135  0.0289  0.1014
 5488SOL    HW127923   4.606   3.827   2.883  0.1228  0.2861 -0.0325
 5488SOL    HW227924   4.664   3.967   2.896 -2.8266 -1.1449  1.4812
 5489SOL     OW27925   0.025   3.986   5.358  0.2874 -0.0696 -0.1416
 5489SOL    HW127926   0.014   3.896   5.389 -0.4548  0.0974  0.0622
 5489SOL    HW227927   4.664   3.995   5.312  0.4368 -0.8337 -0.5697
 5490SOL     OW27928   0.904   1.585   9.419 -0.3203  0.5461 -0.0904
 5490SOL    HW127929   0.892   1.676   9.445 -3.3521  0.9548 -2.8406
 5490SOL    HW227930   0.867   1.533   9.489 -0.3373 -0.2414 -0.6847
 5491SOL     OW27931   0.412   3.523   7.287 -0.5438 -0.2326  0.1193
 5491SOL    HW127932   0.331   3.495   7.330 -0.1486 -1.8531 -0.1779
 5491SOL    HW227933   0.374   3.600   7.244  1.7859  0.0617 -1.3720
 5492SOL     OW27934   0.159   3.947   0.876 -0.2570  0.1572  0.4041
 5492SOL    HW127935   0.220   3.911   0.941  0.5353  1.0203  0.1451
 5492SOL    HW227936   0.210   3.943   0.796 -1.9221  3.0860 -0.7987
 5493SOL     OW27937   3.858   3.575   8.455 -0.3223  0.2774  0.0735
 5493SOL    HW127938   3.812   3.658   8.448 -2.3422 -0.8775 -0.2604
 5493SOL    HW227939   3.929   3.584   8.391 -0.0196 -0.9256  0.2414
 5494SOL     OW27940   3.260   2.879   7.693  0.3214  0.0278  0.0319
 5494SOL    HW127941   3.206   2.839   7.761 -1.3596  0.2290 -1.1942
 5494SOL    HW227942   3.286   2.796   7.653 -0.1825  0.1804 -0.6127
 5495SOL     OW27943   3.384   4.353   3.355  0.6699 -0.1550  0.1009
 5495SOL    HW127944   3.352   4.414   3.288 -0.8840 -0.4483  0.5717
 5495SOL    HW227945   3.303   4.325   3.398 -0.5929 -0.5135 -2.5185
 5496SOL     OW27946   4.214   1.973   2.771  0.1567 -0.1355  0.1419
 5496SOL    HW127947   4.205   1.975   2.675 -0.5456  0.5552  0.2174
 5496SOL    HW227948   4.122   1.980   2.794 -0.0545 -0.9455 -0.4394
 5497SOL     OW27949   3.625   2.755   7.433  0.1358 -0.0219  0.4108
 5497SOL    HW127950   3.713   2.785   7.408 -0.2848  0.6029 -0.3207
 5497SOL    HW227951   3.619   2.755   7.529 -0.3696 -0.6921  0.3788
 5498SOL     OW27952   4.162   4.124  10.143  0.3150  0.4100 -0.4772
 5498SOL    HW127953   4.126   4.208  10.115  0.5679  1.1210  1.2807
 5498SOL    HW227954   4.080   4.079  10.164  0.2640  0.5237 -0.4277
 5499SOL     OW27955   0.942   1.732   7.676  0.0472  0.0123  0.4209
 5499SOL    HW127956   0.863   1.678   7.683  0.1832 -0.1875  0.4185
 5499SOL    HW227957   0.954   1.759   7.767 -0.3243  0.5183  0.3185
 5500SOL     OW27958   4.224   2.387  15.861 -0.2959  0.3923  0.5972
 5500SOL    HW127959   4.178   2.419  15.784 -1.8967 -1.4353  0.7760
 5500SOL    HW227960   4.278   2.457  15.898  0.5767  0.2501 -0.4187
 5501SOL     OW27961   0.032   1.764   4.288  0.3956  0.0001  0.1236
 5501SOL    HW127962   0.114   1.791   4.330  2.3071 -0.5673 -3.2648
 5501SOL    HW227963   0.067   1.726   4.208  1.3437  1.3125 -0.0872
 5502SOL     OW27964   3.764   4.112   3.689 -0.0930  0.7409 -0.5422
 5502SOL    HW127965   3.792   4.183   3.631  0.2330  0.8377 -0.2662
 5502SOL    HW227966   3.691   4.085   3.633 -0.3418 -3.2192  1.6730
 5503SOL     OW27967   4.221   4.174  13.123  0.0211  0.1532 -0.2771
 5503SOL    HW127968   4.178   4.120  13.058  1.1548 -0.3206 -0.6349
 5503SOL    HW227969   4.151   4.234  13.148 -0.2439  0.1591 -1.0531
 5504SOL     OW27970   3.615   0.614   5.948  0.2387  0.2470  0.8005
 5504SOL    HW127971   3.645   0.639   5.861  1.1330 -2.1140  0.4577
 5504SOL    HW227972   3.698   0.614   5.995  0.0768  1.6218  1.0884
 5505SOL     OW27973   4.652   4.036   2.617 -0.6764  0.1825  0.4781
 5505SOL    HW127974   4.558   4.052   2.610 -0.7191 -0.0050  0.6152
 5505SOL    HW227975   4.653   3.981   2.696  2.8507  0.4811  0.6223
 5506SOL     OW27976   4.477   1.867   6.496 -0.2372  0.2126 -0.1197
 5506SOL    HW127977   4.481   1.918   6.578 -0.3780 -0.7295  0.4674
 5506SOL    HW227978   4.393   1.899   6.462 -0.7248 -0.0937  0.7731
 5507SOL     OW27979   2.497   0.916   8.549 -0.1995  1.0596 -0.3532
 5507SOL    HW127980   2.547   0.976   8.494  2.6351 -0.4857  0.5650
 5507SOL    HW227981   2.539   0.925   8.634 -1.3762 -0.0962  0.3419
 5508SOL     OW27982   4.541   2.401  16.449 -0.5007  0.0597 -0.3250
 5508SOL    HW127983   4.565   2.349  16.525  2.7978  2.0130 -0.0387
 5508SOL    HW227984   4.629   2.428  16.421  0.1318  0.5876  2.2014
 5509SOL     OW27985   4.509   2.296  10.088 -0.0057  0.2730  0.5284
 5509SOL    HW127986   4.436   2.257  10.137  0.4444 -2.3076 -0.8269
 5509SOL    HW227987   4.492   2.270   9.997  1.0323 -2.3166  1.0763
 5510SOL     OW27988   3.946   0.333   3.829 -0.3741 -0.1859 -0.3599
 5510SOL    HW127989   3.936   0.343   3.924  0.8484  0.8923 -0.3442
 5510SOL    HW227990   3.974   0.424   3.816 -0.9239  0.4676  3.0846
 5511SOL     OW27991   1.854   3.613   7.968  0.2078  0.0394 -0.3590
 5511SOL    HW127992   1.856   3.661   7.885 -0.6361  1.1140  0.2516
 5511SOL    HW227993   1.925   3.660   8.013  0.5127 -0.1526 -0.6381
 5512SOL     OW27994   0.939   0.378   0.631  0.5132  0.1822  0.1141
 5512SOL    HW127995   0.896   0.450   0.583  0.8981 -0.7506 -1.6406
 5512SOL    HW227996   1.027   0.415   0.638  1.2354 -1.6265  0.5571
 5513SOL     OW27997   0.667   3.260   3.607  0.1149  0.4471  0.1019
 5513SOL    HW127998   0.747   3.278   3.557 -0.9130  0.2299 -1.6272
 5513SOL    HW227999   0.668   3.165   3.604  0.3145  0.4651 -0.3667
 5514SOL     OW28000   4.176   1.108  11.457 -0.5126 -0.8055 -0.3685
 5514SOL    HW128001   4.093   1.075  11.425  0.1429 -2.0617 -0.7505
 5514SOL    HW228002   4.166   1.197  11.421 -1.8862 -0.9610 -0.3552
 5515SOL     OW28003   3.285   3.568   6.091  0.3221 -0.1514  0.3411
 5515SOL    HW128004   3.253   3.654   6.119 -0.2796 -0.3429  0.2443
 5515SOL    HW228005   3.367   3.596   6.050  0.2319 -0.0727  0.2166
 5516SOL     OW28006   4.556   3.619   5.572 -0.2540  0.1278  0.0178
 5516SOL    HW128007   4.475   3.664   5.598 -0.8684 -0.2195 -1.3139
 5516SOL    HW228008   4.524   3.529   5.568  2.4431 -0.9314  1.8491
 5517SOL     OW28009   1.290   0.441  17.629 -0.0647  0.3477  0.6300
 5517SOL    HW128010   1.347   0.394  17.567 -0.4445 -1.1459  1.4034
 5517SOL    HW228011   1.287   0.377   0.009  2.5239 -1.7888 -1.1487
 5518SOL     OW28012   2.965   2.221  15.369 -0.1703 -0.5167  0.1725
 5518SOL    HW128013   2.939   2.249  15.282  1.9535  0.8165 -0.0515
 5518SOL    HW228014   2.911   2.145  15.389 -0.1901 -0.0891  1.7935
 5519SOL     OW28015   1.071   0.587   4.774  0.0077  0.1689  0.4025
 5519SOL    HW128016   1.010   0.660   4.773  1.8052  1.6531 -0.9824
 5519SOL    HW228017   1.144   0.623   4.824  0.0568 -2.6604  2.3889
 5520SOL     OW28018   4.689   0.014   4.068 -0.0686  0.2951  0.3867
 5520SOL    HW128019   4.704   4.712   4.159  0.1606 -0.6336  0.1035
 5520SOL    HW228020   4.598   0.044   4.078  0.4526  2.5329 -1.6723
 5521SOL     OW28021   3.618   4.620   5.884 -0.0481  0.1746 -0.2567
 5521SOL    HW128022   3.599   4.691   5.821 -1.9290 -0.1605 -0.0602
 5521SOL    HW228023   3.713   4.629   5.882 -0.0781  1.2179  3.0703
 5522SOL     OW28024   0.599   3.859   8.557  0.1117  0.3100 -0.4254
 5522SOL    HW128025   0.571   3.854   8.465  1.1744  0.5700 -0.7647
 5522SOL    HW228026   0.518   3.861   8.609  1.1322 -2.4529  1.2815
 5523SOL     OW28027   3.168   3.718  12.276  0.2128  0.1409 -0.2201
 5523SOL    HW128028   3.075   3.702  12.290  0.1775  0.3101 -0.2587
 5523SOL    HW228029   3.162   3.809  12.245  1.0262  0.5006  0.6683
 5524SOL     OW28030   4.347   3.814  10.956 -0.1289  0.3808  0.3986
 5524SOL    HW128031   4.282   3.823  11.025  1.5417  0.0702  2.0178
 5524SOL    HW228032   4.399   3.891  10.979 -0.2564  0.8795 -0.9902
 5525SOL     OW28033   0.624   2.110  10.116  0.4182 -0.1420 -0.1944
 5525SOL    HW128034   0.553   2.174  10.116  1.2911  0.7998  1.1586
 5525SOL    HW228035   0.635   2.105  10.021  0.4213  0.4447 -0.2225
 5526SOL     OW28036   1.882   3.447   7.715 -0.5616 -0.3412  0.0988
 5526SOL    HW128037   1.865   3.461   7.808 -0.1890 -0.3617  0.1714
 5526SOL    HW228038   1.976   3.459   7.699  0.0225 -2.0841  2.2390
 5527SOL     OW28039   4.313   1.010   7.983 -0.4508  0.2708 -0.5319
 5527SOL    HW128040   4.305   1.025   8.078 -0.3959  0.2729 -0.5277
 5527SOL    HW228041   4.219   1.011   7.966 -0.8287 -3.4163  1.2920
 5528SOL     OW28042   1.418   0.966   5.280 -0.6975 -0.4069 -0.0717
 5528SOL    HW128043   1.382   0.882   5.309  0.1848 -1.4483 -1.9684
 5528SOL    HW228044   1.510   0.947   5.263 -0.1034 -0.6425  3.4354
 5529SOL     OW28045   2.288   2.465   5.418  0.2175 -0.3278 -0.0294
 5529SOL    HW128046   2.371   2.474   5.372  0.2641 -1.3907 -0.1449
 5529SOL    HW228047   2.298   2.388   5.474  0.0862 -0.9601 -0.8703
 5530SOL     OW28048   3.753   2.717   3.331 -0.0915 -0.1430 -0.0792
 5530SOL    HW128049   3.684   2.695   3.270  0.5246  1.4539 -1.3448
 5530SOL    HW228050   3.834   2.727   3.280  1.4273 -1.7797  1.9834
 5531SOL     OW28051   2.178   0.877  15.143  0.2863 -0.2806  0.3764
 5531SOL    HW128052   2.094   0.921  15.158  1.4224  2.0011  0.1295
 5531SOL    HW228053   2.173   0.855  15.050  2.4812 -0.9672  0.4336
 5532SOL     OW28054   2.543   1.808   6.978 -0.0790 -0.3502 -1.2048
 5532SOL    HW128055   2.470   1.799   7.039  1.1652  0.7048  0.4439
 5532SOL    HW228056   2.609   1.859   7.025 -0.2221 -0.1436 -1.2250
 5533SOL     OW28057   0.209   4.647  17.669 -0.2134 -0.2856  0.1094
 5533SOL    HW128058   0.291   4.604  17.643 -0.2797  0.2431 -0.9639
 5533SOL    HW228059   0.202   4.638   0.073  0.1820  1.4454  0.3023
 5534SOL     OW28060   2.212   0.338   1.322  0.6432  0.4747 -0.4030
 5534SOL    HW128061   2.163   0.317   1.242  1.7937 -1.1332 -0.6869
 5534SOL    HW228062   2.133   0.337   1.375  1.7004 -0.0734  1.1630
 5535SOL     OW28063   4.335   1.866   4.752 -0.1562 -0.2948 -0.3269
 5535SOL    HW128064   4.300   1.845   4.839  2.5219 -0.0859  0.8152
 5535SOL    HW228065   4.381   1.784   4.735 -0.3419 -0.8534  1.8333
 5536SOL     OW28066   1.786   4.579   9.201  0.0606  0.0275 -0.1188
 5536SOL    HW128067   1.834   4.528   9.266 -1.6979 -0.0319  1.1537
 5536SOL    HW228068   1.730   4.514   9.158  1.4771 -1.7469  0.7652
 5537SOL     OW28069   1.982   4.048   5.942 -0.0296 -0.4172 -0.0536
 5537SOL    HW128070   1.974   4.056   6.037 -2.1518 -2.3648 -0.0884
 5537SOL    HW228071   2.074   4.072   5.930  0.4759 -1.9049  0.7548
 5538SOL     OW28072   0.218   2.117   4.211  0.9151 -0.0901 -0.0404
 5538SOL    HW128073   0.280   2.052   4.243  2.9297  1.1761 -1.3304
 5538SOL    HW228074   0.251   2.125   4.121 -0.3705  1.5573 -0.3729
 5539SOL     OW28075   1.578   4.632   6.734 -0.2842  0.4309 -0.6192
 5539SOL    HW128076   1.564   4.700   6.668  0.3293  0.0658 -1.1266
 5539SOL    HW228077   1.673   4.633   6.745 -0.5375  3.2674  1.3628
 5540SOL     OW28078   4.294   3.617   3.109 -0.5876  0.1348 -0.5507
 5540SOL    HW128079   4.321   3.596   3.198  1.0166 -0.9882 -1.2984
 5540SOL    HW228080   4.209   3.660   3.112 -1.6674 -1.9432 -0.9095
 5541SOL     OW28081   4.390   4.019   2.621  0.0149 -0.4979  0.1126
 5541SOL    HW128082   4.324   4.080   2.589  3.2200  3.5573  1.2707
 5541SOL    HW228083   4.374   3.943   2.565 -0.4434 -0.2383 -0.1039
 5542SOL     OW28084   3.300   3.799   0.797 -0.1276 -0.0684  0.0643
 5542SOL    HW128085   3.221   3.746   0.809 -0.9667  0.8303 -1.5211
 5542SOL    HW228086   3.326   3.816   0.888  0.2034  0.8500 -0.2001
 5543SOL     OW28087   0.043   0.953  12.777  0.2379  0.0070 -0.6675
 5543SOL    HW128088   0.089   0.870  12.788  0.8851  0.4518 -0.0411
 5543SOL    HW228089   0.110   1.017  12.796  0.6865 -0.8241  0.5467
 5544SOL     OW28090   0.978   0.480   7.444 -0.2886 -0.1172  0.0889
 5544SOL    HW128091   1.070   0.471   7.417  0.1025 -0.6947  1.6314
 5544SOL    HW228092   0.934   0.471   7.360 -0.2796 -1.8730  0.2786
 5545SOL     OW28093   0.360   0.360   3.821 -0.2575 -0.1147 -0.4319
 5545SOL    HW128094   0.310   0.294   3.869  2.5666 -1.0380  1.2061
 5545SOL    HW228095   0.297   0.432   3.812  0.5612  0.9253  2.2626
 5546SOL     OW28096   2.211   1.698   8.039  0.2383 -0.3247  0.2260
 5546SOL    HW128097   2.211   1.729   8.130  0.4103  1.5391 -0.4139
 5546SOL    HW228098   2.280   1.634   8.057  0.7893 -0.2046 -1.4500
 5547SOL     OW28099   1.844   0.649   8.383 -0.4337  0.2120  0.1900
 5547SOL    HW128100   1.757   0.689   8.386 -0.9720 -0.9171 -0.5219
 5547SOL    HW228101   1.849   0.625   8.291 -0.7157 -1.8603  0.7171
 5548SOL     OW28102   4.336   2.473  15.581 -0.0829  0.3701  0.8428
 5548SOL    HW128103   4.282   2.399  15.605  0.3456 -0.5190 -0.9590
 5548SOL    HW228104   4.289   2.505  15.504  0.1022  2.4340  1.5901
 5549SOL     OW28105   1.683   0.422   0.835  0.5415  0.0689  0.1650
 5549SOL    HW128106   1.632   0.451   0.910 -0.1364 -0.2758 -0.1679
 5549SOL    HW228107   1.658   0.476   0.760 -0.5301 -1.2893 -0.4586
 5550SOL     OW28108   4.288   4.117   9.042 -0.0311  0.8186 -0.3956
 5550SOL    HW128109   4.307   4.029   9.076 -2.9923  0.2290 -0.2617
 5550SOL    HW228110   4.204   4.089   9.006 -0.0461  0.9409 -0.4522
 5551SOL     OW28111   0.438   1.815  10.238  0.0416 -0.0545 -0.0048
 5551SOL    HW128112   0.363   1.869  10.214  1.4449  1.7839 -0.2402
 5551SOL    HW228113   0.506   1.882  10.244 -1.7120  1.9916 -2.9556
 5552SOL     OW28114   1.165   4.695   5.013 -0.2065  0.4778  0.1786
 5552SOL    HW128115   1.084   0.022   5.004 -0.3934 -0.0112 -0.7809
 5552SOL    HW228116   1.224   0.028   5.064 -0.0058  0.6754 -0.2657
 5553SOL     OW28117   4.366   0.431   7.635 -0.5052  0.0135  0.2262
 5553SOL    HW128118   4.375   0.508   7.692 -2.7493 -1.0677  2.0308
 5553SOL    HW228119   4.273   0.416   7.649 -0.7837  1.9157  0.3392
 5554SOL     OW28120   0.435   4.616   6.650  0.1740 -0.1622 -0.2034
 5554SOL    HW128121   0.487   4.540   6.623  1.1816 -0.0630  1.4311
 5554SOL    HW228122   0.411   4.582   6.736 -0.2049 -1.3977 -0.7934
 5555SOL     OW28123   3.164   3.466   7.424 -0.3290  0.3999  0.2739
 5555SOL    HW128124   3.097   3.420   7.475 -0.5876 -0.7103 -1.0480
 5555SOL    HW228125   3.112   3.533   7.381  0.8936 -0.0037 -1.8499
 5556SOL     OW28126   1.726   0.549   3.193 -0.2137  0.8616  0.0972
 5556SOL    HW128127   1.767   0.572   3.110 -2.3021  0.3178 -1.0650
 5556SOL    HW228128   1.783   0.590   3.258  3.0282  1.4547 -3.1132
 5557SOL     OW28129   2.304   3.628  15.482 -0.6170 -0.0021  0.5648
 5557SOL    HW128130   2.391   3.616  15.444 -0.2237  1.4032  1.0149
 5557SOL    HW228131   2.307   3.714  15.524  3.4209  0.8977 -1.6007
 5558SOL     OW28132   0.865   1.446   2.727  0.3524 -0.0033  0.2440
 5558SOL    HW128133   0.897   1.428   2.639 -1.7714 -1.2662 -0.2695
 5558SOL    HW228134   0.805   1.375   2.749 -0.1350  0.6925  1.1532
 5559SOL     OW28135   2.644   2.092  14.039  0.0531  0.0498 -0.8752
 5559SOL    HW128136   2.558   2.128  14.018  0.4179  0.4582 -1.6604
 5559SOL    HW228137   2.613   2.034  14.108  1.1660 -0.2561 -0.6285
 5560SOL     OW28138   2.839   1.543   5.263 -0.0230 -0.0516 -0.3920
 5560SOL    HW128139   2.861   1.506   5.348  0.2023  0.8282 -0.0660
 5560SOL    HW228140   2.832   1.636   5.286  1.1092 -0.8779  3.1180
 5561SOL     OW28141   4.366   0.959   3.901  0.3641 -0.5027 -0.2091
 5561SOL    HW128142   4.395   0.901   3.972  3.0403  0.3552 -0.6070
 5561SOL    HW228143   4.394   0.915   3.821  1.4929  1.4318 -0.8833
 5562SOL     OW28144   0.002   4.049   9.130 -0.1918  0.1357  0.1254
 5562SOL    HW128145   0.042   3.962   9.135  0.2662  0.3078 -0.5058
 5562SOL    HW228146   0.027   4.100   9.207  1.0209 -0.0167 -0.1548
 5563SOL     OW28147   0.628   4.680   1.522 -0.3924 -0.0987  0.6889
 5563SOL    HW128148   0.590   4.601   1.560 -1.3020 -0.2804 -0.5968
 5563SOL    HW228149   0.552   0.001   1.483  0.2051  0.2903 -0.0456
 5564SOL     OW28150   1.500   3.102  14.058 -0.6028  0.2332 -0.0786
 5564SOL    HW128151   1.525   3.012  14.034 -0.5774  0.5609 -1.2753
 5564SOL    HW228152   1.412   3.085  14.091 -0.9093  0.9763 -0.5173
 5565SOL     OW28153   0.447   2.054   2.498  0.7218  0.1419  0.3342
 5565SOL    HW128154   0.450   2.132   2.554 -1.4980  0.6317 -0.2152
 5565SOL    HW228155   0.492   2.087   2.420 -2.3052  2.8944 -0.2769
 5566SOL     OW28156   0.307   2.417  15.862 -0.2627  0.4153  0.3836
 5566SOL    HW128157   0.222   2.397  15.822  0.1510 -0.7888  0.0888
 5566SOL    HW228158   0.311   2.338  15.916  1.4900  0.6406  0.5808
 5567SOL     OW28159   0.915   2.327  17.451  0.3935  0.4416 -0.5404
 5567SOL    HW128160   0.879   2.322  17.539  0.2011  3.6351 -0.4556
 5567SOL    HW228161   0.864   2.399  17.413 -0.9182 -1.1331 -1.7635
 5568SOL     OW28162   1.257   1.584  12.654 -0.2390 -0.0379 -0.5063
 5568SOL    HW128163   1.202   1.538  12.590 -0.9803  0.1074  0.0328
 5568SOL    HW228164   1.254   1.520  12.725  1.8759  2.3760  1.7278
 5569SOL     OW28165   1.190   0.513  13.226  0.1174  0.0243  0.1771
 5569SOL    HW128166   1.285   0.526  13.223  0.1316  0.2638  1.6650
 5569SOL    HW228167   1.184   0.580  13.158  0.8229 -1.4058 -1.2809
 5570SOL     OW28168   3.638   1.466  12.135  0.2029  0.6010 -0.3667
 5570SOL    HW128169   3.649   1.503  12.047 -2.1056  1.0661 -0.4583
 5570SOL    HW228170   3.621   1.545  12.185  0.1600  1.1081 -1.1780
 5571SOL     OW28171   3.719   1.673   9.258  0.2796  0.3031 -0.2220
 5571SOL    HW128172   3.724   1.586   9.296  2.0578  0.7403  0.5590
 5571SOL    HW228173   3.736   1.724   9.337  1.9706 -0.3023 -0.1980
 5572SOL     OW28174   4.256   0.830   4.924 -0.1421  0.1086 -0.6141
 5572SOL    HW128175   4.219   0.841   5.012  0.7672 -1.3224 -0.0424
 5572SOL    HW228176   4.265   0.734   4.924  0.3212  0.1346  1.7517
 5573SOL     OW28177   1.361   2.193   3.127  0.0153 -0.1225  0.0649
 5573SOL    HW128178   1.324   2.218   3.042  0.5309 -0.1849 -0.1779
 5573SOL    HW228179   1.348   2.276   3.172  0.3270  0.3304 -0.6763
 5574SOL     OW28180   2.018   0.703  16.902 -0.5701  0.4778  0.3058
 5574SOL    HW128181   2.080   0.738  16.966  1.3393 -0.7091 -0.9333
 5574SOL    HW228182   1.938   0.690  16.953  0.5164 -2.9127  1.1637
 5575SOL     OW28183   2.432   2.735   5.024  0.4227 -0.1387  0.3557
 5575SOL    HW128184   2.414   2.825   4.997  0.8823 -0.3768 -0.7422
 5575SOL    HW228185   2.487   2.746   5.102  0.7949 -1.3869  0.2709
 5576SOL     OW28186   3.702   1.557   3.639 -0.2213 -0.2362  0.6294
 5576SOL    HW128187   3.620   1.605   3.626 -0.6891 -1.4577 -0.9399
 5576SOL    HW228188   3.754   1.614   3.582 -0.5953 -0.4376  0.0850
 5577SOL     OW28189   3.923   0.690   5.583 -0.7476  0.2617 -0.3840
 5577SOL    HW128190   3.979   0.762   5.555 -0.2523  0.4454  1.0779
 5577SOL    HW228191   3.974   0.612   5.557 -0.0589  1.0590 -1.4154
 5578SOL     OW28192   2.075   3.142   7.061  0.0025 -0.0094  0.0334
 5578SOL    HW128193   2.010   3.210   7.080  1.6573  1.5193  0.1687
 5578SOL    HW228194   2.143   3.190   7.013 -0.0477 -1.1512 -1.2055
 5579SOL     OW28195   4.316   0.613   3.511  0.7976 -0.4684 -0.3875
 5579SOL    HW128196   4.263   0.572   3.580  1.1312 -2.4213 -1.2832
 5579SOL    HW228197   4.388   0.555   3.487  0.7998 -1.0189  0.9571
 5580SOL     OW28198   0.070   1.447  17.533  0.3914 -0.6387  0.8160
 5580SOL    HW128199   0.143   1.385  17.539 -1.1932 -2.2808  2.9736
 5580SOL    HW228200   0.100   1.512  17.469 -0.2271 -2.5171 -1.3938
 5581SOL     OW28201   1.937   2.137  10.015 -0.1397  0.6204 -0.5133
 5581SOL    HW128202   1.970   2.165  10.101 -1.1982 -0.9781  0.4083
 5581SOL    HW228203   1.861   2.083  10.034  1.4546 -1.9570 -1.5247
 5582SOL     OW28204   1.858   0.688  11.846  0.0748  0.5845  0.4700
 5582SOL    HW128205   1.949   0.677  11.819  0.3999  1.1634  1.3397
 5582SOL    HW228206   1.805   0.682  11.767 -0.7060  2.7186  0.8435
 5583SOL     OW28207   4.636   4.490   2.234 -0.0980 -0.3833  0.1609
 5583SOL    HW128208   4.677   4.551   2.173  1.1457 -0.2690  1.0950
 5583SOL    HW228209   4.700   4.493   2.306  0.6007 -0.5039 -0.4536
 5584SOL     OW28210   1.732   3.201   4.907 -0.3861  0.6659 -0.0655
 5584SOL    HW128211   1.792   3.144   4.954 -1.0421 -0.5089 -0.6604
 5584SOL    HW228212   1.774   3.219   4.823 -1.5056  0.1359 -0.7411
 5585SOL     OW28213   1.478   0.020  12.609  0.1047 -0.5744  0.1784
 5585SOL    HW128214   1.464   4.650  12.586  1.7046 -0.8017  0.1072
 5585SOL    HW228215   1.574   0.017  12.601  0.2647  0.1858  1.9147
 5586SOL     OW28216   3.842   0.659   6.328  0.1885  0.0557 -0.6308
 5586SOL    HW128217   3.810   0.665   6.418 -0.6056  1.7258 -1.0060
 5586SOL    HW228218   3.937   0.665   6.339 -0.0021  2.3387 -0.1289
 5587SOL     OW28219   3.473   0.088   5.733 -0.1879  0.9607 -0.0613
 5587SOL    HW128220   3.554   0.110   5.687  2.2934 -0.0713  3.8175
 5587SOL    HW228221   3.419   0.167   5.731 -3.1365 -1.0245 -0.3750
 5588SOL     OW28222   0.263   0.933  10.851  0.1243  0.2287 -0.1605
 5588SOL    HW128223   0.240   0.997  10.917 -0.1204 -1.2250  1.1722
 5588SOL    HW228224   0.243   0.850  10.894  2.2775  0.5047  1.4026
 5589SOL     OW28225   0.845   0.112   7.234 -0.0516  0.0703 -0.2796
 5589SOL    HW128226   0.868   0.030   7.278 -1.3618 -0.6496 -0.9354
 5589SOL    HW228227   0.929   0.149   7.208 -0.8314  2.4691  0.6477
 5590SOL     OW28228   0.609   0.179   7.698  0.5093 -0.2866 -0.0455
 5590SOL    HW128229   0.688   0.169   7.645  0.7088 -0.6464  0.3211
 5590SOL    HW228230   0.564   0.095   7.687 -1.6000  0.5228  2.3761
 5591SOL     OW28231   2.301   3.780   8.898  0.0599  0.3022 -0.2313
 5591SOL    HW128232   2.297   3.767   8.993  0.3811  0.0630 -0.2539
 5591SOL    HW228233   2.342   3.699   8.870  1.8502  1.4220 -0.8136
 5592SOL     OW28234   1.895   3.393   5.327  0.2824 -0.3743  0.3314
 5592SOL    HW128235   1.932   3.444   5.399  0.2061 -1.7259  1.3433
 5592SOL    HW228236   1.841   3.457   5.282  1.3915 -0.9888 -1.8488
 5593SOL     OW28237   4.588   0.407   1.573 -0.0680 -0.3777  0.2121
 5593SOL    HW128238   4.615   0.346   1.505  1.3929 -0.5409  0.9472
 5593SOL    HW228239   4.498   0.376   1.581 -0.5084  0.5330 -1.1414
 5594SOL     OW28240   2.612   1.606  13.493  0.1929  0.8885 -0.2112
 5594SOL    HW128241   2.674   1.633  13.425 -0.4252 -0.4346 -1.3011
 5594SOL    HW228242   2.643   1.653  13.570 -0.3149  1.1421 -0.1590
 5595SOL     OW28243   3.023   4.622   4.065 -0.0779  0.2364 -0.6454
 5595SOL    HW128244   3.054   4.561   3.999  0.8450  0.3060 -0.2730
 5595SOL    HW228245   2.931   4.598   4.078  0.4650 -2.1480 -1.2382
 5596SOL     OW28246   3.583   3.863   8.872  0.2549  0.1612  0.2128
 5596SOL    HW128247   3.501   3.912   8.864  0.8753  1.4196  1.3764
 5596SOL    HW228248   3.621   3.851   8.785 -0.8925 -0.6205 -0.1775
 5597SOL     OW28249   0.783   4.078   1.778 -0.1321 -0.6332  0.5188
 5597SOL    HW128250   0.707   4.132   1.799 -0.4432 -0.9779  0.2790
 5597SOL    HW228251   0.745   4.011   1.721  0.8847 -0.6515 -0.1344
 5598SOL     OW28252   0.262   2.496   5.731  0.2872 -0.1198 -0.1789
 5598SOL    HW128253   0.349   2.512   5.693  0.1175 -1.2575 -1.0454
 5598SOL    HW228254   0.244   2.419   5.677 -0.7354  0.8850 -1.2818
 5599SOL     OW28255   3.362   1.937   8.787 -0.0253  0.2977 -0.3945
 5599SOL    HW128256   3.290   1.876   8.775  0.2852 -0.4193  1.2904
 5599SOL    HW228257   3.323   2.024   8.776 -1.4304 -0.2677  0.1603
 5600SOL     OW28258   1.219   4.522   8.985 -0.2827  0.4494 -0.0951
 5600SOL    HW128259   1.248   4.529   8.894  1.0328 -2.6732  0.0734
 5600SOL    HW228260   1.302   4.506   9.030 -0.5887 -0.1677  0.2498
 5601SOL     OW28261   1.298   3.550   1.479  0.2142  0.2351  0.0078
 5601SOL    HW128262   1.379   3.503   1.457  0.8468  1.7310 -0.9037
 5601SOL    HW228263   1.321   3.623   1.537  0.9665  0.1043 -0.1198
 5602SOL     OW28264   2.088   2.124  15.620  0.1600 -0.2307  0.0289
 5602SOL    HW128265   2.094   2.220  15.613 -0.9799 -0.3398 -2.7274
 5602SOL    HW228266   2.020   2.125  15.687 -0.3497 -1.8882 -0.4673
 5603SOL     OW28267   0.964   3.168  11.826 -0.4760  0.5966 -0.5314
 5603SOL    HW128268   0.943   3.218  11.905  0.4656  3.8532 -2.3216
 5603SOL    HW228269   0.914   3.088  11.842 -2.3925  1.8401 -0.2498
 5604SOL     OW28270   0.615   0.408   7.052  0.1582  0.0878  0.0829
 5604SOL    HW128271   0.702   0.426   7.016  0.6868 -0.2844  1.1637
 5604SOL    HW228272   0.620   0.312   7.056 -3.5111 -0.1345 -1.3957
 5605SOL     OW28273   0.094   2.886   0.362 -0.4244 -0.4216 -0.5030
 5605SOL    HW128274   0.043   2.836   0.298  0.1057  2.2623 -3.0183
 5605SOL    HW228275   0.024   2.913   0.422 -0.8870 -0.2004 -1.1394
 5606SOL     OW28276   3.903   3.238   5.006 -0.0851  0.1841  0.3323
 5606SOL    HW128277   3.907   3.239   5.102  1.5118 -0.9009  0.2674
 5606SOL    HW228278   3.963   3.311   4.995 -1.6995  1.6340  0.9718
 5607SOL     OW28279   2.396   0.122  16.044  0.1218 -0.1915 -0.1484
 5607SOL    HW128280   2.396   0.213  16.015 -1.0368 -0.2426 -0.3163
 5607SOL    HW228281   2.361   0.078  15.967 -1.4205  0.8782 -0.0717
 5608SOL     OW28282   4.549   2.051   8.485 -0.0244 -0.7618 -0.1067
 5608SOL    HW128283   4.504   2.073   8.566  1.4415  2.1568 -0.0776
 5608SOL    HW228284   4.517   2.124   8.431  0.6243 -0.6042 -0.2776
 5609SOL     OW28285   3.035   3.828   3.417  0.0564 -0.1667 -0.0080
 5609SOL    HW128286   2.986   3.854   3.339 -0.3581  0.6941  0.5418
 5609SOL    HW228287   3.010   3.736   3.423  0.1186 -0.1437  0.6158
 5610SOL     OW28288   2.603   1.827  14.810 -0.8176 -0.0808 -0.0680
 5610SOL    HW128289   2.654   1.749  14.786 -1.2886  0.5667 -3.0985
 5610SOL    HW228290   2.598   1.870  14.725  0.0147  0.4789  0.1684
 5611SOL     OW28291   1.620   2.310  11.153  0.5644 -0.3850 -0.1298
 5611SOL    HW128292   1.648   2.227  11.114  2.1409 -0.1952  0.5779
 5611SOL    HW228293   1.686   2.319  11.222 -0.8168  1.8249  0.9054
 5612SOL     OW28294   4.285   2.376   3.983  0.5321 -0.2182 -0.2957
 5612SOL    HW128295   4.285   2.305   4.047  0.4812  0.1489  0.1145
 5612SOL    HW228296   4.207   2.341   3.939 -0.0066 -0.7191  1.0453
 5613SOL     OW28297   1.929   3.814   0.951 -0.0729  0.0213  0.5693
 5613SOL    HW128298   1.970   3.732   0.924  0.0073  0.3523 -0.2914
 5613SOL    HW228299   2.001   3.851   1.001  0.6029  0.0731 -0.4516
 5614SOL     OW28300   0.497   0.434   5.413  0.0894 -0.6194  0.2974
 5614SOL    HW128301   0.444   0.513   5.408  0.8881 -0.1148 -0.3347
 5614SOL    HW228302   0.514   0.431   5.318 -0.0194  0.3485  0.2485
 5615SOL     OW28303   4.705   3.079   5.899  0.0844  0.6862  0.6706
 5615SOL    HW128304   4.663   3.034   5.972  0.3962  1.5314  1.3627
 5615SOL    HW228305   0.013   3.001   5.853 -1.4868  1.7916 -2.2614
 5616SOL     OW28306   1.126   3.656   9.434 -0.5401  0.5692  0.3476
 5616SOL    HW128307   1.077   3.597   9.376 -0.3612  0.3187  0.4535
 5616SOL    HW228308   1.114   3.734   9.379 -0.7981  0.7716  0.6960
 5617SOL     OW28309   1.795   3.996   8.562 -0.2456  0.2002 -0.4074
 5617SOL    HW128310   1.708   4.020   8.528 -0.4290 -0.7369 -0.6004
 5617SOL    HW228311   1.791   4.031   8.651  2.2682 -1.1148  0.2062
 5618SOL     OW28312   3.533   0.526  10.162  0.4893 -0.2535  0.4926
 5618SOL    HW128313   3.596   0.545  10.232  1.6960  3.6264 -1.6012
 5618SOL    HW228314   3.598   0.525  10.091 -0.0953 -2.3420  0.0101
 5619SOL     OW28315   3.083   4.111   5.935 -0.5789 -0.1252 -0.3009
 5619SOL    HW128316   3.044   4.103   6.021  0.6717 -1.6780  0.1284
 5619SOL    HW228317   3.135   4.188   5.958 -0.1308  0.0522 -1.8659
 5620SOL     OW28318   4.480   1.616   4.717 -1.0284 -0.0363 -0.0828
 5620SOL    HW128319   4.543   1.684   4.694 -2.1245  0.6458 -1.0631
 5620SOL    HW228320   4.514   1.583   4.800 -0.8977  0.6232  0.1265
 5621SOL     OW28321   1.943   4.471   2.182  0.1571 -0.5221  0.0553
 5621SOL    HW128322   1.907   4.553   2.216  1.4113  0.1202 -0.1689
 5621SOL    HW228323   1.912   4.402   2.241  0.0983 -1.5287 -1.1509
 5622SOL     OW28324   0.432   1.955   9.846 -0.4715 -0.2939  0.2452
 5622SOL    HW128325   0.428   1.860   9.853  2.9629 -0.3434  1.1515
 5622SOL    HW228326   0.527   1.966   9.844 -0.4990 -0.4051 -1.7089
 5623SOL     OW28327   2.962   2.399  16.990  0.1928  0.1222  0.3254
 5623SOL    HW128328   3.051   2.405  16.956  0.4145 -0.5826  0.7848
 5623SOL    HW228329   2.960   2.483  17.036 -2.5904  0.2172  0.0777
 5624SOL     OW28330   3.982   0.982   8.407  0.0245 -0.4439  0.0823
 5624SOL    HW128331   4.048   0.915   8.423  0.5583 -0.5038 -2.3646
 5624SOL    HW228332   4.034   1.055   8.441  2.0725 -1.0555 -1.7491
 5625SOL     OW28333   1.087   4.216   8.022  0.8234 -0.7289  0.1618
 5625SOL    HW128334   1.031   4.293   8.033  0.1123 -0.9534 -1.8555
 5625SOL    HW228335   1.156   4.271   7.984 -0.3266  0.5888 -0.0483
 5626SOL     OW28336   3.198   3.001   6.709  0.1175 -0.0714 -0.4854
 5626SOL    HW128337   3.197   3.029   6.800 -1.7092  0.7242 -0.7421
 5626SOL    HW228338   3.105   2.988   6.689 -0.1124  2.1197 -0.7770
 5627SOL     OW28339   4.102   2.252  10.950 -0.4602 -0.6137  0.6335
 5627SOL    HW128340   4.163   2.306  11.000 -0.5401  0.1029 -0.0425
 5627SOL    HW228341   4.126   2.275  10.860  1.3146  2.1992  1.8161
 5628SOL     OW28342   0.675   1.231   2.812  0.2170  0.0328  0.1824
 5628SOL    HW128343   0.657   1.253   2.903 -1.3968 -0.7460  0.0563
 5628SOL    HW228344   0.604   1.166   2.805  1.2703 -0.9465 -1.5968
 5629SOL     OW28345   3.320   1.990   0.388  0.4741 -0.2624  0.1745
 5629SOL    HW128346   3.242   1.994   0.443  0.9470  2.8249  0.6349
 5629SOL    HW228347   3.341   2.083   0.396  1.6880 -0.7949  3.1136
 5630SOL     OW28348   3.849   2.235   7.960 -0.3140  0.1282  0.1438
 5630SOL    HW128349   3.932   2.228   7.912  0.2897 -1.3894  1.3707
 5630SOL    HW228350   3.871   2.159   8.014  0.1254 -0.0886 -0.3338
 5631SOL     OW28351   0.526   3.664   1.400 -0.7655 -0.3174 -0.5150
 5631SOL    HW128352   0.581   3.674   1.323  1.3656 -4.7724  0.4605
 5631SOL    HW228353   0.599   3.647   1.460  0.2265  0.6640 -1.4397
 5632SOL     OW28354   3.966   0.424  11.573  0.0941  0.5488  0.5025
 5632SOL    HW128355   4.048   0.462  11.543  1.8154 -1.7828  2.2772
 5632SOL    HW228356   3.923   0.506  11.597  1.0149  1.1125  0.2328
 5633SOL     OW28357   1.476   0.623  13.193  0.5323  0.1931 -0.6140
 5633SOL    HW128358   1.435   0.708  13.209 -0.2221 -0.4671  1.0365
 5633SOL    HW228359   1.563   0.636  13.156  0.9304 -2.9667 -0.8239
 5634SOL     OW28360   3.683   2.818  15.434 -0.0449  0.1845  0.2839
 5634SOL    HW128361   3.682   2.901  15.386 -1.5073  2.4340  4.2262
 5634SOL    HW228362   3.610   2.775  15.389  1.1891 -0.5972 -1.0027
 5635SOL     OW28363   4.652   1.084  11.758  0.4430 -0.5262  0.2273
 5635SOL    HW128364   4.598   1.006  11.767 -1.7812  0.9550 -0.1929
 5635SOL    HW228365   0.008   1.059  11.807 -0.1670 -1.7092  0.5963
 5636SOL     OW28366   4.632   4.281   5.995  0.1353 -0.2949  0.2721
 5636SOL    HW128367   4.618   4.370   6.028 -1.1605  0.4781 -2.3767
 5636SOL    HW228368   0.004   4.268   5.986  0.4081  0.1645  2.4995
 5637SOL     OW28369   1.868   0.466   8.846  0.1065 -0.1735  0.4452
 5637SOL    HW128370   1.774   0.474   8.865  0.2870  2.0209  0.5032
 5637SOL    HW228371   1.899   0.554   8.867 -0.7547  0.3126 -0.2741
 5638SOL     OW28372   1.155   0.359  17.350  0.3360 -0.4943 -0.2599
 5638SOL    HW128373   1.215   0.333  17.420 -1.4649 -0.3040  1.3524
 5638SOL    HW228374   1.119   0.272  17.331  1.7621 -0.6156 -2.5347
 5639SOL     OW28375   1.540   2.849  12.168  0.2997 -0.4844  0.1179
 5639SOL    HW128376   1.499   2.781  12.116 -1.4649 -0.6135  1.6832
 5639SOL    HW228377   1.475   2.918  12.158  0.9874  0.3943  1.6621
 5640SOL     OW28378   3.965   4.464   2.539 -0.8237  0.5981 -0.2834
 5640SOL    HW128379   3.894   4.400   2.538  0.0884 -0.4373  0.2123
 5640SOL    HW228380   4.026   4.439   2.609  0.0382 -0.6070 -1.4637
 5641SOL     OW28381   0.495   1.410   4.360  0.0559  0.5072  0.0881
 5641SOL    HW128382   0.417   1.371   4.399 -0.9661 -1.2043 -3.7573
 5641SOL    HW228383   0.560   1.365   4.414 -0.5464 -0.8533 -0.3295
 5642SOL     OW28384   1.920   0.883   9.217 -0.5357  0.4906 -0.2866
 5642SOL    HW128385   1.970   0.817   9.265  1.4021  0.5468 -2.2119
 5642SOL    HW228386   1.833   0.844   9.207  0.5592 -1.6135 -1.6578
 5643SOL     OW28387   3.090   2.037   0.537 -0.5077 -0.4550 -0.0757
 5643SOL    HW128388   3.079   2.002   0.625  0.0771  1.3591  0.7354
 5643SOL    HW228389   2.999   2.035   0.508 -0.4772 -2.2522 -0.0001
 5644SOL     OW28390   0.735   0.574   5.100  0.2309 -0.1036  0.4496
 5644SOL    HW128391   0.730   0.647   5.161 -1.2754  1.7364 -1.8692
 5644SOL    HW228392   0.807   0.610   5.047 -1.5923  2.5829 -0.2117
 5645SOL     OW28393   3.321   4.255   2.347 -0.5003 -0.1870  0.1273
 5645SOL    HW128394   3.252   4.322   2.338  0.7160  1.0163 -0.1705
 5645SOL    HW228395   3.280   4.218   2.425 -1.0517  1.3492  0.5852
 5646SOL     OW28396   0.449   3.616   8.768  0.0737 -0.4343  0.0909
 5646SOL    HW128397   0.359   3.591   8.790  0.0690 -1.9166 -1.6797
 5646SOL    HW228398   0.453   3.712   8.771  0.5647 -0.4709  0.6690
 5647SOL     OW28399   1.268   4.394   1.751 -0.1524  0.0044  0.1681
 5647SOL    HW128400   1.207   4.352   1.812 -0.8411  1.0785  0.2241
 5647SOL    HW228401   1.338   4.332   1.772 -1.1946 -1.2270  0.0165
 5648SOL     OW28402   2.737   2.874   4.610 -0.0272  0.0615  0.2900
 5648SOL    HW128403   2.706   2.891   4.699 -2.7453 -1.4405 -0.3532
 5648SOL    HW228404   2.830   2.865   4.631  0.4758 -0.1774 -1.9943
 5649SOL     OW28405   2.133   3.430  11.067  0.3429 -0.4547 -0.3374
 5649SOL    HW128406   2.107   3.495  11.002  0.3555 -0.3341 -0.2236
 5649SOL    HW228407   2.157   3.354  11.014  1.2618 -0.1501 -0.3681
 5650SOL     OW28408   3.034   0.627  10.594 -0.5869  0.3103 -0.0894
 5650SOL    HW128409   3.078   0.624  10.509 -1.5561 -2.4760 -0.5040
 5650SOL    HW228410   3.009   0.536  10.615 -2.4819  0.1260 -3.1662
 5651SOL     OW28411   4.428   3.814   3.908 -0.1434 -0.4432  0.5186
 5651SOL    HW128412   4.428   3.845   3.817 -1.5860 -1.8831  0.0173
 5651SOL    HW228413   4.501   3.752   3.910 -0.4303 -0.7724  0.9499
 5652SOL     OW28414   4.294   4.230   4.024  0.1872 -0.4216  0.3332
 5652SOL    HW128415   4.261   4.149   4.063 -1.5702 -1.1193 -2.6016
 5652SOL    HW228416   4.240   4.236   3.945 -0.7182 -1.1218  0.9019
 5653SOL     OW28417   3.756   2.952   4.277 -0.1848 -0.0672  0.3503
 5653SOL    HW128418   3.704   2.874   4.295  1.3048 -1.5227 -1.7175
 5653SOL    HW228419   3.802   2.958   4.361 -0.9308  0.6495  0.7116
 5654SOL     OW28420   4.188   3.179   7.548 -0.1243 -0.2253  0.7192
 5654SOL    HW128421   4.168   3.261   7.503 -1.7073  1.4203  4.4214
 5654SOL    HW228422   4.262   3.146   7.496  0.5163  2.2611  0.0753
 5655SOL     OW28423   1.153   2.554   3.688 -0.2870  0.3273 -0.0425
 5655SOL    HW128424   1.069   2.514   3.667 -1.1428  1.7741  0.6663
 5655SOL    HW228425   1.126   2.645   3.685 -0.6639  0.2294  0.3211
 5656SOL     OW28426   1.028   4.467   5.386  0.1896 -0.2186 -0.2325
 5656SOL    HW128427   1.108   4.445   5.338 -0.4553  0.0089 -1.4238
 5656SOL    HW228428   1.023   4.403   5.457  1.0230 -0.2481 -0.1919
 5657SOL     OW28429   2.447   3.241   6.686 -0.2521 -0.5037  0.9350
 5657SOL    HW128430   2.420   3.328   6.657 -2.5962 -1.4659  0.2166
 5657SOL    HW228431   2.374   3.222   6.744  0.3066 -1.9254  1.1872
 5658SOL     OW28432   2.846   3.941  15.190 -0.4426  0.7534  0.5499
 5658SOL    HW128433   2.776   3.918  15.128  2.6040  0.0872 -2.6385
 5658SOL    HW228434   2.808   4.011  15.243 -0.8128  0.8926  0.0990
 5659SOL     OW28435   2.241   0.341   6.703  0.5520  0.4319  0.7663
 5659SOL    HW128436   2.309   0.279   6.730 -0.0298 -0.4100  0.3096
 5659SOL    HW228437   2.215   0.300   6.620  2.1205 -2.0090  1.4709
 5660SOL     OW28438   0.542   3.304   7.422  0.4908  0.1366 -0.0704
 5660SOL    HW128439   0.552   3.359   7.500  0.9401  2.7829 -1.9884
 5660SOL    HW228440   0.492   3.363   7.365 -0.4725 -1.7812 -1.2153
 5661SOL     OW28441   3.818   2.801   8.889 -0.3894 -0.6376  0.0866
 5661SOL    HW128442   3.869   2.825   8.811  1.5988 -4.1065  0.2824
 5661SOL    HW228443   3.782   2.716   8.865 -0.2894 -0.6779  0.0776
 5662SOL     OW28444   3.611   1.729   8.305 -0.2343 -0.2919 -0.3204
 5662SOL    HW128445   3.577   1.783   8.377 -0.7753 -0.6952 -0.2699
 5662SOL    HW228446   3.610   1.795   8.235 -0.5045  0.1982  0.1455
 5663SOL     OW28447   4.226   0.390   0.041  0.5826  0.0698 -0.2944
 5663SOL    HW128448   4.148   0.347   0.006  0.8512 -2.1703  1.8666
 5663SOL    HW228449   4.204   0.483   0.038  0.0364  0.0195  2.6040
 5664SOL     OW28450   2.774   3.149   9.321  0.2500  0.1694  0.0106
 5664SOL    HW128451   2.699   3.150   9.380  1.9903  1.9076  2.2002
 5664SOL    HW228452   2.782   3.244   9.318  0.4627  0.1016 -1.6852
 5665SOL     OW28453   0.795   4.364   2.367 -0.5881  0.0527  0.1533
 5665SOL    HW128454   0.700   4.378   2.360 -0.0684  1.9177 -3.3245
 5665SOL    HW228455   0.809   4.337   2.276  0.4621  0.9950  0.0388
 5666SOL     OW28456   2.684   2.025   5.936 -0.5973 -0.1415 -0.6345
 5666SOL    HW128457   2.620   1.978   5.989  0.8959 -0.6505  0.7460
 5666SOL    HW228458   2.739   2.057   6.008 -1.5962  0.3086 -0.0701
 5667SOL     OW28459   1.300   4.093  13.439  0.1558 -0.0040 -0.5627
 5667SOL    HW128460   1.246   4.145  13.378  0.2385  1.6349  0.7679
 5667SOL    HW228461   1.379   4.085  13.385  0.3482  0.7838 -0.4034
 5668SOL     OW28462   2.020   1.662   3.368  0.2586 -0.3869 -0.2858
 5668SOL    HW128463   1.968   1.596   3.412 -1.7349  1.6490  0.4350
 5668SOL    HW228464   2.076   1.704   3.433  1.3532  0.3403 -1.6684
 5669SOL     OW28465   1.987   3.566  11.982 -0.4922  0.3154 -0.7364
 5669SOL    HW128466   1.959   3.579  12.073 -0.5819 -0.7729 -0.6052
 5669SOL    HW228467   2.058   3.631  11.982 -0.3857  0.1951  1.7937
 5670SOL     OW28468   1.386   3.613   7.197 -0.2238  0.1908  0.1276
 5670SOL    HW128469   1.450   3.570   7.254 -0.0785  0.7724  0.4070
 5670SOL    HW228470   1.440   3.684   7.164 -2.2415  1.6690 -0.0292
 5671SOL     OW28471   4.503   1.259   9.247  0.5599  0.2780  0.0920
 5671SOL    HW128472   4.442   1.330   9.268 -1.1389 -0.7536 -1.3126
 5671SOL    HW228473   4.523   1.226   9.334 -1.1855  0.7453  0.6753
 5672SOL     OW28474   0.053   2.967   1.653  0.0680  0.2264  0.1121
 5672SOL    HW128475   0.141   2.943   1.624  0.4240  1.7297 -0.0156
 5672SOL    HW228476   0.003   2.921   1.585  1.8925  3.4431 -3.3968
 5673SOL     OW28477   3.059   3.209   6.907 -0.7944 -0.1566  0.4071
 5673SOL    HW128478   3.062   3.263   6.986 -5.4186 -0.5180  0.7941
 5673SOL    HW228479   3.145   3.222   6.866 -1.5050  0.7895 -0.7629
 5674SOL     OW28480   2.173   1.808   8.731 -0.2668 -0.2438  0.0684
 5674SOL    HW128481   2.091   1.802   8.779  1.4152 -2.1391  2.7117
 5674SOL    HW228482   2.220   1.881   8.772 -0.4015  1.3803 -2.6671
 5675SOL     OW28483   2.898   2.521   4.023 -0.1198 -0.0572 -0.2512
 5675SOL    HW128484   2.907   2.592   4.086 -1.5258 -0.8049  0.8008
 5675SOL    HW228485   2.835   2.461   4.063 -1.6937  0.8552 -1.3827
 5676SOL     OW28486   3.276   2.656   2.826 -0.1027 -0.0362  0.1857
 5676SOL    HW128487   3.307   2.709   2.753 -0.6656  0.4147  0.2799
 5676SOL    HW228488   3.360   2.632   2.866 -0.8328 -1.6942  0.7431
 5677SOL     OW28489   2.011   1.839  12.098  0.3331  0.3531 -0.1569
 5677SOL    HW128490   1.970   1.920  12.131 -0.1602  0.2484 -0.5173
 5677SOL    HW228491   2.091   1.839  12.150  1.7079 -0.1201 -2.3088
 5678SOL     OW28492   2.420   4.554   6.748 -0.7083 -0.1235  0.2880
 5678SOL    HW128493   2.494   4.531   6.803  1.1587  1.0497 -1.7438
 5678SOL    HW228494   2.465   4.544   6.664  1.3126  0.0484  1.3516
 5679SOL     OW28495   4.695   4.196   7.183 -0.0123 -0.4310  0.4223
 5679SOL    HW128496   0.017   4.112   7.172  1.2420  0.3733 -0.8397
 5679SOL    HW228497   4.604   4.169   7.189  0.0229 -0.5596  0.3785
 5680SOL     OW28498   4.061   4.203   2.180 -0.4369  0.3653  0.0544
 5680SOL    HW128499   4.089   4.167   2.096 -0.7724 -0.7218  0.4086
 5680SOL    HW228500   3.971   4.170   2.174 -0.1410 -0.1889 -1.3729
 5681SOL     OW28501   4.057   0.115   8.447 -0.5404  0.3453  0.2534
 5681SOL    HW128502   4.023   0.172   8.378  1.0568 -1.8161 -2.3700
 5681SOL    HW228503   4.150   0.107   8.423 -0.5057 -0.9151  0.8183
 5682SOL     OW28504   0.217   1.812   6.268 -0.2443  0.5344  0.1192
 5682SOL    HW128505   0.143   1.777   6.317  0.0136 -1.5112 -0.9446
 5682SOL    HW228506   0.183   1.811   6.179 -1.6227  3.1432  0.6250
 5683SOL     OW28507   2.078   2.615  10.261 -0.2283  0.3294 -0.1219
 5683SOL    HW128508   2.069   2.709  10.249 -2.1139  0.0591 -0.7578
 5683SOL    HW228509   2.150   2.579  10.209 -0.8538 -0.0167 -0.7418
 5684SOL     OW28510   1.989   4.447   5.077 -0.1098 -0.3748 -0.6701
 5684SOL    HW128511   2.072   4.427   5.120 -0.5054 -1.6903 -0.5089
 5684SOL    HW228512   1.932   4.475   5.148  1.3976  0.8609  0.0525
 5685SOL     OW28513   3.169   3.292   4.991 -0.3502  0.0108  0.2251
 5685SOL    HW128514   3.166   3.197   4.997  0.1685 -0.0355 -0.2236
 5685SOL    HW228515   3.175   3.298   4.896  2.2534  0.6440  0.4030
 5686SOL     OW28516   1.411   2.783  11.231 -0.3125 -0.2258  0.4941
 5686SOL    HW128517   1.469   2.774  11.156 -2.5401  2.9319 -1.5639
 5686SOL    HW228518   1.326   2.794  11.189 -0.0320 -0.5772 -0.1541
 5687SOL     OW28519   2.791   0.435   8.664  0.4677  0.5401  0.3084
 5687SOL    HW128520   2.760   0.524   8.648  2.7936  1.0957 -1.1806
 5687SOL    HW228521   2.875   0.425   8.618  0.3657  0.4558  0.1407
 5688SOL     OW28522   1.596   2.371   7.475 -0.4375 -0.5532  0.2997
 5688SOL    HW128523   1.560   2.312   7.409 -2.4724 -0.8000  1.6066
 5688SOL    HW228524   1.646   2.434   7.423 -0.6169 -0.0926  0.6849
 5689SOL     OW28525   3.580   2.026   7.164  0.2511  0.6072 -0.0783
 5689SOL    HW128526   3.546   2.041   7.252 -0.2339 -3.2753  0.3802
 5689SOL    HW228527   3.526   1.954   7.133  1.6950 -0.2626 -0.5923
 5690SOL     OW28528   1.404   2.821  15.992 -0.4724  0.1314 -0.1041
 5690SOL    HW128529   1.409   2.734  15.952  2.9496  0.7454 -0.9956
 5690SOL    HW228530   1.311   2.842  15.978 -0.6394 -1.2118 -1.0794
 5691SOL     OW28531   1.213   0.763  15.504  0.0690 -0.0091 -0.3867
 5691SOL    HW128532   1.143   0.793  15.446  0.4257 -3.2610 -2.4950
 5691SOL    HW228533   1.177   0.765  15.593  0.2151  0.5093 -0.3422
 5692SOL     OW28534   0.515   2.005  14.644 -0.3516 -0.2744  0.1417
 5692SOL    HW128535   0.481   2.061  14.574  0.3026  0.5501  0.4777
 5692SOL    HW228536   0.491   1.918  14.612 -0.0488  0.4738 -2.1266
 5693SOL     OW28537   0.536   0.487   6.592  0.1538 -0.2673 -0.2044
 5693SOL    HW128538   0.450   0.502   6.631 -0.2163 -0.6084 -0.8944
 5693SOL    HW228539   0.524   0.395   6.571 -3.0293  0.3486 -1.1649
 5694SOL     OW28540   2.064   0.311  15.843  0.6172  0.1002  0.6575
 5694SOL    HW128541   1.999   0.365  15.888  0.5723  0.8107 -0.2677
 5694SOL    HW228542   2.027   0.307  15.755  2.9266  0.5426 -0.3381
 5695SOL     OW28543   3.137   3.415  16.383  0.1273 -0.6613 -0.0574
 5695SOL    HW128544   3.132   3.443  16.291  1.5196 -2.1713 -0.5929
 5695SOL    HW228545   3.227   3.433  16.410 -0.6325  1.6257  0.9789
 5696SOL     OW28546   1.967   1.833  12.777 -0.3335 -0.6758 -0.0168
 5696SOL    HW128547   1.916   1.846  12.697 -1.2370 -0.2332  0.6481
 5696SOL    HW228548   1.905   1.861  12.844 -0.5215 -1.0249 -0.0438
 5697SOL     OW28549   1.780   2.525  15.055 -0.0283 -0.3396 -0.6479
 5697SOL    HW128550   1.802   2.470  15.130  0.1757  1.1560  0.3894
 5697SOL    HW228551   1.833   2.601  15.079  0.6821 -0.8707 -0.5486
 5698SOL     OW28552   2.085   0.940   6.786  0.1967  0.3170 -0.4415
 5698SOL    HW128553   2.061   0.975   6.872  0.4812  1.2291 -0.7339
 5698SOL    HW228554   2.062   0.847   6.795  0.7858  0.4298  2.1906
 5699SOL     OW28555   1.412   2.966  14.735  0.6971 -0.5102 -0.3358
 5699SOL    HW128556   1.316   2.967  14.735  0.7094  0.1316 -0.6048
 5699SOL    HW228557   1.442   3.040  14.788 -0.6642 -1.2183  1.4342
 5700SOL     OW28558   2.413   3.106  11.056 -0.6272 -0.3007  0.0295
 5700SOL    HW128559   2.400   3.079  11.147  0.7703  2.6875  1.1495
 5700SOL    HW228560   2.470   3.183  11.063 -0.6681 -0.2182 -0.5713
 5701SOL     OW28561   1.126   0.176   0.791  0.4083  0.2672 -0.3211
 5701SOL    HW128562   1.112   0.213   0.878 -0.1881 -0.1595 -0.2342
 5701SOL    HW228563   1.221   0.164   0.789  0.1021 -1.8637 -2.4871
 5702SOL     OW28564   2.377   0.055  15.572 -0.5120 -0.0717 -0.0286
 5702SOL    HW128565   2.453   0.106  15.544 -2.4124  1.3571 -2.5662
 5702SOL    HW228566   2.415   4.690  15.560 -1.8199 -0.8669  1.5804
 5703SOL     OW28567   3.786   3.992   7.563 -0.5614 -0.4137 -0.3882
 5703SOL    HW128568   3.697   3.961   7.573 -0.7325 -0.5908 -2.5360
 5703SOL    HW228569   3.809   3.983   7.470  1.4367  0.2665  0.0351
 5704SOL     OW28570   2.634   3.795  13.447 -0.3032 -0.0797 -0.3401
 5704SOL    HW128571   2.643   3.724  13.383  0.8059 -0.2093 -0.0351
 5704SOL    HW228572   2.678   3.868  13.405 -0.4238 -0.8408 -1.7886
 5705SOL     OW28573   2.098   4.082  15.037 -0.2619  0.7054  0.0257
 5705SOL    HW128574   2.137   4.169  15.049 -0.3949  0.8610 -0.6524
 5705SOL    HW228575   2.151   4.043  14.968 -0.7043  2.3083 -1.2143
 5706SOL     OW28576   1.033   2.609   4.372 -0.1719  0.9753 -0.2472
 5706SOL    HW128577   0.967   2.678   4.359  1.3257  2.2422 -1.0098
 5706SOL    HW228578   1.027   2.559   4.291  0.0917 -0.2013  0.4508
 5707SOL     OW28579   1.249   4.297   0.564  0.3546 -0.5408 -0.3282
 5707SOL    HW128580   1.296   4.239   0.624  0.0107 -1.8904 -1.3545
 5707SOL    HW228581   1.303   4.312   0.487 -1.6453  0.7593 -1.4927
 5708SOL     OW28582   1.882   1.045  15.355  0.2850  0.0170 -0.1737
 5708SOL    HW128583   1.870   1.037  15.260  1.3987 -2.1120 -0.1518
 5708SOL    HW228584   1.795   1.046  15.394 -0.2873  1.4473 -1.4651
 5709SOL     OW28585   3.309   3.575  12.092 -0.0821  0.3803 -0.5508
 5709SOL    HW128586   3.264   3.637  12.148 -1.3910 -3.3754  2.6134
 5709SOL    HW228587   3.257   3.499  12.119  0.0644  0.5201  0.1212
 5710SOL     OW28588   0.729   1.627   1.529 -0.4676  0.1962 -0.1071
 5710SOL    HW128589   0.716   1.595   1.618 -0.6316  2.1056  0.5561
 5710SOL    HW228590   0.661   1.574   1.488 -0.8892 -0.0469  0.9144
 5711SOL     OW28591   3.605   3.799   7.081  0.5194  0.4725  0.2060
 5711SOL    HW128592   3.587   3.744   7.004 -0.0081 -0.6964  1.1737
 5711SOL    HW228593   3.700   3.791   7.084  0.3882  0.0662  3.1837
 5712SOL     OW28594   0.531   0.947   1.479  0.4068 -0.5699 -0.3908
 5712SOL    HW128595   0.474   0.984   1.546  0.5640 -1.3611  0.1870
 5712SOL    HW228596   0.521   0.853   1.495 -2.5825  0.1353  1.9384
 5713SOL     OW28597   2.365   4.673  12.023 -0.2844  0.4954  0.0826
 5713SOL    HW128598   2.279   4.633  12.005  0.1244  0.1657 -1.1589
 5713SOL    HW228599   2.415   4.612  12.077 -0.3920 -1.2525 -1.7492
 5714SOL     OW28600   3.638   2.831   4.558  0.1543 -0.3177  0.1874
 5714SOL    HW128601   3.557   2.861   4.517  0.4664  0.5104  0.1946
 5714SOL    HW228602   3.649   2.740   4.529 -1.0923 -0.1180 -0.9056
 5715SOL     OW28603   3.340   0.885  10.540 -0.4798  0.2530  0.0563
 5715SOL    HW128604   3.314   0.896  10.631  1.1963 -1.5174  0.7385
 5715SOL    HW228605   3.399   0.959  10.531  0.5863 -0.5886  0.2020
 5716SOL     OW28606   3.449   2.719   6.442 -0.0133 -0.3851  0.0032
 5716SOL    HW128607   3.391   2.671   6.501 -0.5161 -0.3257 -0.4427
 5716SOL    HW228608   3.444   2.811   6.469 -0.7597 -0.3618 -0.2049
 5717SOL     OW28609   2.645   1.336  12.942 -0.0372 -0.1270 -0.0575
 5717SOL    HW128610   2.599   1.303  13.019  0.1152  1.8189  0.8705
 5717SOL    HW228611   2.574   1.353  12.880  0.5305  1.6701 -0.2190
 5718SOL     OW28612   0.067   1.542   3.273 -0.4968  0.1169  0.0033
 5718SOL    HW128613   4.710   1.497   3.299 -0.1682 -1.3275 -1.4919
 5718SOL    HW228614   0.028   1.625   3.245  1.0594  0.7166 -0.4495
 5719SOL     OW28615   2.558   2.533  10.108  0.3794 -0.0385  0.1332
 5719SOL    HW128616   2.593   2.450  10.142  0.8011  0.3538  0.6525
 5719SOL    HW228617   2.572   2.592  10.182  1.3751 -2.1086  1.6056
 5720SOL     OW28618   0.507   0.817   9.278 -0.5924 -0.1478  0.2546
 5720SOL    HW128619   0.549   0.770   9.206 -0.9509 -0.5160  0.2832
 5720SOL    HW228620   0.414   0.795   9.278 -0.4648 -0.6670  2.1798
 5721SOL     OW28621   1.658   2.985   0.135  0.0364 -0.4424  0.1864
 5721SOL    HW128622   1.645   2.907   0.082  0.9106 -0.2797 -0.2594
 5721SOL    HW228623   1.570   3.023   0.126  0.3510  0.2018 -0.1553
 5722SOL     OW28624   1.945   3.482   2.704 -0.4946 -0.6621 -0.1816
 5722SOL    HW128625   2.026   3.436   2.682 -0.0538  0.0392 -0.0057
 5722SOL    HW228626   1.901   3.469   2.620 -2.2235 -3.6887  1.1852
 5723SOL     OW28627   1.329   3.802   5.100  0.0217  0.5431  0.4433
 5723SOL    HW128628   1.351   3.895   5.113  2.2872  0.2672 -1.4931
 5723SOL    HW228629   1.408   3.766   5.140  0.8156  0.2798 -1.3809
 5724SOL     OW28630   2.792   2.284   2.589 -0.4030 -0.0709 -0.4024
 5724SOL    HW128631   2.814   2.207   2.641 -0.5978  1.4135  1.8554
 5724SOL    HW228632   2.871   2.321   2.549  1.0173  0.6652  3.0405
 5725SOL     OW28633   0.346   1.006   6.032  0.3423  0.3869  1.0184
 5725SOL    HW128634   0.384   0.934   6.082  1.7389 -0.7108 -1.6488
 5725SOL    HW228635   0.252   0.985   6.031  0.1658  1.2299 -1.0159
 5726SOL     OW28636   3.713   2.383   2.182 -0.1514  0.7514 -0.4357
 5726SOL    HW128637   3.702   2.334   2.100  1.0313 -1.7343  0.8690
 5726SOL    HW228638   3.634   2.352   2.227  1.2216 -1.2267  0.6159
 5727SOL     OW28639   2.835   2.044   6.171  0.4585  0.1712 -0.0486
 5727SOL    HW128640   2.928   2.022   6.178  0.2633 -0.5524  0.2491
 5727SOL    HW228641   2.795   1.987   6.237 -1.3462  1.6733  0.1540
 5728SOL     OW28642   1.585   1.754   2.149  1.0696  0.3353 -0.1256
 5728SOL    HW128643   1.507   1.765   2.095  0.1244 -0.1557  1.1337
 5728SOL    HW228644   1.635   1.828   2.116  1.2562  1.0071  1.6992
 5729SOL     OW28645   0.096   1.598   1.601  0.3041  0.0494  0.9857
 5729SOL    HW128646   0.050   1.682   1.607 -1.2572 -0.6837 -0.6133
 5729SOL    HW228647   0.185   1.630   1.616  0.6744 -1.0616  1.1513
 5730SOL     OW28648   1.713   0.961   7.349 -0.3478 -0.3321 -0.5645
 5730SOL    HW128649   1.687   0.968   7.441  0.4832  0.8994 -0.4157
 5730SOL    HW228650   1.807   0.975   7.360 -0.6133 -0.7264  2.4398
 5731SOL     OW28651   4.655   4.450  13.525 -0.3374  0.2521  0.5675
 5731SOL    HW128652   4.581   4.511  13.532 -0.0939  0.9407 -2.7249
 5731SOL    HW228653   4.610   4.365  13.522  4.0924 -2.1796  3.6466
 5732SOL     OW28654   3.261   2.517   6.593  0.1660 -0.0502  0.3789
 5732SOL    HW128655   3.194   2.511   6.525  2.7841 -0.6535 -2.1540
 5732SOL    HW228656   3.222   2.496   6.678  0.2609 -3.8365 -0.5105
 5733SOL     OW28657   3.638   4.114  10.521 -0.0437  0.3541  0.3659
 5733SOL    HW128658   3.591   4.101  10.603  0.0977  0.6776  0.4978
 5733SOL    HW228659   3.703   4.049  10.549 -0.4422 -0.1403  0.1518
 5734SOL     OW28660   0.692   1.144   0.291  0.1663 -0.6034 -0.2064
 5734SOL    HW128661   0.608   1.118   0.254  0.6099 -0.2713 -1.4581
 5734SOL    HW228662   0.749   1.105   0.224  0.6890  1.7692 -1.1248
 5735SOL     OW28663   1.919   2.536  12.719 -0.5104 -0.3916  0.0774
 5735SOL    HW128664   1.984   2.600  12.747 -0.5898 -0.4813  0.4585
 5735SOL    HW228665   1.969   2.458  12.695 -0.0206 -0.5650  1.7072
 5736SOL     OW28666   1.431   0.102  16.870 -0.5696  0.2879 -0.2081
 5736SOL    HW128667   1.376   0.178  16.851 -0.1697 -0.2384 -3.4838
 5736SOL    HW228668   1.394   0.043  16.805 -0.1026  1.0136 -1.1236
 5737SOL     OW28669   4.112   4.580   4.459  0.0519 -0.5215  0.3356
 5737SOL    HW128670   4.052   4.650   4.432 -0.0601 -0.2790  1.1992
 5737SOL    HW228671   4.110   4.510   4.394 -0.9462 -0.1175 -0.0636
 5738SOL     OW28672   2.868   4.260   4.431 -0.1148  0.0364  0.5051
 5738SOL    HW128673   2.905   4.200   4.367  0.3033  1.2237 -0.3703
 5738SOL    HW228674   2.796   4.298   4.380  1.2970  1.0107 -0.7471
 5739SOL     OW28675   0.714   0.724   2.363  0.3804  0.1958  0.0133
 5739SOL    HW128676   0.799   0.768   2.354  0.0638  0.5562 -1.2184
 5739SOL    HW228677   0.655   0.798   2.377  1.9394  1.3988  0.2204
 5740SOL     OW28678   4.660   0.091   2.609  0.3131 -0.1927  0.1196
 5740SOL    HW128679   4.700   0.108   2.524 -0.6326 -0.2481 -0.3361
 5740SOL    HW228680   0.005   0.085   2.676 -0.0897  0.7086  0.6030
 5741SOL     OW28681   0.477   3.467  17.154  0.4389  0.2594  0.0930
 5741SOL    HW128682   0.491   3.439  17.063  0.2391 -0.2486  0.2227
 5741SOL    HW228683   0.545   3.424  17.204  1.9862  1.4616 -0.9580
 5742SOL     OW28684   1.062   2.394   4.170  0.1433  0.0686  0.0512
 5742SOL    HW128685   1.126   2.398   4.099  0.1262 -0.0378  0.0280
 5742SOL    HW228686   0.986   2.388   4.112 -0.0856 -0.2593  0.3834
 5743SOL     OW28687   2.898   0.889   8.681  0.4053  0.0424 -0.0734
 5743SOL    HW128688   2.929   0.823   8.619 -0.5782 -0.3136 -0.1985
 5743SOL    HW228689   2.952   0.858   8.753 -0.8641 -0.5432  0.6376
 5744SOL     OW28690   4.149   3.517   1.555 -0.2971 -0.6539 -0.1781
 5744SOL    HW128691   4.092   3.496   1.629  0.1649 -0.6981  0.1594
 5744SOL    HW228692   4.086   3.520   1.482 -0.1136  0.9494 -0.2585
 5745SOL     OW28693   4.460   1.974   6.968  0.5356  0.1811 -0.0426
 5745SOL    HW128694   4.443   2.056   6.922 -0.7731 -0.2893 -0.3769
 5745SOL    HW228695   4.401   1.996   7.039  0.6902  0.6035 -0.0431
 5746SOL     OW28696   3.028   3.975   4.020  0.1155 -0.6979 -0.1183
 5746SOL    HW128697   2.973   4.011   3.951  0.2667  1.0487  0.6840
 5746SOL    HW228698   3.063   3.896   3.977  0.8963 -0.9844  1.0433
 5747SOL     OW28699   1.035   3.300  16.705  0.1187  0.6572 -0.1741
 5747SOL    HW128700   1.126   3.303  16.734  0.1047 -1.2296  0.0121
 5747SOL    HW228701   0.995   3.375  16.750  0.5544  0.3470  0.7302
 5748SOL     OW28702   3.362   2.687  14.210  0.1004 -0.0820  0.0797
 5748SOL    HW128703   3.390   2.745  14.281 -1.0144  0.5311  0.0197
 5748SOL    HW228704   3.395   2.732  14.133 -0.4842 -1.6346 -1.0848
 5749SOL     OW28705   1.293   3.079   8.985 -0.1267 -0.7406  0.3460
 5749SOL    HW128706   1.385   3.095   9.005 -0.0445 -0.1455 -0.4941
 5749SOL    HW228707   1.289   2.986   8.964 -0.3329 -0.7839  0.5746
 5750SOL     OW28708   1.490   4.509   2.024 -0.4636  0.4093  0.5536
 5750SOL    HW128709   1.547   4.555   1.962 -1.3052  0.2549 -0.3202
 5750SOL    HW228710   1.446   4.584   2.063 -0.9822 -0.1979  1.1538
 5751SOL     OW28711   4.292   0.504   9.025 -0.0107 -0.3807  0.3502
 5751SOL    HW128712   4.232   0.512   9.099  1.8482  0.4176  1.7537
 5751SOL    HW228713   4.365   0.480   9.082  2.3825  0.8819 -2.1974
 5752SOL     OW28714   3.090   2.211   4.733 -0.0978  0.3429 -0.0759
 5752SOL    HW128715   3.141   2.261   4.670  1.4986  0.6405  1.4596
 5752SOL    HW228716   3.130   2.124   4.727 -0.3865  0.1907  0.1616
 5753SOL     OW28717   1.474   1.766   4.274  0.4269  0.1394 -0.2841
 5753SOL    HW128718   1.484   1.748   4.181 -3.2929  2.3830 -1.0940
 5753SOL    HW228719   1.380   1.774   4.290  0.0762 -3.0838 -0.9322
 5754SOL     OW28720   2.359   0.710   6.671  0.1476 -0.0175  0.5859
 5754SOL    HW128721   2.395   0.699   6.583 -1.7918 -3.0148  0.2017
 5754SOL    HW228722   2.433   0.682   6.725  1.2114  1.8806  0.1418
 5755SOL     OW28723   2.640   3.616   4.010  0.6132  0.5167  0.2567
 5755SOL    HW128724   2.555   3.595   3.974  1.2184 -0.0242 -0.8378
 5755SOL    HW228725   2.653   3.538   4.064  1.0705 -1.0248 -2.1200
 5756SOL     OW28726   0.306   3.254   6.257 -0.5269  0.4002  0.0061
 5756SOL    HW128727   0.393   3.286   6.280 -0.3561 -0.9768  1.3491
 5756SOL    HW228728   0.292   3.273   6.165  1.0932  2.1373  0.1219
 5757SOL     OW28729   3.526   4.472   6.091  0.6471  0.2580  0.0009
 5757SOL    HW128730   3.604   4.422   6.116  0.3043  0.2402  1.0630
 5757SOL    HW228731   3.562   4.537   6.031  0.4748 -1.7747 -2.3090
 5758SOL     OW28732   4.574   0.121  15.935 -0.2398 -0.4521  0.2035
 5758SOL    HW128733   4.542   0.212  15.934 -1.5601 -0.9028  1.1206
 5758SOL    HW228734   4.567   0.099  15.842  0.1635  0.7693 -0.1223
 5759SOL     OW28735   4.019   0.718   1.722 -0.4114  0.1345 -0.1205
 5759SOL    HW128736   3.962   0.772   1.777 -1.7117 -0.2944 -1.0574
 5759SOL    HW228737   4.067   0.789   1.679  1.8738 -2.3841 -1.7619
 5760SOL     OW28738   3.086   2.273   6.523  0.4949  0.4805  0.1947
 5760SOL    HW128739   3.155   2.218   6.486  2.0190  1.7323  1.1803
 5760SOL    HW228740   3.014   2.258   6.462 -0.0524  0.2063  0.9077
 5761SOL     OW28741   3.328   2.284   8.590 -0.2282  0.3874 -0.0119
 5761SOL    HW128742   3.235   2.273   8.609 -0.0146 -2.9091 -0.9959
 5761SOL    HW228743   3.346   2.191   8.576  0.2904  0.3277  1.0147
 5762SOL     OW28744   0.907   2.319   7.112  0.0273 -0.0063 -0.5643
 5762SOL    HW128745   0.902   2.381   7.039  1.5741  1.4198  0.5415
 5762SOL    HW228746   0.986   2.352   7.153 -0.9557 -0.1794  1.4549
 5763SOL     OW28747   2.894   4.688   6.203  0.5662  0.0821  0.0642
 5763SOL    HW128748   2.912   4.595   6.198  1.7503  0.2889  0.5265
 5763SOL    HW228749   2.978   4.722   6.232  0.8866  0.9820 -1.8832
 5764SOL     OW28750   1.206   0.437   2.668 -0.1327 -0.3355  0.8240
 5764SOL    HW128751   1.250   0.520   2.682 -3.8985  1.8813 -0.5996
 5764SOL    HW228752   1.115   0.463   2.654 -0.1597 -1.3438 -0.8593
 5765SOL     OW28753   0.737   2.596   3.649  0.4161  0.3717  0.0189
 5765SOL    HW128754   0.708   2.679   3.687 -1.4492 -1.2577  2.1154
 5765SOL    HW228755   0.714   2.604   3.556 -1.0054  2.9446  0.5966
 5766SOL     OW28756   2.445   3.958   5.644 -0.3989  0.6828  0.3976
 5766SOL    HW128757   2.518   4.017   5.629 -0.1664  0.4543  0.6417
 5766SOL    HW228758   2.488   3.875   5.624 -0.6521 -0.1537  3.3071
 5767SOL     OW28759   1.143   1.140   5.510  0.2480 -0.1536  0.0125
 5767SOL    HW128760   1.163   1.213   5.569 -0.1459  1.8910 -2.3705
 5767SOL    HW228761   1.059   1.116   5.547  0.8494 -0.8547  0.9097
 5768SOL     OW28762   2.999   2.479   9.318  0.0323  0.0834 -0.6404
 5768SOL    HW128763   3.031   2.530   9.392 -1.7802  0.0785  0.1417
 5768SOL    HW228764   2.934   2.531   9.272 -0.3619 -0.3865 -0.6110
 5769SOL     OW28765   4.576   4.168   0.686  0.5189  0.0999 -0.2769
 5769SOL    HW128766   4.609   4.125   0.606 -3.3646 -5.1576  0.8878
 5769SOL    HW228767   4.531   4.098   0.734 -1.1435  1.6628  0.4213
 5770SOL     OW28768   3.037   1.155   6.299 -0.5598 -0.1275  0.5313
 5770SOL    HW128769   3.019   1.209   6.222 -1.0041 -0.7970  0.1700
 5770SOL    HW228770   3.133   1.151   6.299 -0.6260 -1.2726 -1.6988
 5771SOL     OW28771   2.841   4.072   0.010  0.5876 -0.1142 -0.1481
 5771SOL    HW128772   2.862   4.124   0.088  1.1339  0.4395 -0.6605
 5771SOL    HW228773   2.848   4.139  17.633  0.1952 -0.2721 -0.3435
 5772SOL     OW28774   4.245   0.674   1.033 -0.2662 -0.0780 -0.2042
 5772SOL    HW128775   4.309   0.633   0.975  1.4134  0.3711  1.3456
 5772SOL    HW228776   4.170   0.614   1.029 -0.0591 -0.2568 -1.4889
 5773SOL     OW28777   4.069   0.034  11.314  0.2317  0.5444 -0.4100
 5773SOL    HW128778   4.019   0.099  11.265 -1.2478  0.6664  1.2668
 5773SOL    HW228779   4.094   4.710  11.234  2.0457 -0.7679  0.9200
 5774SOL     OW28780   2.311   2.567   3.035  0.5936 -0.0415 -0.2234
 5774SOL    HW128781   2.300   2.657   3.065 -2.3932 -0.3587 -0.3751
 5774SOL    HW228782   2.403   2.560   3.059  0.5559 -0.3981 -0.1803
 5775SOL     OW28783   2.084   3.231  16.791 -0.9162  0.4949 -0.2141
 5775SOL    HW128784   2.095   3.326  16.795  1.1072  0.2682 -0.3002
 5775SOL    HW228785   2.114   3.195  16.875  2.1483  0.6751 -1.2261
 5776SOL     OW28786   4.123   3.192   4.311 -0.1770 -0.3400 -0.5118
 5776SOL    HW128787   4.048   3.225   4.261 -0.6990 -1.6526 -0.5943
 5776SOL    HW228788   4.173   3.140   4.248  1.7090 -0.6600  1.2416
 5777SOL     OW28789   2.122   3.837   3.137 -0.0130 -0.0074 -0.2444
 5777SOL    HW128790   2.182   3.905   3.108  0.3766  0.7288  2.2828
 5777SOL    HW228791   2.093   3.870   3.222 -0.8942  2.3301 -1.4374
 5778SOL     OW28792   2.130   0.939   8.062  0.2721 -0.1939 -0.4248
 5778SOL    HW128793   2.179   0.869   8.018  1.0529  1.0478 -1.5477
 5778SOL    HW228794   2.065   0.883   8.105 -0.2841  1.6619  1.1821
 5779SOL     OW28795   0.804   0.615  10.280 -0.0667  0.0772 -0.4090
 5779SOL    HW128796   0.755   0.543  10.321  0.1401  1.2022  1.8650
 5779SOL    HW228797   0.842   0.562  10.210  1.7031 -1.1532  1.4841
 5780SOL     OW28798   2.600   0.386   8.433 -0.4510 -0.4863  0.2983
 5780SOL    HW128799   2.647   0.460   8.470 -0.1301 -1.1179  1.1396
 5780SOL    HW228800   2.512   0.400   8.468  0.1321  1.2669  1.0705
 5781SOL     OW28801   1.200   2.098  17.645 -0.7521 -0.7639  0.7496
 5781SOL    HW128802   1.161   2.083  17.559 -0.4125 -0.7003  0.5846
 5781SOL    HW228803   1.158   2.037   0.014 -2.7321 -0.8115 -0.6704
 5782SOL     OW28804   0.264   3.390   5.776 -0.1779  0.5201  0.2391
 5782SOL    HW128805   0.239   3.343   5.855 -1.6135 -0.9646 -1.1017
 5782SOL    HW228806   0.311   3.463   5.816  2.4707 -1.1966  0.2549
 5783SOL     OW28807   4.428   1.607   8.551 -0.4465 -0.5190  0.0599
 5783SOL    HW128808   4.387   1.528   8.587 -0.3251 -0.6949 -0.1816
 5783SOL    HW228809   4.355   1.668   8.557 -0.6787 -0.8446  0.5636
 5784SOL     OW28810   0.802   1.320   9.114  0.1570 -0.0454 -0.0290
 5784SOL    HW128811   0.889   1.282   9.126  1.4309  2.5260 -0.9168
 5784SOL    HW228812   0.739   1.249   9.119  1.1594 -0.8425  1.2242
 5785SOL     OW28813   2.654   0.340   6.024  0.1834 -0.1038 -0.0676
 5785SOL    HW128814   2.687   0.326   5.936 -0.0202  2.0523 -0.4889
 5785SOL    HW228815   2.684   0.265   6.076 -0.0001 -0.9499 -1.1898
 5786SOL     OW28816   1.962   3.577   8.304 -0.1127 -0.4164 -0.2984
 5786SOL    HW128817   1.983   3.648   8.243  0.7970  0.3960  0.9567
 5786SOL    HW228818   2.047   3.535   8.313 -0.0830  0.0475  1.6046
 5787SOL     OW28819   4.497   2.173   0.731 -0.5018  0.3335 -0.2308
 5787SOL    HW128820   4.569   2.113   0.712 -0.7343 -0.3031  0.8576
 5787SOL    HW228821   4.496   2.233   0.657 -1.7627 -0.2102 -0.6527
 5788SOL     OW28822   0.599   2.007   8.332  0.3023 -0.1183  0.8920
 5788SOL    HW128823   0.536   2.030   8.400 -0.0805 -3.0994  1.5309
 5788SOL    HW228824   0.555   1.949   8.271  0.6773 -0.2547  0.7511
 5789SOL     OW28825   4.719   3.120   7.754 -0.3045  0.4923  0.1445
 5789SOL    HW128826   0.078   3.070   7.750 -0.6850 -0.1392  0.4731
 5789SOL    HW228827   0.041   3.172   7.821  0.2305  0.3457 -0.0917
 5790SOL     OW28828   4.333   4.662   9.516  0.0482  0.3241  0.0310
 5790SOL    HW128829   4.405   4.662   9.454 -1.2693 -0.2889 -1.5096
 5790SOL    HW228830   4.262   4.617   9.470 -0.7722  2.4712 -0.8251
 5791SOL     OW28831   2.496   1.619   7.533  0.2227 -0.1504  0.2929
 5791SOL    HW128832   2.412   1.635   7.490  0.0550  1.0331  1.0542
 5791SOL    HW228833   2.501   1.695   7.591  1.6972  1.6356 -2.2161
 5792SOL     OW28834   0.424   0.297   8.637  0.3530 -0.7587 -0.4431
 5792SOL    HW128835   0.478   0.255   8.704 -1.1651 -3.4926 -0.9302
 5792SOL    HW228836   0.376   0.355   8.696 -3.2888 -1.0195 -3.1702
 5793SOL     OW28837   0.894   1.708   5.513  0.5551 -0.4970  0.4311
 5793SOL    HW128838   0.880   1.714   5.607  0.5695 -0.8257  0.4537
 5793SOL    HW228839   0.852   1.626   5.486  2.2138 -0.2372 -3.0208
 5794SOL     OW28840   1.370   0.144   3.441  0.2450  0.0085  0.5661
 5794SOL    HW128841   1.345   0.060   3.479  1.7638 -0.7366 -0.0994
 5794SOL    HW228842   1.293   0.157   3.386  0.5043 -0.3109  0.1301
 5795SOL     OW28843   1.880   0.605  14.209 -0.3709 -0.2137 -0.0264
 5795SOL    HW128844   1.872   0.577  14.118 -0.5188 -0.2390 -0.0058
 5795SOL    HW228845   1.933   0.684  14.201  1.6878 -1.6151 -0.3322
 5796SOL     OW28846   1.748   0.240   8.596  0.1338 -0.3071 -0.2660
 5796SOL    HW128847   1.817   0.295   8.559 -0.4100  0.0457 -0.7641
 5796SOL    HW228848   1.689   0.239   8.520 -1.1953 -3.6561  0.8064
 5797SOL     OW28849   3.096   3.491   2.892 -0.3589  0.0388 -0.0083
 5797SOL    HW128850   3.138   3.478   2.977 -2.5314 -0.3459  1.0254
 5797SOL    HW228851   3.015   3.440   2.899 -0.6168  0.2527 -1.4762
 5798SOL     OW28852   3.292   1.003  14.144  0.4404 -0.1600  0.2201
 5798SOL    HW128853   3.315   0.922  14.190  2.2390  1.3775  1.9816
 5798SOL    HW228854   3.197   0.993  14.149  0.4868 -0.8849 -0.3541
 5799SOL     OW28855   0.515   4.055   4.767  0.2700 -0.0539  0.3658
 5799SOL    HW128856   0.539   4.148   4.761  1.8778 -0.5270 -0.7246
 5799SOL    HW228857   0.595   4.019   4.729 -0.4575  0.3155 -1.5115
 5800SOL     OW28858   3.158   4.148   8.582  0.3317  0.1619  0.2294
 5800SOL    HW128859   3.239   4.097   8.575  0.0551 -0.2820  0.3302
 5800SOL    HW228860   3.095   4.083   8.551 -0.6011  0.6465  1.1260
 5801SOL     OW28861   4.426   1.079   9.084  0.2739  0.2092  0.0835
 5801SOL    HW128862   4.483   1.049   9.014 -0.7379 -2.3977  0.3867
 5801SOL    HW228863   4.480   1.136   9.140 -1.2501 -0.7854  2.5851
 5802SOL     OW28864   0.496   0.024   2.805  0.7674 -0.2879  0.3851
 5802SOL    HW128865   0.502   4.655   2.836  0.5118 -0.2924  0.4221
 5802SOL    HW228866   0.446   0.011   2.724 -0.6628  3.0201  0.7708
 5803SOL     OW28867   1.927   0.236   3.562 -0.4656  0.1759  0.4001
 5803SOL    HW128868   2.018   0.250   3.587 -0.4297  2.1409 -0.8899
 5803SOL    HW228869   1.953   0.209   3.474 -2.8227  2.0060 -0.8636
 5804SOL     OW28870   3.085   3.601  17.583 -0.2416 -0.0153 -0.0235
 5804SOL    HW128871   3.121   3.648  17.508  1.6038  1.4497  1.7572
 5804SOL    HW228872   3.008   3.657  17.590  0.1133  0.7601 -2.3423
 5805SOL     OW28873   0.211   3.741   8.181 -0.3162  0.8769  0.2764
 5805SOL    HW128874   0.130   3.787   8.163 -1.3955 -0.7971  0.7919
 5805SOL    HW228875   0.256   3.803   8.239  0.4251  1.6545 -1.1285
 5806SOL     OW28876   3.661   2.770   3.880  0.2554  0.1312 -0.2862
 5806SOL    HW128877   3.588   2.710   3.893 -0.6103  0.8530 -1.7166
 5806SOL    HW228878   3.627   2.860   3.878  0.6233  0.2303 -2.3551
 5807SOL     OW28879   3.416   1.086   2.264  0.2171  0.0878  0.1930
 5807SOL    HW128880   3.465   1.103   2.183  0.6313 -0.2974  0.3609
 5807SOL    HW228881   3.473   1.134   2.324  0.5650  1.4343 -1.2092
 5808SOL     OW28882   3.215   3.175  10.114  0.0788 -0.6912  0.3289
 5808SOL    HW128883   3.262   3.257  10.098 -0.7770 -0.2873 -0.1026
 5808SOL    HW228884   3.246   3.125  10.039  0.4785  0.9398 -0.5901
 5809SOL     OW28885   0.763   4.003   4.660  0.4545 -0.0803 -0.2955
 5809SOL    HW128886   0.750   3.930   4.599  1.1973 -1.1691  0.8564
 5809SOL    HW228887   0.847   3.979   4.699  0.8577  1.2045 -0.3974
 5810SOL     OW28888   3.600   4.459  10.619  0.6144  0.0313 -0.2952
 5810SOL    HW128889   3.662   4.437  10.550  0.0524  1.9229 -1.4091
 5810SOL    HW228890   3.658   4.451  10.695 -0.6280  0.2730  0.6760
 5811SOL     OW28891   0.551   1.960  13.116  0.2431  0.4556  0.7547
 5811SOL    HW128892   0.459   1.956  13.141  0.0625 -1.1996 -0.1674
 5811SOL    HW228893   0.555   1.895  13.046 -0.8890 -0.0894  1.1985
 5812SOL     OW28894   3.796   2.769  11.338  0.2562 -0.2572 -0.1054
 5812SOL    HW128895   3.886   2.767  11.371 -0.0271  0.1607  0.6873
 5812SOL    HW228896   3.798   2.700  11.271  2.3461 -1.4842  1.2321
 5813SOL     OW28897   4.223   0.684   4.072  0.5666 -0.2759  0.3053
 5813SOL    HW128898   4.214   0.764   4.021 -0.1881 -0.4736  0.1251
 5813SOL    HW228899   4.316   0.667   4.066  0.8750  0.5433  2.4311
 5814SOL     OW28900   0.122   4.182   6.258 -0.0294 -0.3693 -0.5805
 5814SOL    HW128901   0.103   4.114   6.323  2.1146  0.3415  0.8101
 5814SOL    HW228902   0.063   4.247   6.296 -0.3800 -1.4256  0.6527
 5815SOL     OW28903   1.162   3.379   0.711 -0.2273  0.3886  0.6601
 5815SOL    HW128904   1.165   3.283   0.714 -2.4613  0.3656  1.5158
 5815SOL    HW228905   1.103   3.420   0.648  0.7678  1.0317  0.1473
 5816SOL     OW28906   3.538   1.693   6.138  0.1844 -0.1566  0.5447
 5816SOL    HW128907   3.598   1.754   6.093  1.7313 -2.1349 -0.0831
 5816SOL    HW228908   3.563   1.609   6.100  0.8223  0.4214 -0.3470
 5817SOL     OW28909   1.746   2.800  10.546  0.1777  0.0738  0.1244
 5817SOL    HW128910   1.769   2.881  10.501  0.2510  0.4777  0.8859
 5817SOL    HW228911   1.817   2.752  10.588  2.0546  1.2586 -1.7406
 5818SOL     OW28912   0.087   4.208   8.683 -0.0615 -0.3066  0.7801
 5818SOL    HW128913   0.147   4.252   8.743 -0.6411 -0.7041  1.6636
 5818SOL    HW228914   0.019   4.180   8.744 -1.2828 -1.1682 -0.9643
 5819SOL     OW28915   4.436   0.571  12.810  0.6950 -0.2022 -0.1936
 5819SOL    HW128916   4.420   0.517  12.887 -3.4624  0.7436 -0.4098
 5819SOL    HW228917   4.387   0.508  12.758  0.7264 -0.9217  0.6487
 5820SOL     OW28918   2.039   2.918  17.045 -0.0212  1.0738  0.2121
 5820SOL    HW128919   2.113   2.971  17.016 -0.9925  1.6134 -1.3011
 5820SOL    HW228920   2.018   2.953  17.132  0.9945  1.7227  0.2003
 5821SOL     OW28921   0.643   3.076   6.638 -0.5917 -0.0386 -0.2049
 5821SOL    HW128922   0.723   3.033   6.607 -0.6852 -0.8746  0.7248
 5821SOL    HW228923   0.665   3.160   6.597  0.4117 -0.4331 -0.4927
 5822SOL     OW28924   0.519   1.664   8.708 -0.2436  0.3046 -0.4257
 5822SOL    HW128925   0.429   1.667   8.741 -0.1553  0.8635 -0.2314
 5822SOL    HW228926   0.544   1.592   8.766  0.4769 -0.5795 -1.8435
 5823SOL     OW28927   1.342   3.862  16.907  0.7045 -0.3390  0.1898
 5823SOL    HW128928   1.407   3.853  16.836  1.1083 -3.1789  0.9239
 5823SOL    HW228929   1.274   3.800  16.882  1.2654 -0.2591 -1.5966
 5824SOL     OW28930   0.728   4.020  11.854  0.5904  0.0853 -0.5310
 5824SOL    HW128931   0.728   4.115  11.845  1.0835 -0.2396 -3.7501
 5824SOL    HW228932   0.771   3.990  11.774  0.0553 -1.5674 -0.2071
 5825SOL     OW28933   1.551   2.028   5.678  0.0124  0.8780 -0.6849
 5825SOL    HW128934   1.606   2.031   5.756 -0.7950 -0.1867 -0.0740
 5825SOL    HW228935   1.609   2.074   5.617  1.2695  0.4092  0.1713
 5826SOL     OW28936   2.257   0.557   6.464 -0.1387  0.1280 -0.2107
 5826SOL    HW128937   2.198   0.568   6.538  1.9272 -0.2376  1.4845
 5826SOL    HW228938   2.204   0.490   6.419 -3.6963  2.7669  0.0956
 5827SOL     OW28939   2.698   2.305   5.110  0.0060  0.2043 -0.7415
 5827SOL    HW128940   2.619   2.266   5.073 -1.0308  1.1577  0.4596
 5827SOL    HW228941   2.706   2.376   5.045  0.2308  1.5099  0.7109
 5828SOL     OW28942   1.785   2.593  14.754  0.4493 -0.5326  0.0350
 5828SOL    HW128943   1.722   2.579  14.683 -1.5577  1.2476  1.5025
 5828SOL    HW228944   1.763   2.538  14.829  2.2198 -1.4784 -0.1183
 5829SOL     OW28945   3.526   3.485  11.309 -0.3391 -0.4454 -0.7472
 5829SOL    HW128946   3.540   3.576  11.284 -2.3502  0.0543 -0.0480
 5829SOL    HW228947   3.484   3.459  11.228  1.1465 -3.6289 -0.4846
 5830SOL     OW28948   0.935   2.298   8.585 -0.2594 -0.7980 -0.3324
 5830SOL    HW128949   0.869   2.234   8.560 -0.6155 -0.1923 -0.9198
 5830SOL    HW228950   0.925   2.288   8.680 -1.4047  1.8673 -0.1914
 5831SOL     OW28951   1.941   1.268  12.829  0.2549 -0.1774  0.2329
 5831SOL    HW128952   1.970   1.356  12.851  0.6542 -0.3331  0.3177
 5831SOL    HW228953   1.849   1.281  12.805  0.0377 -1.4317  0.3988
 5832SOL     OW28954   4.619   0.664   5.981 -0.3056  0.4061 -0.1648
 5832SOL    HW128955   4.537   0.669   6.030 -0.7138 -2.6740 -0.5259
 5832SOL    HW228956   4.602   0.705   5.896 -1.5905 -0.3302 -0.2723
 5833SOL     OW28957   2.959   1.071  12.661 -0.3517 -0.4686 -0.0970
 5833SOL    HW128958   2.947   1.164  12.677  0.3228 -0.4948  0.5905
 5833SOL    HW228959   2.943   1.034  12.748  0.7982  0.3605  0.4697
 5834SOL     OW28960   2.831   0.665   3.240 -0.6172  0.1981 -0.2669
 5834SOL    HW128961   2.804   0.580   3.276 -0.7859  0.7398  0.8723
 5834SOL    HW228962   2.794   0.667   3.152 -1.7596  2.4704  0.2909
 5835SOL     OW28963   3.587   4.188   4.113 -0.0385  0.4473 -0.0607
 5835SOL    HW128964   3.671   4.160   4.076  1.6139  1.1867  3.0830
 5835SOL    HW228965   3.578   4.125   4.185 -2.9702 -2.7360 -3.2317
 5836SOL     OW28966   1.589   1.558   5.160  0.3002 -0.1304  0.9423
 5836SOL    HW128967   1.503   1.578   5.197 -0.1741  1.6657 -1.1216
 5836SOL    HW228968   1.605   1.476   5.207 -0.8612 -1.2237 -0.5298
 5837SOL     OW28969   3.904   2.240   4.737  0.4344  0.2107 -0.7042
 5837SOL    HW128970   3.858   2.324   4.739  1.6647  0.8305  1.5768
 5837SOL    HW228971   3.996   2.267   4.736  0.7125 -0.6053  1.7808
 5838SOL     OW28972   2.325   4.689   8.805  0.5862  0.3538  0.0873
 5838SOL    HW128973   2.338   0.055   8.840  0.8416  0.5379 -0.4758
 5838SOL    HW228974   2.281   4.642   8.876  0.3736  0.7792  0.2390
 5839SOL     OW28975   1.500   4.390   8.083  0.0379  0.0828  0.3112
 5839SOL    HW128976   1.527   4.319   8.141 -2.3573 -1.4568 -0.4955
 5839SOL    HW228977   1.434   4.437   8.134 -1.4967 -0.6406 -1.0471
 5840SOL     OW28978   0.814   2.878   6.958  0.4640 -0.2835  0.2888
 5840SOL    HW128979   0.838   2.971   6.957 -0.0324 -0.1824 -2.4591
 5840SOL    HW228980   0.751   2.881   7.030  0.2388 -1.0074  0.1221
 5841SOL     OW28981   3.964   2.731   5.692 -0.4135  0.0031  0.1729
 5841SOL    HW128982   3.869   2.724   5.682 -0.3100  0.5741 -1.3448
 5841SOL    HW228983   3.970   2.811   5.744  0.3776  0.3161 -0.4068
 5842SOL     OW28984   1.757   4.640   3.286  0.2418 -0.4585 -0.0297
 5842SOL    HW128985   1.698   4.570   3.259 -0.4080  2.0813 -5.1699
 5842SOL    HW228986   1.738   4.708   3.221  0.5063 -1.5454 -1.2171
 5843SOL     OW28987   2.450   2.743   0.874  0.1240  0.5450 -0.2207
 5843SOL    HW128988   2.402   2.670   0.913 -0.2775 -0.0455 -1.8139
 5843SOL    HW228989   2.411   2.752   0.788 -0.6856 -0.1090  0.0744
 5844SOL     OW28990   2.691   2.589  15.621  0.5382 -0.8606 -0.5090
 5844SOL    HW128991   2.784   2.570  15.606  0.5391  0.3928 -2.0618
 5844SOL    HW228992   2.648   2.541  15.550  0.3252 -0.1525 -0.8512
 5845SOL     OW28993   1.730   3.461   9.903  0.1167 -0.6884 -0.8154
 5845SOL    HW128994   1.762   3.521   9.971 -2.1308  2.2863 -2.3911
 5845SOL    HW228995   1.656   3.424   9.952  0.1280  1.5037  0.8794
 5846SOL     OW28996   1.945   0.372   2.461  0.3229 -0.1810 -0.6277
 5846SOL    HW128997   1.972   0.417   2.541  1.3804  0.7941 -1.5313
 5846SOL    HW228998   1.873   0.320   2.497  0.7992 -0.4002  0.0119
 5847SOL     OW28999   4.641   0.771   2.204  0.0669 -0.6719  0.1411
 5847SOL    HW129000   4.593   0.819   2.136 -0.3443 -2.2007 -0.6532
 5847SOL    HW229001   4.565   0.728   2.243  0.4974 -0.9426  0.6704
 5848SOL     OW29002   3.009   0.933  13.613 -0.5308 -0.0432 -0.0210
 5848SOL    HW129003   3.099   0.963  13.629  0.1168 -1.9962 -0.0274
 5848SOL    HW229004   3.019   0.921  13.519  0.5544 -3.0636  0.4826
 5849SOL     OW29005   4.543   1.708   3.033 -0.4150  0.1748  0.1166
 5849SOL    HW129006   4.588   1.700   2.949 -0.9174  1.0059 -0.2335
 5849SOL    HW229007   4.608   1.760   3.080  0.0755  0.2345 -0.6215
 5850SOL     OW29008   2.418   1.395   7.741  0.1430  0.6450 -0.2980
 5850SOL    HW129009   2.394   1.464   7.803  0.6355  1.2984 -0.8299
 5850SOL    HW229010   2.513   1.407   7.746  0.2469 -0.4480  0.3574
 5851SOL     OW29011   4.246   4.400   2.632 -0.2302  0.3317  0.2598
 5851SOL    HW129012   4.337   4.431   2.637  0.4473 -1.9413  2.2812
 5851SOL    HW229013   4.256   4.328   2.570 -0.4753  0.8706 -0.4033
 5852SOL     OW29014   2.372   0.741   8.219  0.4902 -0.1665 -0.1452
 5852SOL    HW129015   2.351   0.674   8.284  0.2756  1.9146  1.9030
 5852SOL    HW229016   2.287   0.782   8.202  0.5920  0.5059  1.0416
 5853SOL     OW29017   1.019   1.624   5.102  0.2922  0.2297  0.1161
 5853SOL    HW129018   0.973   1.679   5.038  1.0383  1.2620  0.4731
 5853SOL    HW229019   0.987   1.536   5.079  0.3869  0.3580 -0.5106
 5854SOL     OW29020   0.781   1.023  12.424 -0.2890  0.6348 -0.0997
 5854SOL    HW129021   0.848   0.976  12.472 -1.9341  0.3783  1.9454
 5854SOL    HW229022   0.785   1.105  12.474  2.9633 -0.3594  1.2298
 5855SOL     OW29023   4.209   2.830  14.279  0.0840  0.8094 -0.4326
 5855SOL    HW129024   4.148   2.901  14.259  0.8495  1.0821 -1.7966
 5855SOL    HW229025   4.244   2.841  14.368  0.1530 -1.5140 -0.1631
 5856SOL     OW29026   1.286   2.797   9.659 -0.4622 -0.4385 -0.2157
 5856SOL    HW129027   1.210   2.824   9.607 -2.3025 -0.7310  2.3318
 5856SOL    HW229028   1.276   2.704   9.637  0.0494  0.1476 -3.0110
 5857SOL     OW29029   3.826   2.372  13.628  0.1501  0.2929 -0.2024
 5857SOL    HW129030   3.882   2.294  13.623  0.3828  0.6219 -2.6714
 5857SOL    HW229031   3.804   2.369  13.535  1.8747  0.7198 -0.6270
 5858SOL     OW29032   4.058   4.148   8.287  0.3096  0.0477  0.1564
 5858SOL    HW129033   4.087   4.075   8.340 -2.9300  1.3230  3.6559
 5858SOL    HW229034   4.028   4.101   8.209  0.4033  0.0835  0.0975
 5859SOL     OW29035   0.123   0.744   5.106  0.0441  0.4807 -0.4815
 5859SOL    HW129036   0.202   0.696   5.129 -1.1394  0.1309  2.8527
 5859SOL    HW229037   0.063   0.673   5.084  0.8842 -0.1962 -0.5592
 5860SOL     OW29038   3.898   2.649   7.079 -0.4751  0.0828  0.0234
 5860SOL    HW129039   3.945   2.732   7.090  2.3989 -1.5544 -0.0283
 5860SOL    HW229040   3.879   2.651   6.985  2.1588 -0.2927 -0.5070
 5861SOL     OW29041   4.460   4.263  13.214  0.4459 -0.0266  0.0398
 5861SOL    HW129042   4.379   4.239  13.168 -1.1468 -0.3505  3.0089
 5861SOL    HW229043   4.435   4.227  13.300 -1.3827  0.2151 -0.3807
 5862SOL     OW29044   4.162   2.984   6.378 -0.2348  0.0991  0.0079
 5862SOL    HW129045   4.155   2.956   6.287  0.8524 -2.2893  0.6580
 5862SOL    HW229046   4.087   2.935   6.412 -0.3117  0.4022  0.2787
 5863SOL     OW29047   3.779   4.249   2.550  0.1882 -0.9238  0.3192
 5863SOL    HW129048   3.708   4.260   2.613 -1.6592 -1.3694 -1.7228
 5863SOL    HW229049   3.755   4.171   2.501 -0.4809 -0.2551 -0.4146
 5864SOL     OW29050   3.950   0.562   8.143  0.6383  0.6731 -0.1848
 5864SOL    HW129051   3.865   0.523   8.127  1.7874 -0.9452 -2.3311
 5864SOL    HW229052   3.997   0.503   8.202 -3.0797 -1.8992  0.1279
 5865SOL     OW29053   4.500   3.871   3.595  0.8590  0.4854  0.2986
 5865SOL    HW129054   4.571   3.935   3.589  0.0270  1.4522  0.8173
 5865SOL    HW229055   4.436   3.918   3.542  0.8185  2.1891  1.8466
 5866SOL     OW29056   1.039   3.876   6.787 -0.2354  0.6394 -0.3691
 5866SOL    HW129057   1.126   3.837   6.781 -0.6112  0.0063 -1.6292
 5866SOL    HW229058   1.045   3.932   6.865  2.0112 -1.5974  1.0798
 5867SOL     OW29059   4.520   1.041  14.068 -0.4572 -0.4705 -0.8377
 5867SOL    HW129060   4.538   1.050  13.974  0.3367  1.5958 -0.4832
 5867SOL    HW229061   4.468   0.961  14.066 -1.0153 -0.1087 -0.4618
 5868SOL     OW29062   1.862   0.999   7.806 -0.2175  0.5324  0.6483
 5868SOL    HW129063   1.930   0.966   7.748  0.0899 -1.8944  2.3981
 5868SOL    HW229064   1.919   1.049   7.865  0.7467  2.4951 -1.9625
 5869SOL     OW29065   0.234   1.602   2.269  0.2149  0.1263  0.4308
 5869SOL    HW129066   0.250   1.696   2.266 -0.3550  0.2110 -0.0235
 5869SOL    HW229067   0.192   1.600   2.354  0.6991  0.2555  0.6701
 5870SOL     OW29068   1.324   1.307  15.379 -0.0209  0.0520 -0.3885
 5870SOL    HW129069   1.334   1.365  15.303  0.6100 -1.7959 -1.7269
 5870SOL    HW229070   1.388   1.349  15.437 -1.3512 -0.8963  1.7370
 5871SOL     OW29071   1.994   1.665   0.221 -0.2848 -0.2933  0.3084
 5871SOL    HW129072   1.939   1.629   0.290  0.0741 -0.6132  0.4262
 5871SOL    HW229073   1.989   1.606   0.145 -0.5503 -2.9559  2.4054
 5872SOL     OW29074   3.469   0.976   8.353 -0.3489 -0.5630 -0.2132
 5872SOL    HW129075   3.541   0.918   8.378  0.3365  0.0239 -0.8258
 5872SOL    HW229076   3.437   1.000   8.440 -0.7040  0.7049 -0.6982
 5873SOL     OW29077   0.617   0.861   6.419 -0.2855 -0.4390 -0.5286
 5873SOL    HW129078   0.587   0.844   6.508  0.6668  2.1776  0.2799
 5873SOL    HW229079   0.683   0.927   6.439 -0.0754 -1.1678  1.1365
 5874SOL     OW29080   4.134   2.712  12.135  0.2005 -0.0686  0.0777
 5874SOL    HW129081   4.212   2.707  12.079 -0.7244 -3.0822 -0.8845
 5874SOL    HW229082   4.060   2.711  12.075  0.4767 -1.8656 -0.2310
 5875SOL     OW29083   0.010   4.527   1.879 -0.2199  0.4856 -0.3924
 5875SOL    HW129084   4.691   4.610   1.903 -2.6634 -0.6939 -0.5052
 5875SOL    HW229085   4.648   4.492   1.850 -0.9917  3.4332 -1.7402
 5876SOL     OW29086   1.831   0.232   4.794 -0.1277  0.8822  0.3452
 5876SOL    HW129087   1.791   0.221   4.881 -0.8403  1.4814  0.0913
 5876SOL    HW229088   1.808   0.322   4.774 -0.8321  0.4083 -0.9594
 5877SOL     OW29089   0.806   2.375   5.094  0.0610  0.0326  0.1985
 5877SOL    HW129090   0.732   2.401   5.148  1.1990  2.7819  0.4738
 5877SOL    HW229091   0.782   2.404   5.005  1.0620 -2.9436 -1.0287
 5878SOL     OW29092   2.316   1.676  16.936 -0.3560  0.1897  0.7591
 5878SOL    HW129093   2.260   1.684  16.858  0.6421  2.6725  0.2829
 5878SOL    HW229094   2.384   1.613  16.913  0.9850  2.3962 -1.3530
 5879SOL     OW29095   4.079   1.431   6.675 -0.4817 -0.1603 -0.2534
 5879SOL    HW129096   4.171   1.421   6.650 -0.7080  0.4085 -1.3114
 5879SOL    HW229097   4.053   1.487   6.601 -0.2959  0.9100  0.5003
 5880SOL     OW29098   4.433   1.530   1.998 -0.0040  1.0715  0.4353
 5880SOL    HW129099   4.524   1.552   1.979  0.4123 -0.3244  0.8486
 5880SOL    HW229100   4.417   1.484   1.916  0.0513 -0.1734  1.1257
 5881SOL     OW29101   1.423   4.487   3.854  0.1076  0.0946 -0.1625
 5881SOL    HW129102   1.442   4.530   3.771  0.4356 -2.0548 -1.2228
 5881SOL    HW229103   1.328   4.490   3.868 -0.0310 -2.3438 -0.4187
 5882SOL     OW29104   0.609   0.679   2.712 -0.5057  0.1856  0.7868
 5882SOL    HW129105   0.607   0.609   2.778  0.2233 -0.1882  0.4160
 5882SOL    HW229106   0.558   0.746   2.757 -1.4924  0.1666 -0.3346
 5883SOL     OW29107   2.154   3.649  12.384 -0.1163 -0.2111  0.4244
 5883SOL    HW129108   2.177   3.740  12.398 -0.9488  0.0661  0.0066
 5883SOL    HW229109   2.230   3.601  12.418 -0.5318 -0.8289  0.4794
 5884SOL     OW29110   3.403   1.127   9.657  0.2133  0.6913 -0.7727
 5884SOL    HW129111   3.445   1.055   9.611 -0.4671 -1.3301  1.7344
 5884SOL    HW229112   3.480   1.177   9.685 -0.3304  1.6333 -0.9479
 5885SOL     OW29113   4.608   3.269   4.405  0.0317  0.6784 -0.1063
 5885SOL    HW129114   4.701   3.287   4.392  0.1882  0.1028  0.2060
 5885SOL    HW229115   4.573   3.309   4.326  0.1531 -0.6592 -0.8444
 5886SOL     OW29116   1.494   2.704   7.937  0.2863 -0.4730 -0.3816
 5886SOL    HW129117   1.537   2.653   7.869 -0.1006 -0.8030 -0.3758
 5886SOL    HW229118   1.450   2.637   7.990  0.9436 -0.8428 -0.2988
 5887SOL     OW29119   0.335   1.136  15.563 -0.5485  0.8679 -0.9750
 5887SOL    HW129120   0.246   1.138  15.598  0.8014  1.7433  2.3473
 5887SOL    HW229121   0.392   1.104  15.632 -0.0671  1.1653 -1.2328
 5888SOL     OW29122   2.934   1.040   2.326  0.4385  0.6490  0.3880
 5888SOL    HW129123   2.903   1.004   2.243  1.1234  1.2169 -0.1163
 5888SOL    HW229124   3.014   1.085   2.300  1.0976 -0.2263  0.8921
 5889SOL     OW29125   0.646   1.582   7.900 -0.3012 -0.0555  0.0214
 5889SOL    HW129126   0.712   1.553   7.837  0.8419  2.0991  0.1974
 5889SOL    HW229127   0.573   1.596   7.840 -0.5113  0.4976  0.3990
 5890SOL     OW29128   4.055   4.315   3.104 -0.3132  0.1963  0.6137
 5890SOL    HW129129   4.115   4.326   3.031 -0.6143 -0.3219  0.2831
 5890SOL    HW229130   4.012   4.236   3.071 -0.1068 -1.2935  3.8447
 5891SOL     OW29131   3.090   4.410   2.891  0.0427  0.0105  0.2831
 5891SOL    HW129132   3.028   4.337   2.882  0.7035 -0.1672 -3.0936
 5891SOL    HW229133   3.038   4.489   2.877 -0.0480 -0.4054 -1.8832
 5892SOL     OW29134   2.818   2.997   2.653 -0.4974 -0.3895  0.1200
 5892SOL    HW129135   2.852   2.999   2.742 -0.6565  1.2099  0.1282
 5892SOL    HW229136   2.862   2.915   2.629  0.4947  0.1160  0.2357
 5893SOL     OW29137   2.157   3.488   7.688  0.0541 -0.2815  0.1770
 5893SOL    HW129138   2.174   3.581   7.674  0.6649 -0.5905 -1.1042
 5893SOL    HW229139   2.231   3.471   7.746 -0.1118  1.3937  0.8804
 5894SOL     OW29140   3.218   4.417   6.284  0.7021  0.7251  0.0603
 5894SOL    HW129141   3.130   4.439   6.255  0.9098  1.6380  0.1214
 5894SOL    HW229142   3.199   4.374   6.367 -0.1632  0.6520 -0.1778
 5895SOL     OW29143   2.193   4.633   6.902  0.1782 -0.5296 -0.0540
 5895SOL    HW129144   2.266   4.599   6.849 -0.6027  0.5259 -1.8074
 5895SOL    HW229145   2.172   4.552   6.949 -2.0893  0.4364  0.6002
 5896SOL     OW29146   4.202   3.768  13.114  0.5977  0.5684  0.0122
 5896SOL    HW129147   4.259   3.691  13.119  1.3418  1.1818  1.0201
 5896SOL    HW229148   4.225   3.813  13.196 -0.2749 -1.7725  1.5343
 5897SOL     OW29149   0.211   2.746   1.927  0.4867 -0.2505  0.6910
 5897SOL    HW129150   0.158   2.807   1.977 -0.7622  0.9596 -2.0864
 5897SOL    HW229151   0.274   2.809   1.890 -0.6690  1.1535  1.1243
 5898SOL     OW29152   2.143   3.913  12.390 -0.5356 -0.0377 -0.4751
 5898SOL    HW129153   2.101   3.939  12.472  1.4810  0.2420  0.4934
 5898SOL    HW229154   2.099   3.959  12.319 -1.7161 -0.5953 -0.1045
 5899SOL     OW29155   4.130   1.584   1.683  0.1426 -0.0467 -0.5577
 5899SOL    HW129156   4.223   1.562   1.698  0.0515 -0.8522 -1.2028
 5899SOL    HW229157   4.105   1.514   1.624  0.7611  0.8081 -1.8239
 5900SOL     OW29158   2.230   2.626  11.305  0.1521 -0.4918 -0.1311
 5900SOL    HW129159   2.273   2.543  11.329 -0.8491 -1.1364 -0.5675
 5900SOL    HW229160   2.269   2.688  11.367  0.5345  1.0654 -1.9487
 5901SOL     OW29161   2.840   0.815  12.508  0.5260  0.1522  0.2025
 5901SOL    HW129162   2.829   0.838  12.416  1.1323 -0.2305  0.0314
 5901SOL    HW229163   2.862   0.903  12.537 -0.0068  0.1158  0.7342
 5902SOL     OW29164   1.435   2.615  15.819  0.1810 -0.1443 -0.1175
 5902SOL    HW129165   1.436   2.520  15.803 -1.9644 -0.4486  1.5801
 5902SOL    HW229166   1.354   2.636  15.774  0.4411 -0.6383 -0.8311
 5903SOL     OW29167   0.141   4.487   6.181  0.4355 -0.6679  0.3864
 5903SOL    HW129168   0.069   4.444   6.227 -1.2829  1.7710 -0.0453
 5903SOL    HW229169   0.182   4.541   6.248 -0.9687 -1.5810  1.9717
 5904SOL     OW29170   2.204   2.988   4.733 -0.5726  0.7158 -0.0779
 5904SOL    HW129171   2.275   2.976   4.796 -0.8177 -0.8304 -0.0951
 5904SOL    HW229172   2.179   2.899   4.708  0.7416  0.0147  1.1186
 5905SOL     OW29173   3.217   1.427   6.884  0.4375  0.5255  0.4378
 5905SOL    HW129174   3.225   1.522   6.875  2.7732  0.3332  0.3364
 5905SOL    HW229175   3.244   1.418   6.976  2.8746 -0.5498 -0.3787
 5906SOL     OW29176   1.795   0.885   4.647  0.0920 -0.2870 -0.5098
 5906SOL    HW129177   1.848   0.811   4.618 -0.2665 -0.9035  0.4071
 5906SOL    HW229178   1.854   0.955   4.623 -0.0416  0.1091  0.3220
 5907SOL     OW29179   3.821   1.055   4.286  0.4123 -0.4840 -0.1176
 5907SOL    HW129180   3.862   1.052   4.373  0.7182 -1.9246 -0.3064
 5907SOL    HW229181   3.758   0.984   4.290  0.6449 -0.6189  1.0930
 5908SOL     OW29182   1.547   0.856  16.737  0.5307 -0.2271 -0.1887
 5908SOL    HW129183   1.509   0.768  16.742 -1.2845  0.5666  0.3031
 5908SOL    HW229184   1.537   0.874  16.644  3.0513 -3.9280 -1.1760
 5909SOL     OW29185   4.150   3.041  12.073 -0.6633  0.3457  0.4619
 5909SOL    HW129186   4.146   3.137  12.073 -1.7611  0.2977 -0.1710
 5909SOL    HW229187   4.066   3.013  12.110 -0.1067 -1.6237  0.2260
 5910SOL     OW29188   1.408   1.029   1.723 -0.1756  0.0629 -0.4372
 5910SOL    HW129189   1.395   1.113   1.680 -0.1416  0.0152 -0.5391
 5910SOL    HW229190   1.443   1.057   1.808  0.3624 -0.8471 -0.3515
 5911SOL     OW29191   2.164   4.568   3.099 -0.0693 -0.3742  0.2673
 5911SOL    HW129192   2.136   4.557   3.190  2.5476  0.3598  1.1635
 5911SOL    HW229193   2.104   4.517   3.044  1.2022 -1.4407 -0.1334
 5912SOL     OW29194   0.910   2.969   7.422 -0.2679  0.3588 -0.3549
 5912SOL    HW129195   0.902   3.030   7.495 -1.1603 -0.7328  0.4540
 5912SOL    HW229196   1.001   2.985   7.396 -0.2852  0.8028 -0.1411
 5913SOL     OW29197   2.798   1.169  10.950  0.0695 -0.2174  0.7025
 5913SOL    HW129198   2.707   1.196  10.935  0.6866  1.0368 -0.7269
 5913SOL    HW229199   2.837   1.249  10.985 -1.2452  0.1682  1.2922
 5914SOL     OW29200   0.344   3.597   8.015 -0.0326 -0.2600  0.2486
 5914SOL    HW129201   0.410   3.566   8.078  0.0050  0.1700  0.4240
 5914SOL    HW229202   0.296   3.644   8.082 -2.3942 -1.7669 -0.3993
 5915SOL     OW29203   3.926   0.486   2.234 -0.0176 -0.0816 -0.2318
 5915SOL    HW129204   3.987   0.422   2.269 -0.0388 -0.6257 -1.1810
 5915SOL    HW229205   3.857   0.420   2.222  0.1206 -0.0149 -1.4737
 5916SOL     OW29206   0.202   1.083   2.676 -0.2484  0.5555 -0.7971
 5916SOL    HW129207   0.206   1.178   2.685 -1.4064  0.7168 -2.1684
 5916SOL    HW229208   0.116   1.067   2.638  0.1946 -1.0987 -1.1319
 5917SOL     OW29209   3.505   4.300   3.838  0.0685  0.0854 -0.0350
 5917SOL    HW129210   3.439   4.312   3.907 -0.7105 -0.4112 -0.6898
 5917SOL    HW229211   3.465   4.229   3.787  0.7942 -0.5928  0.3475
 5918SOL     OW29212   3.427   0.994  16.770 -0.1226 -0.1434  0.5434
 5918SOL    HW129213   3.361   0.963  16.832 -0.1830 -0.4780  0.3082
 5918SOL    HW229214   3.443   1.083  16.803  0.3071  0.2965 -0.8456
 5919SOL     OW29215   3.215   0.969   4.665 -0.3131 -0.9103 -0.5605
 5919SOL    HW129216   3.280   1.027   4.625 -1.0827  0.5882  0.3432
 5919SOL    HW229217   3.137   1.023   4.679  1.8669  1.7546  1.4020
 5920SOL     OW29218   4.064   2.640   3.485  0.2056  0.2493 -0.4593
 5920SOL    HW129219   4.063   2.733   3.461  0.6610  1.4346  4.0187
 5920SOL    HW229220   3.976   2.621   3.518 -0.4060  1.5972 -1.2880
 5921SOL     OW29221   0.319   4.092   8.560 -0.0586 -0.3213  0.0074
 5921SOL    HW129222   0.338   4.032   8.632 -0.1416  0.7182  0.8907
 5921SOL    HW229223   0.236   4.124   8.595 -0.8384 -1.8666 -0.4361
 5922SOL     OW29224   4.577   1.086   2.919 -0.2499  0.2828 -0.2156
 5922SOL    HW129225   4.626   1.154   2.964 -2.1299  2.0884 -0.8995
 5922SOL    HW229226   4.500   1.136   2.894  1.1313  1.8684 -1.2672
 5923SOL     OW29227   0.526   1.503   1.398  0.2826 -0.3049  0.1815
 5923SOL    HW129228   0.464   1.430   1.404  0.6075 -0.5738  0.2672
 5923SOL    HW229229   0.524   1.526   1.305 -1.7251 -0.8564  0.0888
 5924SOL     OW29230   1.880   0.379  16.970 -0.2674  0.0352 -1.3177
 5924SOL    HW129231   1.873   0.429  17.052 -2.1171  0.4958 -1.7491
 5924SOL    HW229232   1.802   0.323  16.966  0.2360 -0.6637 -1.2600
 5925SOL     OW29233   0.974   3.476   9.263  0.1312  0.4907 -0.2545
 5925SOL    HW129234   0.937   3.413   9.326 -0.3552  2.5780  1.5548
 5925SOL    HW229235   0.909   3.469   9.193 -0.6674  0.6623  0.4665
 5926SOL     OW29236   0.409   3.723   4.557 -0.1402 -0.3751  0.4830
 5926SOL    HW129237   0.484   3.664   4.565  1.1295  1.0123 -1.0145
 5926SOL    HW229238   0.354   3.671   4.498 -0.5404  0.2343  0.3119
 5927SOL     OW29239   3.033   0.875  13.340  0.0461 -0.5057 -0.4695
 5927SOL    HW129240   3.082   0.794  13.326  2.0016  0.4598  0.6748
 5927SOL    HW229241   2.950   0.856  13.297 -0.8028  0.7252  0.6422
 5928SOL     OW29242   2.211   1.508   5.871 -0.1496 -0.3368  0.1155
 5928SOL    HW129243   2.303   1.512   5.899 -0.0542  0.6535 -0.3280
 5928SOL    HW229244   2.177   1.596   5.891 -0.3038 -0.2004 -0.7404
 5929SOL     OW29245   4.219   4.593   8.157 -0.0367 -0.4144 -0.5095
 5929SOL    HW129246   4.260   4.667   8.111  0.6483  1.4251  3.0235
 5929SOL    HW229247   4.131   4.629   8.165  0.3900  0.5165  0.0345
 5930SOL     OW29248   1.212   0.340   5.517 -0.5366 -0.3293 -0.3522
 5930SOL    HW129249   1.246   0.262   5.560  0.0313  0.0213 -0.1596
 5930SOL    HW229250   1.179   0.302   5.436  0.5103 -0.5974 -0.6538
 5931SOL     OW29251   1.230   3.150   0.470 -0.8473 -0.3175 -0.2127
 5931SOL    HW129252   1.296   3.106   0.417 -1.2730 -1.9745  0.6554
 5931SOL    HW229253   1.278   3.233   0.480 -1.3697  0.0523 -0.8641
 5932SOL     OW29254   1.830   4.707   2.204  0.2165 -0.0847  0.5362
 5932SOL    HW129255   1.746   0.029   2.188 -1.4713 -3.7241 -0.5104
 5932SOL    HW229256   1.893   0.052   2.179  0.8930  0.1281  2.7722
 5933SOL     OW29257   4.336   3.244   3.224 -0.4244  0.2595 -0.1085
 5933SOL    HW129258   4.346   3.237   3.129 -3.1304 -1.3210 -0.2951
 5933SOL    HW229259   4.423   3.270   3.255 -0.1466 -0.8869  0.1070
 5934SOL     OW29260   4.236   1.862   8.831  0.6430  0.3082 -0.2464
 5934SOL    HW129261   4.231   1.888   8.923 -0.0686 -2.5993  0.5392
 5934SOL    HW229262   4.290   1.782   8.834  1.4542  0.9170  1.2554
 5935SOL     OW29263   0.728   4.585   3.732 -0.1880  0.0940  0.8792
 5935SOL    HW129264   0.707   4.660   3.676  3.0299 -0.4650 -1.0196
 5935SOL    HW229265   0.645   4.537   3.721 -0.5100  0.9782 -0.6536
 5936SOL     OW29266   2.885   3.882  16.266 -0.2252  0.0630  0.1736
 5936SOL    HW129267   2.923   3.946  16.206 -1.9846  0.6166 -0.3288
 5936SOL    HW229268   2.814   3.935  16.303 -1.2612 -1.2745  0.1117
 5937SOL     OW29269   4.708   0.494   4.461  0.5173 -0.1678 -0.0696
 5937SOL    HW129270   0.038   0.429   4.509  0.4354  1.2899  1.9945
 5937SOL    HW229271   0.056   0.547   4.422 -1.4908  1.3267 -1.6708
 5938SOL     OW29272   4.029   0.757  15.793 -0.2146 -0.0757 -0.7315
 5938SOL    HW129273   3.986   0.723  15.872 -0.4559  0.9320 -0.4370
 5938SOL    HW229274   3.952   0.763  15.736 -1.3470 -0.9453  0.6822
 5939SOL     OW29275   3.724   0.344   3.362 -0.1220 -0.2035  0.6506
 5939SOL    HW129276   3.779   0.306   3.431  2.1010  0.5683 -0.7152
 5939SOL    HW229277   3.784   0.386   3.300 -1.2831 -1.1099 -1.0956
 5940SOL     OW29278   1.352   2.496   5.379 -0.0964  0.5498 -0.6994
 5940SOL    HW129279   1.308   2.535   5.455  2.4313 -1.5005  1.8184
 5940SOL    HW229280   1.271   2.477   5.333 -1.3839  1.0791  1.3316
 5941SOL     OW29281   1.273   4.154  16.885  0.7512 -0.2067 -0.1270
 5941SOL    HW129282   1.281   4.070  16.839 -1.5680 -0.8374  0.5916
 5941SOL    HW229283   1.179   4.169  16.875  0.4351 -2.2684 -0.2389
 5942SOL     OW29284   3.887   1.073   1.358 -0.2812  0.0660 -0.7968
 5942SOL    HW129285   3.981   1.067   1.376 -0.0027  2.2824 -1.4157
 5942SOL    HW229286   3.890   1.116   1.273  3.0278 -0.2590 -0.8261
 5943SOL     OW29287   3.645   0.429   9.224 -0.5331  0.0344 -0.1921
 5943SOL    HW129288   3.629   0.344   9.184 -0.4084 -0.9675  1.9181
 5943SOL    HW229289   3.727   0.460   9.186 -0.0919 -0.2605  0.5430
 5944SOL     OW29290   0.380   4.177   6.636 -0.0601 -0.8074  0.1331
 5944SOL    HW129291   0.436   4.134   6.699  1.1784  0.6392  0.0178
 5944SOL    HW229292   0.446   4.214   6.577 -1.4036 -0.4961 -1.1982
 5945SOL     OW29293   0.661   0.990  15.542 -0.1146 -0.8740  0.2065
 5945SOL    HW129294   0.598   1.009  15.472 -0.0569  1.3090  0.7584
 5945SOL    HW229295   0.727   1.059  15.538  1.8011 -2.6267  1.1152
 5946SOL     OW29296   2.528   4.551   8.719  0.1188  0.1318  0.3387
 5946SOL    HW129297   2.485   4.475   8.680  0.8424 -0.1825  0.1698
 5946SOL    HW229298   2.448   4.594   8.751 -0.5713 -2.8145  2.5614
 5947SOL     OW29299   4.538   1.488  12.107 -0.4372  0.5402  0.3853
 5947SOL    HW129300   4.504   1.535  12.031 -0.0388  2.0256  1.1264
 5947SOL    HW229301   4.555   1.403  12.066  1.5578  1.3105 -0.4254
 5948SOL     OW29302   3.300   0.935   8.107  0.5023 -0.7425 -0.2509
 5948SOL    HW129303   3.368   0.955   8.172  0.3334  1.7503 -0.8605
 5948SOL    HW229304   3.308   1.010   8.048 -1.6886  0.2481  0.7074
 5949SOL     OW29305   4.386   0.792  14.937  0.5886 -0.5078 -0.2805
 5949SOL    HW129306   4.414   0.769  14.849  0.0317 -1.4151 -0.2195
 5949SOL    HW229307   4.294   0.815  14.924  0.0976 -1.7632  0.9193
 5950SOL     OW29308   1.615   0.316  16.931  0.0809 -0.1296  0.2512
 5950SOL    HW129309   1.541   0.304  16.992  0.0520 -2.6352 -0.2555
 5950SOL    HW229310   1.601   0.232  16.886 -2.1641 -0.6082  1.8293
 5951SOL     OW29311   0.984   0.974   7.194 -0.1699 -0.3059  0.4654
 5951SOL    HW129312   0.939   1.055   7.171  0.1274 -0.1460  0.4392
 5951SOL    HW229313   1.056   0.967   7.131  0.2194 -2.5560  1.1652
 5952SOL     OW29314   1.510   2.605  16.955 -0.7996  0.0532  0.5688
 5952SOL    HW129315   1.594   2.560  16.962 -0.5395  0.4527  0.0064
 5952SOL    HW229316   1.469   2.543  16.895 -1.0078  0.5474  0.1983
 5953SOL     OW29317   2.193   0.321   3.200 -0.1496 -0.4692  0.7773
 5953SOL    HW129318   2.242   0.402   3.217  0.4742 -0.7114  0.1331
 5953SOL    HW229319   2.266   0.275   3.160 -0.6385  0.6286 -1.4381
 5954SOL     OW29320   3.496   1.261   7.581  0.0294  0.2548 -0.2655
 5954SOL    HW129321   3.556   1.283   7.510  1.0733  0.7936  0.7847
 5954SOL    HW229322   3.530   1.319   7.650  0.8395  0.4196 -0.8028
 5955SOL     OW29323   1.725   2.711   2.310 -0.1530  0.0480 -0.6275
 5955SOL    HW129324   1.798   2.657   2.340 -1.2082 -0.0138  1.7929
 5955SOL    HW229325   1.687   2.651   2.246 -1.1275  1.5450 -1.4556
 5956SOL     OW29326   2.795   4.506   8.576 -0.1755  1.0117  0.5553
 5956SOL    HW129327   2.728   4.493   8.643 -2.9619  1.0533 -2.2340
 5956SOL    HW229328   2.824   4.415   8.565 -3.5860  0.0131 -0.0423
 5957SOL     OW29329   1.259   1.367  16.780  0.0532 -0.0922 -0.1841
 5957SOL    HW129330   1.177   1.321  16.798 -0.0823  0.4952  0.6882
 5957SOL    HW229331   1.263   1.353  16.686  2.4061 -0.4104 -0.0421
 5958SOL     OW29332   1.638   3.432   7.262  0.5194  0.2820 -0.6152
 5958SOL    HW129333   1.568   3.429   7.327 -0.3950  0.5970 -1.5941
 5958SOL    HW229334   1.592   3.400   7.185  1.1463  0.4314 -1.0568
 5959SOL     OW29335   3.674   2.026   1.369 -0.5694  0.1618 -0.1896
 5959SOL    HW129336   3.645   2.054   1.282  0.9596  0.4421 -0.6176
 5959SOL    HW229337   3.723   2.102   1.402 -0.1582 -0.0972 -0.2075
 5960SOL     OW29338   2.668   0.558   4.591 -0.6642 -0.1766 -0.0527
 5960SOL    HW129339   2.622   0.482   4.556  0.2564  0.0935 -1.8293
 5960SOL    HW229340   2.739   0.565   4.527 -0.2891 -2.1613  0.1727
 5961SOL     OW29341   1.742   1.116   8.530  0.2415  0.0946  0.6720
 5961SOL    HW129342   1.790   1.150   8.455 -0.1160  0.3459  0.5567
 5961SOL    HW229343   1.801   1.156   8.594 -1.2955  0.9587  1.5478
 5962SOL     OW29344   0.354   4.479   6.879 -0.0064  0.5137 -0.0247
 5962SOL    HW129345   0.287   4.416   6.908 -0.9327  0.6729 -1.8482
 5962SOL    HW229346   0.411   4.474   6.956  0.4798 -1.1178 -0.4983
 5963SOL     OW29347   2.492   4.125   6.448 -0.2990 -0.4313  0.2786
 5963SOL    HW129348   2.502   4.169   6.363  0.7435 -1.1223  0.0419
 5963SOL    HW229349   2.429   4.181   6.493 -0.2735  0.3253 -0.6225
 5964SOL     OW29350   3.981   4.199   2.730 -0.4752  0.1787 -0.6040
 5964SOL    HW129351   3.910   4.210   2.667 -1.2874 -1.2125  0.0803
 5964SOL    HW229352   4.041   4.150   2.673  1.1251  2.5383 -0.9785
 5965SOL     OW29353   0.858   3.377  11.137  0.0890 -0.5583 -0.1819
 5965SOL    HW129354   0.811   3.302  11.175 -0.5327  0.1084  0.3648
 5965SOL    HW229355   0.845   3.358  11.044  1.7591 -0.9923 -0.3201
 5966SOL     OW29356   0.820   1.910   6.224  0.0255  0.7561 -0.3610
 5966SOL    HW129357   0.777   1.994   6.212  0.1889  0.7769 -0.8046
 5966SOL    HW229358   0.911   1.934   6.207  0.2893 -0.0744 -0.1188
 5967SOL     OW29359   3.867   1.314   3.682 -0.7472 -0.7352  0.7117
 5967SOL    HW129360   3.815   1.255   3.628 -0.1786 -1.6386  1.1559
 5967SOL    HW229361   3.807   1.389   3.678 -0.6754 -0.6494  1.2570
 5968SOL     OW29362   1.019   4.649  14.662  0.3418 -0.4433  0.5467
 5968SOL    HW129363   0.959   4.699  14.717  0.3554  1.8719 -1.5289
 5968SOL    HW229364   1.092   4.710  14.674  0.3939 -0.5195  0.6265
 5969SOL     OW29365   3.783   2.502   4.748  0.4262 -0.0321 -0.5704
 5969SOL    HW129366   3.763   2.585   4.791  1.8170 -0.3925  0.7625
 5969SOL    HW229367   3.692   2.476   4.735 -0.0460  1.5095 -0.3209
 5970SOL     OW29368   4.130   4.689   5.696  0.0779  0.4868 -0.0260
 5970SOL    HW129369   4.165   4.609   5.657  0.5950  1.3386 -1.3107
 5970SOL    HW229370   4.118   4.675   5.790 -0.1308 -1.3086 -0.3310
 5971SOL     OW29371   2.105   4.078   7.507  0.6120 -0.0861  0.5180
 5971SOL    HW129372   2.079   4.169   7.526 -0.9967 -0.2154 -1.0425
 5971SOL    HW229373   2.197   4.075   7.532 -0.2620  1.5013  4.0219
 5972SOL     OW29374   2.034   1.511  14.840 -0.2198  0.1890  0.0295
 5972SOL    HW129375   1.972   1.439  14.851 -2.8089  2.3679 -0.2371
 5972SOL    HW229376   2.012   1.527  14.748  0.6111 -0.5479 -0.2987
 5973SOL     OW29377   0.197   1.344   2.616  0.4671  0.5542 -0.4803
 5973SOL    HW129378   0.220   1.435   2.597  2.9252  0.3407  1.3715
 5973SOL    HW229379   0.118   1.357   2.668 -0.0609 -0.8850 -0.9350
 5974SOL     OW29380   3.225   0.661   0.058 -0.2202  0.7158  0.0964
 5974SOL    HW129381   3.270   0.581   0.082  0.6845  1.4396  0.8082
 5974SOL    HW229382   3.293   0.706   0.008 -1.0792  0.1211 -1.5885
 5975SOL     OW29383   0.535   2.474   6.869 -0.4660  0.0672  0.3427
 5975SOL    HW129384   0.511   2.461   6.960  0.3880 -1.7140  0.3303
 5975SOL    HW229385   0.522   2.568   6.872 -1.4826 -0.0095 -1.7992
 5976SOL     OW29386   2.809   0.170   3.055 -0.2094 -0.2279  0.0139
 5976SOL    HW129387   2.729   0.180   3.004 -0.9004 -1.0710  0.9510
 5976SOL    HW229388   2.877   0.188   2.990  0.0398  0.1345  0.3721
 5977SOL     OW29389   1.749   2.781   4.419 -0.3287  0.1832  0.1956
 5977SOL    HW129390   1.717   2.715   4.481  3.5674 -0.4969  1.4837
 5977SOL    HW229391   1.680   2.762   4.355 -0.6987 -1.6565  1.1280
 5978SOL     OW29392   0.163   3.548   3.258  0.0412 -0.3097 -0.1351
 5978SOL    HW129393   0.074   3.561   3.226  0.6810 -2.0988 -2.6006
 5978SOL    HW229394   0.205   3.529   3.175  0.5855 -2.4676  0.6247
 5979SOL     OW29395   4.647   0.693   1.836 -0.3722  0.2040 -0.0412
 5979SOL    HW129396   4.581   0.747   1.792 -0.7747  0.9797  1.5317
 5979SOL    HW229397   0.010   0.733   1.813 -0.6803  0.9832  0.1623
 5980SOL     OW29398   1.334   1.138   3.553  0.3781  0.4892 -0.2729
 5980SOL    HW129399   1.356   1.046   3.567  0.2932  0.6711  1.0516
 5980SOL    HW229400   1.291   1.139   3.467 -1.3441  1.4601  0.5860
 5981SOL     OW29401   0.986   3.673  12.675  0.2381 -0.3139 -0.5184
 5981SOL    HW129402   1.080   3.692  12.681 -0.0922  0.9169  0.7886
 5981SOL    HW229403   0.992   3.577  12.670 -0.3287 -0.4287  0.8482
 5982SOL     OW29404   2.066   4.574   0.197  0.3137  0.1175 -0.1403
 5982SOL    HW129405   2.021   4.644   0.244 -1.2919 -1.7467  1.1036
 5982SOL    HW229406   2.083   4.503   0.259  2.9217  0.4780 -0.4492
 5983SOL     OW29407   0.957   1.537   1.814 -0.1390  0.7593  0.0932
 5983SOL    HW129408   0.872   1.529   1.857 -1.4798  0.9981 -2.5292
 5983SOL    HW229409   0.948   1.616   1.761 -0.1126  0.0647 -0.9598
 5984SOL     OW29410   0.764   2.515   5.934 -0.8738 -0.6872  0.2322
 5984SOL    HW129411   0.682   2.476   5.903 -1.3097  0.0575  0.4650
 5984SOL    HW229412   0.750   2.495   6.027 -0.1259 -1.3466  0.1996
 5985SOL     OW29413   2.245   4.092   4.185 -0.6032  0.0446  0.0324
 5985SOL    HW129414   2.180   4.137   4.239  0.3684 -0.8750  1.9847
 5985SOL    HW229415   2.314   4.157   4.195 -1.1035  0.5849 -0.0312
 5986SOL     OW29416   2.303   1.015  13.828 -0.0483 -0.3736 -0.7935
 5986SOL    HW129417   2.340   0.938  13.871 -0.7754  1.0750  2.3730
 5986SOL    HW229418   2.224   0.977  13.791 -0.6311  0.0687  0.0010
 5987SOL     OW29419   3.446   3.489  11.034 -0.1596  0.2582  0.5778
 5987SOL    HW129420   3.396   3.563  11.002  1.7819  0.2198 -2.4705
 5987SOL    HW229421   3.444   3.433  10.956  2.8687 -1.3086  1.6256
 5988SOL     OW29422   1.716   4.484  11.551 -0.4049 -0.3878  0.9181
 5988SOL    HW129423   1.783   4.472  11.619  0.3270  1.7210  0.5742
 5988SOL    HW229424   1.777   4.508  11.481  0.4449  1.5194  2.3103
 5989SOL     OW29425   0.956   1.235   2.278 -0.2090 -0.4881 -1.0536
 5989SOL    HW129426   1.048   1.257   2.263 -0.5328  1.1283 -0.6583
 5989SOL    HW229427   0.959   1.179   2.356 -2.3601  0.1994 -0.4955
 5990SOL     OW29428   1.812   0.635   7.360 -0.4875 -0.4574 -0.3115
 5990SOL    HW129429   1.832   0.672   7.446 -0.8543  0.3848 -0.5891
 5990SOL    HW229430   1.868   0.692   7.307  1.2176 -2.0701 -0.2251
 5991SOL     OW29431   2.016   2.977   8.766 -0.2734  0.2532  0.7041
 5991SOL    HW129432   2.107   3.005   8.776  0.6451 -2.2186 -0.8030
 5991SOL    HW229433   1.992   2.969   8.859  2.4385 -1.4719  1.2281
 5992SOL     OW29434   1.167   1.247   2.986  0.0153 -0.1353  0.4528
 5992SOL    HW129435   1.089   1.232   3.039 -1.1596 -0.7392 -1.4332
 5992SOL    HW229436   1.143   1.230   2.895 -1.0059  0.3667  0.6298
 5993SOL     OW29437   0.919   1.362   5.085 -0.0980  0.2442  0.9592
 5993SOL    HW129438   0.941   1.270   5.073  0.2495  0.6408 -1.4550
 5993SOL    HW229439   0.946   1.367   5.177 -0.0618  2.7446  0.8073
 5994SOL     OW29440   4.669   0.532   6.876  0.5172 -0.0080 -1.0590
 5994SOL    HW129441   4.718   0.543   6.958  1.0098 -0.2324 -1.3257
 5994SOL    HW229442   0.018   0.513   6.816 -1.1877 -1.9376 -2.4714
 5995SOL     OW29443   0.722   0.014   0.580  0.2000  0.0362 -0.2307
 5995SOL    HW129444   0.700   0.096   0.625  0.4046  0.9675 -1.8607
 5995SOL    HW229445   0.780   4.690   0.640  0.1976  1.0092  0.5379
 5996SOL     OW29446   0.714   2.262  14.556 -0.0918 -0.1730 -0.2684
 5996SOL    HW129447   0.809   2.245  14.550 -0.1945 -0.2528 -1.7715
 5996SOL    HW229448   0.663   2.190  14.517 -0.6694 -0.8437  1.7309
 5997SOL     OW29449   1.593   2.981   8.026 -0.3176  0.6923  0.0617
 5997SOL    HW129450   1.528   2.951   8.090  1.7047  0.0016  1.8003
 5997SOL    HW229451   1.664   3.002   8.087  0.0159  0.7027 -0.3313
 5998SOL     OW29452   1.740   4.665   7.300  0.5101 -1.0531  0.1155
 5998SOL    HW129453   1.765   0.020   7.349 -0.2669 -0.6326 -0.1501
 5998SOL    HW229454   1.644   4.669   7.298  0.5382 -0.2251  0.6346
 5999SOL     OW29455   0.787   1.021   5.842  0.0987 -0.0414  0.7327
 5999SOL    HW129456   0.765   0.939   5.886 -3.2419  0.4592 -0.0406
 5999SOL    HW229457   0.706   1.071   5.850  0.0076 -0.0244 -0.3037
 6000SOL     OW29458   2.961   2.323   3.327  0.0521  0.2442  0.5717
 6000SOL    HW129459   2.896   2.387   3.355 -1.7963 -1.9019  1.2726
 6000SOL    HW229460   2.999   2.363   3.249 -1.8734 -2.8877 -2.0017
 6001SOL     OW29461   3.928   3.349   4.204  0.4747  0.3729  0.5686
 6001SOL    HW129462   3.931   3.400   4.286 -2.7375  0.8990  0.3845
 6001SOL    HW229463   3.923   3.423   4.143  0.0960 -1.0468 -1.1163
 6002SOL     OW29464   0.576   2.166   4.803  0.2303 -0.1556  0.1163
 6002SOL    HW129465   0.646   2.229   4.818 -2.1303  2.1851  1.2569
 6002SOL    HW229466   0.540   2.176   4.715 -0.2069 -1.1250  0.1763
 6003SOL     OW29467   3.314   0.093  12.046  0.1922  0.0544 -0.0329
 6003SOL    HW129468   3.309   0.187  12.062  0.4630 -0.1260  1.1163
 6003SOL    HW229469   3.389   0.072  12.102 -0.1365 -3.0157 -0.7469
 6004SOL     OW29470   1.155   2.177   8.459 -0.1106  0.5540  0.5392
 6004SOL    HW129471   1.093   2.194   8.529 -1.1754  1.2969 -0.5830
 6004SOL    HW229472   1.201   2.108   8.507 -0.2645  0.2086  0.1886
 6005SOL     OW29473   0.535   2.368   3.298  0.5298 -0.4835 -0.2548
 6005SOL    HW129474   0.441   2.383   3.295  0.9090  1.8123 -0.4805
 6005SOL    HW229475   0.562   2.441   3.353 -2.9947  0.4921  0.1828
 6006SOL     OW29476   3.491   1.041   7.812 -0.5215 -0.0454  0.5932
 6006SOL    HW129477   3.505   1.081   7.726  2.2782 -0.1230  1.0085
 6006SOL    HW229478   3.485   0.950   7.784  1.4258 -0.1658  0.5233
 6007SOL     OW29479   0.410   1.350   7.764 -0.0311 -0.2845 -0.1416
 6007SOL    HW129480   0.420   1.311   7.677  1.5408  2.6571 -1.2836
 6007SOL    HW229481   0.423   1.441   7.737 -3.2774  0.1734 -0.1150
 6008SOL     OW29482   2.591   2.824   5.237 -0.3124  0.4080 -0.2948
 6008SOL    HW129483   2.664   2.764   5.228 -1.1822 -0.7186  0.1515
 6008SOL    HW229484   2.624   2.903   5.281  1.2973  1.5490 -3.5443
 6009SOL     OW29485   0.372   2.168   3.977  0.1434 -0.0294 -1.1031
 6009SOL    HW129486   0.385   2.166   3.883 -0.5829  1.5294 -1.2412
 6009SOL    HW229487   0.417   2.086   3.995  1.7368  1.0518 -0.1928
 6010SOL     OW29488   0.529   4.321   3.363 -0.2396 -0.0278 -0.1970
 6010SOL    HW129489   0.461   4.386   3.345  1.0246  1.0117 -1.2519
 6010SOL    HW229490   0.603   4.370   3.326  1.8330 -2.7131  0.4206
 6011SOL     OW29491   0.744   2.639   4.686 -0.6600 -0.0202  0.2783
 6011SOL    HW129492   0.829   2.680   4.669 -0.6654  0.3700  1.1712
 6011SOL    HW229493   0.719   2.618   4.596 -3.7205  2.1350  0.6424
 6012SOL     OW29494   2.683   4.050   6.134 -0.3092  0.8536 -0.2067
 6012SOL    HW129495   2.647   3.981   6.190 -0.5697  0.9464 -0.2585
 6012SOL    HW229496   2.662   4.015   6.047  1.0929 -0.3757 -0.0610
 6013SOL     OW29497   1.188   2.456   2.184 -0.2362  0.5052  0.2636
 6013SOL    HW129498   1.100   2.439   2.150 -0.8158  1.9695  1.0364
 6013SOL    HW229499   1.209   2.535   2.133 -0.0511 -0.4225 -1.1170
 6014SOL     OW29500   1.945   2.706   4.855 -0.4667 -0.5960 -0.7992
 6014SOL    HW129501   1.864   2.730   4.810 -1.1178 -0.6233  0.3713
 6014SOL    HW229502   2.010   2.717   4.786 -1.5572 -1.9396 -2.0647
 6015SOL     OW29503   1.261   2.678  15.527  0.7214  0.1657 -0.5173
 6015SOL    HW129504   1.241   2.594  15.569 -0.8619  1.0150  0.4290
 6015SOL    HW229505   1.201   2.686  15.453  0.8048  1.0963 -0.4833
 6016SOL     OW29506   1.418   3.434   2.299  0.5728  0.3156 -0.0074
 6016SOL    HW129507   1.356   3.490   2.253 -1.2000 -0.5748  1.2912
 6016SOL    HW229508   1.428   3.366   2.232  0.7626  2.3697 -2.0571
 6017SOL     OW29509   4.631   1.288   6.038 -0.4296  0.5584  0.4049
 6017SOL    HW129510   4.606   1.376   6.007  1.8036  1.5183  1.3226
 6017SOL    HW229511   0.005   1.291   6.036 -0.4175  0.0984  0.4187
 6018SOL     OW29512   4.109   2.644   2.548  0.1536 -0.0478  0.5953
 6018SOL    HW129513   4.159   2.604   2.619 -0.5524 -1.4497  0.2911
 6018SOL    HW229514   4.117   2.572   2.486 -0.9785 -0.6508  1.1531
 6019SOL     OW29515   3.553   0.363  15.626  0.7562  0.5329  0.2421
 6019SOL    HW129516   3.642   0.396  15.618  1.3004 -1.0299 -0.2903
 6019SOL    HW229517   3.502   0.414  15.562  1.2925  0.0090 -0.6017
 6020SOL     OW29518   3.282   3.411  10.335  0.6628  0.4601  0.4496
 6020SOL    HW129519   3.308   3.418  10.243  1.1123  0.7969  0.6021
 6020SOL    HW229520   3.188   3.423  10.322  0.7377 -1.6203 -2.1576
 6021SOL     OW29521   3.670   0.982   0.114  0.4755  0.3311  0.1574
 6021SOL    HW129522   3.658   1.075   0.094  0.9497  0.5142  0.7305
 6021SOL    HW229523   3.634   0.983   0.203 -0.0450  0.0065 -0.0535
 6022SOL     OW29524   0.402   2.896   2.514 -0.4891 -0.2683  0.0799
 6022SOL    HW129525   0.480   2.844   2.533 -0.9913 -1.4632 -1.1298
 6022SOL    HW229526   0.342   2.821   2.510 -1.3379  0.3094  2.0166
 6023SOL     OW29527   2.890   2.228   9.329 -0.1709 -0.0662  0.0244
 6023SOL    HW129528   2.937   2.309   9.309  0.7140 -0.8297 -1.0754
 6023SOL    HW229529   2.901   2.174   9.250  0.4145  1.0530 -0.6610
 6024SOL     OW29530   3.529   3.158  12.419  0.6652 -0.0610  0.9099
 6024SOL    HW129531   3.498   3.232  12.470 -0.2197  0.0642  0.1937
 6024SOL    HW229532   3.496   3.180  12.332  1.1628  1.9689  1.2491
 6025SOL     OW29533   3.158   3.982   2.947 -0.1391 -0.7222 -0.4052
 6025SOL    HW129534   3.111   3.926   2.886 -0.4615  3.1630 -3.7018
 6025SOL    HW229535   3.246   3.946   2.958  0.2674  0.9940  1.8432
 6026SOL     OW29536   1.917   4.274  14.022  0.1672 -0.5609 -0.1702
 6026SOL    HW129537   1.984   4.303  14.084 -0.9685  0.6271  0.5039
 6026SOL    HW229538   1.913   4.349  13.962  1.3639 -1.8886 -1.9083
 6027SOL     OW29539   1.334   2.678   8.297 -0.7043 -0.1036 -0.0445
 6027SOL    HW129540   1.366   2.591   8.318  1.0092  0.8193  1.1338
 6027SOL    HW229541   1.325   2.713   8.386 -1.0665  0.6321 -0.3693
 6028SOL     OW29542   3.167   3.979  12.220  0.0220  0.5424  0.0387
 6028SOL    HW129543   3.140   4.012  12.135  3.1616  0.7849 -0.8423
 6028SOL    HW229544   3.260   3.999  12.210 -0.6560  4.0912  0.8657
 6029SOL     OW29545   4.288   3.866   0.984  0.3889  0.1195  0.0719
 6029SOL    HW129546   4.199   3.893   0.962  0.4708  0.7457  0.5293
 6029SOL    HW229547   4.266   3.810   1.058 -1.2014  0.1400 -0.3936
 6030SOL     OW29548   3.435   1.510   5.392 -0.1228  0.4720  0.0364
 6030SOL    HW129549   3.395   1.452   5.327  2.0180 -1.3182  0.3253
 6030SOL    HW229550   3.355   1.545   5.431 -0.9958 -1.1611 -0.2813
 6031SOL     OW29551   4.080   0.474   5.560  0.1012 -0.9063 -0.0073
 6031SOL    HW129552   4.100   0.380   5.570 -1.2598 -1.2590 -0.5893
 6031SOL    HW229553   4.161   0.518   5.587 -0.6338  0.0156  0.6965
 6032SOL     OW29554   2.768   2.605   9.582 -0.1435  0.2055  0.2330
 6032SOL    HW129555   2.740   2.514   9.599  1.0292 -0.3923 -1.1044
 6032SOL    HW229556   2.712   2.651   9.644 -1.6020 -1.5982  0.2658
 6033SOL     OW29557   0.286   1.533  13.531 -0.1334  0.6605  0.0093
 6033SOL    HW129558   0.249   1.466  13.473  0.1116  0.0009  0.6128
 6033SOL    HW229559   0.280   1.487  13.615  2.4757 -1.3797 -0.9424
 6034SOL     OW29560   2.210   0.933   2.640 -0.0992 -0.5668  0.6269
 6034SOL    HW129561   2.171   0.993   2.703  1.4534  1.0316  0.0596
 6034SOL    HW229562   2.178   0.849   2.673  2.0674 -1.7453 -0.2369
 6035SOL     OW29563   2.992   3.192   5.835  0.0540 -0.1787 -0.3611
 6035SOL    HW129564   3.017   3.283   5.850  1.7847 -0.7521  0.2077
 6035SOL    HW229565   2.908   3.181   5.880 -0.6437  1.1769 -1.3284
 6036SOL     OW29566   0.948   4.344  13.054  0.1006  0.0152 -0.2482
 6036SOL    HW129567   0.883   4.333  12.985 -0.1946  1.3867 -0.1876
 6036SOL    HW229568   0.886   4.394  13.107 -1.2500 -0.7895 -1.0611
 6037SOL     OW29569   0.648   3.123   6.064  0.3703 -0.0061  0.0523
 6037SOL    HW129570   0.634   3.029   6.077 -1.8327  0.4074  0.6894
 6037SOL    HW229571   0.610   3.118   5.976  1.9184 -3.0525 -0.4477
 6038SOL     OW29572   0.313   3.427   6.642 -0.5884  0.1760 -0.1605
 6038SOL    HW129573   0.218   3.430   6.632 -0.8443 -1.0439  1.8811
 6038SOL    HW229574   0.318   3.339   6.680  1.4435  0.6152  0.5676
 6039SOL     OW29575   2.817   0.432   2.125  0.6714  0.3210  0.1052
 6039SOL    HW129576   2.865   0.513   2.142 -0.0045  0.6619  0.3982
 6039SOL    HW229577   2.769   0.472   2.053  0.0481 -0.3394  0.1480
 6040SOL     OW29578   2.627   3.734  13.122 -0.4418  0.0255 -0.3130
 6040SOL    HW129579   2.696   3.711  13.060 -0.7706 -0.1701 -0.6046
 6040SOL    HW229580   2.554   3.698  13.071  0.7025 -1.5111 -0.8546
 6041SOL     OW29581   4.106   1.106  14.335 -0.0414 -0.4364 -0.1921
 6041SOL    HW129582   4.171   1.035  14.332 -0.6300 -1.0289  1.0484
 6041SOL    HW229583   4.164   1.181  14.349  0.8515 -0.9146 -1.2935
 6042SOL     OW29584   1.106   0.305   3.863  0.0120 -0.4638  0.2266
 6042SOL    HW129585   1.164   0.381   3.853 -1.2994  0.5458  0.3363
 6042SOL    HW229586   1.025   0.332   3.905  1.5721  1.2248  2.1186
 6043SOL     OW29587   0.570   3.368   7.963  0.3775 -0.5917  0.5314
 6043SOL    HW129588   0.603   3.414   8.040  0.5799 -1.4035  0.9340
 6043SOL    HW229589   0.492   3.333   8.007  0.4470  0.5031  1.5002
 6044SOL     OW29590   1.011   4.427  12.702 -0.1991  0.4074 -0.1268
 6044SOL    HW129591   1.070   4.371  12.652 -0.8795 -1.9293  1.6864
 6044SOL    HW229592   1.071   4.501  12.707 -0.3321  0.5781 -1.0992
 6045SOL     OW29593   1.458   2.227   6.343  0.3117  0.4557  0.3733
 6045SOL    HW129594   1.488   2.137   6.352 -1.7329 -0.1849  0.8281
 6045SOL    HW229595   1.473   2.248   6.251 -0.0552 -0.5737  0.0739
 6046SOL     OW29596   2.771   2.922   3.112 -0.2197  0.4985 -0.8012
 6046SOL    HW129597   2.818   2.865   3.173  0.6303  0.6454 -1.3301
 6046SOL    HW229598   2.836   2.937   3.043  0.7124 -1.2119 -0.3056
 6047SOL     OW29599   1.648   3.390   6.397 -0.1112 -0.2329 -0.4791
 6047SOL    HW129600   1.637   3.484   6.411 -1.6609 -0.4453 -0.2902
 6047SOL    HW229601   1.734   3.374   6.437 -1.8199 -0.8203  2.9117
 6048SOL     OW29602   1.511   2.765   3.795 -0.4043  0.3587  0.5785
 6048SOL    HW129603   1.538   2.750   3.885 -1.0412 -1.9473  0.3773
 6048SOL    HW229604   1.588   2.805   3.755 -1.8366  1.2613 -1.3073
 6049SOL     OW29605   3.673   1.346   6.323  0.2041 -0.0261 -0.7363
 6049SOL    HW129606   3.731   1.406   6.370  1.3268 -1.7845  0.1379
 6049SOL    HW229607   3.589   1.377   6.356 -0.4446 -3.7538  1.1135
 6050SOL     OW29608   2.297   4.469   4.716 -0.0016  0.5658 -0.4044
 6050SOL    HW129609   2.310   4.389   4.665  1.4045  0.1264  0.6456
 6050SOL    HW229610   2.358   4.457   4.788 -4.4479 -0.1129  3.2781
 6051SOL     OW29611   4.406   1.526   2.833  0.0617  0.0463  0.2059
 6051SOL    HW129612   4.339   1.527   2.764 -0.7870 -1.1844  1.0089
 6051SOL    HW229613   4.460   1.595   2.796 -1.2819  0.7321 -0.4994
 6052SOL     OW29614   3.754   1.355   1.026  0.0774 -0.2072 -0.1791
 6052SOL    HW129615   3.832   1.301   1.028  0.5587  0.5634  2.4129
 6052SOL    HW229616   3.733   1.374   1.118  0.2403  2.3340 -0.6486
 6053SOL     OW29617   4.240   2.621   7.661 -0.3924  0.2568 -0.1687
 6053SOL    HW129618   4.151   2.589   7.647  0.0411 -0.6956 -0.7332
 6053SOL    HW229619   4.266   2.674   7.586 -1.4322  0.2237 -0.5574
 6054SOL     OW29620   2.796   4.444   3.823  0.1816 -0.2942  0.1302
 6054SOL    HW129621   2.731   4.510   3.844  2.3568  1.7589  0.4226
 6054SOL    HW229622   2.759   4.375   3.877 -0.1670  0.3157  0.6658
 6055SOL     OW29623   0.004   3.779   3.727  0.2439  0.3551 -0.2678
 6055SOL    HW129624   0.010   3.745   3.637 -1.8014  0.3111 -0.3898
 6055SOL    HW229625   4.678   3.716   3.780 -2.0114  0.7524 -1.8378
 6056SOL     OW29626   4.680   2.073   5.868 -0.1458  0.1332 -0.6752
 6056SOL    HW129627   4.712   2.016   5.798  1.3011 -1.2499  1.1199
 6056SOL    HW229628   4.646   2.152   5.826  1.7132  0.0443 -2.3124
 6057SOL     OW29629   3.246   1.210   7.519 -0.5162  0.4832 -0.1227
 6057SOL    HW129630   3.214   1.201   7.608 -0.3132 -0.0912 -0.1106
 6057SOL    HW229631   3.337   1.237   7.535 -0.2867 -0.9027  0.8768
 6058SOL     OW29632   2.511   4.000  15.079  0.2875  0.3047 -0.2033
 6058SOL    HW129633   2.530   4.066  15.145 -1.0532  0.1333  0.3514
 6058SOL    HW229634   2.480   4.058  15.009 -0.3576  1.8198  1.3362
 6059SOL     OW29635   1.388   4.189   2.531  0.3184 -0.1602  0.9262
 6059SOL    HW129636   1.387   4.145   2.446  2.0187  0.1165  0.7738
 6059SOL    HW229637   1.337   4.270   2.524 -1.4807 -1.5594 -1.8416
 6060SOL     OW29638   2.422   4.485   0.088 -0.1191 -0.3903  0.3935
 6060SOL    HW129639   2.382   4.568   0.062  2.6190  0.1681 -1.9848
 6060SOL    HW229640   2.497   4.481   0.028  0.7878 -0.9169  1.5645
 6061SOL     OW29641   0.462   0.755  16.679  0.1432 -0.3379 -0.8196
 6061SOL    HW129642   0.371   0.774  16.699  0.7702  1.0124  0.7741
 6061SOL    HW229643   0.485   0.808  16.602 -1.1905 -0.5844 -1.3874
 6062SOL     OW29644   0.114   1.267  11.057 -0.3840 -0.3924 -0.5979
 6062SOL    HW129645   0.160   1.266  11.141 -0.2101 -0.5427 -0.6950
 6062SOL    HW229646   0.053   1.338  11.073 -1.0364 -0.9513 -0.6256
 6063SOL     OW29647   4.425   2.697  10.039 -0.1652 -0.0247 -0.7459
 6063SOL    HW129648   4.503   2.704   9.983 -0.5759  2.2908 -1.0669
 6063SOL    HW229649   4.377   2.628   9.993 -0.0688 -1.1114  0.7901
 6064SOL     OW29650   1.115   4.022  17.129  0.3035 -1.1295  0.0334
 6064SOL    HW129651   1.188   4.047  17.072 -2.3567  1.6077 -2.1227
 6064SOL    HW229652   1.162   3.960  17.184 -1.6840 -0.4892  2.4503
 6065SOL     OW29653   3.082   4.232   3.391 -0.1014  0.3015 -0.4238
 6065SOL    HW129654   3.052   4.323   3.398  1.3447  0.9569 -2.9187
 6065SOL    HW229655   3.079   4.206   3.300 -1.4566  2.1469 -0.9301
 6066SOL     OW29656   3.168   4.458   0.614  0.2884 -0.1578 -0.3559
 6066SOL    HW129657   3.076   4.433   0.614  0.0146  0.8354 -1.2037
 6066SOL    HW229658   3.216   4.391   0.565 -0.9145 -0.5265 -1.0265
 6067SOL     OW29659   1.684   2.928   5.002 -0.1411  0.4275 -0.1369
 6067SOL    HW129660   1.672   2.836   5.024  0.9863  0.5321  0.8954
 6067SOL    HW229661   1.673   2.916   4.907 -2.1898  2.5195 -0.1557
 6068SOL     OW29662   2.453   4.634   5.902 -0.4861 -0.4465 -0.4729
 6068SOL    HW129663   2.500   4.711   5.870  0.7386  0.3177  3.2001
 6068SOL    HW229664   2.470   4.640   5.996 -0.8920  0.6402 -0.4734
 6069SOL     OW29665   4.141   3.988   6.053 -0.0183  0.7230 -0.1634
 6069SOL    HW129666   4.163   3.899   6.078  0.3583  0.6068 -0.9068
 6069SOL    HW229667   4.137   4.033   6.137  0.6817  1.1824 -0.3705
 6070SOL     OW29668   1.600   2.129   2.416  0.2991 -0.7236  0.9626
 6070SOL    HW129669   1.668   2.175   2.368  0.2305  0.5394  2.0950
 6070SOL    HW229670   1.522   2.161   2.371  0.5260 -3.0358 -1.1102
 6071SOL     OW29671   1.606   1.684   3.997  0.0182  0.7989  0.2548
 6071SOL    HW129672   1.573   1.657   3.912 -0.7279  1.2777  0.3954
 6071SOL    HW229673   1.678   1.624   4.016 -1.0343 -0.3964  0.5520
 6072SOL     OW29674   3.704   2.683   5.459 -0.1510  0.0744  0.8505
 6072SOL    HW129675   3.646   2.695   5.384  0.4763  1.6820  0.6103
 6072SOL    HW229676   3.743   2.770   5.468  1.7975 -0.6955 -0.1337
 6073SOL     OW29677   4.581   3.720   1.493  0.2009 -0.3264 -0.5685
 6073SOL    HW129678   4.542   3.638   1.524 -0.2941  0.0564 -0.1713
 6073SOL    HW229679   4.585   3.706   1.399  2.5356 -0.3024 -0.4707
 6074SOL     OW29680   2.418   3.860  13.594 -0.4254 -0.1553 -0.0387
 6074SOL    HW129681   2.485   3.840  13.528  0.5307  1.3737  0.4757
 6074SOL    HW229682   2.472   3.899  13.663  0.7103 -2.2974  0.2794
 6075SOL     OW29683   4.387   0.226   6.634 -0.7183  0.2812 -0.1439
 6075SOL    HW129684   4.390   0.315   6.670  1.6035  0.5587 -1.0418
 6075SOL    HW229685   4.438   0.249   6.557  1.3363 -1.7061  0.6208
 6076SOL     OW29686   2.970   2.623  14.846  0.0623  0.3292 -0.4737
 6076SOL    HW129687   2.884   2.640  14.807  0.2932  1.6157 -0.4151
 6076SOL    HW229688   2.989   2.708  14.886 -0.8358  0.6437 -0.7213
 6077SOL     OW29689   2.725   4.447  14.481 -0.0181  0.1813 -0.1661
 6077SOL    HW129690   2.720   4.520  14.542 -0.6170  0.4590 -0.5519
 6077SOL    HW229691   2.734   4.375  14.543  3.7389  1.5619  0.9154
 6078SOL     OW29692   0.482   1.307   2.018  0.2647  0.9504  0.3710
 6078SOL    HW129693   0.570   1.293   2.053  0.8588  0.6165 -1.2709
 6078SOL    HW229694   0.496   1.400   2.003  0.9670  0.5840 -1.1874
 6079SOL     OW29695   3.326   2.132  11.495 -0.2375 -0.2396  0.3179
 6079SOL    HW129696   3.322   2.037  11.493  2.6222 -0.3807  0.6191
 6079SOL    HW229697   3.258   2.150  11.430 -0.8635  0.7179  1.2316
 6080SOL     OW29698   0.292   1.072  14.842 -0.1374 -0.5117 -0.3204
 6080SOL    HW129699   0.305   1.014  14.917 -2.1047  0.5866  0.8438
 6080SOL    HW229700   0.245   1.145  14.881  0.1443  0.0870 -1.0997
 6081SOL     OW29701   2.692   2.889   8.163  0.5185 -0.7042  0.0519
 6081SOL    HW129702   2.629   2.819   8.181 -0.7169  0.7434  1.2931
 6081SOL    HW229703   2.625   2.957   8.161 -1.2572 -2.4276  1.2139
 6082SOL     OW29704   2.640   2.067   4.072 -0.5840  0.3693  0.2371
 6082SOL    HW129705   2.560   2.120   4.076  0.1475  1.5766 -0.9370
 6082SOL    HW229706   2.622   1.996   4.133 -1.7312  0.2144 -0.2976
 6083SOL     OW29707   4.035   2.286   3.888 -0.6553 -0.2544 -0.2780
 6083SOL    HW129708   4.003   2.284   3.978 -2.5271  0.4655 -0.9237
 6083SOL    HW229709   3.957   2.304   3.835 -0.2964 -1.1805 -1.1237
 6084SOL     OW29710   3.748   3.610  12.373 -1.0409 -0.1967  0.1836
 6084SOL    HW129711   3.723   3.701  12.358 -3.7598 -0.9404  0.1965
 6084SOL    HW229712   3.703   3.572  12.298  0.4669  1.1564 -1.4017
 6085SOL     OW29713   1.149   3.017   6.820  0.1819  0.2512 -0.0065
 6085SOL    HW129714   1.098   3.015   6.901 -1.8252  2.4293 -1.2352
 6085SOL    HW229715   1.185   2.929   6.812  2.3042  1.2226 -1.1394
 6086SOL     OW29716   1.343   3.057  17.119 -0.6610 -0.8031 -0.4861
 6086SOL    HW129717   1.280   3.073  17.190 -1.5301 -2.4202 -0.8888
 6086SOL    HW229718   1.328   2.964  17.104 -0.7415 -1.3615  3.1903
 6087SOL     OW29719   2.794   4.679  15.575 -0.2661 -0.6283 -0.0524
 6087SOL    HW129720   2.756   0.014  15.641  0.1558  1.4726 -1.6297
 6087SOL    HW229721   2.883   4.675  15.609 -0.5738 -0.9535  0.7173
 6088SOL     OW29722   1.297   2.601   2.440  0.0495  0.3875  0.5900
 6088SOL    HW129723   1.221   2.572   2.389  0.2848  1.1297 -0.1821
 6088SOL    HW229724   1.324   2.680   2.394  0.6156 -0.4526 -0.5308
 6089SOL     OW29725   1.836   1.371   6.352 -0.2324  0.2309 -0.2778
 6089SOL    HW129726   1.906   1.307   6.360 -1.3790 -0.9095  0.6577
 6089SOL    HW229727   1.809   1.360   6.261  1.3103  1.9250 -0.9306
 6090SOL     OW29728   4.454   2.419   5.261  0.2503  0.3139 -0.3170
 6090SOL    HW129729   4.504   2.338   5.258 -0.7125 -0.3089  0.7608
 6090SOL    HW229730   4.391   2.406   5.331  2.0474 -2.7531  0.7317
 6091SOL     OW29731   1.766   2.980   8.672 -0.0182 -0.4369  0.0795
 6091SOL    HW129732   1.858   2.984   8.698  0.0662 -0.1423 -0.2663
 6091SOL    HW229733   1.769   2.902   8.617  0.3436 -0.3206 -0.0598
 6092SOL     OW29734   2.564   2.820   2.924 -0.0440 -0.1952 -0.0214
 6092SOL    HW129735   2.484   2.823   2.871  0.5035 -2.0463 -0.9429
 6092SOL    HW229736   2.615   2.762   2.867  0.3136 -1.7910  1.9167
 6093SOL     OW29737   4.038   4.289   0.865 -0.1899  0.2744 -0.0269
 6093SOL    HW129738   4.011   4.375   0.833 -0.2199  0.3901  0.3078
 6093SOL    HW229739   3.956   4.260   0.905  2.2168 -2.2432  3.1967
 6094SOL     OW29740   4.662   0.853   3.236  0.3974 -0.1626  0.0168
 6094SOL    HW129741   4.693   0.865   3.147 -0.2963  0.6980 -0.1020
 6094SOL    HW229742   4.630   0.763   3.228 -2.1858  0.6970  0.9172
 6095SOL     OW29743   0.483   0.494   3.503 -0.0123 -0.3830 -0.1512
 6095SOL    HW129744   0.456   0.498   3.411 -0.8974  0.1420  0.1346
 6095SOL    HW229745   0.515   0.583   3.517  0.8927 -0.9246  1.2562
 6096SOL     OW29746   4.118   2.634   3.747  0.0401  0.0701  0.3047
 6096SOL    HW129747   4.042   2.601   3.796 -1.4159  1.5739 -0.9129
 6096SOL    HW229748   4.099   2.618   3.654  1.2437 -1.8704  0.4105
 6097SOL     OW29749   1.876   0.992   8.229  0.6028  0.1413 -0.9859
 6097SOL    HW129750   1.867   1.086   8.212 -0.3147  0.4256  1.0438
 6097SOL    HW229751   1.939   1.002   8.300  0.9763  0.9979 -1.4240
 6098SOL     OW29752   1.056   3.669  14.091 -0.2797  0.6624 -0.2066
 6098SOL    HW129753   1.090   3.725  14.161 -1.2224  1.5519 -0.4746
 6098SOL    HW229754   1.137   3.663  14.042 -0.8288 -1.3474 -0.8820
 6099SOL     OW29755   3.374   0.504  12.583  0.0472 -0.1631 -0.2070
 6099SOL    HW129756   3.291   0.456  12.584 -0.5720  0.9225  0.4981
 6099SOL    HW229757   3.334   0.588  12.608  1.6296  0.8320 -0.9859
 6100SOL     OW29758   4.653   0.669  12.672 -1.2860 -0.2353 -0.8819
 6100SOL    HW129759   4.594   0.649  12.745  0.1775  3.0080  1.1734
 6100SOL    HW229760   4.607   0.623  12.601 -0.5952 -0.0188 -1.4657
 6101SOL     OW29761   2.659   3.549   6.836 -0.1264 -0.2881  0.2702
 6101SOL    HW129762   2.617   3.604   6.770 -1.5187 -2.6795 -0.8579
 6101SOL    HW229763   2.751   3.555   6.810  0.4852 -1.0181  2.2492
 6102SOL     OW29764   3.528   0.737  15.085 -0.1238  0.2354 -0.2767
 6102SOL    HW129765   3.517   0.810  15.145 -0.2536 -0.8560  1.0240
 6102SOL    HW229766   3.475   0.666  15.123  0.7930 -0.2709  0.0431
 6103SOL     OW29767   1.285   0.343   5.205  0.6248 -0.0379 -0.5687
 6103SOL    HW129768   1.364   0.394   5.191  0.8510 -0.0585  0.6852
 6103SOL    HW229769   1.303   0.254   5.177  1.5821  0.0557 -0.2177
 6104SOL     OW29770   2.200   0.977   4.830  0.0691 -0.0804 -0.1395
 6104SOL    HW129771   2.225   0.972   4.738 -1.6288  1.2419 -0.6692
 6104SOL    HW229772   2.224   1.067   4.854  0.7642 -0.5009  0.7433
 6105SOL     OW29773   3.851   3.616   2.382 -0.5147 -0.3298  0.1563
 6105SOL    HW129774   3.847   3.711   2.389  1.2658 -0.1517 -1.0963
 6105SOL    HW229775   3.926   3.601   2.324 -0.9362 -2.1665  0.0648
 6106SOL     OW29776   0.195   4.603   3.760 -0.4835  0.2281 -0.1173
 6106SOL    HW129777   0.138   4.673   3.727  0.0914  1.5198  1.6234
 6106SOL    HW229778   0.203   4.633   3.850 -4.2878  2.6704 -0.5858
 6107SOL     OW29779   4.299   2.964   3.356 -0.2081  0.0495  0.1163
 6107SOL    HW129780   4.291   3.056   3.332  0.1125  0.2504  0.7906
 6107SOL    HW229781   4.224   2.955   3.414  1.2927 -2.0134  1.7391
 6108SOL     OW29782   3.387   4.284   8.328 -0.2458  0.5008 -0.5905
 6108SOL    HW129783   3.465   4.340   8.331  0.3205 -0.3848  1.1370
 6108SOL    HW229784   3.434   4.203   8.347 -1.4329  0.0471  0.3740
 6109SOL     OW29785   3.192   1.753   5.145 -0.5244 -0.3875  0.8868
 6109SOL    HW129786   3.149   1.839   5.145 -0.0369 -0.1416 -0.5451
 6109SOL    HW229787   3.126   1.695   5.181 -0.4916 -0.3695  0.9761
 6110SOL     OW29788   0.072   4.134   2.942 -0.4013  0.4813  0.4618
 6110SOL    HW129789   0.067   4.210   2.883 -1.9112  0.0453  0.0220
 6110SOL    HW229790   0.159   4.097   2.927  0.2497  2.0162  0.4265
 6111SOL     OW29791   2.815   1.138   8.038  0.1490 -0.3042 -0.1189
 6111SOL    HW129792   2.877   1.206   8.012 -0.3487 -0.8191 -2.6441
 6111SOL    HW229793   2.814   1.084   7.959  1.8500 -2.3602  1.2731
 6112SOL     OW29794   0.275   3.208   7.579 -0.5408 -0.2073 -0.0721
 6112SOL    HW129795   0.332   3.135   7.604 -2.0738 -0.9584  1.1975
 6112SOL    HW229796   0.303   3.281   7.635 -0.5353 -0.4114  0.1879
 6113SOL     OW29797   3.750   4.220   6.126 -0.0033 -0.3088  0.0865
 6113SOL    HW129798   3.788   4.142   6.086  2.3496  1.6306 -1.4148
 6113SOL    HW229799   3.762   4.197   6.218 -0.3955 -1.4659 -0.1531
 6114SOL     OW29800   4.493   1.868   2.506  0.3232  0.0500 -0.1004
 6114SOL    HW129801   4.468   1.835   2.420 -2.2970  1.7090  0.0508
 6114SOL    HW229802   4.415   1.918   2.529  0.5604  0.5234 -0.3308
 6115SOL     OW29803   4.073   1.934   6.947 -0.2751 -0.3214 -0.6866
 6115SOL    HW129804   4.100   1.904   6.861  2.2031 -0.4370  0.1327
 6115SOL    HW229805   4.002   1.989   6.914 -0.1835 -0.4166 -1.0428
 6116SOL     OW29806   3.354   2.063   2.850 -0.5073  0.3317  0.4165
 6116SOL    HW129807   3.353   2.097   2.940 -0.0416  2.6039 -0.4259
 6116SOL    HW229808   3.314   2.138   2.806  0.2549 -0.9717 -2.4690
 6117SOL     OW29809   2.039   2.349   7.448  0.1182  0.0894  0.2418
 6117SOL    HW129810   2.010   2.439   7.437 -1.9678 -0.8554 -2.0579
 6117SOL    HW229811   2.073   2.348   7.538 -0.1847  3.2103  0.3801
 6118SOL     OW29812   2.004   2.125   5.747  0.3746 -0.3871  0.0417
 6118SOL    HW129813   1.982   2.211   5.711  1.8523 -0.4070 -0.9144
 6118SOL    HW229814   1.919   2.110   5.788 -0.1738  0.2834 -0.8217
 6119SOL     OW29815   3.949   0.662   3.315  0.3294 -0.8316 -0.0903
 6119SOL    HW129816   4.017   0.729   3.308 -1.0014  0.8103  2.4958
 6119SOL    HW229817   3.969   0.606   3.389  3.2067  0.8430  0.3691
 6120SOL     OW29818   1.059   2.320   8.162 -0.3865  0.5135  0.4756
 6120SOL    HW129819   1.087   2.327   8.254  2.1812 -0.2657 -0.2689
 6120SOL    HW229820   1.078   2.409   8.135 -1.0168  0.4231 -0.2680
 6121SOL     OW29821   4.522   2.831   1.912 -0.3681  0.0554  0.1087
 6121SOL    HW129822   4.573   2.908   1.884  0.6023 -0.3280  0.8115
 6121SOL    HW229823   4.534   2.758   1.852 -2.3972 -0.5755  0.4681
 6122SOL     OW29824   0.056   4.575   1.257 -0.0896 -0.1060 -0.2513
 6122SOL    HW129825   4.711   4.550   1.193 -1.5022  3.0804  0.0447
 6122SOL    HW229826   0.004   4.624   1.320  0.6081  1.5123 -0.9378
 6123SOL     OW29827   2.705   1.474   5.567 -0.3488  0.1412 -0.1105
 6123SOL    HW129828   2.794   1.471   5.533 -0.3427  1.3800 -0.1827
 6123SOL    HW229829   2.679   1.382   5.576  3.1174 -0.9620 -1.3353
 6124SOL     OW29830   4.190   1.591  14.682  0.5358 -0.0134  0.1162
 6124SOL    HW129831   4.103   1.557  14.660  0.1930  0.0696  1.3481
 6124SOL    HW229832   4.173   1.600  14.776 -1.1861 -0.1696 -0.1872
 6125SOL     OW29833   0.199   0.902   0.899  0.4507 -1.0764  0.3376
 6125SOL    HW129834   0.266   0.897   0.831 -0.6738 -1.5329 -0.7597
 6125SOL    HW229835   0.227   0.970   0.960  0.7877 -0.3924 -0.5759
 6126SOL     OW29836   2.260   0.146   1.662  0.3571  0.1015  0.3152
 6126SOL    HW129837   2.171   0.123   1.635  0.9146  0.6150 -1.9390
 6126SOL    HW229838   2.261   0.240   1.647  0.7502  0.1208  0.4609
 6127SOL     OW29839   3.689   1.185  16.202 -0.0699  0.2624 -0.5005
 6127SOL    HW129840   3.776   1.182  16.162  0.9094  0.0579  1.5992
 6127SOL    HW229841   3.686   1.272  16.240  1.6843 -1.2915  3.2457
 6128SOL     OW29842   1.785   1.533   8.469 -0.7189 -0.3437 -0.4041
 6128SOL    HW129843   1.745   1.516   8.384 -0.7795 -1.5969 -0.1199
 6128SOL    HW229844   1.745   1.618   8.490  0.5107  0.1923 -0.2260
 6129SOL     OW29845   3.155   3.396   3.932 -0.1759  0.0149 -0.3109
 6129SOL    HW129846   3.173   3.484   3.901 -0.6504 -0.1417 -1.0331
 6129SOL    HW229847   3.200   3.343   3.866  2.4827 -1.0472  2.3601
 6130SOL     OW29848   0.965   2.970   6.020 -0.3399 -0.0009 -0.1702
 6130SOL    HW129849   1.055   2.982   5.990 -0.1578 -0.7998  0.0625
 6130SOL    HW229850   0.944   2.887   5.977 -0.3596  0.3559 -0.8525
 6131SOL     OW29851   2.809   1.045   5.975  0.2845 -0.4649 -0.1038
 6131SOL    HW129852   2.806   1.034   5.880  0.0575  2.5892 -0.4526
 6131SOL    HW229853   2.879   0.984   5.999  0.6112  0.1127  0.4072
 6132SOL     OW29854   2.998   2.577   7.783  0.3041  0.4817  0.5468
 6132SOL    HW129855   3.050   2.512   7.736  0.8734  0.2290  1.5185
 6132SOL    HW229856   3.030   2.574   7.873  3.1681 -0.5527 -0.4809
 6133SOL     OW29857   1.304   2.939   7.916  0.1139  0.3864 -0.3742
 6133SOL    HW129858   1.230   2.891   7.879  1.9330 -1.2273 -1.8855
 6133SOL    HW229859   1.354   2.866   7.953  1.7508  0.8241 -1.6986
 6134SOL     OW29860   2.406   0.137   6.801  0.7305 -0.0715 -0.6479
 6134SOL    HW129861   2.500   0.122   6.800  0.6986 -0.5139  1.6330
 6134SOL    HW229862   2.381   0.071   6.736  0.0377 -0.6257  0.1759
 6135SOL     OW29863   0.684   0.206   3.292 -0.2215 -0.2921  0.3371
 6135SOL    HW129864   0.597   0.195   3.255  0.1917 -1.8816 -0.1716
 6135SOL    HW229865   0.732   0.260   3.229 -0.7285 -0.6497 -0.3514
 6136SOL     OW29866   3.007   2.751  14.530 -0.4371  0.5351 -0.5936
 6136SOL    HW129867   3.068   2.705  14.472 -1.2561  1.0211 -1.8398
 6136SOL    HW229868   3.051   2.735  14.613  0.3036  0.8362 -0.9275
 6137SOL     OW29869   2.968   0.887   9.226 -0.0369  0.2755 -0.1119
 6137SOL    HW129870   3.040   0.910   9.168 -0.8749  1.8668 -0.5297
 6137SOL    HW229871   2.921   0.827   9.168 -2.1982  1.8482 -0.0214
 6138SOL     OW29872   0.824   1.674   2.546 -0.3571  0.2021  0.5155
 6138SOL    HW129873   0.765   1.749   2.540 -1.2901 -0.5801 -0.1380
 6138SOL    HW229874   0.794   1.639   2.630 -1.4963 -0.3720 -0.1185
 6139SOL     OW29875   2.189   1.158  12.837 -0.0259 -0.4280  0.0382
 6139SOL    HW129876   2.103   1.198  12.831  0.4179  0.8868  2.2451
 6139SOL    HW229877   2.208   1.190  12.926 -0.7417  2.4616 -0.8647
 6140SOL     OW29878   1.733   0.473  12.415  0.0300  0.3919 -0.2022
 6140SOL    HW129879   1.756   0.559  12.380 -1.5410  0.2079 -1.6566
 6140SOL    HW229880   1.758   0.465  12.507  0.3915  0.8501 -0.2623
 6141SOL     OW29881   0.021   0.905   7.869 -0.2159  0.5145 -0.0135
 6141SOL    HW129882   0.110   0.881   7.843 -0.0219  1.0060  0.1981
 6141SOL    HW229883   4.699   0.916   7.785 -1.2515  0.3447  0.5027
 6142SOL     OW29884   3.358   2.280   7.652 -0.1257  0.2413  0.2825
 6142SOL    HW129885   3.406   2.248   7.728  1.7158  0.0378 -0.9645
 6142SOL    HW229886   3.405   2.362   7.638  1.0786 -0.5922 -0.5620
 6143SOL     OW29887   4.195   2.486  13.109 -0.3684  0.3098  0.2660
 6143SOL    HW129888   4.275   2.463  13.062 -2.4368 -0.8038 -2.7207
 6143SOL    HW229889   4.235   2.497  13.195 -0.0034  0.4663  0.0788
 6144SOL     OW29890   3.905   1.274   7.484  0.2723 -0.2454  0.4095
 6144SOL    HW129891   3.989   1.318   7.470  0.1371 -0.6395 -1.6673
 6144SOL    HW229892   3.936   1.203   7.540  2.8539  1.5135  1.1971
 6145SOL     OW29893   1.030   3.406   4.550 -0.0355 -0.4657  0.0149
 6145SOL    HW129894   0.952   3.450   4.516  0.9905 -1.0651 -3.0892
 6145SOL    HW229895   1.070   3.477   4.600 -1.6436  0.3474  0.1460
 6146SOL     OW29896   3.250   4.298   7.527  0.4708 -0.1934 -0.1486
 6146SOL    HW129897   3.308   4.374   7.541  1.0812 -0.7143  0.1174
 6146SOL    HW229898   3.316   4.230   7.517  0.7777 -0.2195  2.1675
 6147SOL     OW29899   0.434   0.001  11.635  0.5204  0.8155  0.1565
 6147SOL    HW129900   0.349   0.034  11.665 -0.8507 -1.4582 -1.2282
 6147SOL    HW229901   0.476   0.086  11.620  1.8854  0.0051 -0.5735
 6148SOL     OW29902   1.244   0.848  12.314 -0.2399 -0.7132 -0.2943
 6148SOL    HW129903   1.157   0.815  12.292  0.6072 -2.2603 -1.3719
 6148SOL    HW229904   1.271   0.814  12.399  0.5825 -1.0290 -0.6798
 6149SOL     OW29905   4.313   0.614   1.629 -0.2947  0.4684 -0.0079
 6149SOL    HW129906   4.400   0.652   1.617 -0.4800  0.8919 -0.0440
 6149SOL    HW229907   4.260   0.669   1.571  0.6650  0.4138 -0.9286
 6150SOL     OW29908   1.711   2.026  11.724  0.2377 -0.1655  0.1248
 6150SOL    HW129909   1.802   2.021  11.752  0.8247 -0.1856 -1.7859
 6150SOL    HW229910   1.679   2.026  11.814  0.6944  2.1994  0.3060
 6151SOL     OW29911   2.371   4.620  16.394  0.4492 -0.3496 -0.4913
 6151SOL    HW129912   2.368   4.528  16.420  0.3958 -0.5353 -1.1410
 6151SOL    HW229913   2.282   4.644  16.419  1.0623  0.7546  0.6144
 6152SOL     OW29914   1.491   2.430   4.138 -0.5396  0.6887  0.0663
 6152SOL    HW129915   1.416   2.371   4.135  0.4952 -0.6115 -0.1115
 6152SOL    HW229916   1.560   2.368   4.161 -0.6252 -0.2269 -2.1756
 6153SOL     OW29917   2.829   3.485   5.879  0.0342  0.0416 -0.5760
 6153SOL    HW129918   2.832   3.580   5.892  2.0823 -0.0559 -0.4316
 6153SOL    HW229919   2.920   3.464   5.896 -0.0870  0.3371  0.4396
 6154SOL     OW29920   0.839   0.364   3.596  0.2344 -0.1425  0.5036
 6154SOL    HW129921   0.879   0.334   3.677  1.0802 -0.2889  0.0331
 6154SOL    HW229922   0.747   0.342   3.611  0.3294 -0.1286  1.0958
 6155SOL     OW29923   4.251   2.326   2.551 -0.1319 -0.5795  0.0763
 6155SOL    HW129924   4.344   2.334   2.570 -0.1491 -0.3634  0.0793
 6155SOL    HW229925   4.253   2.315   2.456 -0.2561 -2.3728  0.2857
 6156SOL     OW29926   1.669   2.995   2.796  0.0092 -0.0613  0.1747
 6156SOL    HW129927   1.585   3.034   2.820  0.1719  1.1829 -1.3435
 6156SOL    HW229928   1.640   2.920   2.744  0.7294 -1.3848  1.6632
 6157SOL     OW29929   3.321   1.773   4.864 -0.1754  0.5022 -0.0522
 6157SOL    HW129930   3.390   1.769   4.931 -1.4179  0.3127  1.2169
 6157SOL    HW229931   3.246   1.742   4.915 -0.3673  0.4211 -0.3830
 6158SOL     OW29932   1.424   2.876   3.206 -0.1411 -0.0757  0.2473
 6158SOL    HW129933   1.424   2.788   3.167  1.5887 -0.1444  0.4148
 6158SOL    HW229934   1.432   2.851   3.298  1.1244  0.2709  0.2256
 6159SOL     OW29935   1.566   0.050  11.338  0.4131  0.4455 -0.0264
 6159SOL    HW129936   1.638   0.108  11.313 -0.8263  2.0925  0.2492
 6159SOL    HW229937   1.511   0.102  11.396  1.1582  0.1318  0.9689
 6160SOL     OW29938   1.521   0.160   2.031  0.1170 -0.1518 -0.1202
 6160SOL    HW129939   1.567   0.195   2.107 -1.8747  2.4409 -0.0779
 6160SOL    HW229940   1.442   0.123   2.071  0.3512 -0.8099 -0.2773
 6161SOL     OW29941   1.165   3.994  16.670 -0.5212 -0.5258 -0.0475
 6161SOL    HW129942   1.249   3.980  16.626 -0.4894  0.4795 -0.3085
 6161SOL    HW229943   1.105   3.986  16.596  2.7794  0.2919 -2.8582
 6162SOL     OW29944   0.146   4.301   6.933  0.0753  0.2742  0.2389
 6162SOL    HW129945   0.112   4.248   7.004 -1.1643  0.6374 -0.0739
 6162SOL    HW229946   0.073   4.326   6.877  0.0777 -1.3467 -0.4821
 6163SOL     OW29947   3.936   0.238   8.240 -0.0955  0.3727  0.1090
 6163SOL    HW129948   3.920   0.230   8.146  0.7822 -1.8387  0.1369
 6163SOL    HW229949   3.857   0.286   8.261  1.2455  1.8424  1.7942
 6164SOL     OW29950   3.727   0.267   1.975 -0.0294  0.1026  0.2804
 6164SOL    HW129951   3.796   0.207   1.949  0.0402 -0.2062  1.1669
 6164SOL    HW229952   3.751   0.288   2.065 -0.3174 -0.5813  0.5193
 6165SOL     OW29953   0.688   3.702   1.182  0.1970 -0.1551  0.0132
 6165SOL    HW129954   0.783   3.704   1.179  0.1912 -2.4674 -1.9418
 6165SOL    HW229955   0.662   3.790   1.154 -0.5762 -0.4279 -0.1482
 6166SOL     OW29956   1.810   0.168   6.373  0.0523  0.3224 -0.3918
 6166SOL    HW129957   1.741   0.204   6.428  0.0358  1.5980 -1.2420
 6166SOL    HW229958   1.787   0.202   6.286 -1.5279  1.6867  0.5741
 6167SOL     OW29959   3.419   1.222  14.225  0.0189  0.0577  0.6875
 6167SOL    HW129960   3.419   1.139  14.176 -0.3930 -0.0298  0.8394
 6167SOL    HW229961   3.509   1.246  14.248  1.2970 -1.6813 -2.4210
 6168SOL     OW29962   2.568   0.114   2.943 -0.2630 -0.1267 -0.2503
 6168SOL    HW129963   2.487   0.080   2.981 -0.0503  1.3831  1.5493
 6168SOL    HW229964   2.536   0.169   2.872 -0.6921  1.0078  0.8139
 6169SOL     OW29965   1.275   4.715  14.400 -0.9566 -0.1254 -0.4151
 6169SOL    HW129966   1.299   0.025  14.487 -1.8190  0.1793 -0.2864
 6169SOL    HW229967   1.256   4.624  14.421 -2.7628  0.3725  0.0823
 6170SOL     OW29968   3.858   1.758  12.976  0.2849  0.1312  0.1524
 6170SOL    HW129969   3.898   1.815  13.042 -1.1231 -1.6067  2.5113
 6170SOL    HW229970   3.925   1.753  12.908  0.8936  1.4815  0.6596
 6171SOL     OW29971   1.967   1.028   7.404  0.0781 -0.7144  0.0802
 6171SOL    HW129972   2.017   1.008   7.483 -0.1106 -1.3801  0.0348
 6171SOL    HW229973   2.017   1.107   7.385 -1.2165  0.3072  0.9296
 6172SOL     OW29974   2.383   1.571   8.519 -0.9614  0.1184 -0.0923
 6172SOL    HW129975   2.403   1.495   8.574  3.8452 -0.6744 -2.9406
 6172SOL    HW229976   2.362   1.532   8.434  0.3421 -0.3244 -0.2151
 6173SOL     OW29977   1.147   1.949   1.396  0.3360  0.3739 -0.1738
 6173SOL    HW129978   1.123   1.899   1.474  1.0933 -0.2114 -0.3197
 6173SOL    HW229979   1.103   1.908   1.322  0.8822  0.7868 -0.7290
 6174SOL     OW29980   3.806   4.264   1.035  0.0701 -0.4827  0.5933
 6174SOL    HW129981   3.716   4.288   1.011 -0.1822 -1.2387  0.7658
 6174SOL    HW229982   3.780   4.178   1.068 -0.4489 -0.7606 -0.5518
 6175SOL     OW29983   4.253   0.969   5.935  0.4763 -0.1844  1.2739
 6175SOL    HW129984   4.307   1.013   5.869  0.7922 -1.4610  0.6808
 6175SOL    HW229985   4.184   0.940   5.875 -0.1450  0.9871  1.4265
 6176SOL     OW29986   1.256   0.614  17.324 -0.6460  0.7568  0.4889
 6176SOL    HW129987   1.301   0.605  17.240 -1.6414 -1.6829  0.2223
 6176SOL    HW229988   1.231   0.522  17.332 -1.1589  0.7137 -1.6461
 6177SOL     OW29989   3.430   2.966  10.491 -0.0575 -0.5144  0.0481
 6177SOL    HW129990   3.337   2.946  10.483  0.0143 -0.7338 -0.2391
 6177SOL    HW229991   3.449   2.982  10.398 -0.7696 -0.2181 -0.0454
 6178SOL     OW29992   4.178   0.527  11.452 -0.1448 -0.3489  0.3041
 6178SOL    HW129993   4.145   0.591  11.388 -0.3852  0.6168  1.3781
 6178SOL    HW229994   4.248   0.474  11.416 -0.4623 -0.8553  0.4387
 6179SOL     OW29995   4.567   1.038   9.977  0.5297 -0.4831  0.2951
 6179SOL    HW129996   4.596   0.952   9.946  1.1182  0.5468 -1.9513
 6179SOL    HW229997   4.472   1.030   9.978  0.3637  1.7042  0.6501
 6180SOL     OW29998   0.664   3.838   3.910 -0.0188  0.6476  0.0272
 6180SOL    HW129999   0.638   3.851   4.001 -0.2333 -1.2345  0.2351
 6180SOL    HW230000   0.706   3.921   3.887 -1.0007  0.7855 -1.2444
 6181SOL     OW30001   3.131   3.761   9.090 -0.6118  0.4333  0.6707
 6181SOL    HW130002   3.152   3.758   8.996 -1.9304  0.2188  0.3768
 6181SOL    HW230003   3.156   3.671   9.113  1.9788  1.2937  1.1490
 6182SOL     OW30004   3.138   0.875   8.464  0.0337 -0.3885  0.7915
 6182SOL    HW130005   3.119   0.936   8.393  1.9961 -0.0533  0.5497
 6182SOL    HW230006   3.151   0.939   8.535  1.9348  1.3153 -1.1084
 6183SOL     OW30007   4.469   1.204   2.079 -0.0293 -0.1432  0.5089
 6183SOL    HW130008   4.540   1.174   2.135  0.5931 -1.4121 -0.9338
 6183SOL    HW230009   4.506   1.182   1.993 -2.9983 -3.2794 -0.0036
 6184SOL     OW30010   4.092   2.736   8.110 -0.7980  0.2972  0.2409
 6184SOL    HW130011   4.139   2.803   8.161 -2.2612  0.0112  1.9609
 6184SOL    HW230012   4.139   2.755   8.029  2.0876  0.0449  1.8218
 6185SOL     OW30013   4.157   0.001  10.777 -0.0565  0.7029 -0.0308
 6185SOL    HW130014   4.241   4.692  10.811  0.9072  3.9597  0.5501
 6185SOL    HW230015   4.105   4.644  10.763 -0.7984  0.4649  3.9730
 6186SOL     OW30016   0.144   3.648  11.359 -0.6045 -0.0238 -0.6506
 6186SOL    HW130017   0.128   3.637  11.453  0.2718  1.4395 -0.3202
 6186SOL    HW230018   0.176   3.560  11.342  1.2095  0.6729 -0.8044
 6187SOL     OW30019   3.487   3.562  16.324  0.5361 -0.1961 -0.0900
 6187SOL    HW130020   3.446   3.648  16.320  0.7520 -0.0475  0.9910
 6187SOL    HW230021   3.441   3.511  16.390 -1.0119 -0.4637 -1.3734
 6188SOL     OW30022   0.898   4.381   1.696 -0.0322  0.9225  0.2456
 6188SOL    HW130023   0.815   4.343   1.668  0.3100  1.0588 -0.9525
 6188SOL    HW230024   0.895   4.463   1.646  1.7123  1.3659  0.8831
 6189SOL     OW30025   0.367   0.161   5.972 -0.2250  0.5169  0.0437
 6189SOL    HW130026   0.399   0.082   6.014 -0.6422 -0.0800 -0.7626
 6189SOL    HW230027   0.285   0.182   6.018  0.2627 -0.0695  1.1709
 6190SOL     OW30028   0.832   3.536   9.568 -0.3815 -0.4071  0.5032
 6190SOL    HW130029   0.910   3.559   9.619 -1.1217  4.3037 -0.5130
 6190SOL    HW230030   0.849   3.446   9.539  1.8478  0.5256 -1.1072
 6191SOL     OW30031   1.411   0.696   0.687 -0.1886 -0.4110 -0.4239
 6191SOL    HW130032   1.401   0.603   0.670 -1.7689 -0.3879  0.3929
 6191SOL    HW230033   1.427   0.729   0.599  1.8071 -0.8321 -0.2202
 6192SOL     OW30034   1.017   4.626   1.504 -0.1452  0.6353  0.7074
 6192SOL    HW130035   1.096   4.618   1.450 -0.6978  0.2078 -0.0347
 6192SOL    HW230036   0.953   4.614   1.434 -0.3098  0.8704  0.8171
 6193SOL     OW30037   4.502   4.117   8.271  0.1852 -0.7614 -0.5118
 6193SOL    HW130038   4.418   4.082   8.240 -0.8212  1.9198 -0.7778
 6193SOL    HW230039   4.487   4.128   8.365 -0.7411 -4.5227 -0.1873
 6194SOL     OW30040   1.510   3.782   3.453  0.5537  0.2055 -0.3443
 6194SOL    HW130041   1.564   3.708   3.426 -1.2103 -1.0931 -0.3655
 6194SOL    HW230042   1.529   3.843   3.382  2.3948  0.9606  0.8180
 6195SOL     OW30043   2.277   3.123   3.659 -0.1460 -0.3858 -0.2450
 6195SOL    HW130044   2.274   3.068   3.738 -0.9763 -0.7689 -0.5492
 6195SOL    HW230045   2.349   3.087   3.608 -0.0840 -0.5038 -0.0760
 6196SOL     OW30046   3.623   2.274   2.560 -0.1752 -0.1082  0.0492
 6196SOL    HW130047   3.531   2.259   2.582 -0.8647  2.3012 -1.1804
 6196SOL    HW230048   3.604   2.355   2.513  2.0523  1.4729  1.8448
 6197SOL     OW30049   3.354   1.732   9.683 -0.8080  0.9955  0.1606
 6197SOL    HW130050   3.402   1.663   9.637  0.4871  1.7185  0.4302
 6197SOL    HW230051   3.295   1.681   9.739  1.6857 -0.8330  1.1226
 6198SOL     OW30052   1.997   2.758   1.703 -0.3325 -0.7983 -0.1626
 6198SOL    HW130053   1.937   2.747   1.777 -2.2541 -0.8843 -1.7384
 6198SOL    HW230054   2.032   2.668   1.701 -0.9785 -1.0503 -0.2113
 6199SOL     OW30055   1.615   0.363   8.830 -0.0213  0.2008  0.1290
 6199SOL    HW130056   1.631   0.363   8.736 -1.2267  0.8782 -0.0825
 6199SOL    HW230057   1.603   0.271   8.852 -0.8982 -0.2995 -2.4846
 6200SOL     OW30058   1.592   0.586   2.367  0.2090 -0.5535  0.3518
 6200SOL    HW130059   1.516   0.531   2.344 -0.2019 -0.1217  0.6721
 6200SOL    HW230060   1.580   0.583   2.462  1.7878  2.1863  0.6264
 6201SOL     OW30061   4.591   1.046   4.538  0.7093  0.0118 -0.4432
 6201SOL    HW130062   4.574   1.059   4.631 -0.3789 -1.1875 -0.4775
 6201SOL    HW230063   4.555   0.958   4.528 -1.1750  0.7920 -0.5141
 6202SOL     OW30064   2.952   2.409   5.886  0.0603 -0.1730 -0.2928
 6202SOL    HW130065   2.981   2.324   5.919  2.9641  1.9480  2.5781
 6202SOL    HW230066   3.032   2.438   5.842  0.1508  0.0395  0.0139
 6203SOL     OW30067   0.059   2.386  10.053  0.4732 -0.3038 -0.1540
 6203SOL    HW130068   0.004   2.388  10.131 -2.4585 -0.0256 -2.2140
 6203SOL    HW230069   0.008   2.435   9.987 -1.0598 -2.7202 -0.7417
 6204SOL     OW30070   1.420   1.449   7.450 -0.4901  0.2855  0.5286
 6204SOL    HW130071   1.425   1.544   7.442  0.6354  0.4219  2.8196
 6204SOL    HW230072   1.496   1.417   7.401  0.0075  1.1623  0.7413
 6205SOL     OW30073   1.267   4.222   6.429 -0.5315 -0.4958  0.0146
 6205SOL    HW130074   1.237   4.141   6.470  0.0478 -0.1377  1.1242
 6205SOL    HW230075   1.323   4.182   6.362  0.3790  1.8406 -0.6045
 6206SOL     OW30076   0.291   1.790   2.006  0.0785  0.8894 -0.1375
 6206SOL    HW130077   0.199   1.772   2.026 -0.1506  1.1642 -0.9536
 6206SOL    HW230078   0.335   1.709   1.980 -2.1136 -0.6890  1.1034
 6207SOL     OW30079   3.277   2.322   9.539 -0.1037  0.1603 -0.9649
 6207SOL    HW130080   3.261   2.395   9.480  1.5909  2.0517  0.9431
 6207SOL    HW230081   3.364   2.295   9.510 -0.4006 -0.7030 -1.0780
 6208SOL     OW30082   3.969   0.159   2.473 -0.0076  0.2188 -0.1536
 6208SOL    HW130083   4.030   0.096   2.435 -0.2473 -0.1363  0.0493
 6208SOL    HW230084   3.915   0.103   2.530  1.0896 -0.0647  0.5914
 6209SOL     OW30085   2.262   3.423   4.378  0.0207  0.0605  0.0946
 6209SOL    HW130086   2.320   3.459   4.310  0.8395 -0.2900  0.6094
 6209SOL    HW230087   2.222   3.352   4.327 -1.4385  0.2362  1.0067
 6210SOL     OW30088   1.846   1.792   4.814 -0.3499 -0.0913  0.0491
 6210SOL    HW130089   1.764   1.790   4.764 -0.7241  0.3439  0.6281
 6210SOL    HW230090   1.819   1.785   4.906 -0.8212  1.4349  0.0243
 6211SOL     OW30091   4.346   0.479   7.359 -0.3188 -0.0631  0.2481
 6211SOL    HW130092   4.360   0.486   7.453 -0.3166  1.7594  0.1028
 6211SOL    HW230093   4.305   0.564   7.342  1.5764  0.6461 -0.8122
 6212SOL     OW30094   4.513   0.405   9.170 -0.0376 -0.1105  0.4804
 6212SOL    HW130095   4.601   0.382   9.140 -0.1885  1.3545 -1.1166
 6212SOL    HW230096   4.484   0.330   9.222  4.0541  0.8985  4.2548
 6213SOL     OW30097   0.928   0.556  15.467  0.2089 -0.5499  0.3121
 6213SOL    HW130098   0.902   0.641  15.503  1.4955  0.9706 -2.3194
 6213SOL    HW230099   0.872   0.501  15.521  0.1321 -0.4269  0.3579
 6214SOL     OW30100   2.095   3.257  11.879  1.2931 -0.2953 -0.0672
 6214SOL    HW130101   2.051   3.278  11.796 -0.7775 -0.6420  0.9329
 6214SOL    HW230102   2.071   3.164  11.879  1.4406 -0.3272  0.7354
 6215SOL     OW30103   0.445   3.691   0.982 -0.6846  0.7840  0.0287
 6215SOL    HW130104   0.535   3.697   1.013 -0.4855 -1.7396 -0.0851
 6215SOL    HW230105   0.430   3.603   1.016 -1.5816 -0.0608 -2.5422
 6216SOL     OW30106   1.585   3.134   8.839  0.1970  0.2516  0.3696
 6216SOL    HW130107   1.565   3.223   8.809  1.9084  0.3396 -0.4935
 6216SOL    HW230108   1.646   3.088   8.781  0.3402 -0.9524  1.4702
 6217SOL     OW30109   3.273   0.515   6.000  0.0889 -0.1748 -0.1046
 6217SOL    HW130110   3.349   0.466   5.968 -0.6986 -0.7585 -1.0809
 6217SOL    HW230111   3.207   0.448   5.977  0.9698 -1.0625 -0.0636
 6218SOL     OW30112   2.527   0.429  16.041  0.2317 -0.1000 -0.9214
 6218SOL    HW130113   2.536   0.518  16.005 -0.4672  0.7205  0.9510
 6218SOL    HW230114   2.448   0.400  15.995  0.5493 -1.8050 -0.3797
 6219SOL     OW30115   3.174   4.541   3.612 -0.4593 -0.1722  0.1579
 6219SOL    HW130116   3.234   4.605   3.574 -0.7801 -1.4947 -2.6263
 6219SOL    HW230117   3.114   4.547   3.537 -1.4275  1.7807  1.0957
 6220SOL     OW30118   3.026   3.275   8.355  0.0938  0.8441  0.1051
 6220SOL    HW130119   2.967   3.225   8.411 -1.4425  2.1193 -0.3584
 6220SOL    HW230120   3.105   3.220   8.362 -1.7503 -1.8411 -0.1803
 6221SOL     OW30121   1.894   3.975   0.619 -0.3032  0.4414 -0.5290
 6221SOL    HW130122   1.827   3.955   0.554  0.9332 -0.7805 -1.4208
 6221SOL    HW230123   1.963   3.914   0.593  0.0259  0.7278 -0.3193
 6222SOL     OW30124   1.004   2.046  14.078  0.8296 -0.5913  0.5169
 6222SOL    HW130125   0.933   2.107  14.099  0.4502 -1.7659  2.6088
 6222SOL    HW230126   1.004   2.040  13.982  0.7106 -4.1734  0.7310
 6223SOL     OW30127   2.418   1.784  11.267  0.0007  0.2716  0.2701
 6223SOL    HW130128   2.435   1.710  11.209  0.1044 -1.3589  2.3582
 6223SOL    HW230129   2.361   1.832  11.208  0.3239  1.3824  0.8707
 6224SOL     OW30130   4.453   2.948   8.612  0.1646 -0.6486  0.3127
 6224SOL    HW130131   4.519   2.911   8.554  0.1588  2.3575 -1.6144
 6224SOL    HW230132   4.375   2.898   8.588  0.3300  0.6280 -2.9024
 6225SOL     OW30133   2.581   0.962   0.456 -0.4213  0.3728  0.2941
 6225SOL    HW130134   2.617   0.877   0.430  0.5953  0.8531  0.1436
 6225SOL    HW230135   2.486   0.947   0.466 -0.0635 -2.6135 -0.5484
 6226SOL     OW30136   4.120   2.658  10.767 -0.5111 -0.1942  0.1625
 6226SOL    HW130137   4.188   2.714  10.730  1.2876 -1.9688  0.7416
 6226SOL    HW230138   4.146   2.573  10.733  0.4372  0.7260 -1.4117
 6227SOL     OW30139   0.915   2.803   2.852  0.6196 -0.1098  0.4358
 6227SOL    HW130140   0.984   2.771   2.910 -0.8306  0.9884  2.7395
 6227SOL    HW230141   0.851   2.732   2.861 -0.0819  0.1285 -2.8071
 6228SOL     OW30142   1.425   1.043   9.647  0.5974 -0.5628 -0.4541
 6228SOL    HW130143   1.335   1.037   9.679  0.5966 -1.6892 -0.6593
 6228SOL    HW230144   1.394   1.044   9.556 -0.4664 -0.2742 -0.0902
 6229SOL     OW30145   1.155   2.179   5.919  0.1107 -0.1314 -0.3689
 6229SOL    HW130146   1.125   2.189   5.829 -0.1572  1.4768 -0.1089
 6229SOL    HW230147   1.236   2.130   5.907  0.2360  0.4905 -2.0517
 6230SOL     OW30148   0.259   4.248   8.310 -0.3943  0.0627 -0.1947
 6230SOL    HW130149   0.168   4.277   8.304  0.1031  0.9830 -3.4757
 6230SOL    HW230150   0.265   4.209   8.397  2.7463 -0.5188 -0.6698
 6231SOL     OW30151   3.950   3.062   7.614  0.2372  0.0133 -0.5536
 6231SOL    HW130152   4.041   3.086   7.593 -0.0175  1.1393 -0.3885
 6231SOL    HW230153   3.943   2.967   7.614  1.2909 -0.0670  0.6630
 6232SOL     OW30154   2.200   1.054  10.794  0.5663  0.0850  0.2048
 6232SOL    HW130155   2.228   1.142  10.772 -2.0606  0.4857 -1.5995
 6232SOL    HW230156   2.183   1.077  10.885  2.5899 -0.7514  0.7961
 6233SOL     OW30157   2.246   0.601   5.592 -0.4328  0.1502  0.1377
 6233SOL    HW130158   2.212   0.685   5.624 -0.4484  0.0811  0.3040
 6233SOL    HW230159   2.162   0.563   5.567 -0.2809 -1.3737  1.9409
 6234SOL     OW30160   0.457   2.165   3.730  0.0504  0.0218 -0.5348
 6234SOL    HW130161   0.464   2.257   3.756  0.7812 -0.6572  1.6156
 6234SOL    HW230162   0.552   2.160   3.717  0.0037  1.9674 -1.7420
 6235SOL     OW30163   0.905   4.469  14.217 -0.3684 -0.2193  0.1138
 6235SOL    HW130164   0.939   4.434  14.299 -0.6000  0.3480  0.4486
 6235SOL    HW230165   0.903   4.564  14.227  0.6872  0.0320 -1.9559
 6236SOL     OW30166   3.664   0.513   7.712  0.2341  0.4933 -0.0250
 6236SOL    HW130167   3.740   0.562   7.682  0.1639  0.3239 -0.4752
 6236SOL    HW230168   3.694   0.487   7.799 -0.1762 -0.7573 -0.2615
 6237SOL     OW30169   1.012   1.914  11.448 -0.2709 -0.3911 -0.2061
 6237SOL    HW130170   0.987   1.904  11.356  0.5981 -1.0356 -0.3760
 6237SOL    HW230171   1.090   1.969  11.440  0.5038 -1.2765  1.3007
 6238SOL     OW30172   1.187   0.765  16.971 -0.2700 -0.0336 -0.4918
 6238SOL    HW130173   1.203   0.859  16.985  1.6501 -0.1445 -2.0558
 6238SOL    HW230174   1.099   0.760  17.008 -0.4899  3.7615 -0.4311
 6239SOL     OW30175   0.353   0.192  11.341 -0.5722  0.2791  0.0135
 6239SOL    HW130176   0.298   0.203  11.263 -2.6441  1.8449  1.6889
 6239SOL    HW230177   0.424   0.132  11.318  0.8221  1.1182  2.1438
 6240SOL     OW30178   1.147   1.717   1.053  0.4806  0.5751 -0.3598
 6240SOL    HW130179   1.128   1.635   1.099 -1.1332  0.0273 -1.9971
 6240SOL    HW230180   1.093   1.779   1.103 -1.7553 -1.2863 -0.4772
 6241SOL     OW30181   0.790   4.098   6.875  0.5251 -0.1036  0.8095
 6241SOL    HW130182   0.834   4.180   6.851 -2.1273  0.3343 -2.4598
 6241SOL    HW230183   0.846   4.069   6.948  0.9721 -1.1522  0.0522
 6242SOL     OW30184   4.254   4.230   5.431 -0.2088  0.1481  0.0364
 6242SOL    HW130185   4.348   4.238   5.418 -0.2684  1.7947  0.6341
 6242SOL    HW230186   4.258   4.181   5.513 -0.5843 -0.1022 -0.0944
 6243SOL     OW30187   1.609   0.192  11.721  0.4522  0.1530  0.5186
 6243SOL    HW130188   1.658   0.114  11.696 -0.0427 -0.6827  2.1304
 6243SOL    HW230189   1.523   0.174  11.682 -0.1371 -3.0290  3.2841
 6244SOL     OW30190   3.429   1.951   1.896  0.2748 -0.1082  0.3449
 6244SOL    HW130191   3.496   2.013   1.869  0.8203 -0.7617  0.1887
 6244SOL    HW230192   3.456   1.931   1.986 -0.2280 -1.1006  0.2742
 6245SOL     OW30193   3.823   4.324   6.900 -0.4682  0.3328  0.5631
 6245SOL    HW130194   3.746   4.379   6.918  0.6182  0.5232  4.7778
 6245SOL    HW230195   3.810   4.306   6.807 -0.3908 -1.9026  0.9872
 6246SOL     OW30196   1.279   4.320   6.119 -0.3376  0.2494 -0.1208
 6246SOL    HW130197   1.234   4.372   6.053 -0.5529 -1.7464 -1.5436
 6246SOL    HW230198   1.231   4.238   6.114  0.8198 -0.3028 -2.2288
 6247SOL     OW30199   1.767   0.281   6.777  0.5980  0.0018 -0.6093
 6247SOL    HW130200   1.738   0.356   6.829 -1.1989 -1.6180  0.7216
 6247SOL    HW230201   1.854   0.269   6.815  1.1992 -1.7149 -2.5590
 6248SOL     OW30202   2.297   2.434   4.037  0.0240 -0.3659  0.4174
 6248SOL    HW130203   2.325   2.344   4.052 -1.7349 -0.7449  1.3689
 6248SOL    HW230204   2.318   2.440   3.943 -1.0237  1.9403  0.3216
 6249SOL     OW30205   2.625   4.152   8.175  0.6358  0.1361 -0.6754
 6249SOL    HW130206   2.558   4.104   8.125  0.6129 -0.9902  0.4382
 6249SOL    HW230207   2.665   4.084   8.229 -0.0601 -1.9639 -2.7390
 6250SOL     OW30208   1.833   0.714   2.563  0.3612 -0.4382 -0.6478
 6250SOL    HW130209   1.889   0.709   2.640  1.4933  0.8686 -1.3857
 6250SOL    HW230210   1.766   0.647   2.575 -0.7407  0.5292 -1.3911
 6251SOL     OW30211   1.972   1.027   8.850 -0.2445 -0.2489  0.5481
 6251SOL    HW130212   1.905   1.027   8.918 -1.1637 -1.5565 -0.3668
 6251SOL    HW230213   1.952   0.944   8.807  1.2006  0.6291 -1.8590
 6252SOL     OW30214   4.132   2.863  11.309 -0.1034 -0.1396 -0.3210
 6252SOL    HW130215   4.212   2.900  11.346 -0.6085 -0.3543  0.9520
 6252SOL    HW230216   4.091   2.807  11.374  0.5510  0.4665  0.6147
 6253SOL     OW30217   2.661   3.867   3.035  0.0769  0.2504 -0.0385
 6253SOL    HW130218   2.640   3.840   2.946 -0.4315  0.7021 -0.0535
 6253SOL    HW230219   2.688   3.957   3.015  2.5825 -0.1915  1.2390
 6254SOL     OW30220   1.904   2.351   0.162  0.0497  0.0644  0.1493
 6254SOL    HW130221   1.856   2.272   0.138 -1.1395  0.6182  0.6839
 6254SOL    HW230222   1.948   2.319   0.240 -1.0174 -0.6288  0.4640
 6255SOL     OW30223   2.861   0.198   9.772  0.1960 -0.5723 -0.1780
 6255SOL    HW130224   2.782   0.205   9.826 -0.1576  0.6736 -0.8756
 6255SOL    HW230225   2.831   0.205   9.682 -0.7718  2.7636  0.4146
 6256SOL     OW30226   2.944   3.465   2.445 -0.1632  0.1665  0.6565
 6256SOL    HW130227   3.034   3.440   2.426  0.4325  1.7953  1.3386
 6256SOL    HW230228   2.912   3.375   2.445  1.1261 -0.2741 -1.5300
 6257SOL     OW30229   2.988   4.205   4.990 -0.2013 -0.2659  0.2733
 6257SOL    HW130230   3.073   4.162   4.981  0.0934  0.1753  0.9411
 6257SOL    HW230231   3.019   4.283   5.035  2.9888 -1.5322  0.2241
 6258SOL     OW30232   1.486   3.098   3.778 -0.0357 -0.1862  0.3931
 6258SOL    HW130233   1.548   3.061   3.716 -0.5301  0.3524 -0.4243
 6258SOL    HW230234   1.478   3.190   3.751  0.0933  0.3193  2.0743
 6259SOL     OW30235   1.312   3.387   5.164  0.3149 -0.2229  0.3634
 6259SOL    HW130236   1.391   3.435   5.138 -0.3043  0.2713 -0.6203
 6259SOL    HW230237   1.321   3.314   5.103 -0.1662  0.5448 -0.6270
 6260SOL     OW30238   3.541   1.943   6.808 -0.2750 -0.2792  0.6044
 6260SOL    HW130239   3.553   1.956   6.714  0.0813  1.9393  0.9561
 6260SOL    HW230240   3.501   2.026   6.833 -1.4519 -0.6063 -0.1491
 6261SOL     OW30241   3.131   1.693  15.253 -0.3099  0.5373  0.5937
 6261SOL    HW130242   3.055   1.692  15.194  0.8169  1.8926 -0.8983
 6261SOL    HW230243   3.110   1.621  15.312  1.1269  1.0814  1.7588
 6262SOL     OW30244   3.497   1.287  12.312 -0.2008 -0.6944 -0.1365
 6262SOL    HW130245   3.409   1.302  12.278 -0.9792 -0.5243  2.0110
 6262SOL    HW230246   3.547   1.353  12.264 -0.0453  0.9385  2.2717
 6263SOL     OW30247   3.015   1.203   2.687  0.1216 -0.4793 -0.2876
 6263SOL    HW130248   2.984   1.245   2.607  1.3114  0.4124 -0.2652
 6263SOL    HW230249   3.090   1.255   2.714 -0.1611 -0.0050 -0.4130
 6264SOL     OW30250   1.882   4.220   2.305  0.0387  0.5813  0.9153
 6264SOL    HW130251   1.967   4.186   2.331 -0.0111 -0.8015 -0.6971
 6264SOL    HW230252   1.823   4.160   2.352  0.6436 -0.5915  0.1765
 6265SOL     OW30253   0.494   4.197   7.918  0.2269  0.3588  0.4645
 6265SOL    HW130254   0.520   4.250   7.843 -0.6651 -0.6538 -0.5577
 6265SOL    HW230255   0.506   4.270   7.978  1.1758  1.0471 -0.5643
 6266SOL     OW30256   2.434   4.546   0.384 -0.0940 -0.2917 -0.5479
 6266SOL    HW130257   2.417   4.526   0.291 -2.9986  0.1370 -0.1164
 6266SOL    HW230258   2.367   4.500   0.435 -1.2827  0.8913 -1.0263
 6267SOL     OW30259   4.247   1.078   1.907 -0.2536 -0.4025 -0.2519
 6267SOL    HW130260   4.283   1.148   1.962  0.6714  1.1556 -2.8440
 6267SOL    HW230261   4.204   1.122   1.833 -0.2518 -1.5509 -0.9299
 6268SOL     OW30262   2.450   4.109   5.253  0.6686  0.4593 -0.3931
 6268SOL    HW130263   2.452   4.150   5.167 -0.5089  0.3920 -0.4604
 6268SOL    HW230264   2.525   4.156   5.288  1.2740 -0.7926 -0.0221
 6269SOL     OW30265   1.021   0.817   2.802 -0.2341 -0.3902 -0.2042
 6269SOL    HW130266   1.017   0.760   2.879  1.2318 -1.3751 -0.8773
 6269SOL    HW230267   1.105   0.860   2.817 -0.7297  0.7075 -0.5421
 6270SOL     OW30268   3.117   4.307   6.517  0.2742 -0.0816  0.3787
 6270SOL    HW130269   3.058   4.358   6.573  1.3497  1.6625 -0.0825
 6270SOL    HW230270   3.199   4.331   6.560  0.2884 -1.1866  0.9603
 6271SOL     OW30271   2.846   2.180   4.617 -0.1900  0.5291 -0.7009
 6271SOL    HW130272   2.867   2.110   4.556  1.8517 -0.1921  0.8399
 6271SOL    HW230273   2.916   2.178   4.683 -1.4347  2.7166  0.6754
 6272SOL     OW30274   2.671   1.381   3.912  0.7781 -0.4987 -0.1730
 6272SOL    HW130275   2.692   1.309   3.972 -1.2250 -0.1686  0.9605
 6272SOL    HW230276   2.577   1.366   3.898  1.0501 -0.8540 -1.5626
 6273SOL     OW30277   2.870   0.455   7.282  0.4374 -0.4463 -0.0302
 6273SOL    HW130278   2.866   0.520   7.212 -3.0765 -0.4378  0.1807
 6273SOL    HW230279   2.792   0.474   7.333  0.4289  2.1846 -1.0411
 6274SOL     OW30280   4.030   3.502  10.238 -0.6130 -0.1811 -0.1723
 6274SOL    HW130281   4.068   3.570  10.183 -1.2971  0.1820 -0.1979
 6274SOL    HW230282   4.104   3.490  10.297  0.2623 -1.8475 -1.5978
 6275SOL     OW30283   2.596   0.350   5.716  0.1584 -0.2250  0.1618
 6275SOL    HW130284   2.538   0.379   5.645  0.3755  0.4047  0.2478
 6275SOL    HW230285   2.572   0.406   5.789 -1.7971 -0.1814 -0.5197
 6276SOL     OW30286   1.375   1.264   5.330 -0.1524  0.1300 -0.1633
 6276SOL    HW130287   1.330   1.293   5.410 -0.5764 -1.2482  0.1024
 6276SOL    HW230288   1.374   1.169   5.341 -1.7125  0.0274 -1.2181
 6277SOL     OW30289   3.821   2.497   7.790  0.8088 -0.2121  0.6872
 6277SOL    HW130290   3.843   2.551   7.866  1.5837  1.5482 -0.8270
 6277SOL    HW230291   3.725   2.487   7.791  0.8502 -0.5807  4.5589
 6278SOL     OW30292   3.112   1.084   8.633 -0.1637 -0.2963  0.3164
 6278SOL    HW130293   3.104   1.145   8.706  1.5734  1.0774 -0.6517
 6278SOL    HW230294   3.027   1.040   8.637  0.1171 -0.6387  2.1885
 6279SOL     OW30295   2.199   2.176  13.594  0.3916  0.0470  0.3152
 6279SOL    HW130296   2.245   2.184  13.511 -1.1035 -1.4262 -0.6513
 6279SOL    HW230297   2.248   2.240  13.647 -1.8572  1.8969  0.1718
 6280SOL     OW30298   0.838   2.718   0.281  0.7410 -0.3707 -0.6748
 6280SOL    HW130299   0.780   2.660   0.232 -0.8798 -0.4455  1.3565
 6280SOL    HW230300   0.791   2.775   0.342  1.6451  0.1539 -0.4705
 6281SOL     OW30301   2.959   2.964   3.407 -0.0256  0.0470  0.5625
 6281SOL    HW130302   2.940   2.924   3.492 -0.0840 -1.7556 -0.3005
 6281SOL    HW230303   2.943   2.888   3.352  2.4589 -0.1579  0.1298
 6282SOL     OW30304   3.709   4.707   8.176  0.0922  0.1175 -0.4484
 6282SOL    HW130305   3.624   4.714   8.221  0.3388  3.8021 -0.5672
 6282SOL    HW230306   3.725   0.071   8.138 -0.1220 -0.1855 -1.2237
 6283SOL     OW30307   2.657   0.674   8.568 -0.2130 -0.4905  0.2128
 6283SOL    HW130308   2.581   0.667   8.626 -0.7845  0.6061 -0.3915
 6283SOL    HW230309   2.625   0.755   8.528  0.1848  0.1458  1.1937
 6284SOL     OW30310   4.047   1.257  13.490 -0.1688  0.1427  0.4856
 6284SOL    HW130311   4.045   1.247  13.395  0.9348  1.1071  0.3583
 6284SOL    HW230312   3.956   1.251  13.520 -0.2145  3.3642  1.0270
 6285SOL     OW30313   1.478   1.318   8.635 -0.1334 -0.0859  0.5301
 6285SOL    HW130314   1.464   1.406   8.600 -0.4768 -0.2348  0.2856
 6285SOL    HW230315   1.529   1.275   8.566  2.8969  2.3545  1.2311
 6286SOL     OW30316   0.819   4.048   5.452  0.0847  0.2517 -0.1308
 6286SOL    HW130317   0.780   4.134   5.470 -3.1390 -1.9730  3.3804
 6286SOL    HW230318   0.860   4.039   5.538  1.7801  0.9414 -0.8727
 6287SOL     OW30319   4.119   3.234   0.265  0.2613 -0.2631  0.2746
 6287SOL    HW130320   4.136   3.290   0.341  2.6945 -1.1650  0.4129
 6287SOL    HW230321   4.055   3.286   0.216 -0.7844 -0.1725  1.7467
 6288SOL     OW30322   3.646   0.440   6.877  0.8686 -0.4307 -0.6179
 6288SOL    HW130323   3.614   0.397   6.797 -1.6023  0.8480 -0.3097
 6288SOL    HW230324   3.696   0.375   6.926  0.9037 -0.6367 -0.9212
 6289SOL     OW30325   4.408   2.955   3.972 -0.2753 -0.2409  0.1572
 6289SOL    HW130326   4.372   3.011   4.040  0.4684 -1.1524  1.2936
 6289SOL    HW230327   4.422   2.866   4.004  2.1692  0.5561  1.2020
 6290SOL     OW30328   3.078   3.362   4.738  0.2798 -0.0591  0.4333
 6290SOL    HW130329   3.018   3.436   4.742  0.2395 -0.0236 -1.0506
 6290SOL    HW230330   3.020   3.286   4.727  0.1489  0.0869  0.1187
 6291SOL     OW30331   3.036   0.760   0.739 -0.0642 -0.4434 -0.0398
 6291SOL    HW130332   3.019   0.850   0.767 -1.5192 -0.9971  0.8461
 6291SOL    HW230333   2.977   0.711   0.795  1.3228 -1.4405  0.5478
 6292SOL     OW30334   2.032   3.977   2.595  0.4055 -0.3022 -0.0502
 6292SOL    HW130335   2.108   3.920   2.607 -0.1183 -0.6363  1.6486
 6292SOL    HW230336   1.955   3.922   2.609  0.5982 -0.1388  1.6729
 6293SOL     OW30337   1.619   2.111   4.923  0.1458 -0.6616 -0.3841
 6293SOL    HW130338   1.686   2.131   4.988  0.3270 -2.4816  0.0114
 6293SOL    HW230339   1.566   2.189   4.905  4.2412  2.6374  1.9711
 6294SOL     OW30340   3.395   2.399   3.517 -0.4665 -0.1033  0.4433
 6294SOL    HW130341   3.335   2.344   3.568  0.9343 -1.1997  0.9084
 6294SOL    HW230342   3.361   2.485   3.544  2.8960  0.5488  2.5568
 6295SOL     OW30343   0.457   0.322  14.032  0.7135 -0.1570 -0.0305
 6295SOL    HW130344   0.382   0.265  14.050 -0.9303  1.4018 -1.9366
 6295SOL    HW230345   0.415   0.361  13.956  0.5111 -1.7609 -0.7515
 6296SOL     OW30346   2.219   4.266   6.473  0.0674  0.0248 -0.3340
 6296SOL    HW130347   2.143   4.245   6.527 -0.5003  1.2897 -0.6420
 6296SOL    HW230348   2.191   4.333   6.410  0.1709 -0.4306 -0.8610
 6297SOL     OW30349   0.987   4.356   2.577 -0.6971  0.0515  0.4091
 6297SOL    HW130350   0.900   4.347   2.539 -0.9674  1.0013  0.8048
 6297SOL    HW230351   0.985   4.273   2.626  1.0948  1.0177  2.1349
 6298SOL     OW30352   3.206   0.907  15.247  0.1197  0.2479 -0.0570
 6298SOL    HW130353   3.301   0.916  15.254  0.1055 -0.3379  0.8831
 6298SOL    HW230354   3.163   0.982  15.289  0.8702  0.4069  0.4216
 6299SOL     OW30355   1.561   3.679   5.158 -0.1980  0.2305  0.0766
 6299SOL    HW130356   1.639   3.667   5.103 -0.6529  0.2742 -0.5795
 6299SOL    HW230357   1.605   3.653   5.239 -2.0723 -1.0111  0.7037
 6300SOL     OW30358   1.757   1.182   9.917 -0.2539  0.4296  0.4968
 6300SOL    HW130359   1.726   1.273   9.913 -1.3118  0.1725  2.8623
 6300SOL    HW230360   1.713   1.162   9.999 -2.6320  1.7864 -0.4587
 6301SOL     OW30361   3.955   2.974  10.510 -0.1802 -0.4239 -1.0841
 6301SOL    HW130362   3.946   3.058  10.555 -0.5923 -0.9897 -0.1068
 6301SOL    HW230363   3.881   2.932  10.553  2.5126 -2.6788  1.4095
 6302SOL     OW30364   1.400   0.037  14.178 -0.1547 -0.4235 -0.1030
 6302SOL    HW130365   1.448   0.117  14.199  2.1729 -1.7001 -0.5953
 6302SOL    HW230366   1.341   0.032  14.253 -1.0960 -1.2146 -0.8983
 6303SOL     OW30367   2.517   0.151  11.669 -0.2969  0.2223 -0.0211
 6303SOL    HW130368   2.551   0.165  11.581 -1.3520 -0.8711 -0.6060
 6303SOL    HW230369   2.427   0.179  11.650  0.1790  1.0945 -0.9965
 6304SOL     OW30370   3.628   3.702   3.862 -0.4078  0.4482 -0.5271
 6304SOL    HW130371   3.697   3.653   3.817  0.6150 -0.2078  1.7523
 6304SOL    HW230372   3.554   3.665   3.815  0.0756 -2.3028  0.8365
 6305SOL     OW30373   3.887   1.347  14.427  0.0082  0.0904 -0.6134
 6305SOL    HW130374   3.927   1.343  14.340  1.6293  0.8498  0.1073
 6305SOL    HW230375   3.799   1.309  14.417  1.4082 -3.5126  0.5807
 6306SOL     OW30376   3.434   4.161   1.333  0.5692 -0.2747  0.2170
 6306SOL    HW130377   3.414   4.129   1.246 -0.9537  1.2143  0.0338
 6306SOL    HW230378   3.395   4.248   1.336  0.7686 -0.1394 -1.5712
 6307SOL     OW30379   0.696   2.350   4.417 -0.7401 -0.1260 -0.4714
 6307SOL    HW130380   0.649   2.316   4.341  0.1793 -2.4365  0.0057
 6307SOL    HW230381   0.679   2.444   4.408  0.8184  0.3923  2.0058
 6308SOL     OW30382   2.327   1.507  14.783 -0.2016 -0.4082  0.7169
 6308SOL    HW130383   2.235   1.514  14.806  0.2270  4.3150  0.9353
 6308SOL    HW230384   2.319   1.443  14.713 -2.2826 -2.9084  3.2378
 6309SOL     OW30385   4.077   4.028   1.755  0.0677  0.4162  0.9303
 6309SOL    HW130386   3.990   4.016   1.716  1.1153  0.0097 -1.2786
 6309SOL    HW230387   4.119   3.944   1.737 -0.3595  0.0131  1.8213
 6310SOL     OW30388   4.679   4.200   3.154  0.2916 -0.2544 -0.0266
 6310SOL    HW130389   4.705   4.133   3.217  1.8064  1.1491  0.8415
 6310SOL    HW230390   0.013   4.165   3.084  0.8369  1.3657 -0.3937
 6311SOL     OW30391   2.685   4.682   0.408 -0.0241 -0.3794 -0.2156
 6311SOL    HW130392   2.600   4.642   0.424 -0.0910 -0.2157 -0.1606
 6311SOL    HW230393   2.671   0.042   0.456  1.2642 -0.0006 -0.4622
 6312SOL     OW30394   0.138   3.829   7.450  0.0407  0.0115 -0.2874
 6312SOL    HW130395   0.042   3.822   7.444 -0.2226  1.2469  2.2737
 6312SOL    HW230396   0.150   3.924   7.447  0.4781 -0.0201  0.4667
 6313SOL     OW30397   2.116   0.108  15.470 -0.1181 -0.3202 -0.1464
 6313SOL    HW130398   2.094   0.015  15.475 -1.6911  0.0409 -0.2360
 6313SOL    HW230399   2.211   0.098  15.476 -0.2776 -0.4763  2.2359
 6314SOL     OW30400   3.444   3.505   0.753 -0.0253 -0.1559 -0.5581
 6314SOL    HW130401   3.523   3.538   0.711  0.9671 -0.5792  0.9600
 6314SOL    HW230402   3.483   3.464   0.830 -1.5423 -2.0043 -0.7760
 6315SOL     OW30403   2.933   0.312   3.243  0.4266 -0.2072 -0.0676
 6315SOL    HW130404   2.890   0.251   3.182 -2.0072  0.7849  0.6428
 6315SOL    HW230405   2.864   0.348   3.299 -2.6906  0.1565 -4.1043
 6316SOL     OW30406   2.426   1.657   6.743 -0.0743  0.1790 -0.0423
 6316SOL    HW130407   2.333   1.636   6.752 -0.2869 -0.7125 -4.0654
 6316SOL    HW230408   2.440   1.702   6.826  0.6699 -1.5011  0.7423
 6317SOL     OW30409   0.290   2.336   2.445  0.0242 -0.5363  0.3473
 6317SOL    HW130410   0.228   2.318   2.375 -0.4535  0.3907  0.5361
 6317SOL    HW230411   0.372   2.312   2.401 -0.1759 -0.2368 -0.1858
 6318SOL     OW30412   0.293   3.352  13.211  0.1654 -0.8333  0.4233
 6318SOL    HW130413   0.319   3.288  13.145 -0.1560  2.2135 -2.6536
 6318SOL    HW230414   0.349   3.429  13.202  0.4113 -0.8466  1.7785
 6319SOL     OW30415   2.012   4.022  17.438 -0.2596  0.4166  0.1737
 6319SOL    HW130416   1.952   4.023  17.513 -0.6025 -0.9622 -0.0841
 6319SOL    HW230417   2.069   4.095  17.463  0.4194 -1.3035  3.6016
 6320SOL     OW30418   0.229   2.663   2.485  0.4672  0.0334  0.0546
 6320SOL    HW130419   0.184   2.606   2.549  1.2211  0.5707  1.0610
 6320SOL    HW230420   0.206   2.621   2.402  2.7445  0.9668 -1.0274
 6321SOL     OW30421   3.452   0.140  15.751 -0.2305 -1.1579 -0.2781
 6321SOL    HW130422   3.462   0.220  15.700 -1.1332 -2.2096 -2.1193
 6321SOL    HW230423   3.427   0.171  15.838  0.1500  0.8130 -0.8730
 6322SOL     OW30424   4.414   2.267   6.604  0.4248 -0.5088  0.0385
 6322SOL    HW130425   4.488   2.282   6.662 -0.1662  0.1871  0.6067
 6322SOL    HW230426   4.361   2.200   6.646 -1.6214  0.5159 -0.8709
 6323SOL     OW30427   4.373   1.485   1.722  0.0315 -0.1734  0.0413
 6323SOL    HW130428   4.462   1.457   1.702  0.4262  1.0704  0.0741
 6323SOL    HW230429   4.339   1.401   1.693 -0.2377  0.0495 -0.2806
 6324SOL     OW30430   1.227   0.463   0.665  0.5738 -0.1483  0.0946
 6324SOL    HW130431   1.274   0.451   0.582 -0.2031  0.5613 -0.4442
 6324SOL    HW230432   1.271   0.399   0.721 -0.4858  0.4214  1.5910
 6325SOL     OW30433   2.394   0.061  13.328  0.4367 -0.0374  0.3084
 6325SOL    HW130434   2.428   0.047  13.417 -1.3697 -0.9520  0.8501
 6325SOL    HW230435   2.370   0.154  13.329 -0.9369 -0.3766 -3.2058
 6326SOL     OW30436   1.842   3.382   1.639  0.4221 -0.0629  0.6191
 6326SOL    HW130437   1.786   3.340   1.574  1.7729 -1.6783  0.4951
 6326SOL    HW230438   1.824   3.475   1.632 -0.1597 -0.2683 -0.5987
 6327SOL     OW30439   0.475   2.253   1.867 -0.2398  0.0973  0.1403
 6327SOL    HW130440   0.441   2.175   1.911 -1.2547 -0.1083 -1.0001
 6327SOL    HW230441   0.473   2.327   1.928 -0.0829 -0.6330  1.0341
 6328SOL     OW30442   1.675   3.193   5.319 -0.3041  0.4152  0.2682
 6328SOL    HW130443   1.628   3.250   5.259  1.6761  0.5876 -1.1160
 6328SOL    HW230444   1.755   3.243   5.335  0.2253  0.4407 -2.3853
 6329SOL     OW30445   2.307   0.964   9.902 -0.2062  0.0683  0.2278
 6329SOL    HW130446   2.336   1.003   9.984 -0.4556  2.2400 -0.7178
 6329SOL    HW230447   2.218   0.995   9.884  0.1815  0.9260 -0.1695
 6330SOL     OW30448   1.179   1.404   8.853  0.0963  0.3514 -0.3908
 6330SOL    HW130449   1.089   1.370   8.845 -1.0514  3.5010 -0.9955
 6330SOL    HW230450   1.221   1.369   8.775 -2.4096 -1.5016 -0.9113
 6331SOL     OW30451   1.848   3.949   4.795  0.1322 -0.9844 -0.0628
 6331SOL    HW130452   1.913   3.952   4.725  2.2651 -4.8623  1.7995
 6331SOL    HW230453   1.783   4.016   4.772 -0.7304 -2.0014 -0.6029
 6332SOL     OW30454   2.969   1.844   7.555 -0.4891 -0.2277  0.9454
 6332SOL    HW130455   2.913   1.800   7.491 -0.6020  0.1864  0.7585
 6332SOL    HW230456   2.936   1.810   7.638 -0.9456  0.7511  1.1663
 6333SOL     OW30457   3.540   3.818   9.898  0.1723  0.3590  0.3850
 6333SOL    HW130458   3.507   3.878   9.965 -2.9489  0.4701 -1.2304
 6333SOL    HW230459   3.476   3.748   9.890  0.4936  0.2710 -1.3436
 6334SOL     OW30460   0.629   1.044   8.114 -0.1328  0.5565  0.1569
 6334SOL    HW130461   0.545   1.082   8.087 -1.1352 -1.7639  0.0275
 6334SOL    HW230462   0.637   1.064   8.207 -0.4574 -0.8681  0.4768
 6335SOL     OW30463   4.327   2.387   5.694  0.8397 -0.4030  0.0284
 6335SOL    HW130464   4.354   2.314   5.638  1.6749 -0.7040  0.8172
 6335SOL    HW230465   4.267   2.350   5.758  0.9663  2.2552  1.7138
 6336SOL     OW30466   0.118   3.021   7.406 -0.0198 -0.2597  0.0840
 6336SOL    HW130467   0.204   2.989   7.380  0.5333 -1.3991  3.3374
 6336SOL    HW230468   0.140   3.088   7.470 -2.2663  0.2332  0.3393
 6337SOL     OW30469   2.411   1.269  13.707 -0.0987 -0.1304 -0.2847
 6337SOL    HW130470   2.333   1.324  13.718  1.5964  1.8290  1.8292
 6337SOL    HW230471   2.383   1.178  13.701 -0.2499 -0.0238 -1.1382
 6338SOL     OW30472   1.616   3.128   3.173 -0.2803  0.0324  0.1203
 6338SOL    HW130473   1.536   3.095   3.132 -1.2266  2.1811  0.1986
 6338SOL    HW230474   1.583   3.152   3.259  1.1833  0.1119  0.6629
 6339SOL     OW30475   4.336   0.364  11.299  0.5922  0.5482 -0.0356
 6339SOL    HW130476   4.320   0.289  11.241 -0.0931 -0.6184  1.6588
 6339SOL    HW230477   4.427   0.392  11.291  0.4169  1.3229  0.6729
 6340SOL     OW30478   2.348   2.112   2.108  0.1226 -0.1955 -0.0489
 6340SOL    HW130479   2.312   2.027   2.131 -2.0159  0.1501 -2.0991
 6340SOL    HW230480   2.292   2.143   2.037 -0.3294  1.8163  1.1661
 6341SOL     OW30481   0.304   0.884   8.974  0.4596 -0.1364 -0.2831
 6341SOL    HW130482   0.342   0.966   9.004 -0.9287  0.5241 -0.3110
 6341SOL    HW230483   0.257   0.874   9.057 -0.1728 -1.6145 -0.8165
 6342SOL     OW30484   3.073   0.530   7.468 -0.4631 -0.1020  0.2632
 6342SOL    HW130485   3.007   0.554   7.532 -2.5911 -1.2116 -1.4977
 6342SOL    HW230486   3.021   0.496   7.395 -0.2195 -1.4044  0.7009
 6343SOL     OW30487   4.229   4.344   1.616  0.4029 -0.4210  0.4890
 6343SOL    HW130488   4.303   4.283   1.618  1.3872  0.7285 -1.2538
 6343SOL    HW230489   4.161   4.291   1.573 -0.6726  1.5212 -0.2224
 6344SOL     OW30490   4.277   1.408   9.275 -0.9590 -0.0641  0.7578
 6344SOL    HW130491   4.242   1.485   9.231 -0.0600 -0.6495 -0.9683
 6344SOL    HW230492   4.257   1.425   9.367 -2.6561 -2.4193  0.8152
 6345SOL     OW30493   1.634   1.678   5.467 -0.4702 -0.3113  0.8434
 6345SOL    HW130494   1.621   1.600   5.521  0.3579 -0.7415  0.4244
 6345SOL    HW230495   1.726   1.666   5.442 -0.6349 -1.6696  0.8676
 6346SOL     OW30496   2.928   2.868   6.367  0.1959  0.1300 -0.0141
 6346SOL    HW130497   2.932   2.941   6.429 -0.2233  0.1576 -0.0218
 6346SOL    HW230498   2.839   2.870   6.332  0.2764 -0.0371 -0.2318
 6347SOL     OW30499   2.680   2.033  13.062 -0.0657 -0.4392  0.0462
 6347SOL    HW130500   2.675   1.946  13.102 -0.6407 -0.2355  0.4272
 6347SOL    HW230501   2.765   2.028  13.018  0.3147 -0.0929  0.7374
 6348SOL     OW30502   0.656   4.257   5.515 -0.0713 -0.5172  0.1954
 6348SOL    HW130503   0.618   4.243   5.602  0.0868 -1.8541  0.0537
 6348SOL    HW230504   0.693   4.345   5.524 -1.6414  0.2760 -1.2011
 6349SOL     OW30505   1.111   3.016   0.125 -0.4209  0.1791  0.2814
 6349SOL    HW130506   1.016   3.022   0.113 -0.4675  0.6261  0.8616
 6349SOL    HW230507   1.118   2.944   0.188 -1.7283 -1.1777 -1.1049
 6350SOL     OW30508   3.349   1.257   6.728 -0.6997  0.1459 -0.0450
 6350SOL    HW130509   3.293   1.299   6.663 -1.5363 -0.7265  0.1040
 6350SOL    HW230510   3.322   1.317   6.798 -2.9093 -0.6265 -0.2451
 6351SOL     OW30511   3.029   4.152   1.853  0.8290  0.2502  0.5242
 6351SOL    HW130512   3.078   4.172   1.933  0.9935  0.9879  0.2372
 6351SOL    HW230513   3.008   4.060   1.868 -1.1990  1.0897  2.8380
 6352SOL     OW30514   0.966   3.145   0.424 -0.2630  0.1814  0.1858
 6352SOL    HW130515   1.060   3.142   0.444 -0.1351  0.8069 -0.3068
 6352SOL    HW230516   0.945   3.221   0.479  5.5658  2.8066 -1.1715
 6353SOL     OW30517   3.321   3.247   6.790  0.0507  0.3126 -0.1861
 6353SOL    HW130518   3.400   3.230   6.841 -0.2143  0.5487  0.3080
 6353SOL    HW230519   3.370   3.271   6.711 -0.0734  0.1469 -0.3112
 6354SOL     OW30520   1.028   3.766   5.167  0.1828  0.0253  0.4821
 6354SOL    HW130521   1.123   3.781   5.161  0.6149 -2.6925  0.1683
 6354SOL    HW230522   1.027   3.675   5.136 -0.7362  0.2792 -0.1987
 6355SOL     OW30523   2.013   2.958  15.312  0.1731  0.6972 -1.3019
 6355SOL    HW130524   2.055   3.007  15.242 -2.2008  0.1718 -3.0825
 6355SOL    HW230525   1.963   3.029  15.353 -1.4888 -0.6124 -1.0159
 6356SOL     OW30526   3.796   4.073   3.978 -0.1458 -0.0989  0.2472
 6356SOL    HW130527   3.785   3.978   3.983  0.7086 -0.2632 -1.0007
 6356SOL    HW230528   3.786   4.084   3.883 -1.4612 -1.4092  0.2352
 6357SOL     OW30529   1.609   3.127   9.111  0.2517  0.1328  0.4934
 6357SOL    HW130530   1.681   3.187   9.130  0.2967 -0.1960  1.3360
 6357SOL    HW230531   1.616   3.119   9.016 -0.9924  1.1885  0.3079
 6358SOL     OW30532   1.147   0.370  16.927  0.1562 -0.0684  0.0786
 6358SOL    HW130533   1.094   0.297  16.898  0.0532  0.0979 -0.1531
 6358SOL    HW230534   1.082   0.428  16.966 -0.7072 -1.6049  0.8996
 6359SOL     OW30535   0.782   1.913   4.280  0.1735 -0.0933  0.5144
 6359SOL    HW130536   0.855   1.974   4.282  0.5551 -0.5476  0.5830
 6359SOL    HW230537   0.831   1.831   4.273  1.0803  0.8284 -3.9778
 6360SOL     OW30538   1.324   2.182   5.170 -0.8214 -0.5055  0.2618
 6360SOL    HW130539   1.341   2.114   5.235 -0.1835 -0.0019  0.6200
 6360SOL    HW230540   1.243   2.221   5.205  0.4107  1.4038  0.9984
 6361SOL     OW30541   0.914   2.453   7.498 -0.2852 -0.1660  0.1896
 6361SOL    HW130542   0.863   2.514   7.445 -1.7222 -0.5364  1.1598
 6361SOL    HW230543   0.880   2.487   7.581 -1.2971  0.9496 -0.6770
 6362SOL     OW30544   2.201   4.326  15.087  0.0375 -0.6568 -0.6171
 6362SOL    HW130545   2.148   4.396  15.124 -0.8051 -2.5814  1.7790
 6362SOL    HW230546   2.293   4.338  15.111 -0.4360  2.8190 -0.5748
 6363SOL     OW30547   2.855   3.763  15.485 -0.0094 -0.1663  0.5893
 6363SOL    HW130548   2.838   3.857  15.497 -1.3481 -0.5530  1.7200
 6363SOL    HW230549   2.774   3.732  15.525  0.5431  1.2769  2.8100
 6364SOL     OW30550   4.007   2.735  11.504 -0.5002 -0.2873  0.4891
 6364SOL    HW130551   4.084   2.708  11.553  0.5903  0.3203 -0.8700
 6364SOL    HW230552   3.949   2.736  11.580  0.0034  0.2897  0.8737
 6365SOL     OW30553   0.791   2.556   2.036  0.3141  0.8628 -0.4511
 6365SOL    HW130554   0.873   2.577   1.991 -0.9067  3.0613 -1.6150
 6365SOL    HW230555   0.732   2.600   1.975  0.9968 -0.7904 -2.3326
 6366SOL     OW30556   1.752   0.222   5.064  0.3249  0.2047  0.4429
 6366SOL    HW130557   1.803   0.292   5.106  1.3456  0.4874 -1.2951
 6366SOL    HW230558   1.672   0.265   5.034 -0.1066  2.8301  5.2619
 6367SOL     OW30559   3.875   4.684   8.568  0.1138 -0.2120 -0.1519
 6367SOL    HW130560   3.785   4.713   8.552  0.2792 -0.2074 -1.0353
 6367SOL    HW230561   3.932   0.025   8.525 -1.3641  2.2172  1.4482
 6368SOL     OW30562   0.172   0.112  11.703  0.0131 -0.0810  0.0408
 6368SOL    HW130563   0.081   0.113  11.733  0.3506  0.9909  1.0520
 6368SOL    HW230564   0.186   0.199  11.665  1.0509 -1.3152 -2.3881
 6369SOL     OW30565   0.926   0.369   7.797  0.3110 -0.6562  0.0560
 6369SOL    HW130566   0.878   0.403   7.722  0.0251 -0.3011  0.3936
 6369SOL    HW230567   0.857   0.359   7.863  1.1322  0.1265  1.0467
 6370SOL     OW30568   0.490   0.320   1.413  0.9768  0.6493  0.8758
 6370SOL    HW130569   0.433   0.396   1.404  0.4020 -0.3278 -3.7337
 6370SOL    HW230570   0.561   0.349   1.355  0.1010  0.6464 -0.1874
 6371SOL     OW30571   4.392   4.295  10.975 -0.4406 -0.7418  0.0803
 6371SOL    HW130572   4.371   4.244  11.053 -3.6804 -0.2233 -0.4338
 6371SOL    HW230573   4.334   4.370  10.990  0.3608 -0.3982  1.4050
 6372SOL     OW30574   4.221   3.479  10.435 -0.1070  0.1454 -0.2651
 6372SOL    HW130575   4.299   3.435  10.469  0.4353  1.4030  0.1467
 6372SOL    HW230576   4.161   3.480  10.509  0.2660 -1.2645  0.0436
 6373SOL     OW30577   3.437   3.333   4.122  0.2945  0.1426  0.3580
 6373SOL    HW130578   3.530   3.307   4.123  0.3118  0.1929 -1.0248
 6373SOL    HW230579   3.429   3.360   4.214 -1.9558 -0.7553  0.4106
 6374SOL     OW30580   3.661   1.586   3.923  0.1008 -0.4714 -0.6205
 6374SOL    HW130581   3.658   1.597   3.828  2.0945 -0.2836 -0.6545
 6374SOL    HW230582   3.753   1.562   3.930  0.6788  1.7715 -0.7120
 6375SOL     OW30583   0.068   3.029  16.195 -0.1137  0.0059 -0.3502
 6375SOL    HW130584   4.695   3.033  16.204  0.0974  1.1090  1.3759
 6375SOL    HW230585   0.072   2.941  16.157 -0.3985 -0.9560  1.8779
 6376SOL     OW30586   1.325   1.107  12.431 -0.3445 -0.2703  0.6865
 6376SOL    HW130587   1.419   1.109  12.412 -0.3648 -0.7519  0.5247
 6376SOL    HW230588   1.297   1.035  12.374  0.6911 -0.0590 -0.0898
 6377SOL     OW30589   1.049   3.853   9.250 -0.1367  0.4670 -0.1641
 6377SOL    HW130590   1.054   3.948   9.236 -0.8057  0.7403  1.4436
 6377SOL    HW230591   0.955   3.841   9.261  0.0077 -0.7248 -0.2598
 6378SOL     OW30592   4.484   3.695   9.982  0.3080 -0.3073 -0.5212
 6378SOL    HW130593   4.508   3.786   9.964  0.5290 -0.1713  0.4688
 6378SOL    HW230594   4.456   3.706  10.072  1.5511  1.1023 -0.3002
 6379SOL     OW30595   1.990   1.786   8.932  0.1878 -0.0290  0.3248
 6379SOL    HW130596   1.923   1.850   8.910 -0.1095 -1.1894 -2.0646
 6379SOL    HW230597   1.938   1.731   8.991 -1.2075 -0.1525 -1.0489
 6380SOL     OW30598   1.920   4.216   7.305 -0.2574 -0.1086 -0.5295
 6380SOL    HW130599   1.951   4.252   7.387 -0.5015 -2.7469  0.7379
 6380SOL    HW230600   1.840   4.266   7.287 -0.5822 -0.7955 -1.0143
 6381SOL     OW30601   2.745   1.462   2.731 -0.1661  0.4651 -0.2624
 6381SOL    HW130602   2.821   1.520   2.730  1.2495 -1.3885  0.9544
 6381SOL    HW230603   2.679   1.532   2.730 -0.7091 -0.0439  0.0435
 6382SOL     OW30604   3.562   3.404   9.077 -0.1857 -0.0339 -0.2774
 6382SOL    HW130605   3.587   3.496   9.077  2.3817 -0.7360  2.3113
 6382SOL    HW230606   3.549   3.383   9.170 -1.5735 -1.3607 -0.7594
 6383SOL     OW30607   1.231   3.615  13.899 -0.3120  0.1390 -0.2437
 6383SOL    HW130608   1.279   3.683  13.851  1.3216 -0.2082  0.9024
 6383SOL    HW230609   1.277   3.537  13.868 -1.4429 -0.2963 -0.8120
 6384SOL     OW30610   4.240   1.413  16.073 -0.1309 -0.2231 -0.1202
 6384SOL    HW130611   4.241   1.325  16.109  0.9773  0.1888  0.8582
 6384SOL    HW230612   4.332   1.429  16.053 -0.3732  2.2156  0.6442
 6385SOL     OW30613   2.219   0.044  11.447 -0.4090 -0.2368  0.5529
 6385SOL    HW130614   2.235   0.095  11.526  0.9315  0.7829 -0.3813
 6385SOL    HW230615   2.281   0.088  11.390  0.4203 -1.8386  0.2133
 6386SOL     OW30616   1.309   4.597   4.124  0.3415  0.3635 -0.4293
 6386SOL    HW130617   1.270   4.544   4.193  0.6731 -0.4273 -0.8502
 6386SOL    HW230618   1.295   4.527   4.061 -0.0388 -0.2696  0.3636
 6387SOL     OW30619   0.447   0.599  13.638  0.5064  0.1082  0.1855
 6387SOL    HW130620   0.445   0.515  13.684 -2.1915 -0.0513 -0.2158
 6387SOL    HW230621   0.459   0.654  13.715 -1.8008  1.2264 -0.2385
 6388SOL     OW30622   3.826   4.522   4.205  0.1159  0.2527  0.1169
 6388SOL    HW130623   3.763   4.486   4.142 -0.3890  1.3076  0.0247
 6388SOL    HW230624   3.901   4.487   4.157 -0.3475 -1.8494  0.9244
 6389SOL     OW30625   3.575   2.301   4.961  0.1939 -0.0320 -0.9370
 6389SOL    HW130626   3.622   2.240   4.905 -1.4036 -1.2968 -0.9072
 6389SOL    HW230627   3.651   2.310   5.018 -0.3148  0.1181 -0.2762
 6390SOL     OW30628   3.765   3.873  14.516 -0.4144  0.7904  0.1328
 6390SOL    HW130629   3.798   3.873  14.427 -1.4759 -1.8773 -0.2476
 6390SOL    HW230630   3.829   3.929  14.559 -0.9315  1.0583  0.5614
 6391SOL     OW30631   4.512   1.604   7.249 -0.3774 -0.2679  0.3823
 6391SOL    HW130632   4.438   1.644   7.202  0.3463  0.0906 -0.4474
 6391SOL    HW230633   4.514   1.659   7.328 -1.2529  1.2943 -0.6822
 6392SOL     OW30634   4.637   4.045   3.385 -0.1299 -0.5277 -0.2168
 6392SOL    HW130635   4.611   4.129   3.424  0.2608 -1.0774  1.2250
 6392SOL    HW230636   4.559   4.007   3.346 -0.9139 -1.6577  2.4668
 6393SOL     OW30637   0.090   2.882   2.966 -0.0897  0.0391  0.7691
 6393SOL    HW130638   0.184   2.891   2.953  0.0809 -0.0148  1.9665
 6393SOL    HW230639   0.059   2.964   3.004  0.6064  0.3708  0.6094
 6394SOL     OW30640   3.348   4.213   7.967 -0.3206 -0.2127 -0.2268
 6394SOL    HW130641   3.388   4.193   7.882 -2.8399  0.6850 -1.6114
 6394SOL    HW230642   3.432   4.222   8.012 -0.0189 -1.7425 -0.4565
 6395SOL     OW30643   1.344   2.529   4.898  0.2521 -0.4196  0.0139
 6395SOL    HW130644   1.252   2.543   4.917  0.6752  1.2914  0.7820
 6395SOL    HW230645   1.362   2.435   4.904  0.4532 -0.3653  0.2769
 6396SOL     OW30646   3.441   2.419   9.826  0.4162  0.0674  0.0430
 6396SOL    HW130647   3.436   2.480   9.752 -1.2613 -0.4770 -0.3003
 6396SOL    HW230648   3.349   2.395   9.837  1.0126 -0.7706  3.0963
 6397SOL     OW30649   4.037   4.633   2.293 -0.2896  0.9275  0.4154
 6397SOL    HW130650   4.001   4.606   2.208 -1.6064 -1.9734  1.8902
 6397SOL    HW230651   4.000   4.570   2.355  0.1217  0.5838  0.3119
 6398SOL     OW30652   2.882   4.640  11.584 -0.6541 -0.6171 -0.6048
 6398SOL    HW130653   2.794   4.644  11.622 -0.5695  1.4746 -0.6434
 6398SOL    HW230654   2.862   4.590  11.505 -1.9266 -1.1239  0.0337
 6399SOL     OW30655   2.326   0.245   7.047 -0.1386  0.3555  0.6771
 6399SOL    HW130656   2.340   0.229   6.954 -1.1038 -0.4333  0.6665
 6399SOL    HW230657   2.415   0.219   7.070  0.1240 -0.3524 -1.1077
 6400SOL     OW30658   4.559   4.524  12.006 -0.0096 -0.2897 -0.1304
 6400SOL    HW130659   4.553   4.432  11.981 -2.7732 -0.7280  2.1255
 6400SOL    HW230660   4.573   4.526  12.100  0.9320  2.7442 -0.3425
 6401SOL     OW30661   4.129   2.721  13.600  0.0941 -0.2335 -0.2667
 6401SOL    HW130662   4.139   2.808  13.637 -0.3212 -0.5603  0.6100
 6401SOL    HW230663   4.191   2.665  13.648 -0.9885  0.9632  2.4932
 6402SOL     OW30664   1.868   3.829   8.899 -0.0734  0.2022 -0.4600
 6402SOL    HW130665   1.931   3.761   8.924 -1.3833 -1.5399 -1.9617
 6402SOL    HW230666   1.922   3.881   8.839 -0.9002  1.5879 -0.0006
 6403SOL     OW30667   2.361   1.253   6.609  0.0807 -0.2214  0.1991
 6403SOL    HW130668   2.393   1.164   6.624  0.1141 -0.1553  0.5150
 6403SOL    HW230669   2.288   1.258   6.670  0.5468 -1.3884  0.8541
 6404SOL     OW30670   1.769   3.955   4.333 -1.0195  0.2926 -0.0240
 6404SOL    HW130671   1.687   3.913   4.359  0.3256 -1.9630  0.5760
 6404SOL    HW230672   1.793   4.023   4.396 -1.3478 -0.1669  0.5982
 6405SOL     OW30673   1.839   1.797   5.908  0.1986  0.0259 -0.2498
 6405SOL    HW130674   1.852   1.766   5.818 -0.4440  1.2534 -0.7738
 6405SOL    HW230675   1.926   1.773   5.939 -0.3217 -0.6906  0.6534
 6406SOL     OW30676   2.043   4.292   3.509  0.0515 -0.2848  0.5859
 6406SOL    HW130677   2.103   4.282   3.436 -0.0774 -0.1123  0.4579
 6406SOL    HW230678   2.088   4.319   3.589 -1.2101 -1.0775  1.5648
 6407SOL     OW30679   1.386   1.094   7.078 -0.0418  0.0954  0.1851
 6407SOL    HW130680   1.436   1.020   7.111 -0.4893 -0.7442 -1.0573
 6407SOL    HW230681   1.368   1.147   7.157 -3.4704  2.9721 -2.5100
 6408SOL     OW30682   4.566   0.363   1.264  0.1854 -0.2195  0.4058
 6408SOL    HW130683   4.548   0.274   1.294  0.4705 -1.1950 -2.3734
 6408SOL    HW230684   4.480   0.401   1.277 -0.0820 -0.7190  0.0890
 6409SOL     OW30685   3.688   0.186   6.137 -0.1565 -0.4992  0.0553
 6409SOL    HW130686   3.733   0.125   6.195 -0.1849 -0.8077 -0.2412
 6409SOL    HW230687   3.604   0.140   6.131 -1.2061  1.3070  0.9530
 6410SOL     OW30688   3.811   2.589   2.031  0.4471 -0.4715 -0.0963
 6410SOL    HW130689   3.797   2.523   2.099 -1.0230 -1.8621 -1.7752
 6410SOL    HW230690   3.724   2.629   2.028  1.4615  1.8128  0.7168
 6411SOL     OW30691   0.451   2.261   6.726  0.1621  0.4473  0.1618
 6411SOL    HW130692   0.494   2.228   6.805 -0.1156  2.2815  1.0737
 6411SOL    HW230693   0.485   2.351   6.728  1.2180  0.0786 -1.6884
 6412SOL     OW30694   0.419   1.879   1.692  0.1131 -0.2441 -0.4758
 6412SOL    HW130695   0.402   1.789   1.718 -3.6368  1.0045  1.3188
 6412SOL    HW230696   0.462   1.858   1.609  0.5002 -0.0069 -0.3364
 6413SOL     OW30697   1.606   3.579   7.691 -0.2701  0.0259  0.1727
 6413SOL    HW130698   1.677   3.632   7.656  0.7289 -1.6465 -0.3279
 6413SOL    HW230699   1.654   3.503   7.725 -2.3622 -1.0791  0.6747
 6414SOL     OW30700   1.186   0.539   8.565  0.0882  0.5225  0.1752
 6414SOL    HW130701   1.117   0.574   8.621  1.0791  2.3581  0.2297
 6414SOL    HW230702   1.142   0.464   8.524 -2.0936  1.6627  0.4462
 6415SOL     OW30703   0.769   4.218   0.122 -0.0537  0.2542  0.0260
 6415SOL    HW130704   0.688   4.248   0.164 -0.2634 -0.1214 -0.1168
 6415SOL    HW230705   0.825   4.296   0.121  1.5597 -0.8852  0.4122
 6416SOL     OW30706   4.563   2.504   6.180  0.3524 -0.0485  0.4044
 6416SOL    HW130707   4.532   2.426   6.228  3.7106 -2.5377 -1.4961
 6416SOL    HW230708   4.495   2.564   6.212  0.1790  0.1168 -0.2698
 6417SOL     OW30709   3.782   3.318   5.954 -0.5505  0.1500 -0.1878
 6417SOL    HW130710   3.876   3.336   5.943 -0.6403  1.0535  0.4594
 6417SOL    HW230711   3.756   3.363   6.034 -0.2764 -0.8715  0.4742
 6418SOL     OW30712   2.414   3.356   1.121  0.1003  0.0232  0.4199
 6418SOL    HW130713   2.431   3.396   1.206  1.7415 -1.2063  0.6547
 6418SOL    HW230714   2.340   3.298   1.137  1.4056 -1.5800  0.5637
 6419SOL     OW30715   2.949   3.666  13.109 -0.1820 -0.4849 -0.4049
 6419SOL    HW130716   3.000   3.747  13.106  0.3778 -0.8071  0.5458
 6419SOL    HW230717   3.011   3.604  13.071  0.5213 -0.0944  0.0832
 6420SOL     OW30718   1.348   0.723   4.549  0.3076 -0.1935 -0.0184
 6420SOL    HW130719   1.410   0.795   4.539 -0.2098  0.1142 -1.0332
 6420SOL    HW230720   1.329   0.745   4.640  0.6141 -1.4634  0.3427
 6421SOL     OW30721   1.477   4.521  11.428  0.0929  0.1847  0.1914
 6421SOL    HW130722   1.508   4.607  11.400 -0.6666 -0.0297 -1.2878
 6421SOL    HW230723   1.553   4.485  11.475  1.1014 -0.1820 -1.7301
 6422SOL     OW30724   1.213   4.695   1.044  0.5351 -0.0989  0.2433
 6422SOL    HW130725   1.158   0.048   1.023 -2.2081 -2.5480 -1.3781
 6422SOL    HW230726   1.295   0.021   1.035  0.4589 -0.0946 -0.4628
 6423SOL     OW30727   0.264   2.258   4.501  0.1750 -0.3362 -0.1345
 6423SOL    HW130728   0.344   2.216   4.533 -1.6894 -0.7912  3.8965
 6423SOL    HW230729   0.218   2.278   4.583  1.8426 -0.6596  0.8636
 6424SOL     OW30730   2.682   1.985   5.569  0.0329 -0.1475 -0.3085
 6424SOL    HW130731   2.590   1.994   5.545 -0.2626  0.5985  1.0844
 6424SOL    HW230732   2.695   1.902   5.523  3.7940  0.9962 -1.2805
 6425SOL     OW30733   0.549   1.928   1.965  0.0516  0.6434  0.6574
 6425SOL    HW130734   0.496   1.950   1.888  2.5641  2.8251 -0.4546
 6425SOL    HW230735   0.501   1.853   2.000  2.8525 -0.9041  1.2124
 6426SOL     OW30736   4.179   0.778  10.370  0.0284 -0.8695  0.0524
 6426SOL    HW130737   4.175   0.860  10.419  1.9185 -0.3806 -0.5889
 6426SOL    HW230738   4.273   0.764  10.355  0.4430 -0.1824  1.9760
 6427SOL     OW30739   3.182   3.203   9.052  0.5417  0.3370  0.2016
 6427SOL    HW130740   3.102   3.160   9.083  1.7464 -1.2973  1.0716
 6427SOL    HW230741   3.250   3.173   9.113 -0.9529  1.1786  2.2635
 6428SOL     OW30742   0.123   4.117  14.217 -0.1422 -0.0493 -0.1547
 6428SOL    HW130743   0.160   4.174  14.284 -0.8508 -0.2836  0.4342
 6428SOL    HW230744   0.175   4.152  14.145  0.8587  1.3754  1.2652
 6429SOL     OW30745   3.567   0.047   9.351 -0.6211  0.2633 -0.7991
 6429SOL    HW130746   3.489   4.713   9.350  0.4111 -1.1861 -0.3112
 6429SOL    HW230747   3.570   0.091   9.266 -1.1668  2.3991  0.3048
 6430SOL     OW30748   1.464   1.491  17.138  0.5278  0.1479 -0.2954
 6430SOL    HW130749   1.539   1.449  17.179 -0.5769 -0.5791  0.9871
 6430SOL    HW230750   1.393   1.427  17.128  1.6055 -1.1523  0.4852
 6431SOL     OW30751   2.031   3.464   4.167  0.0615  0.0450  0.3432
 6431SOL    HW130752   2.120   3.438   4.144  0.2823  0.3780  0.8516
 6431SOL    HW230753   2.037   3.558   4.153  0.6972 -0.2603 -1.5071
 6432SOL     OW30754   2.732   2.445   7.897 -0.1570 -0.5341 -0.8208
 6432SOL    HW130755   2.673   2.376   7.866  0.4388 -1.7619  0.8020
 6432SOL    HW230756   2.812   2.394   7.908  0.2246  0.4548  0.9220
 6433SOL     OW30757   3.136   0.717   2.948 -0.6716 -0.4465  0.3623
 6433SOL    HW130758   3.059   0.663   2.930 -1.1688  0.7416 -1.0728
 6433SOL    HW230759   3.116   0.792   2.891  1.6255  0.8798  1.2749
 6434SOL     OW30760   0.900   3.457   4.134 -0.4282 -0.1672 -0.1866
 6434SOL    HW130761   0.828   3.520   4.135  1.5516  2.1205 -0.6192
 6434SOL    HW230762   0.970   3.504   4.180 -1.1945  1.5499 -0.7717
 6435SOL     OW30763   4.372   3.152   7.102  0.4889  0.2911 -0.4665
 6435SOL    HW130764   4.402   3.064   7.078  0.5971 -0.2350  1.5829
 6435SOL    HW230765   4.309   3.167   7.031 -0.0029 -1.4946 -0.4239
 6436SOL     OW30766   2.480   1.362  13.465 -0.4124  0.3039  0.1169
 6436SOL    HW130767   2.444   1.333  13.549  1.4585 -0.2657  0.7099
 6436SOL    HW230768   2.545   1.423  13.499  1.0895 -0.6834 -1.0188
 6437SOL     OW30769   3.308   2.600   7.583  0.1094  0.0290 -0.1816
 6437SOL    HW130770   3.283   2.519   7.538  2.6175 -0.0916 -1.4292
 6437SOL    HW230771   3.399   2.611   7.553  0.3590  2.6558  1.5497
 6438SOL     OW30772   0.022   2.812   6.773 -0.1499  0.3569 -0.1756
 6438SOL    HW130773   0.092   2.772   6.723  1.6329  0.2484  2.4307
 6438SOL    HW230774   0.033   2.766   6.856  0.3792 -0.5169 -0.7387
 6439SOL     OW30775   1.841   3.466   5.628  0.4871  0.1185 -0.3272
 6439SOL    HW130776   1.904   3.394   5.635  2.1535  1.5219 -0.7035
 6439SOL    HW230777   1.901   3.534   5.658 -0.7492  0.3908  1.5086
 6440SOL     OW30778   3.868   2.348   5.042 -0.2083  0.1101 -0.2424
 6440SOL    HW130779   3.958   2.369   5.019 -0.0803  0.2740  0.4393
 6440SOL    HW230780   3.872   2.345   5.137  0.5276  0.4465 -0.2642
 6441SOL     OW30781   3.748   2.213  12.185  0.3691 -0.4164 -0.3259
 6441SOL    HW130782   3.757   2.205  12.280  0.0696 -1.3425 -0.3813
 6441SOL    HW230783   3.678   2.278  12.177  1.9280  1.4043  0.7081
 6442SOL     OW30784   1.240   3.152  15.756  0.0614  0.1014  0.1098
 6442SOL    HW130785   1.178   3.109  15.815 -0.0715 -0.6490 -0.5866
 6442SOL    HW230786   1.259   3.096  15.681  0.7052 -0.0200  0.3620
 6443SOL     OW30787   1.671   2.609   2.700  0.1982 -0.3328 -0.0112
 6443SOL    HW130788   1.657   2.684   2.642 -0.9292 -0.5470 -0.0206
 6443SOL    HW230789   1.709   2.540   2.645 -1.6960 -0.4109 -1.2342
 6444SOL     OW30790   1.318   0.179  16.554  0.5076  0.0489 -0.5584
 6444SOL    HW130791   1.329   0.252  16.615 -1.0748  2.2789 -2.9127
 6444SOL    HW230792   1.302   0.111  16.619  2.6618 -0.2954 -0.3870
 6445SOL     OW30793   4.563   4.653  14.352  0.2584  0.3566 -0.2205
 6445SOL    HW130794   4.584   0.004  14.410  2.1352 -0.2569 -0.1412
 6445SOL    HW230795   4.529   4.591  14.417 -0.4483  0.9146 -0.0572
 6446SOL     OW30796   4.050   1.023   9.508  0.2367  0.2358 -0.5471
 6446SOL    HW130797   4.022   1.097   9.561  3.2880  1.1833 -0.2430
 6446SOL    HW230798   4.028   1.045   9.418  1.9154 -0.6720 -1.1954
 6447SOL     OW30799   2.861   0.012  12.017  0.3195 -0.1206 -0.5301
 6447SOL    HW130800   2.776   0.056  12.016  0.8327  0.9202  0.6780
 6447SOL    HW230801   2.912   0.080  11.973  1.5120  0.1905  1.3458
 6448SOL     OW30802   3.063   2.604   4.699 -0.7321  0.3820 -0.0797
 6448SOL    HW130803   3.011   2.551   4.639 -2.3378  0.8437  0.9206
 6448SOL    HW230804   3.078   2.560   4.783  0.7399  0.8187 -0.1076
 6449SOL     OW30805   0.864   0.968   6.886 -0.4703  0.1541  0.3946
 6449SOL    HW130806   0.923   1.005   6.952  2.8995 -0.9144 -2.0067
 6449SOL    HW230807   0.830   0.893   6.935 -1.9818  0.8006  0.3144
 6450SOL     OW30808   1.437   2.643   8.882  0.0272 -0.3162  0.8991
 6450SOL    HW130809   1.509   2.581   8.867  0.6422  0.4328  0.7745
 6450SOL    HW230810   1.371   2.607   8.824  1.4495 -0.8081 -0.4140
 6451SOL     OW30811   0.232   2.198  10.156 -0.0446  0.0613  0.1626
 6451SOL    HW130812   0.181   2.264  10.110  2.8349  0.8992 -1.8423
 6451SOL    HW230813   0.316   2.240  10.136  0.0846 -0.9660 -1.4426
 6452SOL     OW30814   2.523   1.154   6.816  0.3502  0.3301 -0.1866
 6452SOL    HW130815   2.471   1.180   6.892 -0.1279 -2.2958  0.3784
 6452SOL    HW230816   2.469   1.085   6.779 -1.0347  0.3666  1.7583
 6453SOL     OW30817   1.456   3.100   5.818  0.2590 -0.0304  0.2426
 6453SOL    HW130818   1.547   3.130   5.823  0.7807 -1.3445 -1.5258
 6453SOL    HW230819   1.395   3.174   5.808  1.6072  0.9884 -0.4444
 6454SOL     OW30820   0.211   4.659   4.889 -0.2956  0.5594 -0.1136
 6454SOL    HW130821   0.237   4.657   4.981 -2.4851  2.7695  0.5771
 6454SOL    HW230822   0.120   4.682   4.909 -0.3160 -0.2737  0.7469
 6455SOL     OW30823   0.850   3.789   4.962  0.0651  0.2289  0.2428
 6455SOL    HW130824   0.908   3.822   4.893  0.2834 -1.4093 -0.3673
 6455SOL    HW230825   0.899   3.819   5.038  0.1449  0.7046  0.0032
 6456SOL     OW30826   0.621   0.760   3.419  0.0963 -0.0190 -0.1966
 6456SOL    HW130827   0.570   0.804   3.351  1.8315  1.4858 -0.5043
 6456SOL    HW230828   0.628   0.668   3.392  1.5755 -0.5963  2.1954
 6457SOL     OW30829   1.112   0.649   0.518 -0.2552 -0.6681  0.5647
 6457SOL    HW130830   1.167   0.596   0.576 -2.1614 -0.5480  2.4454
 6457SOL    HW230831   1.084   0.721   0.574  2.1990 -0.8714  2.0409
 6458SOL     OW30832   3.098   0.178   8.815  0.1329 -0.3511 -0.2523
 6458SOL    HW130833   3.120   0.271   8.815  3.1730 -1.0768  0.3711
 6458SOL    HW230834   3.104   0.156   8.722 -1.5532 -0.3052 -0.3636
 6459SOL     OW30835   2.760   4.314   0.810  0.2585 -0.0533  0.2792
 6459SOL    HW130836   2.784   4.376   0.878  0.9642 -1.7992  1.6209
 6459SOL    HW230837   2.708   4.248   0.854  1.2670  0.9321  2.9289
 6460SOL     OW30838   1.710   2.244   9.099 -0.4589 -0.4919 -0.0271
 6460SOL    HW130839   1.713   2.256   9.194  0.2604 -0.9919  0.0093
 6460SOL    HW230840   1.619   2.273   9.091 -0.6734 -1.0556  0.3802
 6461SOL     OW30841   3.268   4.504   4.270 -0.3940  0.0184 -0.7141
 6461SOL    HW130842   3.275   4.473   4.179 -0.8734 -0.4673 -0.5838
 6461SOL    HW230843   3.358   4.484   4.297 -0.1312  2.7681  0.4227
 6462SOL     OW30844   4.539   4.007   5.172  0.0208  0.6377  0.4141
 6462SOL    HW130845   4.468   3.948   5.197 -0.5860  1.3643  0.4347
 6462SOL    HW230846   4.502   4.092   5.197 -3.1768 -0.4908 -0.4168
 6463SOL     OW30847   4.379   2.501   2.768 -0.1952  0.1206 -0.0267
 6463SOL    HW130848   4.419   2.417   2.744  0.1956  0.3668 -0.2255
 6463SOL    HW230849   4.460   2.551   2.776 -0.7701  0.6929  2.2280
 6464SOL     OW30850   4.025   4.592   0.800 -0.1479  0.2639  0.1137
 6464SOL    HW130851   4.073   4.599   0.717 -0.5426 -0.4399 -0.1717
 6464SOL    HW230852   4.088   4.582   0.872 -2.2942 -1.1795  1.7632
 6465SOL     OW30853   0.461   2.764   3.900 -0.8935  0.2996 -0.0655
 6465SOL    HW130854   0.415   2.681   3.888 -0.7636  0.0156  1.3072
 6465SOL    HW230855   0.437   2.781   3.991  0.1147  1.6673 -0.0426
 6466SOL     OW30856   1.107   2.893  12.123  0.1544 -0.2560 -0.2292
 6466SOL    HW130857   1.184   2.935  12.163  1.0629 -1.7157 -0.4439
 6466SOL    HW230858   1.104   2.817  12.182  2.5272  0.2605  0.5735
 6467SOL     OW30859   1.472   1.471   4.657  0.5471 -0.3725 -0.4153
 6467SOL    HW130860   1.527   1.506   4.726 -0.7620  1.1054 -0.1066
 6467SOL    HW230861   1.384   1.485   4.692  0.6567 -0.8169  0.0258
 6468SOL     OW30862   1.954   0.413   0.823 -0.2033  0.1010  0.4624
 6468SOL    HW130863   2.000   0.462   0.892  0.9155 -0.2211 -0.0481
 6468SOL    HW230864   1.861   0.413   0.843 -0.3589  0.5095 -0.2642
 6469SOL     OW30865   0.298   2.196  10.753  0.2876  0.6000 -0.1384
 6469SOL    HW130866   0.268   2.246  10.676 -2.4805 -0.2816  0.3685
 6469SOL    HW230867   0.382   2.159  10.728 -0.1232 -0.2626 -0.2581
 6470SOL     OW30868   3.565   1.779   0.251 -0.1352 -0.8210  0.8649
 6470SOL    HW130869   3.607   1.695   0.273 -0.0667 -1.0173 -0.0113
 6470SOL    HW230870   3.640   1.837   0.258 -1.3788  1.0504 -1.6290
 6471SOL     OW30871   4.362   0.576   8.784  0.4777  0.0297  0.3438
 6471SOL    HW130872   4.446   0.620   8.790 -0.1641  1.2149  0.6909
 6471SOL    HW230873   4.337   0.558   8.875 -2.3784  0.8246 -0.2626
 6472SOL     OW30874   1.654   0.221  16.086 -0.1368  0.0993  0.2696
 6472SOL    HW130875   1.618   0.268  16.011  2.9274  0.4100 -1.0209
 6472SOL    HW230876   1.586   0.221  16.153 -2.3074  0.3136 -1.9480
 6473SOL     OW30877   3.324   4.713  10.847 -0.1027  0.5668  0.1168
 6473SOL    HW130878   3.310   4.620  10.833  2.4557  0.1880  0.0305
 6473SOL    HW230879   3.376   4.719  10.928 -0.5522  1.6143  0.3230
 6474SOL     OW30880   4.545   2.958  10.617  0.2438  0.1043  0.5698
 6474SOL    HW130881   4.469   3.013  10.600  0.6046  0.5060  0.2628
 6474SOL    HW230882   4.617   3.006  10.576 -0.6752  0.2697 -0.8631
 6475SOL     OW30883   2.907   3.683  12.300 -0.6385 -0.1808 -0.0129
 6475SOL    HW130884   2.889   3.747  12.368 -0.0282 -0.1385  0.1093
 6475SOL    HW230885   2.817   3.660  12.275 -1.5065  2.6788  0.4444
 6476SOL     OW30886   4.318   3.671  13.486 -0.1742  0.2309  0.3747
 6476SOL    HW130887   4.319   3.652  13.392 -1.0090 -0.0468  0.4260
 6476SOL    HW230888   4.234   3.636  13.513 -0.0953 -2.0026 -2.2922
 6477SOL     OW30889   0.652   1.510  15.575  0.1698 -0.3695 -0.0340
 6477SOL    HW130890   0.726   1.459  15.606 -0.6545 -1.4155  0.1944
 6477SOL    HW230891   0.584   1.450  15.544  0.6073 -0.0244 -1.6580
 6478SOL     OW30892   4.633   1.048   5.517 -0.3915 -0.6390 -0.3238
 6478SOL    HW130893   4.553   0.997   5.525 -1.2968  0.7309 -0.7176
 6478SOL    HW230894   4.661   1.027   5.428  0.4113 -0.1420 -0.1922
 6479SOL     OW30895   1.392   2.978   7.554 -0.2710 -0.2358  0.2125
 6479SOL    HW130896   1.457   2.946   7.617 -0.8559 -1.1222  0.3750
 6479SOL    HW230897   1.379   3.063   7.595  0.6681  0.2194 -0.4431
 6480SOL     OW30898   4.544   2.247   0.448  0.2903 -0.2876  0.0061
 6480SOL    HW130899   4.559   2.154   0.429  1.0585 -0.3098  0.7193
 6480SOL    HW230900   4.622   2.298   0.425  1.7635 -1.6586  1.9685
 6481SOL     OW30901   1.794   0.110  13.552 -0.0459 -0.4714 -0.0444
 6481SOL    HW130902   1.886   0.133  13.563 -0.1724 -0.4500  0.9813
 6481SOL    HW230903   1.802   0.059  13.471  1.0165  1.4769 -1.1669
 6482SOL     OW30904   0.430   1.421   9.973 -0.7998 -0.3643  0.6804
 6482SOL    HW130905   0.393   1.392   9.889 -0.2842  0.6580  0.1012
 6482SOL    HW230906   0.411   1.342  10.024  3.8215 -1.8771  0.0438
 6483SOL     OW30907   1.015   3.703   8.642 -0.0585  0.0486  0.2104
 6483SOL    HW130908   1.051   3.789   8.620 -0.1126 -0.2432 -0.9744
 6483SOL    HW230909   0.944   3.739   8.695 -1.3414  1.2915 -2.3776
 6484SOL     OW30910   1.351   1.248   6.601  0.1885 -0.0772 -0.4395
 6484SOL    HW130911   1.336   1.177   6.539  0.0800  1.1150 -1.8115
 6484SOL    HW230912   1.409   1.300   6.545  1.0362 -1.7878 -1.1457
 6485SOL     OW30913   0.328   1.558   7.142 -0.1476 -0.3364 -0.4663
 6485SOL    HW130914   0.352   1.468   7.165  0.6129  0.1665  0.6527
 6485SOL    HW230915   0.261   1.534   7.078 -0.4090  0.5535 -0.5267
 6486SOL     OW30916   1.132   4.425   5.879 -0.1156  0.7441 -0.5707
 6486SOL    HW130917   1.116   4.346   5.827 -0.0154 -0.3152  1.0001
 6486SOL    HW230918   1.050   4.473   5.890  0.4427  1.3783  0.8200
 6487SOL     OW30919   0.281   4.544   1.554 -0.5397  0.0549 -0.1218
 6487SOL    HW130920   0.190   4.515   1.545 -0.8909  1.0202  0.3440
 6487SOL    HW230921   0.287   4.614   1.489  1.0470 -1.5941 -1.7740
 6488SOL     OW30922   2.838   2.013   3.857 -0.1574  0.9116 -0.5710
 6488SOL    HW130923   2.789   2.033   3.937  1.0065 -1.4782  0.7468
 6488SOL    HW230924   2.808   1.923   3.857 -0.1270  0.8970  0.3669
 6489SOL     OW30925   0.534   0.904   6.768  0.0886 -0.5890  0.0642
 6489SOL    HW130926   0.611   0.960   6.779 -0.6135 -0.4785  4.2365
 6489SOL    HW230927   0.566   0.817   6.790 -1.8994 -1.1999  0.4802
 6490SOL     OW30928   0.338   3.219   1.861  0.1609  0.4614  1.1199
 6490SOL    HW130929   0.361   3.257   1.946  0.7375 -2.0758  2.1037
 6490SOL    HW230930   0.269   3.280   1.835  1.3009  0.6341 -1.5629
 6491SOL     OW30931   4.284   0.146   2.476 -0.2171 -0.5681  0.6889
 6491SOL    HW130932   4.280   0.132   2.571 -0.0725 -0.6079  0.6899
 6491SOL    HW230933   4.299   0.060   2.439  1.4662 -0.7013  1.6586
 6492SOL     OW30934   3.411   2.857   6.994 -0.2077 -0.8734 -0.1052
 6492SOL    HW130935   3.450   2.932   6.949  4.2629 -2.8399  0.4663
 6492SOL    HW230936   3.325   2.897   7.009  0.1026 -1.0500  2.0716
 6493SOL     OW30937   0.165   3.231  10.717  0.4277 -0.3224  0.3456
 6493SOL    HW130938   0.111   3.202  10.791 -0.1438  0.6307  0.2934
 6493SOL    HW230939   0.204   3.311  10.754 -0.8233  0.6081 -0.3734
 6494SOL     OW30940   1.023   1.845  16.547 -0.1790  0.5558  0.4839
 6494SOL    HW130941   0.933   1.829  16.521  0.1686 -1.1436  0.2827
 6494SOL    HW230942   1.039   1.785  16.620 -0.0235 -2.8016 -2.2947
 6495SOL     OW30943   2.388   1.798  12.825 -0.5490 -0.6189  0.2855
 6495SOL    HW130944   2.435   1.717  12.806  2.6684  1.6667 -1.3904
 6495SOL    HW230945   2.364   1.770  12.914 -3.3358  0.6552 -0.0791
 6496SOL     OW30946   4.560   0.081  15.679  0.3951  1.3426 -0.0650
 6496SOL    HW130947   4.621   0.011  15.654 -1.8529 -1.2300  1.6405
 6496SOL    HW230948   4.579   0.139  15.605 -2.1122  0.7988 -1.1174
 6497SOL     OW30949   2.674   1.973   7.867 -0.1251 -0.7032 -0.1458
 6497SOL    HW130950   2.672   1.980   7.963  0.0050  0.3704 -0.2160
 6497SOL    HW230951   2.624   1.893   7.854 -1.9047  0.7493 -2.2876
 6498SOL     OW30952   4.318   1.346   6.197  0.1019 -0.3872 -0.1848
 6498SOL    HW130953   4.374   1.275   6.230 -0.1560  0.0883  1.2480
 6498SOL    HW230954   4.328   1.337   6.102  0.7929  0.3971 -0.1950
 6499SOL     OW30955   2.109   1.534   7.848  0.0425  0.0688 -0.3656
 6499SOL    HW130956   2.131   1.591   7.922  1.5871  0.6723 -1.2723
 6499SOL    HW230957   2.137   1.594   7.779 -0.8158  0.6260 -0.2254
 6500SOL     OW30958   4.365   2.659   5.129 -0.0360  0.0926 -0.1732
 6500SOL    HW130959   4.272   2.669   5.149 -0.6671 -2.5711 -1.8662
 6500SOL    HW230960   4.403   2.590   5.183 -3.1232 -1.7000 -0.3125
 6501SOL     OW30961   2.082   3.894   8.717  0.1322 -0.4630  0.1593
 6501SOL    HW130962   2.093   3.989   8.725  0.1976 -0.6068  1.6627
 6501SOL    HW230963   2.171   3.859   8.717  0.4815  0.4129 -0.3257
 6502SOL     OW30964   1.085   2.290   5.249  0.1026 -0.1742  0.1864
 6502SOL    HW130965   1.021   2.311   5.181 -0.5738 -0.0109  0.8656
 6502SOL    HW230966   1.028   2.291   5.327  1.7359  2.3844  1.3199
 6503SOL     OW30967   2.996   3.219   0.542  0.1264 -0.2963  0.0251
 6503SOL    HW130968   2.926   3.277   0.571  1.2059  0.6976  0.6127
 6503SOL    HW230969   3.015   3.182   0.628  1.5859 -0.3518 -0.3288
 6504SOL     OW30970   1.946   3.373   7.442  0.0683  0.1019  0.4151
 6504SOL    HW130971   1.887   3.298   7.458  0.9472 -0.8530 -0.8329
 6504SOL    HW230972   1.900   3.454   7.464  1.9835  1.6039 -1.1671
 6505SOL     OW30973   4.634   4.439   3.401 -0.2762  0.7604  0.6329
 6505SOL    HW130974   4.566   4.371   3.401 -0.5396  1.0248 -1.9560
 6505SOL    HW230975   4.695   4.400   3.464  1.1935  3.5719  0.9433
 6506SOL     OW30976   1.822   1.749  10.169  0.0326  0.1328 -0.2043
 6506SOL    HW130977   1.730   1.732  10.190  0.5007 -0.3548  1.4858
 6506SOL    HW230978   1.859   1.676  10.220  0.1139  0.1436 -0.2473
 6507SOL     OW30979   3.927   1.702  15.167  0.0712 -0.5696  0.2302
 6507SOL    HW130980   3.933   1.660  15.253  2.2947 -0.5230  0.0997
 6507SOL    HW230981   3.914   1.636  15.099 -0.8365  0.8218 -0.9510
 6508SOL     OW30982   4.137   0.347   2.301  0.3713 -1.2244  0.2046
 6508SOL    HW130983   4.202   0.406   2.264  1.2158 -2.1088  0.2707
 6508SOL    HW230984   4.180   0.310   2.377  0.5922  0.3476  0.8252
 6509SOL     OW30985   3.571   4.237  15.599 -0.5134 -0.2303  0.2565
 6509SOL    HW130986   3.556   4.184  15.521 -1.0185 -1.0151  0.8910
 6509SOL    HW230987   3.562   4.172  15.669  0.4252 -0.6485 -0.0103
 6510SOL     OW30988   3.908   0.913   1.918 -0.0057 -0.5359  0.3731
 6510SOL    HW130989   3.832   0.899   1.975 -0.6193 -2.2528 -0.8818
 6510SOL    HW230990   3.986   0.914   1.974  0.4297 -5.1827 -0.2160
 6511SOL     OW30991   1.736   3.167   3.554 -0.0515  0.0002  0.2481
 6511SOL    HW130992   1.795   3.242   3.560  0.3212 -0.1892 -1.2483
 6511SOL    HW230993   1.792   3.090   3.551 -0.5365 -0.2486 -1.8807
 6512SOL     OW30994   1.283   4.125   3.136 -0.0923 -0.1552  0.2592
 6512SOL    HW130995   1.305   4.031   3.138  0.7884  0.0357 -0.1458
 6512SOL    HW230996   1.332   4.141   3.217 -3.0114 -0.7418  2.1100
 6513SOL     OW30997   1.799   1.257   8.248 -0.0940 -0.7744 -0.5875
 6513SOL    HW130998   1.738   1.304   8.190  2.0832  0.7282 -1.6528
 6513SOL    HW230999   1.882   1.297   8.222  0.6675 -0.0415  3.0238
 6514SOL     OW31000   2.953   0.575   4.481 -0.3899  0.3112  0.8288
 6514SOL    HW131001   2.993   0.560   4.566  1.7131 -2.5928 -0.6480
 6514SOL    HW231002   2.959   0.485   4.448 -2.2942  0.6265 -0.3719
 6515SOL     OW31003   4.038   0.881   2.768  0.3786  0.1518  0.0935
 6515SOL    HW131004   4.055   0.956   2.824  1.1603 -0.3043  0.4658
 6515SOL    HW231005   4.127   0.852   2.747  0.5186 -0.5603  1.6664
 6516SOL     OW31006   1.428   0.936   0.844  0.0450  0.0267 -0.5046
 6516SOL    HW131007   1.363   0.902   0.905 -0.0709  0.1103 -0.5810
 6516SOL    HW231008   1.427   0.861   0.785 -0.1629 -1.1229  0.9760
 6517SOL     OW31009   2.898   2.170  13.646  0.9667  0.3827 -0.2773
 6517SOL    HW131010   2.954   2.225  13.700  1.3355  3.2786 -3.5998
 6517SOL    HW231011   2.887   2.099  13.709 -1.0439  1.3358  0.4412
 6518SOL     OW31012   1.810   2.145  12.497 -0.5711 -0.1058  0.1694
 6518SOL    HW131013   1.860   2.226  12.506 -0.4497  0.0049 -1.4751
 6518SOL    HW231014   1.788   2.133  12.589  0.8686  0.4726  0.5934
 6519SOL     OW31015   3.550   4.435   9.196 -0.3423 -0.3207 -0.0509
 6519SOL    HW131016   3.470   4.474   9.230 -0.2359  0.0450 -0.2237
 6519SOL    HW231017   3.588   4.497   9.134  0.1781  0.2542  0.8468
 6520SOL     OW31018   2.612   1.794   5.181  0.3987  0.1798  0.4704
 6520SOL    HW131019   2.685   1.842   5.219 -0.1533 -1.1222  3.1601
 6520SOL    HW231020   2.571   1.763   5.262 -1.8943  0.2894 -0.6478
 6521SOL     OW31021   2.997   1.171   5.108 -0.4204  0.3784 -0.1579
 6521SOL    HW131022   2.923   1.120   5.143  0.1338 -1.6651 -2.0218
 6521SOL    HW231023   3.058   1.112   5.063 -1.9573  0.6608 -2.6192
 6522SOL     OW31024   3.498   2.440   4.717 -0.7553  0.1919 -0.5358
 6522SOL    HW131025   3.481   2.386   4.640 -1.0003  1.8179 -1.6281
 6522SOL    HW231026   3.478   2.389   4.796 -4.2213  1.1762 -0.7676
 6523SOL     OW31027   3.314   0.673   8.549 -0.0708 -0.9556  0.1482
 6523SOL    HW131028   3.358   0.735   8.608  0.3907  1.1181 -2.3828
 6523SOL    HW231029   3.264   0.728   8.490  0.4353  2.6352  3.0588
 6524SOL     OW31030   1.233   3.423   1.808  0.1235 -0.5561  0.0106
 6524SOL    HW131031   1.146   3.450   1.838  1.0555 -0.8568  3.0233
 6524SOL    HW231032   1.211   3.381   1.725  3.3014 -0.0374 -1.1070
 6525SOL     OW31033   0.155   1.647   4.075  0.0949 -0.1437  0.0634
 6525SOL    HW131034   0.170   1.557   4.106 -0.4234  0.0605  0.9153
 6525SOL    HW231035   0.183   1.644   3.984 -2.0059  0.9851 -0.6111
 6526SOL     OW31036   2.921   4.051   3.563  0.3901 -0.2659  0.0637
 6526SOL    HW131037   2.924   3.977   3.501 -0.9341  0.7556 -1.2311
 6526SOL    HW231038   2.977   4.118   3.523 -0.8035 -0.1593 -1.4375
 6527SOL     OW31039   3.010   2.606  15.205  0.5949  0.2810  0.7024
 6527SOL    HW131040   2.966   2.570  15.128  0.3925  2.2066 -0.0610
 6527SOL    HW231041   2.962   2.686  15.221 -0.8945 -0.6678  0.9597
 6528SOL     OW31042   0.154   2.001   5.346  0.2376  0.2714  0.2656
 6528SOL    HW131043   0.233   2.006   5.291  1.4245  1.5959  2.0874
 6528SOL    HW231044   0.147   1.908   5.366  0.7728  0.1975  0.1182
 6529SOL     OW31045   1.584   0.573  16.578  0.3052  0.7862 -0.4521
 6529SOL    HW131046   1.602   0.601  16.667 -1.4318 -0.0470  0.1550
 6529SOL    HW231047   1.617   0.483  16.579 -0.5357  0.4664 -1.8496
 6530SOL     OW31048   2.209   1.766   3.528 -0.1023 -0.0045  0.8576
 6530SOL    HW131049   2.238   1.757   3.619  0.3055  0.6301  0.7819
 6530SOL    HW231050   2.292   1.759   3.482 -1.0584 -2.0232 -0.5792
 6531SOL     OW31051   1.713   2.334   1.967  0.0206  0.2520 -0.0688
 6531SOL    HW131052   1.712   2.428   1.951 -0.9875  0.3942  0.8006
 6531SOL    HW231053   1.618   2.324   1.955 -0.0696 -0.8750  1.5018
 6532SOL     OW31054   4.093   0.537  12.185 -0.9712  0.9514 -0.0459
 6532SOL    HW131055   4.077   0.551  12.278 -0.5635  1.8326 -0.1031
 6532SOL    HW231056   4.180   0.499  12.172 -0.4293  1.5336  1.8389
 6533SOL     OW31057   0.217   4.301   1.803 -0.0019 -0.3988  0.2921
 6533SOL    HW131058   0.301   4.344   1.818 -0.8585  1.0815  0.9314
 6533SOL    HW231059   0.159   4.376   1.815  0.6899 -0.0009  1.1423
 6534SOL     OW31060   2.820   2.870  12.876 -0.3720  0.1450  0.7796
 6534SOL    HW131061   2.785   2.837  12.958  1.4264  1.1947  1.9735
 6534SOL    HW231062   2.837   2.960  12.904 -1.1234  0.4280  0.3416
 6535SOL     OW31063   3.240   3.664   3.862  0.2842 -0.3656  0.0303
 6535SOL    HW131064   3.157   3.679   3.818  0.8633 -0.2945 -1.0465
 6535SOL    HW231065   3.298   3.651   3.786 -0.9232 -0.8047 -0.8115
 6536SOL     OW31066   1.645   0.989  10.393  0.1995  0.4225  0.2326
 6536SOL    HW131067   1.552   1.013  10.402  0.3765  1.8367 -1.7915
 6536SOL    HW231068   1.633   0.894  10.393 -0.4984  0.5028  1.7878
 6537SOL     OW31069   2.259   0.587   3.061 -0.2942  0.1641  0.2458
 6537SOL    HW131070   2.306   0.669   3.077  0.5984 -0.4582  0.7917
 6537SOL    HW231071   2.318   0.539   3.003 -0.4415  0.4648 -0.1508
 6538SOL     OW31072   3.263   0.775  12.633 -0.1035  0.4840 -0.3329
 6538SOL    HW131073   3.172   0.775  12.664  0.2776 -0.0042  0.7894
 6538SOL    HW231074   3.282   0.868  12.645  1.0132  0.2028  0.0528
 6539SOL     OW31075   2.204   2.821   2.565  0.2344  0.2138 -0.9001
 6539SOL    HW131076   2.131   2.858   2.516 -0.8988 -1.5758 -0.5535
 6539SOL    HW231077   2.270   2.889   2.550 -0.3288  0.5689 -1.7644
 6540SOL     OW31078   0.559   3.604   2.443 -0.4025 -0.8926  0.6315
 6540SOL    HW131079   0.490   3.628   2.381 -1.6128 -0.4243  2.1528
 6540SOL    HW231080   0.543   3.509   2.446 -0.8997 -0.7966  1.0342
 6541SOL     OW31081   0.498   4.415   7.765  0.7556  0.6522 -0.5696
 6541SOL    HW131082   0.463   4.412   7.676 -0.2744  1.1951 -0.1875
 6541SOL    HW231083   0.439   4.484   7.796 -1.6628 -0.5658 -2.5044
 6542SOL     OW31084   0.630   0.773   3.124  0.4139  0.4469  0.2340
 6542SOL    HW131085   0.554   0.825   3.150 -0.3749 -0.2716 -0.6395
 6542SOL    HW231086   0.673   0.823   3.055  0.5001  1.2346  0.8551
 6543SOL     OW31087   0.240   1.243   0.179 -0.3847 -0.0561  0.0124
 6543SOL    HW131088   0.149   1.239   0.150 -0.4823 -1.0174  0.4516
 6543SOL    HW231089   0.233   1.288   0.263  1.3743 -1.4572  0.9235
 6544SOL     OW31090   3.357   3.807   7.178  0.7869  0.1344  0.1582
 6544SOL    HW131091   3.446   3.825   7.148  0.7065 -0.7504 -0.6403
 6544SOL    HW231092   3.378   3.773   7.265  2.7387 -1.8163 -1.0380
 6545SOL     OW31093   3.621   0.805   3.407 -0.2698 -0.3782  0.1816
 6545SOL    HW131094   3.574   0.873   3.455  1.2879  0.3518  0.6725
 6545SOL    HW231095   3.671   0.761   3.476  2.2945  0.0601 -1.3873
 6546SOL     OW31096   2.113   0.917   3.296  0.4151 -0.2346 -0.6202
 6546SOL    HW131097   2.205   0.918   3.271  0.0630 -1.1884 -1.9966
 6546SOL    HW231098   2.097   0.831   3.257  2.1795 -1.2829  0.9934
 6547SOL     OW31099   4.698   0.402   2.540  0.2925  0.0760  0.1320
 6547SOL    HW131100   4.631   0.337   2.520 -0.2687  0.8923 -0.6279
 6547SOL    HW231101   4.658   0.450   2.613  0.4863  1.8916 -0.9445
 6548SOL     OW31102   2.727   0.175   2.127 -0.7493 -0.2603 -0.8068
 6548SOL    HW131103   2.751   0.267   2.121  1.9193 -0.8211  0.9034
 6548SOL    HW231104   2.684   0.164   2.043 -0.2277  0.7575 -1.2038
 6549SOL     OW31105   0.163   2.332   6.877 -0.3641  0.4466 -0.3484
 6549SOL    HW131106   0.162   2.319   6.972  0.5905 -1.4075 -0.5824
 6549SOL    HW231107   0.251   2.298   6.857 -0.5316 -0.4369  0.4537
 6550SOL     OW31108   4.523   3.272   6.774  0.1345 -0.0882 -0.2938
 6550SOL    HW131109   4.574   3.203   6.817 -0.9881  0.5593  2.0976
 6550SOL    HW231110   4.533   3.242   6.684 -0.0565 -0.5782 -0.1547
 6551SOL     OW31111   1.225   3.347   8.317  0.0386  0.2132  0.4211
 6551SOL    HW131112   1.187   3.321   8.234 -1.9721 -1.5264  1.8973
 6551SOL    HW231113   1.308   3.381   8.283 -0.9619  2.3038  0.1158
 6552SOL     OW31114   2.302   0.093   0.401 -0.1137  0.2659  0.0990
 6552SOL    HW131115   2.335   0.006   0.377  1.0218  1.0179 -1.0096
 6552SOL    HW231116   2.318   0.145   0.323 -1.9912 -0.8947 -1.0743
 6553SOL     OW31117   2.010   2.453   9.747 -0.1420  0.2563  0.0192
 6553SOL    HW131118   1.977   2.523   9.690 -0.3626  0.3121  0.2126
 6553SOL    HW231119   2.012   2.507   9.826 -0.1693  0.6693 -0.2591
 6554SOL     OW31120   4.277   2.014  15.168 -0.4705 -0.1390 -0.4103
 6554SOL    HW131121   4.300   2.054  15.252 -1.6649  0.3070 -0.2860
 6554SOL    HW231122   4.182   2.001  15.167 -0.1443 -2.5653  0.6285
 6555SOL     OW31123   3.774   1.768   7.345  0.2829 -0.5469 -0.5611
 6555SOL    HW131124   3.726   1.842   7.381 -1.5936 -1.5029 -1.1090
 6555SOL    HW231125   3.793   1.726   7.429  2.5311 -0.4499 -1.0211
 6556SOL     OW31126   3.314   1.776   4.189  0.0037  0.5499  0.8543
 6556SOL    HW131127   3.398   1.730   4.183 -0.0095  0.5465  0.6938
 6556SOL    HW231128   3.247   1.707   4.199  1.0944 -0.6422 -0.0465
 6557SOL     OW31129   0.116   1.754  16.808  0.2298  0.1496 -0.2147
 6557SOL    HW131130   0.058   1.825  16.779 -0.6206 -0.1013  0.8881
 6557SOL    HW231131   0.170   1.726  16.734 -0.1118 -0.5922 -0.1766
 6558SOL     OW31132   4.690   1.654   8.581  0.4638  0.5912  0.0545
 6558SOL    HW131133   4.680   1.667   8.675 -0.0497 -0.6565  0.1781
 6558SOL    HW231134   4.597   1.641   8.560  0.8319  0.1965 -1.3499
 6559SOL     OW31135   4.164   1.167   8.473 -0.1160  0.0159  0.3117
 6559SOL    HW131136   4.125   1.189   8.557  0.3525  1.4417  0.1677
 6559SOL    HW231137   4.251   1.202   8.493 -0.1140  0.5971 -0.6868
 6560SOL     OW31138   0.483   1.551   5.214  0.1775  0.0530 -0.1028
 6560SOL    HW131139   0.460   1.458   5.215  0.4134 -0.0068 -0.2786
 6560SOL    HW231140   0.473   1.585   5.125  1.4214  0.8269  0.0550
 6561SOL     OW31141   0.233   4.308  13.156 -0.0080 -0.1032 -0.0482
 6561SOL    HW131142   0.224   4.322  13.062 -0.7860 -0.3107 -0.0092
 6561SOL    HW231143   0.180   4.228  13.164  2.2909 -1.7663 -1.7094
 6562SOL     OW31144   1.883   2.192   1.624  0.1316 -0.3734  0.2972
 6562SOL    HW131145   1.966   2.173   1.580  0.2530  0.5015  0.1430
 6562SOL    HW231146   1.860   2.275   1.582 -1.0888 -1.2532 -0.7747
 6563SOL     OW31147   3.072   0.095  11.613  0.0614  0.1101 -0.7753
 6563SOL    HW131148   3.028   0.154  11.552  2.8560  0.8877 -2.0084
 6563SOL    HW231149   3.008   0.025  11.601 -0.5490  0.5637 -0.1836
 6564SOL     OW31150   2.206   0.892   6.326  0.8402  0.6581 -0.0157
 6564SOL    HW131151   2.228   0.806   6.291  0.9991  0.2917  0.9799
 6564SOL    HW231152   2.125   0.877   6.374  0.7423  1.1057 -0.0335
 6565SOL     OW31153   2.413   3.152   6.400  0.6070  0.5033  0.1413
 6565SOL    HW131154   2.388   3.109   6.482 -1.3020 -0.0225 -0.7116
 6565SOL    HW231155   2.455   3.231   6.433  1.4946  0.2304 -0.3316
 6566SOL     OW31156   0.366   2.847  10.159 -0.3796 -0.2453  0.1684
 6566SOL    HW131157   0.385   2.936  10.189  0.3582  0.1925 -1.5831
 6566SOL    HW231158   0.426   2.842  10.085  2.0189  2.3965  1.9456
 6567SOL     OW31159   2.628   0.746   7.095  0.3777  0.2278  0.0440
 6567SOL    HW131160   2.604   0.735   7.187 -2.1917 -0.1092 -0.6557
 6567SOL    HW231161   2.692   0.817   7.093  1.3123 -0.5834  0.7639
 6568SOL     OW31162   0.924   3.823  11.950 -0.2434 -0.0893  0.2451
 6568SOL    HW131163   0.951   3.914  11.950 -0.8222  0.0789  0.6683
 6568SOL    HW231164   1.006   3.781  11.977  0.6670  1.6225  0.1574
 6569SOL     OW31165   3.595   1.688   1.874  0.5983 -0.2420 -0.3445
 6569SOL    HW131166   3.676   1.650   1.840 -0.8087 -0.1615 -3.7329
 6569SOL    HW231167   3.617   1.676   1.966  2.4565 -0.4217 -0.8141
 6570SOL     OW31168   3.838   3.540   1.655  0.2137 -0.0535  0.5166
 6570SOL    HW131169   3.766   3.590   1.693  1.4159 -0.3487  3.1734
 6570SOL    HW231170   3.815   3.451   1.681 -1.8090  0.4129  0.2984
 6571SOL     OW31171   0.750   2.617   6.297  0.1028  0.2791 -0.3229
 6571SOL    HW131172   0.821   2.595   6.358 -0.7152  0.4158  0.6834
 6571SOL    HW231173   0.766   2.711   6.292  1.3279 -0.0324 -2.2457
 6572SOL     OW31174   1.620   0.406  11.998 -0.0504 -0.5715 -0.0224
 6572SOL    HW131175   1.610   0.500  12.013  0.0359 -0.5847  0.1124
 6572SOL    HW231176   1.534   0.392  11.958  0.3293 -0.5317 -0.8463
 6573SOL     OW31177   1.275   4.316   2.188  0.5849 -0.1601 -0.7807
 6573SOL    HW131178   1.214   4.381   2.153  1.5658  1.3807  0.3595
 6573SOL    HW231179   1.277   4.338   2.281 -0.6834  0.1899 -0.8406
 6574SOL     OW31180   2.443   2.401   7.604  0.0687 -0.4151 -0.4226
 6574SOL    HW131181   2.435   2.496   7.599 -1.8025 -0.4110  2.0359
 6574SOL    HW231182   2.514   2.388   7.667 -0.1223  2.8141  0.4252
 6575SOL     OW31183   4.462   2.245   6.958  0.0548  0.5909  0.6090
 6575SOL    HW131184   4.463   2.260   7.053  1.1991 -0.5835  0.7653
 6575SOL    HW231185   4.505   2.325   6.927 -0.5373 -0.0092 -1.7470
 6576SOL     OW31186   4.183   3.072   1.316  0.0911 -0.8542  0.3343
 6576SOL    HW131187   4.278   3.066   1.310  0.1282  0.5243 -0.4125
 6576SOL    HW231188   4.151   2.981   1.313  1.5593 -1.4002  0.9547
 6577SOL     OW31189   2.777   1.937  14.339 -0.3878 -0.6871  0.1809
 6577SOL    HW131190   2.818   1.863  14.384  3.4525 -0.1204 -2.4636
 6577SOL    HW231191   2.770   1.999  14.412  0.0373  0.9729 -1.1888
 6578SOL     OW31192   2.437   1.439   5.068 -0.5020  0.6062 -0.4234
 6578SOL    HW131193   2.527   1.443   5.099 -0.3839 -0.6363 -0.6037
 6578SOL    HW231194   2.440   1.487   4.985  0.5148 -1.1739 -1.4034
 6579SOL     OW31195   1.289   1.138   0.363 -0.2839 -0.6733 -0.6184
 6579SOL    HW131196   1.206   1.109   0.326 -0.8079 -0.2888  0.2401
 6579SOL    HW231197   1.339   1.154   0.283  1.6664  2.4089  1.2129
 6580SOL     OW31198   0.848   2.304   2.747  0.1593 -0.0715  0.1320
 6580SOL    HW131199   0.875   2.391   2.776 -0.9313 -0.2130  1.5624
 6580SOL    HW231200   0.902   2.241   2.796  1.4228 -0.0728 -1.2450
 6581SOL     OW31201   1.205   1.810   4.295  0.2116 -0.0623 -0.3684
 6581SOL    HW131202   1.178   1.844   4.210 -0.7340  0.0438 -0.0276
 6581SOL    HW231203   1.135   1.748   4.316  1.9521 -2.3459 -1.4661
 6582SOL     OW31204   0.703   3.268   7.743  0.3656  0.3067  0.1324
 6582SOL    HW131205   0.691   3.359   7.716  0.8150  0.2129 -0.3753
 6582SOL    HW231206   0.667   3.285   7.830  0.2771  0.0736  0.1436
 6583SOL     OW31207   2.786   2.786   5.454  0.2458  0.1632  0.2824
 6583SOL    HW131208   2.750   2.866   5.493 -0.0054 -0.2406  0.8794
 6583SOL    HW231209   2.817   2.743   5.534 -1.0959 -0.9780  0.1927
 6584SOL     OW31210   3.587   3.866   3.180 -0.7539 -0.0222  0.1176
 6584SOL    HW131211   3.582   3.831   3.268  0.7977 -1.1351 -0.2390
 6584SOL    HW231212   3.556   3.955   3.199 -1.7525 -0.5562  0.9325
 6585SOL     OW31213   1.019   3.958   8.072 -0.1016  0.5042  0.1671
 6585SOL    HW131214   0.925   3.967   8.060 -0.3755  2.0496  3.4938
 6585SOL    HW231215   1.047   4.049   8.066  0.9538  0.3339  2.6639
 6586SOL     OW31216   0.224   0.261   6.483 -0.4727 -0.0581  0.5609
 6586SOL    HW131217   0.239   0.215   6.400 -0.6755  1.5722 -0.3759
 6586SOL    HW231218   0.234   0.352   6.455  0.0840 -0.9689 -2.2035
 6587SOL     OW31219   3.103   2.958   4.103 -0.8665  0.2750 -0.3115
 6587SOL    HW131220   3.009   2.942   4.091 -0.4906 -1.0078 -1.5690
 6587SOL    HW231221   3.110   3.051   4.127 -0.3001  0.0315  0.4400
 6588SOL     OW31222   1.419   0.024   6.983  0.0525 -0.1408  0.2274
 6588SOL    HW131223   1.397   4.654   6.999  1.5180 -0.8480 -1.7778
 6588SOL    HW231224   1.477   0.022   6.907  1.4992 -0.5249  1.3482
 6589SOL     OW31225   3.592   1.266   9.750  0.4393 -0.2979  0.2009
 6589SOL    HW131226   3.637   1.350   9.740 -0.2756  0.0407 -0.2084
 6589SOL    HW231227   3.559   1.282   9.838  2.1010 -0.4405  0.8559
 6590SOL     OW31228   3.250   3.571   8.506  0.3738 -0.3530  0.7951
 6590SOL    HW131229   3.230   3.483   8.538 -0.6020 -0.4959 -0.2074
 6590SOL    HW231230   3.333   3.592   8.550  0.5087 -1.4018  1.0591
 6591SOL     OW31231   2.060   2.711   9.582  0.2193 -0.1608 -0.2441
 6591SOL    HW131232   2.105   2.627   9.571  0.2565 -0.2092  0.2643
 6591SOL    HW231233   2.138   2.766   9.570 -0.2220  0.8917  1.7756
 6592SOL     OW31234   3.544   3.625  13.881 -0.0484 -0.1235  0.1168
 6592SOL    HW131235   3.525   3.701  13.935  0.4750 -0.3972  0.6811
 6592SOL    HW231236   3.528   3.660  13.793 -1.4022  0.0924  0.4500
 6593SOL     OW31237   1.683   0.631   9.167 -0.0263 -0.1477 -0.0938
 6593SOL    HW131238   1.701   0.558   9.226  1.1428 -0.0202 -0.2917
 6593SOL    HW231239   1.598   0.603   9.131 -0.2833  2.6176 -1.5839
 6594SOL     OW31240   1.132   3.612  11.718  0.4248  0.3761  0.4009
 6594SOL    HW131241   1.115   3.525  11.682  0.6967  0.2804  0.5037
 6594SOL    HW231242   1.115   3.587  11.809 -2.1371 -0.1608 -0.2112
 6595SOL     OW31243   0.980   3.934   4.324 -0.3875 -0.2952 -0.0240
 6595SOL    HW131244   0.923   4.005   4.294  0.5605  0.2505 -0.5414
 6595SOL    HW231245   0.939   3.883   4.394  2.4046  0.1516  1.9715
 6596SOL     OW31246   2.702   3.429   0.452 -0.3245  0.5465  0.6978
 6596SOL    HW131247   2.696   3.424   0.547  1.9657 -0.7153  0.7674
 6596SOL    HW231248   2.641   3.502   0.440 -0.7630  0.5664  2.9592
 6597SOL     OW31249   0.288   1.684  12.618 -0.7219  0.1143  0.0066
 6597SOL    HW131250   0.373   1.697  12.577  0.0439 -0.6060  1.3777
 6597SOL    HW231251   0.257   1.774  12.626  1.7565  0.9296  0.4663
 6598SOL     OW31252   2.494   2.820   9.740  0.2048  0.1066  0.0986
 6598SOL    HW131253   2.554   2.751   9.768  1.2237  0.7915 -0.3988
 6598SOL    HW231254   2.543   2.887   9.789 -0.8759  0.4370  0.7144
 6599SOL     OW31255   3.109   1.721  17.165  0.2604 -0.5042  0.2544
 6599SOL    HW131256   3.031   1.667  17.177 -0.0653 -0.0171  0.3165
 6599SOL    HW231257   3.094   1.805  17.209 -0.9164  0.0126 -1.1349
 6600SOL     OW31258   1.883   3.129   9.461 -0.1051  0.4215 -0.4350
 6600SOL    HW131259   1.795   3.105   9.490  0.1128 -0.4896 -0.5249
 6600SOL    HW231260   1.943   3.077   9.515 -0.0034 -2.8755 -3.7183
 6601SOL     OW31261   3.755   1.226   8.847  0.3452  0.0573 -0.1898
 6601SOL    HW131262   3.736   1.200   8.938  0.7914 -1.8922 -0.6496
 6601SOL    HW231263   3.725   1.317   8.852  1.0750  0.3468 -1.2271
 6602SOL     OW31264   3.934   2.067  10.862 -0.1354  0.2991  0.3170
 6602SOL    HW131265   3.983   2.147  10.879  0.3927 -0.2896  1.5830
 6602SOL    HW231266   3.899   2.076  10.773  1.6922 -1.1153 -0.5480
 6603SOL     OW31267   0.302   1.426   6.330 -0.2469  1.1706  0.5079
 6603SOL    HW131268   0.379   1.474   6.299 -1.0272  0.9932 -1.6856
 6603SOL    HW231269   0.350   1.360   6.381  0.8007  2.0494  0.6510
 6604SOL     OW31270   0.378   0.940   5.402  0.7147 -0.3597  0.5995
 6604SOL    HW131271   0.440   0.921   5.332 -0.5954  0.5347 -0.8153
 6604SOL    HW231272   0.376   1.036   5.402 -0.3923 -0.3836  0.2538
 6605SOL     OW31273   1.861   0.254  11.959 -0.2183  0.0763  0.6930
 6605SOL    HW131274   1.784   0.199  11.970 -1.3854  1.4735 -0.4266
 6605SOL    HW231275   1.817   0.325  12.006 -0.0511  0.6863 -0.0764
 6606SOL     OW31276   4.098   3.720  10.083 -0.2453 -0.1071 -0.2042
 6606SOL    HW131277   4.012   3.755  10.109 -0.4619  0.6164 -1.9130
 6606SOL    HW231278   4.139   3.802  10.059 -0.0716 -0.1785 -0.1504
 6607SOL     OW31279   3.154   2.461   5.700  0.2192 -0.0196  0.3150
 6607SOL    HW131280   3.186   2.405   5.630 -0.0998  0.4698 -0.2185
 6607SOL    HW231281   3.205   2.541   5.690  0.9678 -0.4168  0.9232
 6608SOL     OW31282   2.229   0.616   2.679 -0.3041 -0.2275 -0.1920
 6608SOL    HW131283   2.257   0.620   2.588  0.2447 -1.3655 -0.0800
 6608SOL    HW231284   2.306   0.582   2.725 -2.0162  0.3048  3.0799
 6609SOL     OW31285   1.072   1.245   9.249 -0.5232  0.0786  0.2337
 6609SOL    HW131286   1.113   1.308   9.191 -0.7760  2.1167  2.2991
 6609SOL    HW231287   1.063   1.295   9.329 -1.7263 -0.2504  0.3103
 6610SOL     OW31288   3.202   1.010   0.565 -0.0919  0.3555 -0.1831
 6610SOL    HW131289   3.228   0.925   0.600 -0.6600  0.0454 -0.5228
 6610SOL    HW231290   3.267   1.070   0.602 -0.1572  0.2733  0.0648
 6611SOL     OW31291   2.019   3.011   7.312 -0.1168  0.3219  0.0361
 6611SOL    HW131292   2.097   2.978   7.268 -0.1308 -1.9151  1.6462
 6611SOL    HW231293   2.020   3.088   7.255  1.4170  1.2465  1.3347
 6612SOL     OW31294   4.146   0.395   9.243  0.0276  0.4043  0.3381
 6612SOL    HW131295   4.224   0.410   9.297  1.7905  1.9781 -2.6744
 6612SOL    HW231296   4.112   0.318   9.289  1.6711 -1.1825 -1.1083
 6613SOL     OW31297   1.764   2.899   4.674  0.1600 -0.1274  0.4200
 6613SOL    HW131298   1.788   2.858   4.591  1.2054 -1.2142  1.2563
 6613SOL    HW231299   1.679   2.931   4.644  0.9682  0.7188 -0.9639
 6614SOL     OW31300   2.914   2.890   0.914 -0.3350 -0.1197  0.1274
 6614SOL    HW131301   2.980   2.953   0.945 -0.0053 -1.3715  1.9697
 6614SOL    HW231302   2.835   2.941   0.932  0.2671  0.7468  0.3530
 6615SOL     OW31303   1.103   2.947  10.728  0.4920  0.0992 -0.2002
 6615SOL    HW131304   1.075   2.964  10.818  0.8285  1.1470 -0.2979
 6615SOL    HW231305   1.192   2.912  10.735 -0.1480 -1.7610 -1.4836
 6616SOL     OW31306   0.146   1.960  10.442  0.0344 -0.0789  0.3119
 6616SOL    HW131307   0.174   1.913  10.521  1.5146  0.0694 -0.1219
 6616SOL    HW231308   0.170   1.911  10.364 -2.0065 -0.0823 -0.3005
 6617SOL     OW31309   4.182   4.086   4.307  0.3236  0.3155  0.0124
 6617SOL    HW131310   4.162   3.993   4.299  0.9957  0.1864 -0.1439
 6617SOL    HW231311   4.269   4.095   4.269  0.4131 -0.0764  0.1246
 6618SOL     OW31312   2.061   3.025  12.589 -0.4142 -0.1774 -0.5116
 6618SOL    HW131313   2.037   2.947  12.639  0.6473  0.7615  1.4552
 6618SOL    HW231314   1.978   3.073  12.581 -0.5734 -0.5061 -0.8303
 6619SOL     OW31315   2.800   3.757   5.884  0.0746 -0.6237 -0.2459
 6619SOL    HW131316   2.825   3.790   5.798  1.6559 -2.0189 -0.3062
 6619SOL    HW231317   2.707   3.780   5.892  0.5539  2.0038 -2.3435
 6620SOL     OW31318   1.893   3.460  13.313  0.2192  0.4838 -0.6688
 6620SOL    HW131319   1.969   3.515  13.332 -0.9008  0.8312  2.7725
 6620SOL    HW231320   1.833   3.534  13.300 -1.6656 -0.8135  0.5459
 6621SOL     OW31321   2.066   1.328   8.148  0.0383  0.9792  1.0096
 6621SOL    HW131322   2.141   1.284   8.187  0.6548 -0.0885 -1.4039
 6621SOL    HW231323   2.059   1.414   8.189  1.3624  1.4489  0.2450
 6622SOL     OW31324   1.905   1.064  15.093  0.3762  0.4110 -0.4516
 6622SOL    HW131325   1.842   1.082  15.023 -0.4386 -2.0910 -0.3379
 6622SOL    HW231326   1.961   1.141  15.083 -1.3810  1.7152 -0.3034
 6623SOL     OW31327   0.657   0.815  10.384 -0.0199 -0.3277  0.1400
 6623SOL    HW131328   0.737   0.764  10.371  1.5283  2.0771  0.3010
 6623SOL    HW231329   0.638   0.785  10.473  1.9712 -0.4511  0.5229
 6624SOL     OW31330   0.490   0.546  17.502  0.2649  0.6370 -0.3749
 6624SOL    HW131331   0.517   0.508  17.419 -0.0239  1.4025 -0.8184
 6624SOL    HW231332   0.509   0.638  17.484  2.8038  0.0992 -0.3783
 6625SOL     OW31333   1.344   2.361   6.788 -0.2155  0.1779 -0.5500
 6625SOL    HW131334   1.438   2.380   6.796  0.3825 -3.7528  1.8756
 6625SOL    HW231335   1.331   2.266   6.796 -1.0962  0.1748 -1.9734
 6626SOL     OW31336   3.391   2.268   5.872 -0.9154 -0.0755 -0.3308
 6626SOL    HW131337   3.404   2.361   5.889 -2.2723 -0.1256  0.9727
 6626SOL    HW231338   3.307   2.253   5.915 -0.6218 -1.9366 -0.4013
 6627SOL     OW31339   1.778   3.759   2.999  0.0694  0.6182 -0.2161
 6627SOL    HW131340   1.870   3.755   2.974  0.2978 -1.2917  0.8862
 6627SOL    HW231341   1.747   3.679   2.957 -2.6560 -0.1234  3.2074
 6628SOL     OW31342   3.744   3.530   0.733  0.3763  0.2983 -0.4874
 6628SOL    HW131343   3.754   3.435   0.742 -0.4763  0.3236  0.5905
 6628SOL    HW231344   3.833   3.566   0.722  1.0015 -0.9766  0.4817
 6629SOL     OW31345   3.466   0.854   2.708 -0.5468 -0.5572 -0.0175
 6629SOL    HW131346   3.462   0.919   2.778 -0.1415 -0.2724 -0.2630
 6629SOL    HW231347   3.386   0.869   2.658  0.4194  2.1137 -0.7785
 6630SOL     OW31348   2.948   4.569   6.936 -0.2070  0.2055 -0.3754
 6630SOL    HW131349   2.865   4.528   6.961  0.4981 -0.5131  0.7516
 6630SOL    HW231350   2.930   4.656   6.900 -0.9896 -0.4063 -1.4610
 6631SOL     OW31351   2.247   1.187   7.739 -0.0012  0.2347  0.0051
 6631SOL    HW131352   2.312   1.241   7.784 -0.6849  0.6663  0.4614
 6631SOL    HW231353   2.178   1.173   7.804 -0.8898  1.5664 -0.6686
 6632SOL     OW31354   0.490   1.059  10.386 -0.1185  0.1259 -0.0029
 6632SOL    HW131355   0.508   1.066  10.480 -0.1865 -0.9799  0.0913
 6632SOL    HW231356   0.496   0.964  10.380  0.2038  0.1483 -0.0281
 6633SOL     OW31357   1.825   0.494   5.041 -0.5526 -0.0743 -0.6745
 6633SOL    HW131358   1.803   0.567   5.099 -1.2937  0.1633 -1.2586
 6633SOL    HW231359   1.831   0.536   4.955  0.5665  0.7433 -0.2004
 6634SOL     OW31360   2.905   3.728   5.574  0.0082 -0.1995  0.0746
 6634SOL    HW131361   2.987   3.728   5.624  0.1197 -0.9712 -0.1046
 6634SOL    HW231362   2.938   3.715   5.485  0.8997 -1.4607  0.5781
 6635SOL     OW31363   1.018   4.569   8.331 -0.0834 -0.3684 -0.0373
 6635SOL    HW131364   0.932   4.530   8.315  0.4437 -1.3645 -0.4345
 6635SOL    HW231365   1.071   4.498   8.296 -1.7689 -0.7820 -1.7364
 6636SOL     OW31366   2.838   2.324  10.809  0.3689 -0.2168 -0.3255
 6636SOL    HW131367   2.908   2.280  10.761  1.1983 -1.0191  1.6213
 6636SOL    HW231368   2.882   2.381  10.872 -1.7464  0.1162  0.8793
 6637SOL     OW31369   2.609   2.170   3.018  0.0455 -0.1382  0.0478
 6637SOL    HW131370   2.528   2.166   3.068 -1.0745  2.4534 -1.5415
 6637SOL    HW231371   2.608   2.080   2.985  0.8182  0.1936 -0.9085
 6638SOL     OW31372   2.750   0.197   9.521  0.2364  0.1091  0.3215
 6638SOL    HW131373   2.762   0.119   9.467 -0.9728  0.1283  0.0244
 6638SOL    HW231374   2.655   0.199   9.510  0.4701  0.7408 -1.5786
 6639SOL     OW31375   2.803   0.978   5.198  0.2357 -1.0195 -0.0737
 6639SOL    HW131376   2.740   0.962   5.269 -1.9155  1.8905 -1.3181
 6639SOL    HW231377   2.849   0.894   5.199  1.9973 -0.0715 -1.0063
 6640SOL     OW31378   4.556   3.935   4.890 -0.6456 -0.7468  0.0226
 6640SOL    HW131379   4.637   3.976   4.862 -0.4536 -0.8215  0.4627
 6640SOL    HW231380   4.539   3.970   4.978 -0.4755 -0.3599 -0.1016
 6641SOL     OW31381   2.504   0.616   8.965 -0.1314  0.2882  0.3552
 6641SOL    HW131382   2.463   0.688   9.013  0.0054  1.3484 -1.1359
 6641SOL    HW231383   2.517   0.560   9.042 -0.7733 -1.5452 -0.8677
 6642SOL     OW31384   2.766   0.078   5.466 -0.8781 -0.2116 -0.0488
 6642SOL    HW131385   2.742   0.121   5.384 -1.1166 -1.5510 -0.6765
 6642SOL    HW231386   2.815   0.148   5.508 -0.1447  1.2276 -3.2852
 6643SOL     OW31387   2.172   2.221   9.789  0.3917 -0.5435  0.1766
 6643SOL    HW131388   2.128   2.305   9.775 -0.5110 -1.4279 -2.2503
 6643SOL    HW231389   2.095   2.163   9.795 -2.0864  2.6023 -1.8443
 6644SOL     OW31390   0.831   0.713   9.566  0.5065 -0.3569  0.5321
 6644SOL    HW131391   0.806   0.625   9.538 -0.8490  0.0523  0.4576
 6644SOL    HW231392   0.926   0.712   9.554  0.1265 -2.2738 -2.1885
 6645SOL     OW31393   0.424   2.799   7.148 -0.3306 -0.0431  0.3940
 6645SOL    HW131394   0.356   2.853   7.187 -0.8407 -1.6263  1.6644
 6645SOL    HW231395   0.498   2.825   7.203  0.8269 -0.2077 -1.0889
 6646SOL     OW31396   2.216   1.391  16.648 -0.0384 -0.0896 -0.0906
 6646SOL    HW131397   2.278   1.413  16.578  0.3500  1.0719  0.6300
 6646SOL    HW231398   2.196   1.480  16.676  0.1190 -0.3655  0.8902
 6647SOL     OW31399   0.490   2.198   5.598  0.7017  0.2308  0.1255
 6647SOL    HW131400   0.500   2.162   5.510 -0.7409  1.1893 -0.4242
 6647SOL    HW231401   0.397   2.219   5.602  0.5706 -0.5171  0.9902
 6648SOL     OW31402   2.623   4.713  13.091 -0.7155  0.5516 -0.4103
 6648SOL    HW131403   2.646   4.647  13.025  0.9076  1.7656 -1.0657
 6648SOL    HW231404   2.537   4.685  13.119 -0.3669  0.7951  0.8895
 6649SOL     OW31405   2.718   3.873  14.974  0.5689 -0.4829  0.6147
 6649SOL    HW131406   2.637   3.909  15.009 -0.6249  0.5812 -3.2730
 6649SOL    HW231407   2.682   3.838  14.892  0.3605 -0.3510  0.6530
 6650SOL     OW31408   3.773   2.305   1.697  0.5443 -0.0562 -0.3984
 6650SOL    HW131409   3.819   2.278   1.617 -1.4934 -1.9886 -0.9256
 6650SOL    HW231410   3.795   2.397   1.712  0.1853 -0.1168  0.5090
 6651SOL     OW31411   4.145   0.744   8.325  0.2915  0.3018  0.2311
 6651SOL    HW131412   4.124   0.716   8.235 -0.4668 -0.1983  0.5590
 6651SOL    HW231413   4.121   0.667   8.377  0.7522  1.0963  1.6043
 6652SOL     OW31414   3.341   1.025   7.331 -0.1550  0.2259  0.9184
 6652SOL    HW131415   3.284   0.994   7.260  2.1345 -1.8119 -0.0227
 6652SOL    HW231416   3.305   1.112   7.350  3.0813  1.7758 -0.1317
 6653SOL     OW31417   0.285   0.219   5.129 -0.4196 -0.1685  0.1987
 6653SOL    HW131418   0.330   0.148   5.175  0.7542  0.1582 -0.4581
 6653SOL    HW231419   0.359   0.264   5.090  0.5183 -0.6566  1.4391
 6654SOL     OW31420   2.578   1.026  12.748 -0.8967 -0.0759  0.6294
 6654SOL    HW131421   2.660   0.981  12.770 -0.3585  0.2077 -0.8252
 6654SOL    HW231422   2.538   0.969  12.682  2.1830  0.7301 -1.9332
 6655SOL     OW31423   0.228   0.524  17.572 -0.2267 -0.3704  0.2413
 6655SOL    HW131424   0.322   0.507  17.574 -0.0373  0.5293 -1.3290
 6655SOL    HW231425   0.217   0.548  17.480 -0.7144 -1.6012 -0.0220
 6656SOL     OW31426   1.966   2.916   9.035  0.6148 -0.4617  0.1888
 6656SOL    HW131427   1.906   2.915   9.110  2.5986 -0.0774  1.7729
 6656SOL    HW231428   1.948   2.823   9.025 -0.5862 -0.4525  2.2761
 6657SOL     OW31429   2.621   3.702   1.276  0.0769 -0.3526 -0.1085
 6657SOL    HW131430   2.573   3.620   1.264  0.3790 -0.2313 -2.0266
 6657SOL    HW231431   2.582   3.742   1.354 -0.9544  0.3140 -0.9574
 6658SOL     OW31432   3.735   2.788  13.193 -0.2788  0.4997  0.2645
 6658SOL    HW131433   3.680   2.866  13.194 -0.2231  0.5654 -2.6639
 6658SOL    HW231434   3.697   2.747  13.115  0.5070  1.9323 -0.8867
 6659SOL     OW31435   3.911   1.325   5.361  0.0251  0.0842 -0.0913
 6659SOL    HW131436   3.969   1.281   5.299 -0.0681  1.7697 -1.3551
 6659SOL    HW231437   3.930   1.419   5.358 -1.2297  0.2342 -3.1028
 6660SOL     OW31438   1.503   1.657   1.347 -0.1111 -0.3644 -0.4119
 6660SOL    HW131439   1.466   1.732   1.395  3.5246  0.3655  1.2434
 6660SOL    HW231440   1.489   1.693   1.260 -2.4972 -3.0293 -1.1425
 6661SOL     OW31441   2.142   0.283   5.140 -0.7807  0.8712 -0.7717
 6661SOL    HW131442   2.127   0.190   5.124 -1.9481  0.5184  2.4784
 6661SOL    HW231443   2.148   0.324   5.053  2.4481  0.3004 -0.7983
 6662SOL     OW31444   2.991   2.360  11.463  0.1760  0.0889 -0.0797
 6662SOL    HW131445   2.955   2.368  11.375 -0.8587  0.0550  0.3416
 6662SOL    HW231446   3.004   2.268  11.488 -1.5099  0.2167  1.2904
 6663SOL     OW31447   3.825   3.853   4.897 -0.1326 -0.1218 -0.6743
 6663SOL    HW131448   3.792   3.766   4.919  1.7655 -1.0441 -1.4736
 6663SOL    HW231449   3.808   3.902   4.977  0.6332  1.9221 -1.7690
 6664SOL     OW31450   3.928   3.235   9.481 -0.1887 -0.4773 -0.0821
 6664SOL    HW131451   3.850   3.207   9.529 -0.4967  1.9303  0.8367
 6664SOL    HW231452   3.951   3.317   9.525 -0.4273 -1.3269  1.6449
 6665SOL     OW31453   0.231   2.449   5.077 -0.1446  0.2444 -0.4595
 6665SOL    HW131454   0.214   2.454   4.983  1.3626  3.1231 -0.5742
 6665SOL    HW231455   0.154   2.494   5.112 -0.0837  0.5687 -0.7360
 6666SOL     OW31456   2.644   0.076   5.726 -0.6855 -0.6428  0.4134
 6666SOL    HW131457   2.620   0.169   5.726  1.3936 -0.0993  0.9434
 6666SOL    HW231458   2.681   0.069   5.638 -0.2900  1.3809  0.4309
 6667SOL     OW31459   2.904   0.465   8.050  0.1305  0.5444 -0.1063
 6667SOL    HW131460   2.935   0.509   8.129  1.7847 -0.7869 -0.0042
 6667SOL    HW231461   2.824   0.425   8.084 -0.1692 -0.0292 -1.4905
 6668SOL     OW31462   2.393   1.649   5.329  0.1448 -0.2532 -0.0086
 6668SOL    HW131463   2.442   1.656   5.411 -3.1684 -0.4835  1.9646
 6668SOL    HW231464   2.332   1.723   5.336  2.6741  1.8408  0.1447
 6669SOL     OW31465   4.292   1.838   6.769  0.5598  0.5574 -0.1499
 6669SOL    HW131466   4.320   1.750   6.744  1.5799  0.6726  0.5984
 6669SOL    HW231467   4.363   1.861   6.828 -1.6879 -0.8730  3.1111
 6670SOL     OW31468   4.498   3.850   9.677  0.3421  0.0551  0.1584
 6670SOL    HW131469   4.504   3.932   9.628  3.4097  0.4118  1.1137
 6670SOL    HW231470   4.571   3.865   9.738 -0.9713 -0.1858  1.7907
 6671SOL     OW31471   0.175   0.107   2.096 -0.0368 -0.1640 -0.0590
 6671SOL    HW131472   0.092   0.152   2.084 -0.5051 -0.4757  2.1460
 6671SOL    HW231473   0.232   0.182   2.108 -0.4577  0.2038 -0.3573
 6672SOL     OW31474   1.932   3.064  11.692  0.0333  0.5096 -0.0432
 6672SOL    HW131475   1.897   3.010  11.763  3.6565 -0.2148  1.1869
 6672SOL    HW231476   1.864   3.068  11.625  2.0084  0.8522 -2.0186
 6673SOL     OW31477   1.243   2.732   6.461  0.1959 -0.1181 -0.5258
 6673SOL    HW131478   1.325   2.681   6.457 -1.1140 -2.3185  0.8600
 6673SOL    HW231479   1.176   2.664   6.469 -0.2184  0.2627 -0.8088
 6674SOL     OW31480   2.047   4.407   1.603 -0.2337  0.5202 -0.2981
 6674SOL    HW131481   1.990   4.332   1.591  0.8009 -0.2609 -0.3448
 6674SOL    HW231482   2.129   4.379   1.562 -0.8494 -1.0779 -0.4028
 6675SOL     OW31483   4.671   0.393  11.390 -0.5836  0.1297  0.0745
 6675SOL    HW131484   4.656   0.347  11.308  0.3584  0.9629 -0.5641
 6675SOL    HW231485   4.643   0.324  11.450 -0.7248 -0.6481 -0.8843
 6676SOL     OW31486   0.461   2.994   8.417 -0.1446 -0.1141 -0.3896
 6676SOL    HW131487   0.401   2.982   8.490  2.7607 -3.7120  1.3804
 6676SOL    HW231488   0.447   2.913   8.369 -0.4660 -0.9051  1.0738
 6677SOL     OW31489   3.575   4.170   4.943 -0.1541  0.0857 -0.6130
 6677SOL    HW131490   3.662   4.166   4.982 -0.3050  0.4894 -0.2323
 6677SOL    HW231491   3.610   4.204   4.861 -2.0446 -0.2675 -1.5712
 6678SOL     OW31492   4.121   2.423   2.806  0.3197 -0.0673 -0.5221
 6678SOL    HW131493   4.127   2.361   2.733  1.4322  1.4057 -1.6748
 6678SOL    HW231494   4.211   2.456   2.794  0.1835  0.7987  0.8381
 6679SOL     OW31495   4.034   0.862   9.106 -0.2821 -0.3775 -0.2859
 6679SOL    HW131496   4.122   0.862   9.142 -0.4938  0.2122  0.2370
 6679SOL    HW231497   3.994   0.928   9.163  0.3488 -0.8172  0.6614
 6680SOL     OW31498   0.132   4.351  13.706  0.2321 -0.8725  0.7369
 6680SOL    HW131499   0.081   4.392  13.636  1.3937  1.8211  1.4449
 6680SOL    HW231500   0.136   4.428  13.763 -2.1709  0.4868 -0.9518
 6681SOL     OW31501   2.261   3.717   3.474 -0.0893  0.0021 -0.0758
 6681SOL    HW131502   2.258   3.686   3.383  0.7058  0.2097 -0.1791
 6681SOL    HW231503   2.342   3.680   3.509  0.8944  0.8425 -1.4336
 6682SOL     OW31504   2.661   2.820  12.154 -0.9513 -0.3340  0.0321
 6682SOL    HW131505   2.605   2.772  12.093 -1.3958 -0.7142  0.7344
 6682SOL    HW231506   2.590   2.875  12.189 -1.1997 -0.7758  0.2193
 6683SOL     OW31507   1.791   1.890   3.763  0.3427 -0.5671  0.6672
 6683SOL    HW131508   1.790   1.796   3.749 -0.9527 -0.7251  1.8716
 6683SOL    HW231509   1.710   1.909   3.714  1.7178  2.1248 -0.6098
 6684SOL     OW31510   2.713   3.664   8.333 -0.1122 -0.7536 -0.4108
 6684SOL    HW131511   2.724   3.668   8.238 -0.0990  0.2993 -0.3656
 6684SOL    HW231512   2.618   3.663   8.345 -0.1427  0.6139 -0.5040
 6685SOL     OW31513   0.769   2.315  14.217 -0.3894  0.0287 -0.5298
 6685SOL    HW131514   0.804   2.337  14.131 -1.1441 -0.3190 -0.9214
 6685SOL    HW231515   0.759   2.223  14.193  0.6683 -0.8570  2.3923
 6686SOL     OW31516   2.263   2.939   9.309 -0.7856 -0.7161 -0.2244
 6686SOL    HW131517   2.231   2.849   9.306  1.5697 -1.5629  0.1303
 6686SOL    HW231518   2.285   2.946   9.402 -0.0879 -0.7974 -0.3850
 6687SOL     OW31519   3.509   4.502  11.252  0.4657 -0.0766 -0.5837
 6687SOL    HW131520   3.531   4.534  11.340 -0.7026 -0.4575 -0.1495
 6687SOL    HW231521   3.505   4.408  11.272 -0.6447 -0.1517 -1.1397
 6688SOL     OW31522   2.481   3.952   6.649  0.0193 -0.5932 -0.8956
 6688SOL    HW131523   2.482   4.007   6.570  0.8141 -1.3138 -1.3788
 6688SOL    HW231524   2.562   3.990   6.683  0.3564 -1.1918 -1.0335
 6689SOL     OW31525   2.443   2.858  15.911 -0.6368  0.0672  0.2295
 6689SOL    HW131526   2.355   2.860  15.873  0.0755  0.5693 -1.4173
 6689SOL    HW231527   2.451   2.763  15.925 -1.7362  0.0035  0.4811
 6690SOL     OW31528   4.546   4.480   4.347  0.1601 -0.2691 -0.1281
 6690SOL    HW131529   4.586   4.404   4.388  1.0965  1.1271  1.5532
 6690SOL    HW231530   4.516   4.446   4.262 -1.2279 -1.5869  0.8879
 6691SOL     OW31531   1.732   1.067  14.878  0.6793  0.7418  0.1059
 6691SOL    HW131532   1.712   1.011  14.803  0.9023 -0.4658  0.9465
 6691SOL    HW231533   1.762   1.147  14.835 -0.8240  1.2852  0.0664
 6692SOL     OW31534   0.255   0.921   2.420  0.0982  0.1685  0.9480
 6692SOL    HW131535   0.212   0.980   2.481  0.9862 -0.1234  1.8624
 6692SOL    HW231536   0.255   0.970   2.338 -0.2015 -1.8893 -0.2914
 6693SOL     OW31537   1.875   0.662  14.891 -0.8152 -0.4072  0.2474
 6693SOL    HW131538   1.926   0.614  14.826 -0.9633 -1.8309  1.1668
 6693SOL    HW231539   1.900   0.606  14.965  0.2529 -2.1225 -1.4142
 6694SOL     OW31540   1.064   3.708   7.864 -0.3450 -0.1245  0.3583
 6694SOL    HW131541   1.068   3.702   7.960  1.1336  2.9893  0.4848
 6694SOL    HW231542   1.154   3.737   7.849 -0.5976  0.4408 -0.0511
 6695SOL     OW31543   2.991   1.353  15.253  0.0385  0.1014  0.1834
 6695SOL    HW131544   3.040   1.344  15.171 -2.3735 -0.9736 -1.1405
 6695SOL    HW231545   2.914   1.397  15.216  1.0338  0.7136 -1.1612
 6696SOL     OW31546   2.354   1.947   5.696 -0.1185  0.4160  0.1152
 6696SOL    HW131547   2.352   2.023   5.753  1.2556  0.0045  0.6999
 6696SOL    HW231548   2.350   1.988   5.609  2.4623 -0.6701 -0.5259
 6697SOL     OW31549   3.840   0.351   2.900  0.3739 -0.0999 -0.8265
 6697SOL    HW131550   3.815   0.412   2.969 -0.1370  1.2896 -2.2455
 6697SOL    HW231551   3.866   0.422   2.842 -1.4770  2.7614  1.8950
 6698SOL     OW31552   2.150   0.296  11.927 -0.0417  0.3104  0.6124
 6698SOL    HW131553   2.168   0.220  11.983 -1.2078 -0.3257  0.1185
 6698SOL    HW231554   2.055   0.294  11.930 -0.0628  1.0486  0.2441
 6699SOL     OW31555   1.266   1.402   4.429  0.4331  0.5405  0.1086
 6699SOL    HW131556   1.212   1.440   4.499  0.7457  2.0940 -0.5048
 6699SOL    HW231557   1.353   1.403   4.469  0.7710 -0.2706 -0.6103
 6700SOL     OW31558   3.346   2.290   3.873  0.1765  0.2725  0.0875
 6700SOL    HW131559   3.310   2.353   3.810 -1.1230  0.3073  0.8779
 6700SOL    HW231560   3.382   2.347   3.939  0.2092 -2.0046  2.0351
 6701SOL     OW31561   0.863   3.720   5.963 -0.1480 -0.0945  0.1697
 6701SOL    HW131562   0.853   3.726   5.868  1.3446  2.0649  0.1541
 6701SOL    HW231563   0.898   3.631   5.966 -0.7214 -0.3874 -1.6491
 6702SOL     OW31564   3.750   2.654   8.571  0.1965  0.1006 -0.2378
 6702SOL    HW131565   3.754   2.668   8.477 -0.7557 -0.5003 -0.3646
 6702SOL    HW231566   3.803   2.728   8.602 -0.5572  0.1740  0.8979
 6703SOL     OW31567   4.152   2.210  11.535 -0.2794  0.1512 -0.1331
 6703SOL    HW131568   4.091   2.189  11.605  0.2347  1.5364  0.7361
 6703SOL    HW231569   4.169   2.123  11.498  0.8843  0.0849  0.5497
 6704SOL     OW31570   3.595   0.217  10.023  0.7045  0.6058 -0.4294
 6704SOL    HW131571   3.504   0.239  10.041  0.4034  0.8278 -2.2293
 6704SOL    HW231572   3.635   0.301  10.001 -0.0421  0.8036 -1.0377
 6705SOL     OW31573   2.329   3.570   1.010  0.8815  0.1389 -0.5885
 6705SOL    HW131574   2.388   3.515   1.062 -0.8218  1.5173  2.7801
 6705SOL    HW231575   2.331   3.524   0.925  0.3142 -0.7984 -0.0944
 6706SOL     OW31576   3.478   2.580   9.564 -0.0726 -0.3018  0.2424
 6706SOL    HW131577   3.489   2.492   9.529 -1.7362 -0.7149  0.7864
 6706SOL    HW231578   3.465   2.628   9.482 -1.8455  0.7511  1.1466
 6707SOL     OW31579   3.084   3.772   5.092 -0.5475  0.1194 -0.3821
 6707SOL    HW131580   3.081   3.735   5.180 -3.5465 -1.9018 -1.3280
 6707SOL    HW231581   3.146   3.716   5.046 -0.1775  0.6144 -0.4962
 6708SOL     OW31582   2.250   3.493   5.591 -0.4467 -0.5394  0.4177
 6708SOL    HW131583   2.265   3.560   5.657  0.3700 -0.0019 -0.3148
 6708SOL    HW231584   2.331   3.506   5.541  1.2524  1.5889  3.7283
 6709SOL     OW31585   3.610   1.758  17.107 -0.4736  0.0833  0.2398
 6709SOL    HW131586   3.548   1.727  17.042  0.4885  1.1739 -1.1969
 6709SOL    HW231587   3.653   1.828  17.058  0.9257  0.2589  1.6885
 6710SOL     OW31588   1.465   1.575   2.440  0.2243 -0.5513  0.1103
 6710SOL    HW131589   1.494   1.657   2.480  0.9175 -1.1893  0.9195
 6710SOL    HW231590   1.422   1.547   2.521 -0.3321 -1.5736 -0.5390
 6711SOL     OW31591   0.244   4.443   0.554  0.2510  0.2185 -0.1788
 6711SOL    HW131592   0.316   4.507   0.550  2.1503 -1.9530 -1.0142
 6711SOL    HW231593   0.175   4.485   0.503  0.1931 -0.5931 -0.7642
 6712SOL     OW31594   2.753   4.304   6.530 -0.4185 -0.4557  0.4088
 6712SOL    HW131595   2.798   4.388   6.522  1.1330 -1.6157 -2.9241
 6712SOL    HW231596   2.663   4.336   6.532 -0.7526 -1.1897 -2.3988
 6713SOL     OW31597   1.807   2.347  15.262 -0.3848 -0.5158 -0.3179
 6713SOL    HW131598   1.740   2.287  15.229  0.4609 -0.6998 -1.6646
 6713SOL    HW231599   1.866   2.287  15.308 -0.2800  0.6875  1.1216
 6714SOL     OW31600   1.608   1.088  17.538  0.1521  0.2373  0.2724
 6714SOL    HW131601   1.694   1.053  17.513 -0.4579 -0.9659 -0.1178
 6714SOL    HW231602   1.556   1.009  17.521  1.4761 -0.8704  1.3762
 6715SOL     OW31603   4.194   0.350   4.553 -0.3785 -0.1234  0.1896
 6715SOL    HW131604   4.231   0.262   4.545 -1.3288 -0.0971 -4.7793
 6715SOL    HW231605   4.262   0.398   4.599  1.7807 -4.6854  1.7720
 6716SOL     OW31606   4.638   0.687   1.459 -0.0919  0.0991  0.8420
 6716SOL    HW131607   4.708   0.694   1.395 -0.2584 -0.9998  0.5404
 6716SOL    HW231608   4.637   0.594   1.481 -1.3841 -0.3858 -1.2560
 6717SOL     OW31609   2.093   2.905   5.551 -0.2087 -0.2566 -0.3943
 6717SOL    HW131610   2.184   2.930   5.531 -0.0186  0.0916  0.9091
 6717SOL    HW231611   2.055   2.969   5.490 -0.8805 -0.4986 -0.2285
 6718SOL     OW31612   1.456   3.503   2.575 -0.2849 -0.0833 -0.5157
 6718SOL    HW131613   1.471   3.432   2.638 -0.5405 -0.6427 -1.0902
 6718SOL    HW231614   1.462   3.457   2.492 -0.1848 -0.0606 -0.5210
 6719SOL     OW31615   4.157   1.735   7.830  0.7406 -0.2725  0.6764
 6719SOL    HW131616   4.199   1.785   7.901 -1.1474  0.0476  1.5678
 6719SOL    HW231617   4.230   1.719   7.770  1.0446  2.3153  0.3540
 6720SOL     OW31618   4.370   1.240   2.874  0.1691 -0.6357  0.2238
 6720SOL    HW131619   4.304   1.279   2.932  0.5131  0.6190 -0.2413
 6720SOL    HW231620   4.385   1.307   2.808  0.6249 -1.1258 -0.1626
 6721SOL     OW31621   2.359   0.827   3.194  0.0941 -0.9720 -0.3726
 6721SOL    HW131622   2.427   0.779   3.241  1.2475  0.3245 -0.7117
 6721SOL    HW231623   2.405   0.850   3.113 -0.0137 -2.9873 -1.0073
 6722SOL     OW31624   4.264   0.275   5.349  0.2199 -0.1029  0.2800
 6722SOL    HW131625   4.267   0.208   5.281  1.0351  0.6639 -0.4423
 6722SOL    HW231626   4.275   0.216   5.424 -1.2508 -1.2050 -0.3661
 6723SOL     OW31627   2.225   2.231   7.311 -0.1636 -0.0588 -0.2340
 6723SOL    HW131628   2.261   2.166   7.372  1.7293  0.5627 -0.6863
 6723SOL    HW231629   2.152   2.265   7.362  0.3010  1.1942 -0.4043
 6724SOL     OW31630   2.474   3.237   3.144 -0.0377  0.4310  0.2880
 6724SOL    HW131631   2.471   3.142   3.139 -1.7637  0.4762  0.2094
 6724SOL    HW231632   2.422   3.260   3.067 -1.9425 -0.1123  1.3851
 6725SOL     OW31633   2.961   2.126  14.127 -0.2456  0.0148  0.0459
 6725SOL    HW131634   2.970   2.032  14.112  0.2004  0.5755 -3.0849
 6725SOL    HW231635   2.971   2.138  14.222 -0.2616 -1.6290  0.2451
 6726SOL     OW31636   1.399   1.515   3.335  0.0094  0.4425 -0.2573
 6726SOL    HW131637   1.405   1.479   3.246  1.6753 -1.2342  0.5363
 6726SOL    HW231638   1.357   1.598   3.311 -2.6630 -1.5220 -2.4553
 6727SOL     OW31639   4.549   0.547  11.719 -0.3659  0.0625 -0.0809
 6727SOL    HW131640   4.500   0.600  11.656  2.8105  0.3663 -2.3046
 6727SOL    HW231641   4.503   0.555  11.803 -0.0863  0.0500  0.0709
 6728SOL     OW31642   1.129   2.586   8.127 -0.1327 -0.0200  0.3147
 6728SOL    HW131643   1.199   2.626   8.178 -0.5637  0.6699  0.3597
 6728SOL    HW231644   1.089   2.664   8.088 -0.0574  1.0108  2.3468
 6729SOL     OW31645   0.288   3.478   0.712  0.7903  0.4312 -0.2629
 6729SOL    HW131646   0.381   3.497   0.727  0.8411  0.3827 -0.5199
 6729SOL    HW231647   0.250   3.506   0.795 -0.3087 -0.0169 -0.6168
 6730SOL     OW31648   3.363   2.513   3.262  0.1786 -0.6929 -0.3006
 6730SOL    HW131649   3.435   2.473   3.213  0.3030 -0.8939  0.0455
 6730SOL    HW231650   3.371   2.468   3.346 -1.6224 -0.7761 -0.1734
 6731SOL     OW31651   1.675   0.727  10.696  0.3304  0.2228 -0.3012
 6731SOL    HW131652   1.645   0.817  10.712  2.3795  0.7743  0.5483
 6731SOL    HW231653   1.660   0.723  10.602  0.4540 -1.5500 -0.2350
 6732SOL     OW31654   0.299   0.091   3.454 -0.4593  0.2194 -0.3901
 6732SOL    HW131655   0.376   0.051   3.414 -0.4225 -0.4056  0.3123
 6732SOL    HW231656   0.242   0.013   3.456  0.0094 -0.1477 -1.0557
 6733SOL     OW31657   4.562   0.898  12.585 -0.4941  0.8611  0.3386
 6733SOL    HW131658   4.616   0.953  12.642  0.7546  0.0660 -0.0645
 6733SOL    HW231659   4.602   0.815  12.611 -1.2244  0.5250  0.3793
 6734SOL     OW31660   2.379   4.660  12.850 -0.4292 -0.0222 -1.1184
 6734SOL    HW131661   2.386   4.615  12.934  0.1624  2.0664 -0.0463
 6734SOL    HW231662   2.465   4.670  12.810  0.4597  0.4444  0.9398
 6735SOL     OW31663   3.695   1.840   9.058  0.5647  0.2047 -0.4663
 6735SOL    HW131664   3.678   1.911   9.120  2.7415  0.7359 -0.4692
 6735SOL    HW231665   3.711   1.763   9.112 -0.5735 -0.1165 -0.5866
 6736SOL     OW31666   3.008   0.473   2.705  0.3520 -0.2147  0.7031
 6736SOL    HW131667   3.079   0.530   2.676  0.5957 -0.4432  0.8487
 6736SOL    HW231668   3.065   0.407   2.745  1.9503  0.9705  0.3804
 6737SOL     OW31669   2.923   0.262   4.714 -0.1572  0.1218 -0.3480
 6737SOL    HW131670   2.946   0.194   4.778  3.2703  0.9287 -0.6807
 6737SOL    HW231671   3.003   0.312   4.734 -0.1084 -0.6042  1.2499
 6738SOL     OW31672   3.985   3.410   0.493 -0.2150  0.4231  0.3774
 6738SOL    HW131673   3.924   3.355   0.542  1.5908 -1.0766  0.9515
 6738SOL    HW231674   4.067   3.378   0.530 -0.1472  0.6037  0.3803
 6739SOL     OW31675   2.045   3.660   9.059 -0.5514  0.2353  0.2854
 6739SOL    HW131676   2.135   3.647   9.088 -0.8583  1.1186  1.6516
 6739SOL    HW231677   2.000   3.663   9.144 -1.0754 -0.3788  0.0342
 6740SOL     OW31678   3.027   4.629  16.561  0.0026  0.2916 -0.5315
 6740SOL    HW131679   3.093   4.612  16.628 -1.1233  0.6685  0.6757
 6740SOL    HW231680   2.953   4.587  16.604 -1.2583  1.4838 -1.5447
 6741SOL     OW31681   4.185   4.206  10.790  0.6242 -0.3907 -0.1784
 6741SOL    HW131682   4.127   4.195  10.865  0.3160 -0.6314 -0.4490
 6741SOL    HW231683   4.271   4.188  10.827  2.5837  0.8744 -4.0894
 6742SOL     OW31684   3.959   3.638  12.956 -0.2297 -0.3914 -0.4659
 6742SOL    HW131685   4.030   3.681  13.005  0.2921 -0.7305 -0.9198
 6742SOL    HW231686   3.969   3.544  12.965 -0.7255  0.0039  4.0388
 6743SOL     OW31687   0.521   0.049  13.928  0.1736  0.3404  0.7086
 6743SOL    HW131688   0.553   4.711  13.860  0.6759  1.3218  0.0847
 6743SOL    HW231689   0.520   0.134  13.884  0.0988  0.3673  0.7624
 6744SOL     OW31690   1.089   1.551   2.865 -0.1492  0.3169 -0.4969
 6744SOL    HW131691   1.017   1.523   2.808 -0.3948  0.5107 -0.2806
 6744SOL    HW231692   1.085   1.486   2.936  0.2707 -0.2874 -1.0298
 6745SOL     OW31693   1.965   4.331   8.558 -0.3645 -0.3549 -0.4222
 6745SOL    HW131694   2.025   4.340   8.631 -0.0773 -0.2907 -0.6664
 6745SOL    HW231695   1.938   4.421   8.539  0.0554 -0.0732  0.3325
 6746SOL     OW31696   1.885   2.398   8.663 -0.4277 -0.1735 -0.2723
 6746SOL    HW131697   1.964   2.445   8.689 -0.0703 -0.6214 -0.5555
 6746SOL    HW231698   1.925   2.314   8.643 -0.9441 -0.3354 -0.6150
 6747SOL     OW31699   1.482   1.081   8.451  0.2003 -0.3920  0.2827
 6747SOL    HW131700   1.440   0.997   8.472  1.3941 -0.9778  0.3203
 6747SOL    HW231701   1.567   1.074   8.494  0.8226 -1.5119 -1.1064
 6748SOL     OW31702   3.688   2.079   9.200  0.0566 -0.3208  0.0931
 6748SOL    HW131703   3.732   2.144   9.254 -1.4848 -0.7329  1.8274
 6748SOL    HW231704   3.600   2.117   9.200 -0.2237 -0.9560 -0.4546
 6749SOL     OW31705   2.561   0.236   1.894 -0.8294 -0.0035  0.6278
 6749SOL    HW131706   2.589   0.318   1.854  2.1651 -0.7896  1.0594
 6749SOL    HW231707   2.604   0.171   1.838  1.0381  2.3331 -0.6410
 6750SOL     OW31708   2.051   0.309   1.093 -0.3987 -0.5443  0.1203
 6750SOL    HW131709   1.994   0.258   1.036  0.0636 -1.3540  0.3860
 6750SOL    HW231710   2.124   0.329   1.034 -0.9310  2.1723  0.3735
 6751SOL     OW31711   4.368   3.151   4.189  0.2779 -0.0668 -0.0582
 6751SOL    HW131712   4.394   3.131   4.280  1.6585 -0.0846 -0.4466
 6751SOL    HW231713   4.446   3.201   4.163  0.5958 -1.5196 -1.8690
 6752SOL     OW31714   0.704   1.864   3.742 -0.1227  0.1266  0.9695
 6752SOL    HW131715   0.763   1.837   3.812  1.7947  0.3156 -0.5709
 6752SOL    HW231716   0.667   1.782   3.708 -1.3859  0.8329  0.6341
 6753SOL     OW31717   3.604   1.805   4.348 -0.4700 -0.5609 -0.1808
 6753SOL    HW131718   3.575   1.718   4.322  2.7930 -2.2615  1.8590
 6753SOL    HW231719   3.572   1.858   4.275  0.5341  1.6763  1.0070
 6754SOL     OW31720   0.358   3.196  17.070 -0.5945  0.0171  0.1797
 6754SOL    HW131721   0.446   3.196  17.107  0.0021 -0.0392 -1.2735
 6754SOL    HW231722   0.314   3.156  17.145 -1.0843  1.3352  0.5893
 6755SOL     OW31723   2.015   3.226   4.332  0.1122  0.2176  0.0788
 6755SOL    HW131724   1.976   3.309   4.305 -0.5173  0.1742  0.8287
 6755SOL    HW231725   1.941   3.177   4.370 -1.5297  2.9714  0.4697
 6756SOL     OW31726   2.742   4.250  15.733 -0.3250  0.0298  0.2256
 6756SOL    HW131727   2.719   4.338  15.761 -0.5934 -0.3362  1.1523
 6756SOL    HW231728   2.783   4.212  15.811 -1.0644  0.4554  0.8202
 6757SOL     OW31729   2.411   4.476  12.207 -0.0101 -0.9836 -0.0730
 6757SOL    HW131730   2.481   4.430  12.254  0.1094 -1.4755 -0.7266
 6757SOL    HW231731   2.340   4.412  12.206 -0.8245 -0.0782  0.1068
 6758SOL     OW31732   1.281   2.134  15.649 -0.0606  0.0582  0.6337
 6758SOL    HW131733   1.263   2.047  15.612 -2.5138  0.2926  1.2887
 6758SOL    HW231734   1.240   2.129  15.735 -0.5808  0.6030  0.4169
 6759SOL     OW31735   1.469   1.301  16.282  0.3501 -0.2348 -0.2465
 6759SOL    HW131736   1.492   1.394  16.279 -1.1328  0.1423  0.1872
 6759SOL    HW231737   1.479   1.281  16.188  1.2805 -1.4984  0.1210
 6760SOL     OW31738   0.511   0.869  12.112 -0.4645  0.3640  0.4870
 6760SOL    HW131739   0.596   0.894  12.149  0.9689 -0.4316 -2.2127
 6760SOL    HW231740   0.454   0.870  12.188 -2.7885 -1.0117 -1.2340
 6761SOL     OW31741   0.944   4.649   5.790  0.0519 -0.0846 -0.3573
 6761SOL    HW131742   1.000   4.693   5.854  1.3982  1.1150 -2.3625
 6761SOL    HW231743   0.973   4.688   5.708  1.7593 -0.7185 -0.0536
 6762SOL     OW31744   2.612   1.566   1.145 -0.4400  0.1510  0.0128
 6762SOL    HW131745   2.677   1.529   1.204  1.2468  1.3842 -1.0707
 6762SOL    HW231746   2.621   1.656   1.176 -1.6640  0.4175 -0.4002
 6763SOL     OW31747   1.894   2.743   3.078  0.0285 -0.1429 -0.4221
 6763SOL    HW131748   1.969   2.764   3.022 -1.0306 -0.9862 -2.1521
 6763SOL    HW231749   1.881   2.829   3.118  0.6134 -1.3383  2.3317
 6764SOL     OW31750   1.979   1.924   0.281  0.2916  0.6958 -0.1093
 6764SOL    HW131751   2.065   1.924   0.321  0.2640  1.1331 -0.0580
 6764SOL    HW231752   1.988   1.839   0.236 -2.6596  0.4057 -0.1628
 6765SOL     OW31753   1.050   2.394  12.320 -0.3940 -0.6613  0.7326
 6765SOL    HW131754   1.022   2.313  12.277 -0.1453 -0.2270 -0.2587
 6765SOL    HW231755   1.067   2.368  12.410  3.2013 -0.0899  0.2190
 6766SOL     OW31756   3.425   4.490   8.126  0.0182  0.6619 -0.0707
 6766SOL    HW131757   3.510   4.457   8.094  0.6284  2.1201  0.0485
 6766SOL    HW231758   3.396   4.412   8.173 -0.5131 -0.0069 -1.5204
 6767SOL     OW31759   2.879   0.375   9.335 -0.2115  0.4300 -0.0807
 6767SOL    HW131760   2.863   0.311   9.404 -0.6410  1.1876  0.5225
 6767SOL    HW231761   2.792   0.383   9.295  0.2769  3.6454 -0.4730
 6768SOL     OW31762   4.016   0.709   2.129  0.1206 -0.4143  0.0153
 6768SOL    HW131763   3.972   0.783   2.172  0.0654 -0.0252 -0.7202
 6768SOL    HW231764   3.962   0.635   2.156  0.1688 -0.0659  1.0677
 6769SOL     OW31765   4.010   2.086   8.124 -0.2525 -0.3042  0.1298
 6769SOL    HW131766   4.029   2.174   8.157  0.3660 -0.4697  0.2151
 6769SOL    HW231767   4.076   2.031   8.166  0.6563 -0.4485 -1.5011
 6770SOL     OW31768   0.641   0.039   2.309  0.4329 -0.1567 -0.0007
 6770SOL    HW131769   0.640   0.124   2.263 -0.3597 -0.3276 -0.2895
 6770SOL    HW231770   0.563   0.049   2.363 -0.0299  1.0085 -0.8849
 6771SOL     OW31771   1.539   3.697   0.343  0.1267 -0.3684 -0.1129
 6771SOL    HW131772   1.536   3.667   0.434  0.7652  2.6768  0.9401
 6771SOL    HW231773   1.468   3.761   0.342  0.4323 -0.0292 -0.2432
 6772SOL     OW31774   4.038   3.475   9.199  0.1548  0.0758  0.5799
 6772SOL    HW131775   4.123   3.441   9.227 -0.7830  0.1669  3.5197
 6772SOL    HW231776   4.013   3.517   9.281  0.5088  1.6874 -0.1388
 6773SOL     OW31777   0.073   4.133   1.173  0.2471 -0.0960 -0.4977
 6773SOL    HW131778   4.714   4.149   1.124 -0.9949 -2.7356  0.7056
 6773SOL    HW231779   0.113   4.059   1.127 -2.5381 -0.7637 -1.8674
 6774SOL     OW31780   3.129   0.092   8.527 -0.0502  0.3679 -0.4496
 6774SOL    HW131781   3.041   0.077   8.492 -0.0285 -0.9995  0.0830
 6774SOL    HW231782   3.183   0.048   8.461 -0.4521  0.2474 -0.6957
 6775SOL     OW31783   1.464   4.085   5.718 -0.2289 -0.0082 -0.1126
 6775SOL    HW131784   1.463   4.048   5.806  0.0061  1.9336  0.7192
 6775SOL    HW231785   1.374   4.086   5.686  0.0288  0.5284 -0.8262
 6776SOL     OW31786   0.805   1.877   3.046  0.4083 -0.2086 -0.2377
 6776SOL    HW131787   0.829   1.791   3.078  2.0068  0.9774  1.7708
 6776SOL    HW231788   0.769   1.919   3.124 -1.6848 -1.8919 -0.2754
 6777SOL     OW31789   2.522   1.992  14.269  0.0313  0.2145  0.3841
 6777SOL    HW131790   2.602   1.960  14.312  0.3078  0.1805 -0.1597
 6777SOL    HW231791   2.512   2.078  14.309  0.3169 -0.5694  2.1716
 6778SOL     OW31792   4.042   3.460   9.550 -0.0545  0.1026 -0.4682
 6778SOL    HW131793   4.043   3.489   9.641 -1.5571 -0.3104 -0.3197
 6778SOL    HW231794   4.021   3.544   9.510  1.0246  0.4967 -0.1989
 6779SOL     OW31795   0.813   0.494   6.870 -0.0367  0.6540 -0.5148
 6779SOL    HW131796   0.899   0.468   6.839 -0.6270  0.8182 -2.2926
 6779SOL    HW231797   0.768   0.463   6.792  0.6498 -0.6523 -0.3887
 6780SOL     OW31798   2.949   1.630   2.679  0.0839 -0.4949  0.2530
 6780SOL    HW131799   2.989   1.686   2.745  1.9088 -0.1753 -1.1277
 6780SOL    HW231800   2.991   1.668   2.602  0.8949  0.4068  1.1474
 6781SOL     OW31801   3.022   4.089   0.845  0.4263 -0.1011  0.3572
 6781SOL    HW131802   3.018   4.184   0.840  0.1684 -0.0206  2.0094
 6781SOL    HW231803   2.991   4.057   0.760  1.6759  1.3209 -0.6349
 6782SOL     OW31804   1.205   0.778   6.901  0.6663 -0.9458  0.0688
 6782SOL    HW131805   1.146   0.792   6.826 -0.6630 -0.4772  1.2076
 6782SOL    HW231806   1.291   0.763   6.862  1.5906 -0.1169  1.8463
 6783SOL     OW31807   4.001   4.366  10.153 -0.5854 -0.5699 -0.5113
 6783SOL    HW131808   3.906   4.381  10.152 -0.4280  0.3803 -1.8310
 6783SOL    HW231809   4.034   4.434  10.212  1.1050 -2.1267  0.3329
 6784SOL     OW31810   3.407   3.802   5.790  0.1306 -0.3317 -0.5699
 6784SOL    HW131811   3.437   3.883   5.831  2.6221 -1.6825  0.3274
 6784SOL    HW231812   3.427   3.740   5.861 -0.8000 -1.1818 -1.0600
 6785SOL     OW31813   1.725   2.040   5.879  0.5268 -0.2830  0.0716
 6785SOL    HW131814   1.689   2.059   5.966  1.5837 -0.7623  0.6097
 6785SOL    HW231815   1.764   1.955   5.895  0.3332 -0.2642  0.6493
 6786SOL     OW31816   1.827   2.842  12.201 -0.5567  0.0562 -0.0531
 6786SOL    HW131817   1.827   2.936  12.221  1.9135  0.2966 -1.1775
 6786SOL    HW231818   1.738   2.817  12.177  0.6436 -3.2619 -1.0765
 6787SOL     OW31819   0.219   0.538   6.423  0.8904 -1.1245 -0.2584
 6787SOL    HW131820   0.166   0.565   6.498  2.9429  0.5892  0.5797
 6787SOL    HW231821   0.196   0.603   6.357 -1.2559 -2.2745 -0.6629
 6788SOL     OW31822   3.227   1.004   0.037  0.4924  0.1325 -0.1248
 6788SOL    HW131823   3.208   1.032  17.638 -0.7077  0.1761  0.1457
 6788SOL    HW231824   3.301   0.943   0.032  1.6212  1.5594 -0.7785
 6789SOL     OW31825   1.533   4.036   3.733 -0.0276  0.4502 -0.3208
 6789SOL    HW131826   1.565   4.105   3.791  0.2351 -0.4248  0.5750
 6789SOL    HW231827   1.612   4.008   3.686  0.2325 -0.6146  0.7502
 6790SOL     OW31828   3.156   1.949   4.710  0.3242 -0.1880 -0.5667
 6790SOL    HW131829   3.211   1.911   4.778 -1.4572 -0.6790  0.6058
 6790SOL    HW231830   3.122   1.870   4.669  1.3189 -0.0519 -1.6582
 6791SOL     OW31831   1.642   4.138   9.098  0.6401  0.4852  0.1731
 6791SOL    HW131832   1.691   4.079   9.155  1.0684  0.4675 -0.2103
 6791SOL    HW231833   1.568   4.158   9.156  0.0403  1.9237 -1.0724
 6792SOL     OW31834   2.458   0.254  16.293  0.2866 -0.0549 -0.0087
 6792SOL    HW131835   2.544   0.254  16.252 -0.0373  0.0205 -0.6916
 6792SOL    HW231836   2.404   0.215  16.224 -0.1588 -1.3190  1.0368
 6793SOL     OW31837   3.516   1.699   8.894  0.0718  0.2772  0.4304
 6793SOL    HW131838   3.558   1.754   8.960  0.4521  1.2871 -0.6669
 6793SOL    HW231839   3.437   1.697   8.948 -0.3012 -0.1957 -0.1427
 6794SOL     OW31840   1.836   4.356   3.822 -0.1757  0.5252  0.0223
 6794SOL    HW131841   1.798   4.398   3.745  0.0761  1.9197  0.6473
 6794SOL    HW231842   1.909   4.417   3.829 -0.2606  0.7037 -0.6567
 6795SOL     OW31843   1.618   3.987   2.668 -0.1879  0.0834 -0.3347
 6795SOL    HW131844   1.557   3.951   2.732  0.0876 -0.0191 -0.1286
 6795SOL    HW231845   1.659   4.058   2.718 -0.3688  0.6615 -1.0108
 6796SOL     OW31846   2.589   3.023   4.245 -0.2517  0.4477  0.2115
 6796SOL    HW131847   2.505   2.998   4.207 -0.3569 -0.0300  0.7577
 6796SOL    HW231848   2.565   3.073   4.323 -0.6563  0.1628  0.2712
 6797SOL     OW31849   2.242   2.663   3.835  0.1029  0.1528  0.5992
 6797SOL    HW131850   2.313   2.600   3.848  1.4533  1.4135 -0.7408
 6797SOL    HW231851   2.164   2.609   3.824 -0.6355  1.5473 -0.9521
 6798SOL     OW31852   0.048   2.954   6.295  0.6183  0.0484  0.1284
 6798SOL    HW131853   4.701   2.976   6.233  0.6934  1.3979  0.5250
 6798SOL    HW231854   0.116   2.950   6.227  0.2075  1.8454 -0.3863
 6799SOL     OW31855   0.854   3.097   3.232  0.2477  0.2233  0.0315
 6799SOL    HW131856   0.944   3.112   3.262 -0.0682 -0.8385  1.4846
 6799SOL    HW231857   0.821   3.182   3.261 -0.2782 -0.1117  0.4103
 6800SOL     OW31858   1.745   3.681   1.667  0.4196 -0.4258  0.3958
 6800SOL    HW131859   1.785   3.653   1.749 -0.0735 -0.1246  0.7385
 6800SOL    HW231860   1.674   3.743   1.684  1.2482  0.6709 -0.1551
 6801SOL     OW31861   2.310   0.236   5.376 -0.5195  0.2788 -0.1881
 6801SOL    HW131862   2.367   0.195   5.312  0.6768 -0.7240  1.5105
 6801SOL    HW231863   2.237   0.265   5.321 -2.3931  0.3799  2.3509
 6802SOL     OW31864   4.654   1.257   2.379  0.5078  0.3674  0.0356
 6802SOL    HW131865   4.668   1.215   2.464 -0.7316 -1.5462 -0.6934
 6802SOL    HW231866   4.667   1.180   2.323 -1.9219 -0.6639  0.8878
 6803SOL     OW31867   3.662   1.964   9.711 -0.2523  0.1136  0.3109
 6803SOL    HW131868   3.586   1.975   9.768  2.5023  2.7579  3.4603
 6803SOL    HW231869   3.659   2.046   9.662  3.8750  1.6827  2.6734
 6804SOL     OW31870   2.509   4.345   1.809 -0.6783  0.7153  0.1576
 6804SOL    HW131871   2.561   4.266   1.803 -1.3457  0.4752 -2.6409
 6804SOL    HW231872   2.560   4.401   1.751  0.0485  0.6099  0.7071
 6805SOL     OW31873   0.426   4.106   3.780  0.2404 -0.1196  0.3797
 6805SOL    HW131874   0.415   4.096   3.686 -1.6222 -1.2649  0.7212
 6805SOL    HW231875   0.436   4.201   3.787  2.4067 -0.4009  1.2430
 6806SOL     OW31876   0.755   0.068   8.055 -0.5097  0.1323  0.2900
 6806SOL    HW131877   0.726   4.707   8.018  0.6571 -0.0660 -0.1807
 6806SOL    HW231878   0.849   0.057   8.069 -0.8331 -1.9437  0.8601
 6807SOL     OW31879   1.068   0.579   1.894  0.5278 -0.7590 -0.4086
 6807SOL    HW131880   1.048   0.503   1.948 -1.6892  0.2131  0.1325
 6807SOL    HW231881   1.159   0.587   1.923  0.7145  0.8148 -1.4152
 6808SOL     OW31882   1.191   4.600  12.570  0.2155  0.4848 -0.0092
 6808SOL    HW131883   1.239   4.596  12.653 -1.4652 -3.5178  0.7454
 6808SOL    HW231884   1.197   4.694  12.553  0.9125  0.5149  0.3860
 6809SOL     OW31885   2.832   3.754   0.565  0.3808 -0.3457  0.0244
 6809SOL    HW131886   2.893   3.828   0.567  0.5909 -0.5736  1.5352
 6809SOL    HW231887   2.887   3.676   0.563  0.6220 -0.1928  1.0463
 6810SOL     OW31888   1.137   1.412   7.760 -0.4738 -0.5800  0.0537
 6810SOL    HW131889   1.107   1.486   7.813 -1.1224 -0.0612 -1.0370
 6810SOL    HW231890   1.079   1.346   7.799 -1.5048  1.6280  2.2884
 6811SOL     OW31891   1.767   2.356   5.794 -0.0204 -0.0849 -0.6282
 6811SOL    HW131892   1.741   2.428   5.737  1.0797  1.3360  0.6679
 6811SOL    HW231893   1.684   2.342   5.841  0.5121  1.1770  0.7108
 6812SOL     OW31894   3.089   4.586   4.707 -0.1474  0.1625 -0.6852
 6812SOL    HW131895   3.052   4.552   4.626 -0.0434 -0.5976 -0.4108
 6812SOL    HW231896   3.182   4.561   4.704  0.1200  1.3757 -2.5344
 6813SOL     OW31897   0.885   0.891  14.129 -0.2032 -0.3825  0.0721
 6813SOL    HW131898   0.864   0.842  14.209  1.5438 -2.5984 -0.8275
 6813SOL    HW231899   0.941   0.823  14.093  0.5511 -0.3782  1.2203
 6814SOL     OW31900   3.898   1.885  10.635 -0.1540  0.4019 -0.0689
 6814SOL    HW131901   3.909   1.976  10.607 -0.1150  0.1896 -0.7488
 6814SOL    HW231902   3.985   1.857  10.606 -0.0101  1.4148 -0.6170
 6815SOL     OW31903   1.781   1.640   3.641  0.3888 -0.4439  0.3392
 6815SOL    HW131904   1.711   1.672   3.584  1.5082  3.7347  1.2789
 6815SOL    HW231905   1.825   1.575   3.587  1.2518  2.9379 -3.0203
 6816SOL     OW31906   4.387   1.191   8.642 -0.2819  0.9588  0.2215
 6816SOL    HW131907   4.370   1.111   8.693  0.8742 -0.0562 -0.9977
 6816SOL    HW231908   4.442   1.233   8.708 -1.5699 -1.1915  2.6921
 6817SOL     OW31909   0.860   4.096   1.139 -0.3045 -0.1989 -0.0998
 6817SOL    HW131910   0.935   4.038   1.156  0.3213  1.8676  4.1355
 6817SOL    HW231911   0.854   4.099   1.044 -0.0327  0.9825 -0.0714
 6818SOL     OW31912   1.862   3.000   3.227 -0.0606 -0.6421  0.1499
 6818SOL    HW131913   1.928   3.055   3.186 -1.3963  0.1863 -0.8630
 6818SOL    HW231914   1.786   3.053   3.204  0.9087 -0.2481 -2.0807
 6819SOL     OW31915   3.915   1.213   3.283 -0.4918 -0.5012  0.3917
 6819SOL    HW131916   3.878   1.129   3.310 -0.1331 -1.0446 -0.8132
 6819SOL    HW231917   3.831   1.255   3.268 -1.2008 -2.4023 -0.9398
 6820SOL     OW31918   1.316   1.460   3.056 -0.8290  0.2574  0.4573
 6820SOL    HW131919   1.272   1.390   3.007  1.7316  1.3499 -3.4200
 6820SOL    HW231920   1.392   1.409   3.083 -1.2032 -1.0710 -0.9687
 6821SOL     OW31921   2.979   0.723  10.830  0.4788  0.6106 -0.3110
 6821SOL    HW131922   2.981   0.719  10.735  0.8743  0.1212 -0.2790
 6821SOL    HW231923   3.051   0.661  10.843 -0.3495 -0.1513  0.7376
 6822SOL     OW31924   0.180   2.517   7.587 -0.4114  0.2184  0.0248
 6822SOL    HW131925   0.140   2.447   7.537  0.5940  0.8560 -1.6551
 6822SOL    HW231926   0.199   2.472   7.669  1.1617 -0.3852 -0.6651
 6823SOL     OW31927   2.724   3.329   2.754 -0.2424  0.6614 -0.0727
 6823SOL    HW131928   2.676   3.246   2.751  3.3712 -1.4789  0.4046
 6823SOL    HW231929   2.799   3.306   2.809 -1.2087 -1.1477  0.5026
 6824SOL     OW31930   3.975   2.946   5.292 -0.2554  0.4924  0.1179
 6824SOL    HW131931   3.926   2.915   5.368  0.2839  2.5961  1.3143
 6824SOL    HW231932   3.963   3.041   5.303 -0.7042  0.7184 -2.2701
 6825SOL     OW31933   3.306   0.377   9.459 -0.2261  0.1279  0.2189
 6825SOL    HW131934   3.267   0.311   9.516  0.1113  0.2369  0.5782
 6825SOL    HW231935   3.396   0.346   9.465  0.4517  2.1152  0.4660
 6826SOL     OW31936   2.938   4.515  12.185 -0.1048  0.1996  0.4730
 6826SOL    HW131937   3.000   4.483  12.119 -0.9270  0.2124 -0.3015
 6826SOL    HW231938   2.920   4.602  12.150  0.8096 -0.9202 -2.8340
 6827SOL     OW31939   1.269   3.317   8.644  0.3515  0.3297 -0.7009
 6827SOL    HW131940   1.210   3.368   8.699 -0.4816 -0.1338 -1.1642
 6827SOL    HW231941   1.355   3.356   8.658  0.6575 -0.3577 -0.6401
 6828SOL     OW31942   0.240   2.449  10.645 -0.2353  0.2259  0.5262
 6828SOL    HW131943   0.303   2.509  10.684 -1.8031  1.3712  1.2874
 6828SOL    HW231944   0.167   2.503  10.675 -1.0941  0.8973 -2.7303
 6829SOL     OW31945   4.091   3.946   5.099  0.0215 -0.8313  0.2169
 6829SOL    HW131946   3.998   3.926   5.093 -0.4292  1.2511  0.2800
 6829SOL    HW231947   4.105   3.993   5.017 -2.7927  1.5203  1.0775
 6830SOL     OW31948   1.583   1.016   5.982  0.4543 -0.5085 -0.2970
 6830SOL    HW131949   1.563   0.930   5.944  0.8865 -0.9337  0.4478
 6830SOL    HW231950   1.655   0.997   6.042  0.8354  0.5498 -0.4277
 6831SOL     OW31951   0.428   3.148   8.820  0.4186 -0.1492  0.0514
 6831SOL    HW131952   0.411   3.237   8.850  0.9936  0.5790 -1.8150
 6831SOL    HW231953   0.515   3.129   8.856  0.7155  0.3921 -0.3769
 6832SOL     OW31954   2.317   1.399   2.072  0.3483  0.0568 -0.1142
 6832SOL    HW131955   2.348   1.377   2.159 -1.5560 -1.1218  0.2397
 6832SOL    HW231956   2.256   1.469   2.094  1.7675  1.4970 -0.7027
 6833SOL     OW31957   4.642   3.410   3.521  0.0108  0.3362  0.2094
 6833SOL    HW131958   4.566   3.422   3.578  1.5475  1.3366  1.9996
 6833SOL    HW231959   4.692   3.351   3.577 -1.0832 -2.2368 -1.4769
 6834SOL     OW31960   3.203   4.627  14.069 -0.2566 -0.4434  0.0398
 6834SOL    HW131961   3.261   4.552  14.082 -0.8092 -0.9263 -0.3017
 6834SOL    HW231962   3.241   4.658  13.987  0.2136  0.1729  0.4891
 6835SOL     OW31963   2.644   2.348  11.469  0.3452  0.3306 -0.2641
 6835SOL    HW131964   2.696   2.278  11.508 -0.9321 -2.2660 -3.1571
 6835SOL    HW231965   2.675   2.347  11.378  1.1804 -0.4163  0.0325
 6836SOL     OW31966   2.319   4.701   8.422  0.4298 -0.0960  0.4265
 6836SOL    HW131967   2.411   0.007   8.423 -0.0301  1.4588 -0.6844
 6836SOL    HW231968   2.282   0.042   8.360 -0.1666  0.9591  1.8514
 6837SOL     OW31969   4.361   1.366   7.551 -0.1055  0.0907 -0.5520
 6837SOL    HW131970   4.283   1.390   7.501 -0.4042  0.5459  0.1277
 6837SOL    HW231971   4.388   1.289   7.502 -0.6157 -1.1049  1.0306
 6838SOL     OW31972   0.099   3.292   2.882  0.1291  0.0216  0.0891
 6838SOL    HW131973   0.142   3.247   2.809  1.6359  1.8316 -0.1243
 6838SOL    HW231974   0.065   3.217   2.931 -0.3957 -0.5268 -1.1214
 6839SOL     OW31975   0.748   0.759   2.028 -0.0415  0.2251 -0.0327
 6839SOL    HW131976   0.814   0.773   1.960  0.8479 -0.2654  0.7209
 6839SOL    HW231977   0.713   0.671   2.015 -1.7274  0.4512  3.1383
 6840SOL     OW31978   3.967   4.399  13.442 -0.4782  0.0595 -0.2060
 6840SOL    HW131979   3.983   4.370  13.352  1.0856  0.5840 -0.1051
 6840SOL    HW231980   3.872   4.406  13.437 -0.3264 -0.0718 -3.3794
 6841SOL     OW31981   3.246   1.003   3.905 -0.4072  0.2784  0.4521
 6841SOL    HW131982   3.207   1.040   3.984  0.4914 -0.3006  1.1708
 6841SOL    HW231983   3.205   0.917   3.903 -0.8130  0.5218 -1.4883
 6842SOL     OW31984   2.439   0.857   7.803  0.7456 -0.1944 -0.5417
 6842SOL    HW131985   2.447   0.944   7.842 -0.4388 -0.8972  1.2723
 6842SOL    HW231986   2.361   0.826   7.850  0.6262 -0.4249 -0.8940
 6843SOL     OW31987   3.102   1.580   4.218  0.1843 -0.2082 -0.0173
 6843SOL    HW131988   3.039   1.515   4.188  1.1829  0.0636 -2.6549
 6843SOL    HW231989   3.155   1.518   4.269 -0.2642 -0.7201 -0.1721
 6844SOL     OW31990   2.993   0.373   1.401 -0.1403 -0.7725  0.0991
 6844SOL    HW131991   2.998   0.453   1.349  1.6935 -1.4690 -0.7787
 6844SOL    HW231992   3.085   0.349   1.406  0.2074  0.7581  1.0160
 6845SOL     OW31993   2.873   0.791  13.827 -0.1338 -0.1499  0.7088
 6845SOL    HW131994   2.931   0.822  13.757  0.6930  0.5062  1.6864
 6845SOL    HW231995   2.790   0.835  13.808 -0.3576 -1.5359 -1.5492
 6846SOL     OW31996   4.563   4.290   2.077  0.4506 -0.3219  0.2171
 6846SOL    HW131997   4.546   4.340   1.997  0.0650 -1.4497 -0.4083
 6846SOL    HW231998   4.578   4.357   2.143 -0.6601 -1.5419  1.7264
 6847SOL     OW31999   1.271   2.682   4.082  0.0952  0.3832 -0.4506
 6847SOL    HW132000   1.231   2.764   4.112 -1.8845 -1.6424  2.4916
 6847SOL    HW232001   1.356   2.683   4.125 -1.3508 -2.3922  2.4870
 6848SOL     OW32002   0.002   2.341   4.169  0.2598  0.1834 -0.1757
 6848SOL    HW132003   4.644   2.345   4.221  0.8624 -1.6479  0.8699
 6848SOL    HW232004   4.680   2.375   4.091 -1.5067  0.3410  0.8893
 6849SOL     OW32005   1.935   1.583  13.367  0.1808  0.4392  0.4654
 6849SOL    HW132006   1.937   1.679  13.373 -0.5586  0.6374 -2.3681
 6849SOL    HW232007   1.865   1.554  13.426  0.6406  2.3761  1.9615
 6850SOL     OW32008   2.814   1.409   6.602  0.3674  0.1446 -0.1721
 6850SOL    HW132009   2.720   1.422   6.600  0.1599 -1.1599  0.5758
 6850SOL    HW232010   2.823   1.321   6.564  0.6281  1.0190 -2.0823
 6851SOL     OW32011   2.903   2.171   3.010  0.0038 -0.3635 -0.0725
 6851SOL    HW132012   2.870   2.149   2.923  0.7748  0.4365 -0.5580
 6851SOL    HW232013   2.822   2.173   3.060 -1.4800 -1.4590 -2.4357
 6852SOL     OW32014   0.247   1.276   3.001 -0.3591 -0.0658 -0.7494
 6852SOL    HW132015   0.154   1.296   3.017 -0.2732  0.1775 -0.5556
 6852SOL    HW232016   0.283   1.361   2.976 -0.8380  0.1640 -0.6677
 6853SOL     OW32017   4.102   2.660  14.098  0.0510  0.6426  0.2463
 6853SOL    HW132018   4.141   2.708  14.171  0.1485 -0.1369  0.7064
 6853SOL    HW232019   4.125   2.569  14.116 -1.0572  0.1045 -1.0390
 6854SOL     OW32020   1.585   1.729   3.467 -0.0399  0.3130 -0.2604
 6854SOL    HW132021   1.541   1.811   3.444 -0.2516 -0.2852 -1.9141
 6854SOL    HW232022   1.632   1.702   3.389 -0.3445  1.3362 -0.8008
 6855SOL     OW32023   1.507   4.720   6.331 -0.4304 -0.5166 -0.3219
 6855SOL    HW132024   1.490   0.027   6.421 -0.1544 -0.9554 -0.1232
 6855SOL    HW232025   1.595   4.681   6.336 -0.6633 -0.9378  0.6624
 6856SOL     OW32026   4.259   0.479   5.871 -0.3122  0.5198 -0.0616
 6856SOL    HW132027   4.168   0.452   5.860  0.5081 -2.5422  0.5913
 6856SOL    HW232028   4.271   0.433   5.955 -0.2895 -2.6783 -1.7981
 6857SOL     OW32029   1.278   2.412   8.405  0.5697  0.1471 -0.4151
 6857SOL    HW132030   1.246   2.323   8.419 -1.3936  0.4410 -3.2105
 6857SOL    HW232031   1.193   2.455   8.406 -0.0492 -1.0440 -1.5136
 6858SOL     OW32032   3.085   0.795   8.846 -0.0165  0.1624  0.0148
 6858SOL    HW132033   3.091   0.876   8.897 -0.2785  0.8002 -0.9663
 6858SOL    HW232034   3.152   0.745   8.894 -0.2157  1.5986  1.7857
 6859SOL     OW32035   0.993   4.421  14.500 -0.4865 -0.0466  0.0732
 6859SOL    HW132036   0.978   4.496  14.558  0.8270 -1.1221  1.7971
 6859SOL    HW232037   1.087   4.407  14.516  0.0766  1.9474 -1.4976
 6860SOL     OW32038   4.320   3.880   7.440 -1.0765  0.5261  0.2269
 6860SOL    HW132039   4.356   3.937   7.373 -3.2564  0.5222 -0.9612
 6860SOL    HW232040   4.242   3.849   7.393 -1.3323 -1.4298  1.9262
 6861SOL     OW32041   3.027   2.715   2.902 -0.4717 -0.5242 -0.1805
 6861SOL    HW132042   3.118   2.698   2.879 -0.5373 -1.7689  0.4827
 6861SOL    HW232043   2.996   2.722   2.812  0.8826  0.6697 -0.5490
 6862SOL     OW32044   2.082   3.105   6.103  0.2203  0.4126  0.5007
 6862SOL    HW132045   2.123   3.183   6.064  2.3424 -1.4387 -1.0110
 6862SOL    HW232046   1.988   3.119   6.109  0.1310  0.5926 -1.2626
 6863SOL     OW32047   4.214   1.447  11.415  0.0281  0.6363 -0.6927
 6863SOL    HW132048   4.266   1.526  11.404  0.8283 -0.2121 -2.9727
 6863SOL    HW232049   4.212   1.417  11.324  0.9903  0.7817 -0.7617
 6864SOL     OW32050   3.315   0.673   8.939 -0.2923  0.5115 -0.1711
 6864SOL    HW132051   3.350   0.671   9.028  0.1454 -0.2440 -0.3595
 6864SOL    HW232052   3.379   0.724   8.891 -0.7495  1.2970  0.0598
 6865SOL     OW32053   2.278   3.458   0.721 -0.4289  0.3068 -0.0335
 6865SOL    HW132054   2.294   3.410   0.640 -1.4703  0.2267 -0.1908
 6865SOL    HW232055   2.189   3.432   0.745 -0.1027 -2.5399 -1.9610
 6866SOL     OW32056   2.233   4.664   7.978  0.4171 -0.5111 -0.3117
 6866SOL    HW132057   2.327   4.664   7.957  0.2965 -0.8922 -0.8426
 6866SOL    HW232058   2.217   4.579   8.019 -0.6949 -0.6438 -1.0404
 6867SOL     OW32059   2.174   2.603  15.424 -0.3454  0.4627  0.1959
 6867SOL    HW132060   2.228   2.624  15.501 -1.2575  1.2707  0.6167
 6867SOL    HW232061   2.210   2.649  15.349 -0.8182  1.5361  0.6183
 6868SOL     OW32062   2.038   1.981   2.665 -0.5690  0.7961  0.1628
 6868SOL    HW132063   2.104   2.051   2.671  1.1611 -0.7519 -0.6491
 6868SOL    HW232064   1.961   2.028   2.635 -0.5784  0.0183 -1.0128
 6869SOL     OW32065   1.951   0.962  12.710 -0.3629 -0.7423  0.0721
 6869SOL    HW132066   1.927   1.043  12.755  0.0837 -0.6756  0.1960
 6869SOL    HW232067   2.040   0.982  12.680  0.1365 -1.7071  0.8990
 6870SOL     OW32068   3.195   1.262   8.264 -0.5126  0.0323 -0.2230
 6870SOL    HW132069   3.252   1.226   8.196 -0.7514  1.2463 -1.0598
 6870SOL    HW232070   3.178   1.187   8.320 -3.4051 -0.4554 -1.7777
 6871SOL     OW32071   1.158   0.776   7.315  0.8638 -0.2568  0.0966
 6871SOL    HW132072   1.098   0.844   7.282 -0.7476 -1.7139  0.0348
 6871SOL    HW232073   1.153   0.710   7.246 -1.2246 -0.2792  0.2837
 6872SOL     OW32074   4.318   2.971  10.243 -0.3767 -0.2650  0.3168
 6872SOL    HW132075   4.301   2.973  10.337 -3.7467 -1.4882 -0.2904
 6872SOL    HW232076   4.407   3.005  10.233 -0.3759 -0.5841 -0.6661
 6873SOL     OW32077   1.432   3.374   3.678  0.2871 -0.0968 -0.1913
 6873SOL    HW132078   1.485   3.447   3.644  2.1694 -0.9900  0.8318
 6873SOL    HW232079   1.405   3.330   3.597 -0.7370  0.5368 -0.2021
 6874SOL     OW32080   2.454   4.001   8.824  0.2114 -0.7057  0.5926
 6874SOL    HW132081   2.380   3.940   8.830  0.1559 -0.8588 -1.6718
 6874SOL    HW232082   2.400   4.061   8.773 -0.2104  0.0188  1.9075
 6875SOL     OW32083   0.729   0.540   6.045 -0.0154  0.8303  0.2326
 6875SOL    HW132084   0.661   0.489   6.002 -0.6786  0.7062  1.4154
 6875SOL    HW232085   0.806   0.530   5.989 -0.1705  3.0672 -0.3883
 6876SOL     OW32086   3.550   2.268  10.175 -0.2341 -0.3431 -0.2265
 6876SOL    HW132087   3.577   2.264  10.084  1.3419  1.8617  0.1398
 6876SOL    HW232088   3.508   2.353  10.168  0.6062 -0.3330 -5.0802
 6877SOL     OW32089   2.489   0.725   1.808  0.7924  0.0375 -0.1885
 6877SOL    HW132090   2.483   0.657   1.741 -0.4192  1.5469 -1.6334
 6877SOL    HW232091   2.468   0.801   1.753  0.1704 -1.1172 -1.5269
 6878SOL     OW32092   3.531   2.482  11.716  0.4912  0.3896  0.3453
 6878SOL    HW132093   3.517   2.574  11.738 -2.4064 -0.4118  1.7635
 6878SOL    HW232094   3.552   2.442  11.800 -1.0605  0.5462  0.8115
 6879SOL     OW32095   2.376   2.398  11.813 -0.1380 -0.4016 -0.5973
 6879SOL    HW132096   2.385   2.387  11.719 -0.5409 -1.6731 -0.4779
 6879SOL    HW232097   2.312   2.330  11.832 -0.4214  0.1396  0.3989
 6880SOL     OW32098   4.427   0.383   2.970  0.0759 -0.1402 -0.4220
 6880SOL    HW132099   4.351   0.325   2.964  0.4182 -0.6473  0.2060
 6880SOL    HW232100   4.470   0.339   2.897  0.1880 -1.0151  0.1744
 6881SOL     OW32101   4.281   3.052   7.786  0.0249 -0.5302 -0.0836
 6881SOL    HW132102   4.282   3.120   7.718 -0.1196 -0.2253  0.2215
 6881SOL    HW232103   4.329   3.093   7.858 -2.7658 -0.0541  1.5076
 6882SOL     OW32104   1.301   1.091   9.402  0.1374 -0.6003  0.6100
 6882SOL    HW132105   1.330   1.180   9.384 -0.5605 -0.5881 -0.4734
 6882SOL    HW232106   1.206   1.092   9.397  0.1936  1.5066  0.1192
 6883SOL     OW32107   0.630   3.841  15.868  0.1985  0.4346 -0.4008
 6883SOL    HW132108   0.607   3.874  15.955  0.4366  1.3528 -0.6861
 6883SOL    HW232109   0.622   3.917  15.810  1.4094  1.2807  0.5485
 6884SOL     OW32110   0.796   2.812   2.307  0.1500 -0.5988 -0.6971
 6884SOL    HW132111   0.829   2.849   2.389 -1.4870 -1.5753  0.4153
 6884SOL    HW232112   0.706   2.785   2.322 -0.4279  1.1491 -1.0617
 6885SOL     OW32113   3.975   1.784   9.236 -0.1784  0.1025  0.0546
 6885SOL    HW132114   3.903   1.733   9.199  0.2898  0.9425 -1.9829
 6885SOL    HW232115   3.977   1.743   9.322 -1.3964  3.2073  1.5597
 6886SOL     OW32116   3.533   2.725   3.183 -0.3237 -0.1573 -0.0058
 6886SOL    HW132117   3.450   2.689   3.213 -1.3042  3.2359  1.3897
 6886SOL    HW232118   3.511   2.770   3.101  0.7938  0.8221  0.2264
 6887SOL     OW32119   0.654   0.122   8.310  0.1155  0.1626 -0.7048
 6887SOL    HW132120   0.563   0.108   8.283  0.5821 -2.7587 -0.7371
 6887SOL    HW232121   0.692   0.103   8.225  3.3745  1.5433  0.4189
 6888SOL     OW32122   0.975   3.114   1.941 -0.1002  0.3067  0.2897
 6888SOL    HW132123   1.034   3.051   1.900 -0.2984  0.1835  0.1959
 6888SOL    HW232124   0.958   3.165   1.862  0.8701  1.1734  0.6255
 6889SOL     OW32125   4.423   2.264  17.236  0.0362 -0.0272 -0.0792
 6889SOL    HW132126   4.430   2.359  17.227  1.6201 -0.3893 -2.8300
 6889SOL    HW232127   4.382   2.249  17.151 -1.7738  0.0924  0.7682
 6890SOL     OW32128   3.463   0.822   0.470  0.0919  0.7519 -0.5551
 6890SOL    HW132129   3.506   0.775   0.399 -0.1606 -0.5818  0.1645
 6890SOL    HW232130   3.377   0.782   0.481  1.2315 -0.8516  2.4684
 6891SOL     OW32131   3.263   3.197   8.784 -0.4500 -0.3696  0.2753
 6891SOL    HW132132   3.291   3.106   8.789 -0.0702 -0.1834  1.5244
 6891SOL    HW232133   3.254   3.221   8.877  0.7962 -1.2086  0.6205
 6892SOL     OW32134   0.338   3.291   0.148  0.8503  0.1462 -0.2862
 6892SOL    HW132135   0.370   3.201   0.153 -1.3638 -0.5894  0.7592
 6892SOL    HW232136   0.273   3.282   0.079 -1.2083  1.2141  1.4797
 6893SOL     OW32137   3.137   0.043   8.201 -0.3491  0.4307 -1.0030
 6893SOL    HW132138   3.074   0.066   8.132 -0.8198 -1.3819 -1.1802
 6893SOL    HW232139   3.093   4.704   8.259  2.5554 -0.1485  0.5770
 6894SOL     OW32140   0.895   1.730   0.575  0.6899  0.4703 -0.1375
 6894SOL    HW132141   0.857   1.648   0.542 -0.2684  1.0253 -0.3956
 6894SOL    HW232142   0.943   1.696   0.651 -1.4784 -0.5147  0.7905
 6895SOL     OW32143   4.434   1.130   6.340  0.0859  0.3454  0.3478
 6895SOL    HW132144   4.401   1.053   6.294 -1.1042 -0.7540  3.0476
 6895SOL    HW232145   4.526   1.105   6.341 -0.2579 -0.8734  2.1572
 6896SOL     OW32146   0.554   2.163  10.578 -0.1304 -0.0733 -0.2542
 6896SOL    HW132147   0.571   2.096  10.512  0.9539  0.2826 -0.3327
 6896SOL    HW232148   0.612   2.140  10.650 -2.7370  0.2574  1.9793
 6897SOL     OW32149   0.419   1.373   4.074 -0.6172  0.4239  0.8081
 6897SOL    HW132150   0.491   1.318   4.106  0.9964  1.2034 -1.4933
 6897SOL    HW232151   0.463   1.458   4.081 -1.2761  0.7596  0.8411
 6898SOL     OW32152   3.067   2.746   4.396  0.4082 -0.0818 -0.1222
 6898SOL    HW132153   3.060   2.839   4.413  1.0128 -0.1691  0.6191
 6898SOL    HW232154   3.072   2.706   4.483  0.1382 -0.6456 -0.3658
 6899SOL     OW32155   0.002   1.245   5.114  0.3996 -0.2984 -0.1746
 6899SOL    HW132156   0.008   1.311   5.184  1.5742 -0.4684 -0.1094
 6899SOL    HW232157   0.076   1.269   5.058  0.5316  1.0030  0.5468
 6900SOL     OW32158   0.596   4.564   2.135  0.6790 -0.2641 -0.5320
 6900SOL    HW132159   0.607   4.624   2.208  1.5905 -1.0760  0.0021
 6900SOL    HW232160   0.636   4.613   2.063  3.2974 -2.0729 -0.2962
 6901SOL     OW32161   3.064   0.034   6.528  0.1183 -0.9055  0.3079
 6901SOL    HW132162   3.009   0.069   6.459 -0.9083 -2.7577  0.1962
 6901SOL    HW232163   3.132   0.101   6.537 -1.1039  0.5590 -1.4290
 6902SOL     OW32164   3.112   0.185   4.096 -0.1500 -0.4933 -0.0832
 6902SOL    HW132165   3.163   0.160   4.019 -1.2085  2.4104 -1.7269
 6902SOL    HW232166   3.075   0.098   4.106 -0.7870 -0.1485  0.5415
 6903SOL     OW32167   1.189   0.920   3.131  0.5091  0.2773 -0.3334
 6903SOL    HW132168   1.204   0.953   3.042  1.1653 -1.4965 -0.8828
 6903SOL    HW232169   1.226   0.832   3.123 -1.7488 -0.5314 -1.9115
 6904SOL     OW32170   0.409   1.379   7.496 -0.2742  0.1138 -0.0273
 6904SOL    HW132171   0.317   1.396   7.476  0.4439  2.7726 -1.0903
 6904SOL    HW232172   0.426   1.294   7.455 -0.2890  1.0639 -1.9944
 6905SOL     OW32173   1.252   4.407   2.478 -0.4817 -0.2825  0.7378
 6905SOL    HW132174   1.252   4.503   2.481 -1.0754 -0.2607 -0.2104
 6905SOL    HW232175   1.163   4.388   2.510  0.5596 -1.7195  2.7460
 6906SOL     OW32176   1.535   2.783   9.730 -0.2524  0.0148 -0.6781
 6906SOL    HW132177   1.450   2.823   9.716  0.1430  1.3733  0.7958
 6906SOL    HW232178   1.550   2.759   9.639 -1.1629 -2.5043 -0.1582
 6907SOL     OW32179   3.634   3.343   7.335  0.4396  0.4076  0.1944
 6907SOL    HW132180   3.593   3.264   7.299  0.9625 -0.0952  0.7057
 6907SOL    HW232181   3.679   3.303   7.410 -0.4670 -1.1185 -0.0692
 6908SOL     OW32182   1.717   4.549   2.712 -0.1003  0.0391  0.1929
 6908SOL    HW132183   1.743   4.509   2.630  1.3884  1.4435 -0.0410
 6908SOL    HW232184   1.636   4.499   2.721 -1.1435  1.8940  1.2045
 6909SOL     OW32185   0.628   1.869   2.565  0.8197 -0.3581 -0.4395
 6909SOL    HW132186   0.583   1.945   2.529  0.0423 -2.0342 -3.0920
 6909SOL    HW232187   0.658   1.889   2.653  0.3723  0.1403 -0.4000
 6910SOL     OW32188   0.262   2.437   8.840  0.4089 -0.7604 -0.1081
 6910SOL    HW132189   0.167   2.443   8.843  0.4961 -0.0237  0.9017
 6910SOL    HW232190   0.280   2.496   8.913  1.2781  0.7603 -1.5732
 6911SOL     OW32191   3.903   0.831   3.041  0.1401  0.4436  0.2549
 6911SOL    HW132192   3.967   0.760   3.046  0.9983  1.0920 -1.6186
 6911SOL    HW232193   3.913   0.882   2.960  0.8198 -2.5408 -1.5213
 6912SOL     OW32194   0.369   4.399   8.133  0.1507  0.3796 -0.1280
 6912SOL    HW132195   0.356   4.347   8.213 -0.5854  0.0473 -0.4706
 6912SOL    HW232196   0.289   4.381   8.084  0.6589  0.0983 -0.8528
 6913SOL     OW32197   0.934   0.946   4.176 -0.1471 -0.4374 -0.6038
 6913SOL    HW132198   0.903   0.864   4.140 -1.8881 -0.6727  1.4450
 6913SOL    HW232199   1.023   0.919   4.197  0.2100 -1.1559 -2.9836
 6914SOL     OW32200   2.496   3.311   8.885 -0.1277  0.3816 -0.0903
 6914SOL    HW132201   2.498   3.407   8.881  0.0408  0.4943  2.6991
 6914SOL    HW232202   2.484   3.286   8.793  0.4341  1.1822 -0.3833
 6915SOL     OW32203   0.918   3.337   8.708  0.3515 -0.1299  0.2224
 6915SOL    HW132204   0.867   3.404   8.754 -1.6103  0.3081 -2.6040
 6915SOL    HW232205   1.005   3.373   8.727  0.0622  1.2175 -0.9437
 6916SOL     OW32206   3.828   1.573   1.731  0.5124  0.2772  0.1139
 6916SOL    HW132207   3.808   1.506   1.665 -0.2088 -0.6910  1.3080
 6916SOL    HW232208   3.922   1.558   1.742  0.7164  0.5661 -1.2445
 6917SOL     OW32209   1.966   1.033  16.855  0.3851 -0.4230 -0.1641
 6917SOL    HW132210   1.985   0.947  16.818  1.1756 -0.2456 -0.1663
 6917SOL    HW232211   1.980   1.092  16.781  3.8189  0.0370  0.8655
 6918SOL     OW32212   2.830   2.982   4.138 -0.5923 -0.0257 -0.2274
 6918SOL    HW132213   2.748   2.972   4.187  0.6619  1.3094  2.1496
 6918SOL    HW232214   2.831   3.076   4.121  0.8409 -0.0022 -0.0139
 6919SOL     OW32215   0.891   1.420   0.009  0.4472 -0.7670  1.1736
 6919SOL    HW132216   0.969   1.445  17.649  0.8939 -1.7330  1.3940
 6919SOL    HW232217   0.824   1.474  17.657  0.9043 -0.5824  0.6860
 6920SOL     OW32218   0.871   3.132  14.277 -0.0536  0.0207 -0.4884
 6920SOL    HW132219   0.803   3.086  14.228  1.3027  0.5740 -2.8767
 6920SOL    HW232220   0.860   3.220  14.242 -0.6453 -0.3456 -1.2166
 6921SOL     OW32221   3.706   0.127  17.099  0.7399  0.2923  0.3730
 6921SOL    HW132222   3.691   0.039  17.136  0.2181  0.8550  1.4972
 6921SOL    HW232223   3.695   0.114  17.005 -2.8182  4.1906  0.2648
 6922SOL     OW32224   0.863   3.665   6.566 -0.3397  0.4256  0.1280
 6922SOL    HW132225   0.948   3.630   6.593  0.0019 -0.8300 -2.5857
 6922SOL    HW232226   0.867   3.745   6.618  0.4610  0.2290  0.3682
 6923SOL     OW32227   1.501   1.254   3.126 -0.6502 -0.1258  0.1608
 6923SOL    HW132228   1.551   1.186   3.171 -1.1770 -1.8702 -1.8786
 6923SOL    HW232229   1.504   1.234   3.033  0.2738 -0.2715  0.2221
 6924SOL     OW32230   4.409   4.428  17.346 -0.2880 -0.4626  0.3356
 6924SOL    HW132231   4.427   4.334  17.356  2.2743  0.1878  1.8663
 6924SOL    HW232232   4.461   4.451  17.269  2.4005  0.7806  2.5394
 6925SOL     OW32233   0.453   0.765   1.797 -0.4584  0.1717 -0.4212
 6925SOL    HW132234   0.484   0.817   1.871 -0.4055  0.0828 -0.3812
 6925SOL    HW232235   0.532   0.714   1.779 -0.4281 -0.1762  0.7049
 6926SOL     OW32236   4.526   1.964   5.512  0.6813 -0.1143 -0.0988
 6926SOL    HW132237   4.506   1.881   5.468 -1.4754 -1.0931  2.7012
 6926SOL    HW232238   4.619   1.951   5.532  0.3946 -0.4692  1.0338
 6927SOL     OW32239   3.593   1.827   5.604 -0.6182  0.2830 -0.2338
 6927SOL    HW132240   3.530   1.871   5.661 -2.2944 -0.5564 -1.4614
 6927SOL    HW232241   3.621   1.903   5.553 -1.2238  0.3303 -0.5003
 6928SOL     OW32242   0.812   3.706  12.208 -0.2836 -0.0941 -0.3197
 6928SOL    HW132243   0.738   3.646  12.212  1.4672 -1.9714  3.7806
 6928SOL    HW232244   0.822   3.724  12.302  1.4084 -2.8174  0.0139
 6929SOL     OW32245   1.621   4.393   5.920  0.6944  0.3453  0.4484
 6929SOL    HW132246   1.590   4.416   6.008  0.5972 -0.6557  0.6766
 6929SOL    HW232247   1.713   4.382   5.941  0.6189  1.6771  1.5437
 6930SOL     OW32248   0.606   0.313   6.245 -0.5290  0.1767  0.0468
 6930SOL    HW132249   0.699   0.327   6.262 -0.3264 -1.5753  0.3936
 6930SOL    HW232250   0.574   0.403   6.254  0.9287  0.7885 -0.6770
 6931SOL     OW32251   0.228   2.384   7.839 -0.4695 -0.0110  0.0659
 6931SOL    HW132252   0.273   2.356   7.919  2.6901  1.7951 -1.0564
 6931SOL    HW232253   0.158   2.320   7.831 -0.4409 -0.3788  2.9793
 6932SOL     OW32254   0.159   2.558   4.833 -0.1202  0.3689 -0.0539
 6932SOL    HW132255   0.182   2.606   4.753  1.2534 -0.7323 -0.3256
 6932SOL    HW232256   0.086   2.613   4.861  1.6801  1.9953  1.4288
 6933SOL     OW32257   4.073   3.487   2.259 -0.1916 -0.3374  0.1320
 6933SOL    HW132258   4.117   3.422   2.205  0.1080  0.7434 -0.9078
 6933SOL    HW232259   4.072   3.434   2.339 -0.3287  0.9165  0.9638
 6934SOL     OW32260   0.863   0.310  17.392 -0.0330 -0.1480  0.0849
 6934SOL    HW132261   0.945   0.346  17.425  0.0923 -1.3065  1.0505
 6934SOL    HW232262   0.822   0.281  17.474  1.0495  0.9059  0.9926
 6935SOL     OW32263   1.075   0.981   4.795 -0.2728 -0.5065 -0.1893
 6935SOL    HW132264   1.159   0.942   4.818 -1.5242 -1.8045  2.1851
 6935SOL    HW232265   1.107   1.044   4.731  0.5456 -2.5514 -1.7986
 6936SOL     OW32266   2.240   3.750   2.566  0.1467  0.5404 -0.0109
 6936SOL    HW132267   2.248   3.708   2.651  1.1116 -1.6653 -1.1941
 6936SOL    HW232268   2.307   3.819   2.562  1.1315 -0.3543  1.4526
 6937SOL     OW32269   0.083   4.328   8.090  0.4305  0.3591  0.5819
 6937SOL    HW132270   4.716   4.297   8.077 -0.4958  2.5528  1.6688
 6937SOL    HW232271   0.078   4.412   8.044 -2.2781  0.4479  1.0373
 6938SOL     OW32272   3.407   2.201   8.203 -0.8250 -0.2218  0.1284
 6938SOL    HW132273   3.386   2.108   8.212 -2.3090  0.1178  0.1248
 6938SOL    HW232274   3.498   2.204   8.233 -2.0249  0.8942  3.5964
 6939SOL     OW32275   0.757   0.839  13.712 -0.4346  0.3245  0.4987
 6939SOL    HW132276   0.850   0.818  13.706 -0.1512  1.8270 -0.6892
 6939SOL    HW232277   0.765   0.934  13.722  0.8523  0.3013 -0.3959
 6940SOL     OW32278   3.646   1.237  14.432 -0.1776 -0.1293  0.1108
 6940SOL    HW132279   3.626   1.215  14.523  1.7216  2.8327  1.2418
 6940SOL    HW232280   3.647   1.333  14.428 -0.4794 -0.1614 -0.8758
 6941SOL     OW32281   1.169   1.482   9.119 -0.1078 -0.0246 -0.5795
 6941SOL    HW132282   1.162   1.447   9.030  0.7208 -2.1678  0.1861
 6941SOL    HW232283   1.135   1.568   9.096 -3.1260 -0.7174  1.2088
 6942SOL     OW32284   0.203   3.263   6.009 -0.0956  0.1144  0.2047
 6942SOL    HW132285   0.230   3.179   6.046 -2.0820 -1.0836 -1.0480
 6942SOL    HW232286   0.111   3.247   5.990 -0.1818 -0.8688  1.4631
 6943SOL     OW32287   3.136   3.502   5.610  0.7159 -0.0045  0.4048
 6943SOL    HW132288   3.125   3.583   5.660  2.9499  0.4327  0.1510
 6943SOL    HW232289   3.226   3.503   5.579  0.9550  0.3319  1.1157
 6944SOL     OW32290   1.655   0.107  12.021  0.3486  0.3780 -0.0497
 6944SOL    HW132291   1.634   0.195  11.987  1.3337  0.7353  0.2485
 6944SOL    HW232292   1.566   0.074  12.020  0.6755 -0.5372  1.5846
 6945SOL     OW32293   0.923   0.596  10.027 -0.3701 -0.5678  0.2001
 6945SOL    HW132294   0.976   0.621   9.952 -1.2638  1.1092  0.1269
 6945SOL    HW232295   0.838   0.574   9.988 -1.2355  1.6118  0.8565
 6946SOL     OW32296   0.007   0.909   6.585 -0.1661  0.0145 -0.1387
 6946SOL    HW132297   4.706   0.978   6.523 -0.1920 -1.1404 -1.4285
 6946SOL    HW232298   0.102   0.925   6.585 -0.1976  0.1989  0.9678
 6947SOL     OW32299   4.370   3.977   2.904  0.4555  0.3338 -0.0582
 6947SOL    HW132300   4.389   3.887   2.933 -0.8100 -0.0790 -0.5047
 6947SOL    HW232301   4.387   3.986   2.810  0.3490 -1.0727 -0.2169
 6948SOL     OW32302   2.969   0.171  12.351 -0.4074 -0.4387  0.4815
 6948SOL    HW132303   2.916   0.195  12.275  1.9317 -1.7682 -1.5727
 6948SOL    HW232304   3.042   0.120  12.315 -0.6140 -0.6268  0.3325
 6949SOL     OW32305   3.220   3.869   4.304 -0.2332 -0.0279  0.2549
 6949SOL    HW132306   3.281   3.818   4.250  0.3888 -0.4803  1.3934
 6949SOL    HW232307   3.159   3.907   4.241  0.3272 -0.0353 -0.3016
 6950SOL     OW32308   2.190   1.940   1.751 -0.2144 -1.2325 -0.4754
 6950SOL    HW132309   2.277   1.965   1.719 -0.3974  0.8860  0.7269
 6950SOL    HW232310   2.139   1.936   1.670  0.3284 -0.7887 -0.8415
 6951SOL     OW32311   2.705   1.867  17.324  0.2981  0.0837 -0.7388
 6951SOL    HW132312   2.784   1.917  17.304  0.4312 -0.7251 -2.2586
 6951SOL    HW232313   2.648   1.923  17.377  0.6782 -0.9255  0.7422
 6952SOL     OW32314   1.403   4.290   7.350  0.0917  0.4993 -0.0509
 6952SOL    HW132315   1.319   4.288   7.396 -0.3657 -0.1575 -0.9100
 6952SOL    HW232316   1.447   4.366   7.390  0.2393  0.2575  0.2524
 6953SOL     OW32317   1.552   3.958   4.516 -0.3887 -0.4967  0.2384
 6953SOL    HW132318   1.534   4.013   4.592 -1.9923 -0.2716 -0.2894
 6953SOL    HW232319   1.483   3.892   4.510  1.7336 -2.6742 -0.1866
 6954SOL     OW32320   3.095   3.022  12.080 -0.9644 -0.1014 -0.0140
 6954SOL    HW132321   3.161   2.978  12.134  1.8933  1.0063 -2.6223
 6954SOL    HW232322   3.148   3.057  12.009 -1.1157  1.6330  0.7329
 6955SOL     OW32323   4.424   3.707  11.261  0.0625  0.1140 -0.6276
 6955SOL    HW132324   4.345   3.757  11.243 -1.4859 -1.9306  0.5018
 6955SOL    HW232325   4.394   3.631  11.211  0.8162 -1.0683  0.7443
 6956SOL     OW32326   3.651   3.787  11.043 -0.3586 -0.2186  0.3912
 6956SOL    HW132327   3.680   3.783  11.135 -0.5850  1.0845  0.5233
 6956SOL    HW232328   3.557   3.801  11.053 -0.1533  1.5657 -0.1240
 6957SOL     OW32329   3.495   4.149   7.505  0.0202  0.3815  0.1507
 6957SOL    HW132330   3.576   4.180   7.545 -0.7185  1.7269  0.6244
 6957SOL    HW232331   3.484   4.062   7.545 -0.7882 -1.2462 -3.5923
 6958SOL     OW32332   2.528   0.126   8.496 -0.3714 -0.0694 -0.4466
 6958SOL    HW132333   2.556   0.107   8.586 -1.5117 -1.0927 -0.3103
 6958SOL    HW232334   2.555   0.217   8.483  0.1471 -0.0351  0.8910
 6959SOL     OW32335   3.298   1.727  12.786  0.0616  0.3898  0.3101
 6959SOL    HW132336   3.375   1.745  12.731  0.0057 -0.2483  0.0171
 6959SOL    HW232337   3.223   1.732  12.727  0.8592  1.0342 -0.6529
 6960SOL     OW32338   3.667   4.529   2.814 -0.0808 -0.1343 -0.6519
 6960SOL    HW132339   3.659   4.624   2.820 -0.5770 -0.3329  1.8385
 6960SOL    HW232340   3.708   4.518   2.900  0.9152  0.0171 -1.1069
 6961SOL     OW32341   3.521   1.906   3.258 -0.0962 -0.2290 -0.1926
 6961SOL    HW132342   3.571   1.880   3.180 -0.4813  0.3663 -0.6410
 6961SOL    HW232343   3.529   2.001   3.248 -2.3493  0.0752  0.9515
 6962SOL     OW32344   0.743   0.150   6.007  0.3313  0.0382 -0.1731
 6962SOL    HW132345   0.770   0.222   6.065 -0.3279  0.8801 -0.9232
 6962SOL    HW232346   0.789   0.188   5.932  1.2261  0.8648  0.7798
 6963SOL     OW32347   0.854   0.902   1.797  0.3472 -0.0436  0.2533
 6963SOL    HW132348   0.866   0.867   1.709 -0.0929  1.8607 -0.5638
 6963SOL    HW232349   0.941   0.902   1.838 -1.0332 -0.3718  3.1516
 6964SOL     OW32350   1.803   1.935   4.429  0.0566 -0.0540  0.4264
 6964SOL    HW132351   1.824   1.964   4.517 -0.3163 -0.2208  0.5709
 6964SOL    HW232352   1.719   1.979   4.413  0.1272 -0.0252  0.1267
 6965SOL     OW32353   0.066   3.530   0.581  0.1523  0.5690 -0.0027
 6965SOL    HW132354   0.076   3.559   0.490  0.0818  0.1901 -0.1299
 6965SOL    HW232355   0.150   3.509   0.621  1.5244  0.1316 -3.1203
 6966SOL     OW32356   0.180   4.197   9.353  0.1863  0.0249 -0.0757
 6966SOL    HW132357   0.219   4.265   9.408  2.1820  0.3359 -1.8875
 6966SOL    HW232358   0.086   4.211   9.370  0.3498 -0.1647  1.0028
 6967SOL     OW32359   0.521   3.306  12.968 -0.2273 -0.0851 -0.6421
 6967SOL    HW132360   0.486   3.285  12.881  0.5210 -1.9729 -0.4741
 6967SOL    HW232361   0.579   3.231  12.978  0.5748  0.8017  1.3859
 6968SOL     OW32362   0.445   4.067   3.484  0.0118 -0.1777 -0.5747
 6968SOL    HW132363   0.461   4.145   3.430 -1.2636 -0.4481 -1.3369
 6968SOL    HW232364   0.350   4.076   3.486 -0.2065 -2.5355 -0.0503
 6969SOL     OW32365   1.833   0.974  17.092  0.8049 -0.0571  0.6361
 6969SOL    HW132366   1.873   0.987  17.006  2.1682  1.1392  1.4676
 6969SOL    HW232367   1.903   0.994  17.154 -0.8925 -0.8742  2.8024
 6970SOL     OW32368   0.936   2.503   6.872  0.0325 -0.1860  0.1952
 6970SOL    HW132369   1.021   2.532   6.905  0.6443  0.3858 -1.8397
 6970SOL    HW232370   0.901   2.576   6.819  1.0198  1.7895  2.2689
 6971SOL     OW32371   3.526   0.280   5.382 -0.1911 -0.3004  0.7051
 6971SOL    HW132372   3.441   0.235   5.388 -0.7034  0.5728 -0.0055
 6971SOL    HW232373   3.551   0.276   5.475  1.2750  0.3537  0.3327
 6972SOL     OW32374   0.882   3.478   3.549 -0.2364  0.7529 -0.0889
 6972SOL    HW132375   0.899   3.559   3.502 -0.1870  0.3865 -0.6959
 6972SOL    HW232376   0.822   3.515   3.614  0.8978  0.4093  1.1466
 6973SOL     OW32377   3.117   0.395  10.151 -0.4807  0.9106 -0.6494
 6973SOL    HW132378   3.089   0.306  10.173 -3.4890  1.4854 -2.1544
 6973SOL    HW232379   3.034   0.442  10.155 -0.0310  1.4806  1.7295
 6974SOL     OW32380   2.786   4.286   4.808  0.1838 -0.4428 -0.1105
 6974SOL    HW132381   2.792   4.380   4.821  2.2861 -0.2829 -2.2267
 6974SOL    HW232382   2.865   4.249   4.849 -0.2041  1.4514  2.2738
 6975SOL     OW32383   0.678   2.216   1.265 -0.1017  0.1261 -0.5080
 6975SOL    HW132384   0.772   2.230   1.252  0.0980 -1.8380 -1.2729
 6975SOL    HW232385   0.692   2.145   1.328  3.0877 -0.2933 -1.6523
 6976SOL     OW32386   1.057   3.629   8.135 -0.5682  0.5264  0.7006
 6976SOL    HW132387   1.009   3.602   8.214 -0.6917 -1.8661 -0.2028
 6976SOL    HW232388   1.145   3.636   8.174 -0.1040  2.6944 -0.7099
 6977SOL     OW32389   0.647   3.493   2.080  0.4311 -0.1513  0.2819
 6977SOL    HW132390   0.650   3.448   1.996 -0.9340  1.3383 -0.5491
 6977SOL    HW232391   0.563   3.455   2.107  0.1848 -0.8402 -1.4249
 6978SOL     OW32392   3.497   2.538  14.471 -0.1919  0.6678 -0.1253
 6978SOL    HW132393   3.500   2.442  14.470  0.7318  0.6941 -0.2287
 6978SOL    HW232394   3.521   2.550  14.379  1.2364  3.5791  0.6273
 6979SOL     OW32395   3.958   2.183  14.349 -0.2240 -0.0038 -0.3218
 6979SOL    HW132396   4.039   2.144  14.316 -0.8732  0.0885 -2.0177
 6979SOL    HW232397   3.981   2.207  14.439  2.7056 -1.5599 -0.6219
 6980SOL     OW32398   0.503   1.965   4.161 -0.1602  0.1199  0.0258
 6980SOL    HW132399   0.470   1.888   4.115 -1.8615  0.8476  0.0305
 6980SOL    HW232400   0.574   1.929   4.215  1.1283  0.8127 -1.1977
 6981SOL     OW32401   2.027   1.262   7.183 -0.5780 -0.2133  0.2781
 6981SOL    HW132402   1.943   1.297   7.213 -0.5050  0.0078  0.2246
 6981SOL    HW232403   2.081   1.339   7.200 -1.2836  0.4685 -0.5828
 6982SOL     OW32404   0.009   3.394  13.189 -0.1959  0.1886 -0.5710
 6982SOL    HW132405   0.097   3.359  13.197 -0.8578 -1.2834  0.1320
 6982SOL    HW232406   4.685   3.310  13.194 -2.3356  1.3476 -0.8493
 6983SOL     OW32407   1.333   3.239  15.211 -0.1261 -0.1944 -0.1228
 6983SOL    HW132408   1.279   3.310  15.248 -1.5775 -1.4284  0.1131
 6983SOL    HW232409   1.380   3.285  15.141  0.4416 -0.6563 -0.0440
 6984SOL     OW32410   3.332   1.397   5.716  0.0602 -0.2274 -0.2520
 6984SOL    HW132411   3.382   1.363   5.641 -0.4632 -2.9217  0.6448
 6984SOL    HW232412   3.316   1.315   5.762 -1.4221 -0.9870 -2.1316
 6985SOL     OW32413   2.441   4.591  11.530 -0.4093  0.3969  0.1946
 6985SOL    HW132414   2.502   4.561  11.463  0.3877  1.5200  0.4057
 6985SOL    HW232415   2.391   4.658  11.483 -1.2141  1.3830  2.4626
 6986SOL     OW32416   2.527   0.834   2.968 -0.1160  0.1641  0.0933
 6986SOL    HW132417   2.513   0.837   2.874 -1.4867 -0.5722  0.2653
 6986SOL    HW232418   2.586   0.909   2.975 -0.7977  0.7315 -0.2922
 6987SOL     OW32419   0.579   0.231   2.956  0.3137 -0.1543 -0.1528
 6987SOL    HW132420   0.560   0.152   2.907  1.9543 -0.8682  0.3639
 6987SOL    HW232421   0.673   0.240   2.939  0.0946 -1.0866 -1.7976
 6988SOL     OW32422   3.375   1.719   9.387  0.2993  0.2447 -0.5248
 6988SOL    HW132423   3.356   1.796   9.442  1.0545  0.8317 -1.0804
 6988SOL    HW232424   3.445   1.670   9.430 -1.0341 -1.3288 -0.1491
 6989SOL     OW32425   2.732   1.753  15.282  0.0748 -0.0724  0.1284
 6989SOL    HW132426   2.800   1.709  15.231  0.4510  0.6009  0.0578
 6989SOL    HW232427   2.675   1.766  15.207 -0.5470  0.2554  0.6560
 6990SOL     OW32428   4.446   0.965   1.149  0.2835 -0.4638  0.6064
 6990SOL    HW132429   4.492   1.049   1.144  0.3586 -0.4642  1.3001
 6990SOL    HW232430   4.456   0.942   1.241 -2.1514  0.8157  1.1857
 6991SOL     OW32431   4.265   4.388   2.194  0.0617  0.1059 -0.2394
 6991SOL    HW132432   4.266   4.431   2.108 -1.5136  1.0238  0.1942
 6991SOL    HW232433   4.189   4.331   2.177  0.5241 -0.0753 -1.7095
 6992SOL     OW32434   2.686   0.873   4.734 -0.3881 -0.0822  0.1363
 6992SOL    HW132435   2.712   0.965   4.746  0.8689 -0.1099 -2.3771
 6992SOL    HW232436   2.748   0.846   4.666 -1.8695  1.2320 -1.7297
 6993SOL     OW32437   4.515   2.867   5.029 -0.1504  0.2416  0.4798
 6993SOL    HW132438   4.451   2.922   4.984 -0.5375 -0.4646  0.1573
 6993SOL    HW232439   4.464   2.790   5.054 -0.7893  1.0657  1.6973
 6994SOL     OW32440   0.234   3.746   9.677  0.5398  0.1006  0.0815
 6994SOL    HW132441   0.319   3.776   9.711  0.3514 -1.0744  1.5437
 6994SOL    HW232442   0.209   3.825   9.629  0.3780  0.2497  0.4160
 6995SOL     OW32443   4.039   0.170   0.502 -0.0774 -0.4632  0.2456
 6995SOL    HW132444   4.077   0.092   0.461  2.1323  0.9413 -0.3834
 6995SOL    HW232445   4.041   0.156   0.597  1.4722  2.4170  0.6387
 6996SOL     OW32446   1.013   1.045   9.056 -0.5324  0.0546 -0.0668
 6996SOL    HW132447   1.042   0.958   9.082 -2.2709 -1.1414 -2.1911
 6996SOL    HW232448   0.992   1.086   9.140 -0.5296  0.5568 -0.3103
 6997SOL     OW32449   2.733   0.219   4.114  0.0320  0.1776 -0.3224
 6997SOL    HW132450   2.780   0.189   4.192 -0.7718  1.8162  0.7762
 6997SOL    HW232451   2.768   0.150   4.058 -0.8352 -0.3003 -0.2725
 6998SOL     OW32452   1.683   0.324   8.252  0.0023  0.1333  0.0432
 6998SOL    HW132453   1.628   0.303   8.328 -0.3291  2.3252  0.4190
 6998SOL    HW232454   1.638   0.279   8.180  1.6897  0.0440 -0.9471
 6999SOL     OW32455   0.943   1.284   3.110 -0.5782 -0.2751  0.3216
 6999SOL    HW132456   0.911   1.213   3.166 -0.5556  2.1440  3.3632
 6999SOL    HW232457   0.886   1.358   3.129  0.6554  0.1381  2.2978
 7000SOL     OW32458   1.956   0.922  10.859 -0.5593 -0.1155  0.1582
 7000SOL    HW132459   1.917   1.009  10.857  0.2657  0.2415 -0.7144
 7000SOL    HW232460   2.044   0.931  10.821 -0.1234  0.0275  1.2166
 7001SOL     OW32461   1.064   3.072   7.092 -0.4046  0.4995 -0.0937
 7001SOL    HW132462   1.147   3.109   7.121 -0.6320 -0.1828  1.4380
 7001SOL    HW232463   1.051   3.016   7.169 -0.4245 -0.2464 -0.6410
 7002SOL     OW32464   2.031   3.369   8.136 -0.0439 -0.5463 -0.3537
 7002SOL    HW132465   2.119   3.384   8.168 -0.6503 -1.0250  1.5360
 7002SOL    HW232466   2.008   3.458   8.112 -0.5984 -1.1648 -2.1065
 7003SOL     OW32467   1.839   0.739  13.936 -0.2664 -0.1253  0.0975
 7003SOL    HW132468   1.761   0.771  13.982 -0.4667  1.5278 -1.3951
 7003SOL    HW232469   1.805   0.666  13.885  1.5932 -1.3032  0.5427
 7004SOL     OW32470   1.843   1.903   9.235 -0.6570 -0.3160  0.1927
 7004SOL    HW132471   1.799   1.905   9.320  0.5329 -0.2775  0.8064
 7004SOL    HW232472   1.889   1.819   9.236 -0.4237 -0.1830  0.4110
 7005SOL     OW32473   3.394   4.621   5.481 -0.6743  0.1030  0.0735
 7005SOL    HW132474   3.474   4.598   5.433 -1.5678  2.9156 -2.6930
 7005SOL    HW232475   3.421   4.663   5.563  2.1159  1.4432 -1.5545
 7006SOL     OW32476   4.499   4.357   2.950 -0.4334 -0.1401  0.7579
 7006SOL    HW132477   4.526   4.315   3.031  1.8067 -1.1424 -0.5266
 7006SOL    HW232478   4.411   4.321   2.941 -0.0742 -0.8070 -0.1410
 7007SOL     OW32479   1.196   4.656   7.244  0.4052  0.5265 -0.0713
 7007SOL    HW132480   1.127   4.682   7.306 -0.0451 -0.5993 -0.1072
 7007SOL    HW232481   1.145   4.587   7.203  1.6602 -0.5734  0.2287
 7008SOL     OW32482   4.420   0.085   7.918 -0.4315  0.9900 -0.1949
 7008SOL    HW132483   4.453   0.175   7.923  2.6690 -0.3703  3.5242
 7008SOL    HW232484   4.489   0.041   7.870 -0.0669 -0.7344  1.9336
 7009SOL     OW32485   3.629   3.818   6.640 -0.2452  0.3986  0.5558
 7009SOL    HW132486   3.670   3.833   6.555  3.4368  2.0488  2.6428
 7009SOL    HW232487   3.582   3.901   6.651 -2.5863 -0.6350 -1.6168
 7010SOL     OW32488   2.180   2.278   3.257 -0.3592  0.2655  0.4293
 7010SOL    HW132489   2.106   2.339   3.255 -2.0315 -1.7049  2.1038
 7010SOL    HW232490   2.147   2.215   3.322  0.5987  1.3230  1.9318
 7011SOL     OW32491   3.897   1.171   1.733  0.2169  0.0344 -0.3771
 7011SOL    HW132492   3.905   1.106   1.803  0.0296  0.9049  0.4425
 7011SOL    HW232493   3.958   1.232   1.773  1.6834  0.0721 -2.7099
 7012SOL     OW32494   3.158   3.195   5.614  0.3022  0.4693  0.3358
 7012SOL    HW132495   3.190   3.283   5.631 -0.6590  1.0901 -1.0268
 7012SOL    HW232496   3.077   3.185   5.663  0.4743  0.0248  0.5271
 7013SOL     OW32497   4.471   1.505   6.859  0.1658 -0.6206 -0.2676
 7013SOL    HW132498   4.501   1.496   6.769 -1.6250 -1.1285 -0.8199
 7013SOL    HW232499   4.537   1.564   6.896 -1.5042  2.1203 -1.6884
 7014SOL     OW32500   3.360   3.303   4.408 -0.1132 -0.4235  0.0878
 7014SOL    HW132501   3.280   3.343   4.374  0.2492 -0.2664 -0.5750
 7014SOL    HW232502   3.340   3.311   4.502  0.2344  0.1744  0.1103
 7015SOL     OW32503   3.494   2.872   0.366  0.1910 -0.1521 -0.2759
 7015SOL    HW132504   3.460   2.896   0.280 -1.3686 -2.1831 -0.2062
 7015SOL    HW232505   3.420   2.854   0.423  1.1553 -1.8850  0.4176
 7016SOL     OW32506   4.390   2.178  15.795 -0.5606 -0.1712  0.5517
 7016SOL    HW132507   4.318   2.115  15.792  1.3798 -2.2079 -2.7339
 7016SOL    HW232508   4.349   2.251  15.841  3.4795  1.3541  1.7827
 7017SOL     OW32509   0.293   0.823   7.746  0.1579  0.1557 -0.5156
 7017SOL    HW132510   0.362   0.771   7.788 -1.1643 -2.6352 -1.7601
 7017SOL    HW232511   0.286   0.778   7.662 -1.4896 -1.2529  0.3771
 7018SOL     OW32512   4.345   3.248   2.949 -0.5158  0.4901 -0.3702
 7018SOL    HW132513   4.334   3.342   2.935 -2.3661  0.6422  2.0630
 7018SOL    HW232514   4.253   3.222   2.939 -0.2214 -0.6883  0.0156
 7019SOL     OW32515   3.267   3.712   6.657 -0.3336 -0.1378  0.2800
 7019SOL    HW132516   3.206   3.770   6.612 -2.2962 -0.5874  2.3734
 7019SOL    HW232517   3.218   3.633   6.679  0.3591 -0.4280  0.7772
 7020SOL     OW32518   3.666   0.370  16.839 -0.1826 -0.0300 -0.3154
 7020SOL    HW132519   3.661   0.430  16.914  1.4713 -0.7016  0.3349
 7020SOL    HW232520   3.744   0.318  16.857 -1.1958 -1.3585  0.2176
 7021SOL     OW32521   4.138   2.070   2.216  0.7070  0.1189 -0.1926
 7021SOL    HW132522   4.192   2.061   2.138 -2.4705 -2.1545 -2.1292
 7021SOL    HW232523   4.156   2.161   2.241  0.4713  0.5062 -1.4008
 7022SOL     OW32524   2.981   4.573   0.408 -0.0142  0.6219 -0.0249
 7022SOL    HW132525   2.965   4.487   0.449  0.3678  1.2121  1.3601
 7022SOL    HW232526   2.893   4.610   0.416 -0.2240  0.2984 -0.8865
 7023SOL     OW32527   1.032   0.418   0.198 -0.5236  0.5673 -0.1327
 7023SOL    HW132528   1.099   0.354   0.174 -1.9228  0.0227 -2.5202
 7023SOL    HW232529   0.978   0.425   0.119 -2.3515  0.0584  1.0792
 7024SOL     OW32530   3.322   4.260  11.931 -0.2214  0.3589  0.2690
 7024SOL    HW132531   3.408   4.244  11.969  0.2161 -1.8802 -1.6899
 7024SOL    HW232532   3.353   4.291  11.846  1.9645 -3.6286 -0.4099
 7025SOL     OW32533   4.367   2.980   5.406  0.0866 -1.0180  0.2459
 7025SOL    HW132534   4.374   2.997   5.312 -0.4545  2.8979  0.9075
 7025SOL    HW232535   4.306   2.907   5.397 -0.3155 -0.3291 -2.7046
 7026SOL     OW32536   1.993   0.150   3.309 -0.4476  0.3033 -0.2940
 7026SOL    HW132537   1.963   0.103   3.231 -0.3610 -0.8702  0.3885
 7026SOL    HW232538   2.056   0.214   3.275 -0.6889  0.4304 -0.5054
 7027SOL     OW32539   4.239   1.028   3.583 -0.6756  0.4912 -0.5191
 7027SOL    HW132540   4.186   1.088   3.532 -0.4754 -1.4296 -3.0074
 7027SOL    HW232541   4.321   1.032   3.534  1.3472  0.7484  2.8859
 7028SOL     OW32542   2.038   3.413   1.160 -0.0784  0.2302  0.3678
 7028SOL    HW132543   2.117   3.401   1.212 -0.0252 -0.8080  0.0411
 7028SOL    HW232544   1.973   3.449   1.220 -2.1731 -2.4320 -0.3280
 7029SOL     OW32545   1.641   4.233   1.130 -0.1187 -0.7899 -0.8141
 7029SOL    HW132546   1.715   4.192   1.084 -0.4102  0.4423 -2.3918
 7029SOL    HW232547   1.604   4.292   1.064  1.0567 -0.5844 -1.2941
 7030SOL     OW32548   2.459   3.060   5.593  0.1362 -0.3367  0.1959
 7030SOL    HW132549   2.433   3.007   5.668  1.7271  0.2920  1.1817
 7030SOL    HW232550   2.484   3.141   5.638  0.9575 -0.3063 -0.3173
 7031SOL     OW32551   1.257   3.597   6.438 -0.0808  0.3623  0.2181
 7031SOL    HW132552   1.220   3.563   6.520 -1.2528  0.8710 -0.0987
 7031SOL    HW232553   1.198   3.548   6.380  2.3736 -1.4969 -0.6903
 7032SOL     OW32554   4.162   3.202   8.181  0.3118  0.5009 -0.1493
 7032SOL    HW132555   4.175   3.288   8.142 -1.3651  1.1034  0.6225
 7032SOL    HW232556   4.248   3.162   8.167  0.8169  1.1981  0.9849
 7033SOL     OW32557   2.339   3.293   7.186  0.0539 -0.3646 -0.2453
 7033SOL    HW132558   2.352   3.372   7.238 -0.6745 -0.5419  0.2101
 7033SOL    HW232559   2.424   3.288   7.143  0.2215 -1.0235  0.1697
 7034SOL     OW32560   2.988   2.053  11.718  0.0270  0.6603 -0.6692
 7034SOL    HW132561   2.939   1.977  11.749  1.2806 -0.3010 -1.0633
 7034SOL    HW232562   2.974   2.045  11.624  1.2361  1.3504 -0.9034
 7035SOL     OW32563   1.113   3.098   2.833  0.1909 -0.1647 -0.1818
 7035SOL    HW132564   1.055   3.108   2.757  1.2292 -0.3925 -0.9985
 7035SOL    HW232565   1.058   3.073   2.908  0.0431  2.2651  0.5470
 7036SOL     OW32566   4.685   0.681   3.735 -0.4218  0.4565  0.4222
 7036SOL    HW132567   4.611   0.725   3.694 -0.5410 -0.2708 -0.1526
 7036SOL    HW232568   4.709   0.623   3.662  0.3685 -0.4098  1.3580
 7037SOL     OW32569   2.694   2.491   4.334 -0.1805 -0.0264  0.4629
 7037SOL    HW132570   2.769   2.544   4.306  0.5345  0.5575  3.5705
 7037SOL    HW232571   2.653   2.553   4.394  1.8859  1.6984  0.0947
 7038SOL     OW32572   3.319   1.447   7.370  0.0915  0.3645  0.1505
 7038SOL    HW132573   3.266   1.393   7.429  0.1484 -0.4879 -0.5814
 7038SOL    HW232574   3.402   1.400   7.362 -0.9518 -1.3301 -0.5353
 7039SOL     OW32575   0.996   2.076   6.520 -0.1424  0.3275  0.3540
 7039SOL    HW132576   1.039   2.059   6.436  0.6775  0.6519  0.7112
 7039SOL    HW232577   1.046   2.153   6.547  3.3469 -1.1388 -1.9141
 7040SOL     OW32578   3.459   4.154  11.052 -0.1775 -0.5264 -0.1839
 7040SOL    HW132579   3.540   4.161  11.103  0.9329  1.4008 -2.2219
 7040SOL    HW232580   3.465   4.061  11.033  0.1342 -0.0065 -2.5865
 7041SOL     OW32581   0.897   2.695   8.639 -0.6613 -0.1665  0.4063
 7041SOL    HW132582   0.814   2.687   8.591 -0.6204  2.4577 -0.1530
 7041SOL    HW232583   0.940   2.772   8.600 -0.3417 -0.9171 -0.7134
 7042SOL     OW32584   0.690   0.786  16.492 -0.4600  0.5953  0.7409
 7042SOL    HW132585   0.669   0.698  16.459 -0.4634  0.8883 -0.0368
 7042SOL    HW232586   0.743   0.805  16.415 -0.9083 -1.5480 -0.0999
 7043SOL     OW32587   3.314   4.713   2.411 -0.2807 -0.0785 -0.1714
 7043SOL    HW132588   3.381   4.712   2.342 -0.7576  1.0173 -0.6415
 7043SOL    HW232589   3.258   0.055   2.368 -0.0716 -1.6059 -2.7123
 7044SOL     OW32590   4.201   0.710   5.390 -0.1139  0.0512  0.3873
 7044SOL    HW132591   4.263   0.658   5.443  0.9095  1.0768  0.1987
 7044SOL    HW232592   4.162   0.641   5.337  1.7899 -1.0356  0.3882
 7045SOL     OW32593   0.811   4.656   1.994  0.2996  0.2007  0.1060
 7045SOL    HW132594   0.800   0.016   1.945 -0.9698 -0.1817 -0.2409
 7045SOL    HW232595   0.877   4.622   1.934  0.4652 -0.8230  0.8593
 7046SOL     OW32596   0.768   3.314   0.543  0.2950  0.0707 -0.7061
 7046SOL    HW132597   0.716   3.394   0.560  1.7972  0.9959 -0.4638
 7046SOL    HW232598   0.706   3.248   0.513  0.1564 -0.0406 -0.1819
 7047SOL     OW32599   0.024   2.600   3.148  0.1235 -0.2769 -0.1070
 7047SOL    HW132600   0.001   2.645   3.229 -2.4381 -1.7024 -0.0452
 7047SOL    HW232601   0.103   2.647   3.121 -0.2791 -0.9084 -2.4050
 7048SOL     OW32602   1.718   2.694  15.888 -0.0032 -0.2678 -0.3517
 7048SOL    HW132603   1.630   2.662  15.867 -0.6759  1.3892 -0.0563
 7048SOL    HW232604   1.705   2.787  15.905  0.4851 -0.2260 -0.1957
 7049SOL     OW32605   1.505   0.601   6.343  0.5996  0.6131  0.2865
 7049SOL    HW132606   1.586   0.600   6.291  1.2363  1.0538  1.2766
 7049SOL    HW232607   1.532   0.639   6.426  1.4849  1.2759 -0.3149
 7050SOL     OW32608   2.458   1.814  16.653  0.4538 -0.0958  0.1892
 7050SOL    HW132609   2.551   1.821  16.629  0.6198  0.7963  1.0862
 7050SOL    HW232610   2.457   1.833  16.747 -2.2196 -0.5006  0.2373
 7051SOL     OW32611   4.042   3.348   4.653  0.8015 -0.3280 -0.1601
 7051SOL    HW132612   4.003   3.261   4.640  1.2956 -1.0532  3.2137
 7051SOL    HW232613   4.030   3.369   4.746 -1.7716  1.0556 -0.7982
 7052SOL     OW32614   4.444   2.319   7.516  0.3010 -0.9573 -0.4144
 7052SOL    HW132615   4.489   2.353   7.594  1.4777 -2.7265 -0.3370
 7052SOL    HW232616   4.351   2.333   7.534  0.6693 -0.7816  1.3547
 7053SOL     OW32617   1.220   1.876   9.090 -0.5465  0.6706 -0.1555
 7053SOL    HW132618   1.129   1.874   9.119 -0.9286  0.6715 -1.3305
 7053SOL    HW232619   1.189   1.840   9.006 -1.0408 -0.5962  0.5641
 7054SOL     OW32620   0.045   0.174  13.162  0.2631 -0.2312  0.3511
 7054SOL    HW132621   4.693   0.213  13.116  0.4630  1.8777  1.7887
 7054SOL    HW232622   0.119   0.219  13.122 -0.3783  0.6236  0.1151
 7055SOL     OW32623   3.404   0.642   9.199 -0.6686  0.4530  0.7471
 7055SOL    HW132624   3.459   0.564   9.211 -1.7745 -0.6867 -1.6339
 7055SOL    HW232625   3.468   0.710   9.219 -2.3059  1.8335  1.2667
 7056SOL     OW32626   0.579   2.775   4.871  0.0195  0.3461  0.4387
 7056SOL    HW132627   0.649   2.719   4.837  0.7892  0.9247  1.0578
 7056SOL    HW232628   0.528   2.706   4.913 -0.9141  0.2070 -0.9331
 7057SOL     OW32629   4.643   1.885   3.941 -0.0816  0.1115  0.6608
 7057SOL    HW132630   4.596   1.803   3.960  0.1158 -0.0278  0.5440
 7057SOL    HW232631   0.011   1.856   3.935 -0.1866 -0.2506  0.7857
 7058SOL     OW32632   3.119   0.420   3.683 -0.0753  0.2307  0.4328
 7058SOL    HW132633   3.063   0.345   3.662  0.5353 -0.1167  0.0354
 7058SOL    HW232634   3.170   0.450   3.607 -0.4674  3.1771  1.3229
 7059SOL     OW32635   4.494   4.580   1.592  0.0344  0.4654  0.7009
 7059SOL    HW132636   4.439   4.533   1.654  1.5624 -1.5264  0.5476
 7059SOL    HW232637   4.497   4.662   1.641 -2.1042  0.7764  0.3231
 7060SOL     OW32638   1.695   3.809   5.928  0.3337 -0.1029  0.2435
 7060SOL    HW132639   1.623   3.814   5.991 -1.3355 -0.8554 -1.6138
 7060SOL    HW232640   1.699   3.719   5.896  1.5958  0.3403 -0.8219
 7061SOL     OW32641   4.642   1.767   6.256 -0.3420 -0.2899 -0.6292
 7061SOL    HW132642   4.598   1.808   6.331  0.6442 -1.2589  0.4749
 7061SOL    HW232643   4.582   1.694   6.242 -1.3911  0.8531 -1.9953
 7062SOL     OW32644   4.391   3.195   3.852  0.0438  0.9730 -0.6320
 7062SOL    HW132645   4.296   3.183   3.844 -0.2602  1.1459  2.6377
 7062SOL    HW232646   4.405   3.105   3.882 -1.2093  0.5487 -1.3079
 7063SOL     OW32647   0.807   1.483   7.062 -0.0073  0.0591  0.0188
 7063SOL    HW132648   0.761   1.545   7.005 -2.1429 -1.7392 -0.2215
 7063SOL    HW232649   0.866   1.538   7.114 -0.8920  0.7090  0.3448
 7064SOL     OW32650   3.423   3.448   2.250  0.6011 -0.0205  0.3046
 7064SOL    HW132651   3.386   3.535   2.267  0.5312  0.0247 -0.0671
 7064SOL    HW232652   3.507   3.455   2.296  0.7501  1.4455 -0.2032
 7065SOL     OW32653   0.568   0.765  10.142  0.4389 -0.0765 -0.1009
 7065SOL    HW132654   0.601   0.780  10.231 -0.1337  0.5331  0.0142
 7065SOL    HW232655   0.566   0.670  10.131 -0.1090 -0.1792  0.7871
 7066SOL     OW32656   4.228   0.584   2.836 -0.1131  1.0469 -0.2133
 7066SOL    HW132657   4.169   0.574   2.911  3.5770 -1.6809  2.3397
 7066SOL    HW232658   4.297   0.530   2.874  0.4891  0.9189 -1.4772
 7067SOL     OW32659   0.699   4.439   6.896  0.0346 -0.1667 -0.0545
 7067SOL    HW132660   0.624   4.428   6.954 -0.2637  0.7339 -0.2599
 7067SOL    HW232661   0.768   4.453   6.961  1.1107 -2.9481 -0.6050
 7068SOL     OW32662   1.122   3.530   6.218  1.0482 -0.1753  0.1617
 7068SOL    HW132663   1.099   3.621   6.235 -1.2807 -0.4683 -1.3282
 7068SOL    HW232664   1.078   3.506   6.137 -0.3075 -3.9739  2.0285
 7069SOL     OW32665   2.827   1.183   6.462  0.0398 -0.3820  0.0638
 7069SOL    HW132666   2.860   1.147   6.544 -0.0147  1.5402  0.9219
 7069SOL    HW232667   2.905   1.179   6.407 -0.7608 -0.7689 -1.0371
 7070SOL     OW32668   0.047   3.688  17.201  0.0937  0.4107 -0.0034
 7070SOL    HW132669   0.129   3.653  17.167  0.9028  0.8467  1.5154
 7070SOL    HW232670   0.068   3.780  17.185  0.2762  0.4464  0.4557
 7071SOL     OW32671   2.073   3.243   9.934 -0.0668  0.0928  0.4609
 7071SOL    HW132672   2.038   3.260  10.021 -0.0765 -1.1969  0.7138
 7071SOL    HW232673   2.079   3.328   9.890 -0.2993  0.1085  0.4618
 7072SOL     OW32674   3.772   3.381  15.233  0.2171  0.4962 -0.2735
 7072SOL    HW132675   3.804   3.428  15.310  0.7836  1.4743 -1.0983
 7072SOL    HW232676   3.776   3.448  15.165 -2.7065  0.0541 -0.8653
 7073SOL     OW32677   4.150   1.852   4.554  0.2863  0.1473  0.0546
 7073SOL    HW132678   4.205   1.795   4.500 -2.2319 -2.3551  0.1574
 7073SOL    HW232679   4.213   1.882   4.620  2.4957 -0.2017 -1.8973
 7074SOL     OW32680   0.248   4.620   6.429  0.3168 -0.2182  0.1217
 7074SOL    HW132681   0.287   4.691   6.379  0.8429 -1.5959 -1.4549
 7074SOL    HW232682   0.303   4.605   6.506  0.3795 -2.8621 -0.4162
 7075SOL     OW32683   2.675   3.720  15.251  0.3867 -0.1947 -0.2951
 7075SOL    HW132684   2.753   3.774  15.263  0.5008 -0.4418  0.0547
 7075SOL    HW232685   2.632   3.727  15.337 -0.2131 -1.7954 -0.4644
 7076SOL     OW32686   4.057   2.494   0.939 -0.5221  0.6302  0.6330
 7076SOL    HW132687   4.032   2.405   0.963 -0.5982  0.3361 -0.4986
 7076SOL    HW232688   4.142   2.482   0.895 -0.1822  1.9454  0.9365
 7077SOL     OW32689   1.569   1.434   6.516 -0.9523  0.0780  0.5981
 7077SOL    HW132690   1.512   1.490   6.463  0.3313  1.3649  0.5834
 7077SOL    HW232691   1.654   1.452   6.477 -1.5549 -0.1263 -0.8187
 7078SOL     OW32692   0.511   4.308   2.397 -0.3497 -0.1187 -0.1173
 7078SOL    HW132693   0.545   4.219   2.400 -0.3232 -0.1906 -2.1344
 7078SOL    HW232694   0.478   4.319   2.307  4.5962 -0.9891 -2.0035
 7079SOL     OW32695   0.003   1.963  11.089 -0.8475 -0.4627 -0.4159
 7079SOL    HW132696   4.652   2.013  11.125  0.2628  0.9601 -0.1309
 7079SOL    HW232697   0.081   2.006  11.124 -0.5976 -0.4614 -0.9804
 7080SOL     OW32698   2.711   3.504   4.567 -0.2628  0.2948 -0.3272
 7080SOL    HW132699   2.719   3.416   4.604 -1.0487  0.4399  0.1947
 7080SOL    HW232700   2.728   3.559   4.643  1.9867 -3.4984  1.8714
 7081SOL     OW32701   0.518   3.762   3.198  0.5543  0.2195 -0.1331
 7081SOL    HW132702   0.438   3.798   3.160 -1.0688 -0.7867  2.3331
 7081SOL    HW232703   0.481   3.689   3.246  0.8060 -0.6370 -1.2529
 7082SOL     OW32704   2.753   3.519  17.122 -0.2013  0.3183  0.6484
 7082SOL    HW132705   2.688   3.578  17.161  0.5411 -0.0993  2.5113
 7082SOL    HW232706   2.828   3.578  17.121 -0.1850  0.2307 -2.0808
 7083SOL     OW32707   4.382   3.525   5.215 -0.2443  0.4456 -0.2302
 7083SOL    HW132708   4.433   3.603   5.193  0.5356 -0.2906 -1.0451
 7083SOL    HW232709   4.302   3.567   5.246 -1.7069 -0.5900 -2.5882
 7084SOL     OW32710   1.108   3.318   4.825  0.4563  0.3733 -0.3109
 7084SOL    HW132711   1.046   3.386   4.849  1.3706  1.6573 -1.6258
 7084SOL    HW232712   1.118   3.283   4.914  0.6273  0.5335 -0.2672
 7085SOL     OW32713   4.053   1.226   8.740  0.5670  0.4271  0.4752
 7085SOL    HW132714   4.048   1.172   8.818 -1.6370 -0.5500 -0.3654
 7085SOL    HW232715   3.965   1.265   8.741  0.2260 -0.3316 -1.1746
 7086SOL     OW32716   1.813   0.793   6.735  0.0795  0.5516 -0.0496
 7086SOL    HW132717   1.834   0.743   6.814  2.0604  1.1144 -0.2054
 7086SOL    HW232718   1.899   0.787   6.692 -1.0198 -2.2647 -1.8867
 7087SOL     OW32719   3.463   3.211   4.919  0.3143 -0.2205 -0.1968
 7087SOL    HW132720   3.398   3.146   4.948 -0.3264  0.4630 -0.1154
 7087SOL    HW232721   3.526   3.147   4.887 -0.2979 -1.6283  1.3986
 7088SOL     OW32722   3.815   3.336   8.616 -0.5052  0.1509  0.7266
 7088SOL    HW132723   3.846   3.381   8.695  1.8470 -0.7767  0.3216
 7088SOL    HW232724   3.827   3.413   8.561  2.8373 -1.5657 -0.9413
 7089SOL     OW32725   0.671   0.600   4.638  0.0888  0.2233  0.0239
 7089SOL    HW132726   0.713   0.516   4.620  0.8393  0.1981  1.9469
 7089SOL    HW232727   0.719   0.652   4.574  1.8194 -0.4089  0.8125
 7090SOL     OW32728   2.085   1.484   4.156 -0.0304 -0.5064  0.7401
 7090SOL    HW132729   2.122   1.572   4.151  2.8653 -1.6692  1.6053
 7090SOL    HW232730   2.156   1.435   4.116 -0.0856 -0.3116  0.4055
 7091SOL     OW32731   2.967   0.690   0.135 -0.7155  0.6131 -0.1809
 7091SOL    HW132732   3.050   0.670   0.091 -1.8232 -0.0839 -1.9535
 7091SOL    HW232733   2.897   0.678   0.072  0.0981  0.1569 -1.0026
 7092SOL     OW32734   4.430   4.051   5.953 -0.1710 -0.5615  0.2266
 7092SOL    HW132735   4.428   4.019   6.043 -1.2494 -1.7703 -0.2356
 7092SOL    HW232736   4.471   4.137   5.965  1.2838 -1.2477  0.2092
 7093SOL     OW32737   0.087   2.221   3.391  0.2770 -0.5029  0.1492
 7093SOL    HW132738   0.065   2.132   3.419  0.9980 -0.6934  0.1056
 7093SOL    HW232739   0.109   2.260   3.476  0.7690 -0.0854 -0.1761
 7094SOL     OW32740   4.644   2.766   7.804  0.2357 -0.5395  0.0031
 7094SOL    HW132741   0.016   2.761   7.789 -0.2677 -2.4646 -2.5184
 7094SOL    HW232742   4.618   2.825   7.734  1.2698 -1.5024 -1.1854
 7095SOL     OW32743   0.039   1.593   9.126 -0.0939 -0.1319  0.4049
 7095SOL    HW132744   4.701   1.536   9.080 -2.8336  1.3436  2.1738
 7095SOL    HW232745   0.033   1.677   9.080 -2.0965 -1.5491 -1.9132
 7096SOL     OW32746   3.917   0.725  12.955  0.2617 -0.2917 -0.3729
 7096SOL    HW132747   3.921   0.807  12.906 -1.9652 -0.5446 -0.9536
 7096SOL    HW232748   4.008   0.701  12.939  0.3367 -0.5302  0.4024
 7097SOL     OW32749   2.442   3.540   5.059 -0.2380 -0.1213  0.5776
 7097SOL    HW132750   2.373   3.541   4.992 -2.6121  1.9678  3.0720
 7097SOL    HW232751   2.391   3.513   5.136 -0.3797  1.0946  0.9088
 7098SOL     OW32752   4.359   3.405  12.467 -0.2790 -0.2441 -0.1497
 7098SOL    HW132753   4.320   3.441  12.546  1.5944  2.5413 -0.4917
 7098SOL    HW232754   4.365   3.313  12.492  0.1289  0.1527  1.1704
 7099SOL     OW32755   3.786   0.975   9.397 -0.1569  0.5525 -0.6005
 7099SOL    HW132756   3.786   1.040   9.467 -1.1604  0.2042 -0.2721
 7099SOL    HW232757   3.820   1.027   9.324  0.7900  0.1631 -0.4366
 7100SOL     OW32758   4.618   1.162   4.812  0.0409 -0.0038  0.1651
 7100SOL    HW132759   4.539   1.201   4.848 -0.2485 -1.2751  0.9055
 7100SOL    HW232760   4.680   1.152   4.884 -1.2969 -0.2127  1.2836
 7101SOL     OW32761   3.145   0.756   5.389 -0.0160  0.0757  0.0885
 7101SOL    HW132762   3.085   0.764   5.315  1.6765 -2.6097 -1.5876
 7101SOL    HW232763   3.088   0.710   5.451 -0.9673 -0.4963 -1.2029
 7102SOL     OW32764   1.235   0.603   5.777  0.3610 -0.4392 -0.0205
 7102SOL    HW132765   1.309   0.563   5.823  0.1140 -1.3703 -0.4358
 7102SOL    HW232766   1.222   0.677   5.836 -0.5856 -0.6731  0.0688
 7103SOL     OW32767   1.744   4.191  14.554  0.6637 -0.1927 -0.1075
 7103SOL    HW132768   1.697   4.262  14.597 -0.1695 -1.3760  0.9449
 7103SOL    HW232769   1.682   4.122  14.577 -0.2562 -0.2938 -2.8764
 7104SOL     OW32770   3.771   0.010   2.628  0.0828  0.3515 -0.3327
 7104SOL    HW132771   3.756   0.038   2.718 -0.1399 -0.4311 -0.1228
 7104SOL    HW232772   3.807   4.644   2.630 -1.4091 -0.1565  5.3501
 7105SOL     OW32773   2.989   0.628   5.583  0.1137  0.2185  0.4344
 7105SOL    HW132774   2.983   0.614   5.677 -2.8879 -1.3749 -0.0132
 7105SOL    HW232775   2.904   0.672   5.574  0.4684  0.5011 -1.6255
 7106SOL     OW32776   1.909   4.248  16.277  0.0589 -0.0841 -0.1551
 7106SOL    HW132777   1.863   4.254  16.361 -1.7239  0.4479 -1.1567
 7106SOL    HW232778   1.899   4.336  16.240 -2.6465  0.1624  1.0891
 7107SOL     OW32779   1.640   4.041  16.525 -0.0832 -0.3340  0.3240
 7107SOL    HW132780   1.676   4.129  16.513 -1.2221  0.4001  2.3042
 7107SOL    HW232781   1.722   3.991  16.529 -0.4361 -1.0525 -1.1614
 7108SOL     OW32782   3.517   3.289   2.538 -0.1914 -0.0569  0.3188
 7108SOL    HW132783   3.526   3.378   2.503  0.5465 -0.8180 -1.4224
 7108SOL    HW232784   3.591   3.297   2.598 -1.0351  0.8642  1.2364
 7109SOL     OW32785   0.116   0.759   4.569  0.2072  0.0541  0.1359
 7109SOL    HW132786   0.105   0.848   4.601 -1.3400 -0.3572  0.7594
 7109SOL    HW232787   0.066   0.710   4.635 -0.8859  0.5159 -0.3562
 7110SOL     OW32788   2.894   3.143   3.654  0.1733 -0.4964  0.3482
 7110SOL    HW132789   2.988   3.160   3.648  0.2413 -0.3420  1.7515
 7110SOL    HW232790   2.895   3.048   3.648  1.6466 -0.3164 -1.9329
 7111SOL     OW32791   2.959   0.839  15.407 -0.1509 -0.4407 -0.1208
 7111SOL    HW132792   2.897   0.865  15.339 -2.1563 -0.2512  1.7490
 7111SOL    HW232793   3.040   0.869  15.366  0.6904  0.4126  2.1488
 7112SOL     OW32794   1.870   3.925  10.779  0.5623 -0.3812 -0.2947
 7112SOL    HW132795   1.783   3.964  10.772 -0.0321 -1.5231  0.6601
 7112SOL    HW232796   1.877   3.908  10.873  1.4755  3.9646  0.3980
 7113SOL     OW32797   0.011   0.235   5.009  0.6277 -0.0453  0.0344
 7113SOL    HW132798   0.100   0.258   5.036  1.6634 -1.7904 -1.9241
 7113SOL    HW232799   0.016   0.140   5.023 -4.0901 -0.3179 -0.1017
 7114SOL     OW32800   1.576   2.622   8.549  0.7440 -0.0243 -0.0390
 7114SOL    HW132801   1.632   2.700   8.542 -1.1447  1.1250 -2.1358
 7114SOL    HW232802   1.489   2.659   8.562  1.1657  1.3229 -1.0565
 7115SOL     OW32803   3.228   2.181   2.171 -0.4695 -0.1733  0.4554
 7115SOL    HW132804   3.207   2.274   2.166  0.6288  0.1456  1.6512
 7115SOL    HW232805   3.223   2.151   2.081  1.7832  0.8475  0.0009
 7116SOL     OW32806   4.613   0.538   2.769  0.1161 -0.1986  0.6438
 7116SOL    HW132807   4.694   0.490   2.782  0.4688  0.1374 -0.3597
 7116SOL    HW232808   4.638   0.630   2.782  0.9915 -0.4173  0.4614
 7117SOL     OW32809   0.987   2.158   4.995 -0.2596 -0.2076  0.3709
 7117SOL    HW132810   0.908   2.202   5.027  0.3177  1.6036 -0.6990
 7117SOL    HW232811   0.975   2.183   4.903  3.6060  1.0347  0.2121
 7118SOL     OW32812   1.608   3.350   4.250 -0.3331 -0.2770  0.5721
 7118SOL    HW132813   1.532   3.372   4.302 -1.2115  2.7189 -2.0296
 7118SOL    HW232814   1.566   3.336   4.165  1.3181 -1.2401 -0.0902
 7119SOL     OW32815   1.448   3.173   2.120  0.9706  0.1658  0.6605
 7119SOL    HW132816   1.478   3.210   2.038  2.0705  0.6782  1.2962
 7119SOL    HW232817   1.425   3.088   2.084 -0.4273  0.4693  0.8501
 7120SOL     OW32818   1.566   2.570   2.151  0.3182 -0.3889 -0.2744
 7120SOL    HW132819   1.590   2.605   2.065  0.4914  1.6070  0.5834
 7120SOL    HW232820   1.515   2.643   2.186  0.3882 -1.1649  1.4203
 7121SOL     OW32821   1.337   0.537   8.318 -0.8932  0.4140  0.1316
 7121SOL    HW132822   1.306   0.508   8.403 -1.7194  0.8761 -0.0170
 7121SOL    HW232823   1.302   0.624   8.299  0.0916  1.2034  1.9612
 7122SOL     OW32824   1.504   4.220   3.008  0.2242  0.9673 -0.1779
 7122SOL    HW132825   1.413   4.196   3.027  0.0330 -0.8333 -3.3617
 7122SOL    HW232826   1.554   4.140   3.019  2.1695  2.0714 -0.9199
 7123SOL     OW32827   3.585   1.268   9.398 -0.5502 -0.0132 -0.2784
 7123SOL    HW132828   3.558   1.325   9.470  0.5383 -0.6901  0.6583
 7123SOL    HW232829   3.679   1.279   9.409 -0.3065 -1.3844 -0.9254
 7124SOL     OW32830   3.776   0.218  13.189 -0.5636  0.0333 -0.0825
 7124SOL    HW132831   3.763   0.123  13.180 -1.1876  0.0625  0.4748
 7124SOL    HW232832   3.685   0.245  13.198  0.1417  2.5815 -0.5989
 7125SOL     OW32833   2.487   2.079   6.374  0.2998 -0.3551  0.8740
 7125SOL    HW132834   2.503   2.173   6.375  4.4116 -1.0082 -0.5491
 7125SOL    HW232835   2.415   2.071   6.311 -0.1306  3.0572  0.9281
 7126SOL     OW32836   1.346   0.709   5.325  0.1207  0.0760 -0.1990
 7126SOL    HW132837   1.282   0.653   5.281 -0.8414 -0.0098  1.3190
 7126SOL    HW232838   1.294   0.751   5.393 -0.4087  0.3355 -0.7674
 7127SOL     OW32839   3.874   0.978   6.036  0.2964 -0.2204  0.4614
 7127SOL    HW132840   3.950   1.000   6.089  1.7721 -0.0419 -1.7281
 7127SOL    HW232841   3.826   1.058   6.056 -1.5533 -1.2678  0.2563
 7128SOL     OW32842   0.580   0.507   7.466 -0.0565 -0.5862 -0.6626
 7128SOL    HW132843   0.512   0.465   7.518  0.7785 -0.4056  0.5688
 7128SOL    HW232844   0.591   0.430   7.410 -2.7882  1.4143 -3.9129
 7129SOL     OW32845   3.674   2.383   9.940  0.4424  0.1082  0.2539
 7129SOL    HW132846   3.598   2.411   9.890 -0.3657 -1.2046  0.7488
 7129SOL    HW232847   3.741   2.387   9.871 -0.5902  1.7965 -0.6560
 7130SOL     OW32848   1.059   0.401   6.890  0.0115  0.4711 -0.2039
 7130SOL    HW132849   1.122   0.358   6.833  0.3855  0.9271 -0.1404
 7130SOL    HW232850   1.052   0.333   6.957  1.5738  1.5443  1.0378
 7131SOL     OW32851   2.630   2.861   6.872  0.1418 -0.2768 -0.4334
 7131SOL    HW132852   2.552   2.808   6.853  0.3033 -0.9871  0.8124
 7131SOL    HW232853   2.614   2.920   6.946  2.0019 -1.0703  0.5989
 7132SOL     OW32854   1.584   1.211  13.593  0.5843  0.0402 -0.7337
 7132SOL    HW132855   1.634   1.190  13.672 -0.3483  0.7236  0.0463
 7132SOL    HW232856   1.500   1.220  13.640 -0.3807 -2.5573 -2.0005
 7133SOL     OW32857   1.528   3.597   9.505  0.0234 -0.1624 -0.0035
 7133SOL    HW132858   1.570   3.517   9.535 -1.4965 -0.8473  0.3045
 7133SOL    HW232859   1.537   3.593   9.410  0.1722 -0.4774  0.0237
 7134SOL     OW32860   3.229   4.309   9.235  0.3783  0.0476  0.2050
 7134SOL    HW132861   3.208   4.395   9.199  0.8218  0.8026  1.7832
 7134SOL    HW232862   3.283   4.271   9.166  0.8593 -0.1564  0.6932
 7135SOL     OW32863   0.074   3.573  11.655  0.1705  0.3322 -0.1379
 7135SOL    HW132864   0.116   3.639  11.709 -0.5078  0.3759  0.3460
 7135SOL    HW232865   0.084   3.493  11.707  1.2877  0.3627 -0.3123
 7136SOL     OW32866   1.094   1.180   2.734  0.1481 -0.0865  0.4789
 7136SOL    HW132867   1.014   1.184   2.682  0.3972 -0.7701  0.0381
 7136SOL    HW232868   1.155   1.200   2.662 -0.1436  0.0006  0.2584
 7137SOL     OW32869   4.405   3.722   4.188  0.5278 -0.4637 -0.3168
 7137SOL    HW132870   4.415   3.642   4.137 -1.1789 -0.2863 -0.9161
 7137SOL    HW232871   4.311   3.733   4.199  0.6868 -1.4109  1.9363
 7138SOL     OW32872   3.962   2.761   0.356 -0.1997 -0.2195 -0.0716
 7138SOL    HW132873   3.871   2.754   0.325  0.2482  2.9250 -2.1517
 7138SOL    HW232874   3.977   2.854   0.341 -1.9576 -0.3397 -2.5611
 7139SOL     OW32875   1.160   2.600   8.747 -0.9780 -0.4311 -0.1772
 7139SOL    HW132876   1.129   2.510   8.734  0.8060 -1.1728  0.7665
 7139SOL    HW232877   1.073   2.640   8.747 -0.2338  1.1741 -0.9606
 7140SOL     OW32878   4.237   2.497  17.379 -0.0137 -0.3579 -0.7348
 7140SOL    HW132879   4.179   2.472  17.307  1.2510  0.8831 -2.1711
 7140SOL    HW232880   4.314   2.532  17.335  0.9143 -0.7912  0.5133
 7141SOL     OW32881   2.722   1.879   4.645 -0.0368 -0.0244  0.5154
 7141SOL    HW132882   2.755   1.891   4.733  1.1505  1.8622 -0.1889
 7141SOL    HW232883   2.750   1.788   4.633 -0.8114 -0.4948  2.3881
 7142SOL     OW32884   2.813   2.684  15.848  0.3411 -0.1603 -0.2164
 7142SOL    HW132885   2.754   2.655  15.918 -0.0478  0.6386 -0.2153
 7142SOL    HW232886   2.767   2.657  15.769 -2.1918 -0.5545  1.3896
 7143SOL     OW32887   0.595   3.215  15.563 -0.6411 -0.3588 -0.4360
 7143SOL    HW132888   0.597   3.221  15.468  0.7784  2.5364 -0.2116
 7143SOL    HW232889   0.597   3.308  15.583  3.3937 -0.1252 -2.0062
 7144SOL     OW32890   1.508   1.284  14.638  0.2542 -0.3131  1.0082
 7144SOL    HW132891   1.498   1.193  14.664  0.1432 -0.1516  1.5404
 7144SOL    HW232892   1.599   1.290  14.607 -0.4947  0.2418 -1.0718
 7145SOL     OW32893   2.314   4.541   7.690  0.6599 -0.4598 -0.7558
 7145SOL    HW132894   2.319   4.501   7.602 -1.4257 -0.3563 -0.9279
 7145SOL    HW232895   2.393   4.507   7.732 -0.8513  0.1706  2.5920
 7146SOL     OW32896   4.301   3.958   8.178  0.3760 -0.4084 -0.4528
 7146SOL    HW132897   4.352   3.877   8.186 -0.2159 -0.4702  2.6989
 7146SOL    HW232898   4.249   3.932   8.101 -0.2929  0.6796 -0.3616
 7147SOL     OW32899   1.295   3.199   7.229 -0.1957 -0.7961  1.0219
 7147SOL    HW132900   1.364   3.178   7.167 -1.5204  0.0658 -0.7402
 7147SOL    HW232901   1.329   3.286   7.249  0.3645 -1.0539  1.1967
 7148SOL     OW32902   1.785   3.987   5.750  0.1043  0.1368 -0.3398
 7148SOL    HW132903   1.756   3.926   5.818 -0.0767 -0.6886 -1.1612
 7148SOL    HW232904   1.857   4.030   5.797  1.5120 -1.8241 -0.6877
 7149SOL     OW32905   1.113   0.592   9.798 -0.6203  0.2476  0.3695
 7149SOL    HW132906   1.093   0.637   9.716 -0.2681  0.4996  0.4190
 7149SOL    HW232907   1.141   0.503   9.775 -2.3181 -0.8751  2.7249
 7150SOL     OW32908   0.108   1.602   7.768 -0.4766 -0.1246  0.5144
 7150SOL    HW132909   0.058   1.675   7.805  0.2171 -0.5060  2.2195
 7150SOL    HW232910   0.136   1.645   7.687  0.7734 -1.5107  0.1994
 7151SOL     OW32911   2.873   3.726   6.154  0.9550 -0.4226  0.0327
 7151SOL    HW132912   2.791   3.751   6.197  0.8978  0.9252 -0.8618
 7151SOL    HW232913   2.845   3.732   6.063  3.3469  0.8718 -0.6048
 7152SOL     OW32914   2.540   3.651   3.384 -0.3029  0.6072  0.1807
 7152SOL    HW132915   2.614   3.682   3.333 -0.8990 -0.3011 -1.2365
 7152SOL    HW232916   2.534   3.556   3.371  0.8038  0.3114  1.7833
 7153SOL     OW32917   1.688   3.685   8.233  0.2107 -0.4736 -0.1568
 7153SOL    HW132918   1.703   3.768   8.188  2.0782 -0.8959 -0.3045
 7153SOL    HW232919   1.776   3.650   8.249  0.2260 -1.1832 -1.8312
 7154SOL     OW32920   4.286   1.722   7.179 -0.4272  0.2447  0.1213
 7154SOL    HW132921   4.207   1.698   7.227 -0.4816  0.3421  0.0815
 7154SOL    HW232922   4.267   1.813   7.155 -2.0292 -0.6104 -1.8106
 7155SOL     OW32923   2.332   0.311   2.723  0.5167 -0.6643 -0.4991
 7155SOL    HW132924   2.253   0.258   2.709 -0.6238  1.2522 -1.2850
 7155SOL    HW232925   2.396   0.239   2.713  0.8844 -0.1926 -1.5948
 7156SOL     OW32926   3.951   0.211   7.551  0.1297 -0.5966  0.0202
 7156SOL    HW132927   3.894   0.161   7.610  0.8084 -0.3283  0.9103
 7156SOL    HW232928   3.991   0.142   7.497 -3.0808 -1.1678 -1.6087
 7157SOL     OW32929   0.909   3.256  11.534 -0.2744  0.2427 -0.0866
 7157SOL    HW132930   0.890   3.162  11.524 -0.3620  0.1441  1.1114
 7157SOL    HW232931   0.941   3.254  11.624  1.3090 -0.3830 -0.6509
 7158SOL     OW32932   1.139   0.672  17.590 -0.3947 -0.1540  0.3702
 7158SOL    HW132933   1.089   0.656  17.669 -0.3670 -1.7267  0.0583
 7158SOL    HW232934   1.182   0.587  17.582 -2.1455 -0.7689 -2.5937
 7159SOL     OW32935   1.725   1.683   9.071  0.1333 -0.2338  0.3743
 7159SOL    HW132936   1.654   1.656   9.129  1.1353 -0.0667  1.6948
 7159SOL    HW232937   1.800   1.674   9.129 -1.2712 -0.4756  2.1622
 7160SOL     OW32938   0.231   2.979   6.072  0.9804  0.0999 -0.0981
 7160SOL    HW132939   0.182   2.907   6.031  0.3660  0.7861 -0.5802
 7160SOL    HW232940   0.297   2.929   6.119  3.2259  2.0545 -1.2154
 7161SOL     OW32941   2.911   2.985   7.640 -0.6295 -0.6433  0.0896
 7161SOL    HW132942   2.838   3.047   7.634  1.7225  2.2059  1.2247
 7161SOL    HW232943   2.955   3.014   7.561 -2.5086  0.3269 -0.6115
 7162SOL     OW32944   0.014   2.089   4.662  0.7843  0.0507  0.1382
 7162SOL    HW132945   4.667   2.154   4.657  0.4057 -0.3760 -0.1652
 7162SOL    HW232946   0.016   2.061   4.570  1.4841  0.1216  0.1270
 7163SOL     OW32947   0.487   0.980  15.782  0.0775 -0.0960  0.0338
 7163SOL    HW132948   0.538   0.964  15.702  1.5716  1.5185  0.6677
 7163SOL    HW232949   0.533   0.928  15.847  2.3031  1.8098  0.0131
 7164SOL     OW32950   3.629   4.399   8.358  0.0614  0.5165  0.0609
 7164SOL    HW132951   3.614   4.453   8.436  0.7598 -0.4377  0.8523
 7164SOL    HW232952   3.709   4.358   8.390 -2.2040 -2.0512  2.4822
 7165SOL     OW32953   2.899   2.797   8.777 -0.3397 -0.0148  0.0468
 7165SOL    HW132954   2.989   2.766   8.770  0.2484  2.3406 -2.9460
 7165SOL    HW232955   2.884   2.808   8.871  0.0236 -1.3582  0.2532
 7166SOL     OW32956   0.610   4.337   6.641  0.1637  0.4687 -0.2928
 7166SOL    HW132957   0.653   4.351   6.726 -0.3594 -3.6700  0.6789
 7166SOL    HW232958   0.674   4.376   6.581 -0.6894  0.8952 -0.9229
 7167SOL     OW32959   2.711   0.586   5.499 -0.1702 -0.4756 -0.1996
 7167SOL    HW132960   2.632   0.535   5.514  0.5013 -0.7322  2.6267
 7167SOL    HW232961   2.710   0.597   5.404 -1.9487 -1.3748 -0.2890
 7168SOL     OW32962   4.368   3.321  13.198 -0.0754  0.3678  0.0785
 7168SOL    HW132963   4.456   3.283  13.202  0.4869  1.6690 -0.0961
 7168SOL    HW232964   4.333   3.260  13.262  3.6640 -0.8255  1.0167
 7169SOL     OW32965   2.902   4.098   4.205  0.1068 -0.2196 -0.1493
 7169SOL    HW132966   2.867   4.019   4.246  1.1470 -0.8480 -0.4633
 7169SOL    HW232967   2.968   4.057   4.149  0.2388 -1.1089  0.6613
 7170SOL     OW32968   0.269   0.009   1.847 -0.6397 -0.9991  0.0935
 7170SOL    HW132969   0.218   0.039   1.922  1.1455  1.1603  0.4275
 7170SOL    HW232970   0.240   0.084   1.794 -0.9747 -0.6303  0.8027
 7171SOL     OW32971   2.283   0.908  12.849  0.1919 -0.1156  0.2040
 7171SOL    HW132972   2.347   0.908  12.778  1.3639 -0.3907  1.2683
 7171SOL    HW232973   2.250   0.997  12.852 -0.9525 -0.4773 -1.5950
 7172SOL     OW32974   1.211   3.353  11.836  0.5883  0.0591 -0.1491
 7172SOL    HW132975   1.292   3.332  11.788  0.2535 -1.3927 -0.0752
 7172SOL    HW232976   1.149   3.291  11.797 -0.8254 -0.4697  2.9874
 7173SOL     OW32977   1.836   3.814   2.642 -0.2628  0.0058 -0.4191
 7173SOL    HW132978   1.755   3.863   2.655  0.4412  1.5006 -1.6298
 7173SOL    HW232979   1.816   3.771   2.558 -1.0932  1.0441 -0.7501
 7174SOL     OW32980   0.145   0.596  10.757 -0.2994  0.6379 -0.1469
 7174SOL    HW132981   0.137   0.615  10.850 -2.3497 -0.7707 -0.0364
 7174SOL    HW232982   0.145   0.501  10.767 -0.1486  0.0955 -5.0412
 7175SOL     OW32983   4.186   3.463   8.075  0.1858  0.4254  0.1591
 7175SOL    HW132984   4.273   3.489   8.046  0.2605  0.4877  0.4424
 7175SOL    HW232985   4.122   3.506   8.018 -1.1393 -1.5916  0.1117
 7176SOL     OW32986   1.161   2.445  15.672  0.4929  0.4669 -0.1552
 7176SOL    HW132987   1.105   2.402  15.607  1.8817 -0.4892 -0.6976
 7176SOL    HW232988   1.235   2.387  15.685 -0.5938 -0.6433  1.0355
 7177SOL     OW32989   3.429   4.031  12.184 -0.0884  0.4507  0.4951
 7177SOL    HW132990   3.481   4.106  12.156 -0.0308  0.8213  1.6059
 7177SOL    HW232991   3.491   3.975  12.230  0.7039  0.9485  0.0356
 7178SOL     OW32992   4.490   1.238   1.122 -0.1308  0.0174 -0.3535
 7178SOL    HW132993   4.481   1.234   1.217  0.0581  1.1355 -0.2957
 7178SOL    HW232994   4.518   1.328   1.106  0.8224  0.1551  2.1501
 7179SOL     OW32995   1.185   2.426   7.750  0.1199  0.5287  0.2773
 7179SOL    HW132996   1.122   2.355   7.763 -0.4955  0.8820 -0.7974
 7179SOL    HW232997   1.214   2.394   7.665 -0.0406  0.1423  0.3672
 7180SOL     OW32998   2.170   3.287   8.931  0.2568  0.1348 -0.1866
 7180SOL    HW132999   2.211   3.229   8.867  0.9624  0.2955  0.1148
 7180SOL    HW233000   2.129   3.219   8.984 -0.2139  0.6948  0.1659
 7181SOL     OW33001   1.581   0.801   1.550  0.3130  0.2877  0.3398
 7181SOL    HW133002   1.517   0.849   1.602 -1.2749 -2.2154  0.6963
 7181SOL    HW233003   1.551   0.710   1.548 -1.5156  0.8960  0.5495
 7182SOL     OW33004   3.632   0.297   4.627  0.1049 -0.4792  0.0285
 7182SOL    HW133005   3.688   0.261   4.696  0.6698 -3.0470 -1.7640
 7182SOL    HW233006   3.543   0.264   4.642  0.2366 -0.6288  0.4963
 7183SOL     OW33007   3.737   2.290   3.858  0.2454  0.0624  0.1024
 7183SOL    HW133008   3.708   2.282   3.767 -0.5222  0.4157  0.3216
 7183SOL    HW233009   3.718   2.201   3.886 -0.1863 -0.2393 -1.1235
 7184SOL     OW33010   3.351   4.627   9.222  0.0187  0.0605  0.2510
 7184SOL    HW133011   3.359   4.651   9.130 -0.3042 -1.1999 -0.1182
 7184SOL    HW233012   3.284   4.680   9.265 -2.4419 -3.3912  0.6892
 7185SOL     OW33013   1.993   4.563   7.305  0.2824 -0.1169  0.2188
 7185SOL    HW133014   1.911   4.606   7.329  0.1900  0.3463 -0.9404
 7185SOL    HW233015   2.060   4.630   7.316  0.2313 -0.1362  0.6519
 7186SOL     OW33016   2.609   4.263  16.173 -0.0507 -0.2009 -0.2171
 7186SOL    HW133017   2.665   4.187  16.191 -0.0994  0.0305  0.8541
 7186SOL    HW233018   2.573   4.267  16.261  0.5241 -2.2759  0.1247
 7187SOL     OW33019   1.392   1.607   8.884  0.2117  0.3161  0.0306
 7187SOL    HW133020   1.344   1.673   8.934  1.7080  0.7012  0.9528
 7187SOL    HW233021   1.319   1.550   8.860 -0.8614  1.9813 -0.7087
 7188SOL     OW33022   1.003   0.818   7.559 -0.0613 -0.0493  0.1470
 7188SOL    HW133023   0.972   0.750   7.619  2.3992 -1.9842 -0.7715
 7188SOL    HW233024   1.043   0.773   7.484  0.3101  0.4730  0.0347
 7189SOL     OW33025   0.458   3.066   5.864  0.5214  0.3243  0.3735
 7189SOL    HW133026   0.425   3.072   5.774 -1.0600  0.0707  0.9431
 7189SOL    HW233027   0.444   2.972   5.879  0.2722  0.6643  2.2567
 7190SOL     OW33028   0.331   3.626   2.825 -0.4534  0.4301  0.0922
 7190SOL    HW133029   0.415   3.670   2.838 -0.7858  1.1154 -0.0729
 7190SOL    HW233030   0.269   3.696   2.844  0.1728  1.3888 -1.4181
 7191SOL     OW33031   4.275   4.711   7.182 -0.0226 -0.8794 -0.0235
 7191SOL    HW133032   4.229   4.709   7.266 -0.9191  0.9216 -0.4676
 7191SOL    HW233033   4.338   0.058   7.203 -0.7176 -0.0884 -0.5274
 7192SOL     OW33034   4.383   1.990   1.757 -0.7466 -0.3073 -0.2124
 7192SOL    HW133035   4.288   1.982   1.769 -0.6962 -1.3716 -0.5548
 7192SOL    HW233036   4.389   2.082   1.729 -0.4556 -0.8723 -2.0076
 7193SOL     OW33037   4.393   1.305   6.554 -0.0299 -0.2407 -0.2532
 7193SOL    HW133038   4.401   1.399   6.537 -1.2047 -0.3337 -1.2899
 7193SOL    HW233039   4.415   1.261   6.472  1.4356 -1.2338  0.6782
 7194SOL     OW33040   0.600   0.234  11.678  0.1114  0.2770  0.2813
 7194SOL    HW133041   0.603   0.329  11.690 -0.9777  0.5193 -1.5395
 7194SOL    HW233042   0.689   0.225  11.645  0.3092 -4.5276  2.0962
 7195SOL     OW33043   2.019   0.769   7.221  0.4533  0.2211  0.5381
 7195SOL    HW133044   2.103   0.726   7.239 -0.8927 -2.2081  1.0386
 7195SOL    HW233045   2.033   0.852   7.266 -0.3843  0.0468  1.1207
 7196SOL     OW33046   4.532   2.075  15.031 -0.7901 -0.4310 -0.4284
 7196SOL    HW133047   4.444   2.038  15.041 -0.0009 -2.8266 -2.5950
 7196SOL    HW233048   4.526   2.162  15.071 -1.5147 -0.1747 -1.0794
 7197SOL     OW33049   3.430   4.678  13.122 -0.9627  0.1506  0.1855
 7197SOL    HW133050   3.364   4.641  13.063 -0.6085 -1.0668  0.5387
 7197SOL    HW233051   3.393   0.043  13.131 -2.1561 -0.1065 -2.4129
 7198SOL     OW33052   2.009   1.225   6.183 -0.0488  0.6271  0.1324
 7198SOL    HW133053   2.099   1.252   6.203 -0.1992 -1.2722  3.3588
 7198SOL    HW233054   1.980   1.305   6.139  0.6545  0.2517 -1.0018
 7199SOL     OW33055   1.064   4.374   9.463 -0.8927  0.3566  0.1694
 7199SOL    HW133056   1.070   4.290   9.509  0.6664 -0.8125 -2.2114
 7199SOL    HW233057   1.034   4.428   9.536  1.5056  0.2000  1.2782
 7200SOL     OW33058   0.453   2.451   2.060  0.5037  0.1906 -0.3303
 7200SOL    HW133059   0.434   2.539   2.094 -0.2002  0.4919 -1.4988
 7200SOL    HW233060   0.500   2.412   2.133 -2.1676  2.2309  2.4419
 7201SOL     OW33061   2.143   2.078   4.571 -0.3311  0.1631  0.3355
 7201SOL    HW133062   2.089   2.029   4.633 -0.2839 -1.9287 -1.2603
 7201SOL    HW233063   2.097   2.162   4.576 -0.0181  0.4686 -1.5793
 7202SOL     OW33064   1.669   4.647  10.355 -0.4793 -0.4277 -0.5620
 7202SOL    HW133065   1.610   4.663  10.428 -0.5183 -0.5720 -0.5609
 7202SOL    HW233066   1.616   4.682  10.283 -0.6783  1.9957  0.7968
 7203SOL     OW33067   4.093   2.673   6.326 -0.0626  0.2046  0.3816
 7203SOL    HW133068   4.027   2.654   6.259  0.4712  0.1794 -0.1398
 7203SOL    HW233069   4.051   2.651   6.409  1.5029 -0.1065  1.0981
 7204SOL     OW33070   1.247   3.733   8.296  0.2602  0.4113 -0.1582
 7204SOL    HW133071   1.198   3.812   8.319  0.9671 -0.5882  4.6015
 7204SOL    HW233072   1.273   3.710   8.385 -0.3278 -0.1232 -0.1214
 7205SOL     OW33073   2.034   4.406   7.100  1.0221  0.3014  0.3452
 7205SOL    HW133074   1.970   4.335   7.100  2.6621 -1.1696  0.8849
 7205SOL    HW233075   1.999   4.470   7.161  1.4159  1.5699 -0.7559
 7206SOL     OW33076   3.289   2.649   0.822 -0.3039 -0.4647  0.3995
 7206SOL    HW133077   3.215   2.652   0.882 -0.3520  0.8934  0.2743
 7206SOL    HW233078   3.290   2.557   0.794  1.4251  0.1134 -1.4572
 7207SOL     OW33079   2.923   3.687  14.925 -0.7135  0.0044  0.2154
 7207SOL    HW133080   2.859   3.756  14.947  0.6691  0.6059  2.3480
 7207SOL    HW233081   2.897   3.664  14.836 -2.2804  0.3839  0.5607
 7208SOL     OW33082   0.892   2.391   3.728 -0.4445  0.0796 -0.0841
 7208SOL    HW133083   0.823   2.451   3.700  0.0258 -0.2449 -1.9201
 7208SOL    HW233084   0.884   2.336   3.651  2.4672 -1.2744  0.5889
 7209SOL     OW33085   0.781   0.354   8.056 -0.1668  0.5133 -0.1299
 7209SOL    HW133086   0.814   0.267   8.077 -2.5336 -0.1684  0.7272
 7209SOL    HW233087   0.805   0.399   8.137  0.0161 -0.6733  0.4712
 7210SOL     OW33088   1.470   2.384  15.497  0.2333 -0.6807  0.0780
 7210SOL    HW133089   1.456   2.360  15.405  2.4814  0.3843 -0.5299
 7210SOL    HW233090   1.520   2.463  15.480  0.0770 -0.5929  0.0316
 7211SOL     OW33091   3.061   1.727   6.059  0.6127 -0.7049 -0.5935
 7211SOL    HW133092   3.131   1.662   6.065 -0.0420 -1.2549  1.1394
 7211SOL    HW233093   2.982   1.672   6.058  0.0245  0.0837  1.7327
 7212SOL     OW33094   4.601   3.581  12.992  0.5868  0.3363  0.3010
 7212SOL    HW133095   4.533   3.519  12.967 -1.9651  2.7776  1.2814
 7212SOL    HW233096   4.673   3.519  13.009  0.1402 -0.7396 -1.7092
 7213SOL     OW33097   1.624   3.674  10.392 -0.8048  0.2321  0.0424
 7213SOL    HW133098   1.614   3.579  10.400 -1.0602  0.0735 -2.1852
 7213SOL    HW233099   1.570   3.692  10.315 -1.1369 -0.1466  0.1894
 7214SOL     OW33100   3.618   3.102  10.938  0.0113 -0.0607  0.4011
 7214SOL    HW133101   3.640   3.061  10.854 -1.5409  0.3057 -0.1777
 7214SOL    HW233102   3.597   3.192  10.912 -1.8058 -0.7751 -0.5440
 7215SOL     OW33103   2.034   2.390   0.450  0.6995 -0.3344 -0.2404
 7215SOL    HW133104   2.100   2.402   0.518 -0.0189  0.5517  0.2987
 7215SOL    HW233105   1.984   2.312   0.475  2.3993 -0.7571  1.9134
 7216SOL     OW33106   3.028   4.604   7.511 -0.0941  0.5799 -0.6267
 7216SOL    HW133107   3.019   4.628   7.603 -0.6915  1.3720 -0.8917
 7216SOL    HW233108   3.090   4.674   7.491 -0.4818  1.0778 -0.0800
 7217SOL     OW33109   1.435   0.951   8.859 -0.8649 -0.4326 -0.3719
 7217SOL    HW133110   1.344   0.924   8.858 -1.4908  1.5730  2.2407
 7217SOL    HW233111   1.430   1.038   8.899 -1.5727 -0.0212 -1.3800
 7218SOL     OW33112   1.217   3.775   4.312  0.0820 -0.1862 -0.2413
 7218SOL    HW133113   1.165   3.748   4.237 -1.5426  1.6428  0.2049
 7218SOL    HW233114   1.158   3.848   4.333 -0.0761 -0.6229  0.8394
 7219SOL     OW33115   2.234   2.417  16.484  0.4504 -0.0835 -0.1293
 7219SOL    HW133116   2.288   2.488  16.449  0.4118 -0.7353 -1.5234
 7219SOL    HW233117   2.216   2.445  16.574 -1.0744 -0.8840 -0.1829
 7220SOL     OW33118   1.847   1.537   0.429 -0.1759  0.0040  0.0736
 7220SOL    HW133119   1.827   1.599   0.499 -0.3224 -1.0702  0.9996
 7220SOL    HW233120   1.870   1.460   0.481  0.6682  0.0120 -0.2966
 7221SOL     OW33121   2.787   2.603   5.220  0.1886  0.2952  0.2756
 7221SOL    HW133122   2.821   2.515   5.211 -0.7064 -0.0999  0.6841
 7221SOL    HW233123   2.732   2.594   5.298  0.5644 -1.5470  0.3212
 7222SOL     OW33124   4.064   1.500   8.473  0.1011  0.1524 -0.3548
 7222SOL    HW133125   4.117   1.508   8.553 -1.4212  0.4881  0.6122
 7222SOL    HW233126   4.124   1.533   8.406 -1.3750  1.2848 -1.1167
 7223SOL     OW33127   2.851   0.618   6.143  0.2651 -0.0559  0.0895
 7223SOL    HW133128   2.889   0.599   6.229  1.0630 -0.0243 -0.2629
 7223SOL    HW233129   2.893   0.702   6.125 -0.5753 -0.2846 -2.9169
 7224SOL     OW33130   1.940   1.464   3.183 -0.9497  0.0226 -0.4174
 7224SOL    HW133131   1.861   1.420   3.215 -2.8234  1.2039 -3.3865
 7224SOL    HW233132   1.951   1.515   3.263  1.9614 -1.2368 -0.0286
 7225SOL     OW33133   4.063   3.810   2.586 -0.3814 -0.3619 -0.3243
 7225SOL    HW133134   4.074   3.834   2.678  0.8681  2.0474 -1.1081
 7225SOL    HW233135   3.984   3.757   2.593  0.5153 -1.5857  0.4802
 7226SOL     OW33136   0.235   2.054   8.452 -0.5561 -0.2991 -0.5332
 7226SOL    HW133137   0.290   1.982   8.483 -1.3492 -0.1163  1.2807
 7226SOL    HW233138   0.155   2.004   8.471  1.1967 -2.0965  2.0564
 7227SOL     OW33139   2.517   4.610  16.148  0.3920  0.0968 -0.2965
 7227SOL    HW133140   2.468   4.690  16.130  3.1352  1.8118 -0.0801
 7227SOL    HW233141   2.493   4.604  16.241  2.8628 -0.0325  0.3434
 7228SOL     OW33142   3.609   0.189   3.139 -0.3621  0.3256  0.0453
 7228SOL    HW133143   3.654   0.234   3.211  0.4873 -2.4788  1.2421
 7228SOL    HW233144   3.547   0.127   3.176  1.4836 -0.7760  1.2761
 7229SOL     OW33145   0.962   2.852   3.591  0.0416  0.2201 -0.3171
 7229SOL    HW133146   1.039   2.905   3.572  1.3341 -1.3614  0.4386
 7229SOL    HW233147   0.973   2.829   3.683 -0.5537  0.0631 -0.2800
 7230SOL     OW33148   0.428   0.076   1.357  0.0509 -0.1175 -0.4778
 7230SOL    HW133149   0.352   0.088   1.299  0.7413 -1.3329 -1.6134
 7230SOL    HW233150   0.439   0.166   1.387  1.7413  0.0744 -1.7211
 7231SOL     OW33151   2.133   2.233   0.690  0.2341 -0.5696 -0.0750
 7231SOL    HW133152   2.038   2.227   0.704 -0.5131  5.3011 -2.6378
 7231SOL    HW233153   2.154   2.160   0.631 -2.7631 -0.6636 -1.0544
 7232SOL     OW33154   0.052   0.892   8.229 -0.3119 -0.2354  0.2136
 7232SOL    HW133155   4.688   0.889   8.187 -0.4164 -0.2249  0.4229
 7232SOL    HW233156   0.025   0.891   8.321  0.9762  1.7282  0.6170
 7233SOL     OW33157   1.766   1.723   6.162 -0.0582 -0.0447  0.2031
 7233SOL    HW133158   1.731   1.785   6.099  1.1659  1.5805  1.1105
 7233SOL    HW233159   1.858   1.742   6.144 -0.0576 -0.4178 -0.2003
 7234SOL     OW33160   2.061   3.813  10.024 -0.2380 -0.1456 -0.1462
 7234SOL    HW133161   1.981   3.851   9.989 -0.3523 -1.3183 -1.1727
 7234SOL    HW233162   2.036   3.785  10.112 -1.7366 -0.6866 -0.7439
 7235SOL     OW33163   2.680   3.526   2.587 -0.2651 -0.2828  0.7200
 7235SOL    HW133164   2.718   3.447   2.625 -1.1283 -1.7093 -1.3746
 7235SOL    HW233165   2.755   3.582   2.604 -0.7006  0.4791  0.1090
 7236SOL     OW33166   2.037   1.533   8.305 -0.1962 -0.0391  0.1375
 7236SOL    HW133167   2.092   1.590   8.359 -0.6617  0.6775 -0.1437
 7236SOL    HW233168   1.966   1.518   8.368 -0.4022 -0.6994 -0.2444
 7237SOL     OW33169   0.660   4.560  17.513  0.1481  0.2301  0.5556
 7237SOL    HW133170   0.696   4.558  17.425  1.3389 -1.9583  1.1083
 7237SOL    HW233171   0.723   4.603  17.570  1.7640  0.0633 -1.1295
 7238SOL     OW33172   0.595   2.063   2.239 -0.2848  1.1595 -0.1960
 7238SOL    HW133173   0.554   2.030   2.159  3.4484 -1.6508 -0.9497
 7238SOL    HW233174   0.683   2.026   2.243 -0.8042  0.0982  1.8600
 7239SOL     OW33175   2.429   1.196   1.941 -0.4691 -0.5163 -0.2973
 7239SOL    HW133176   2.384   1.279   1.959  0.3403 -0.1975  0.2418
 7239SOL    HW233177   2.381   1.172   1.862 -2.1181  1.0444  0.2090
 7240SOL     OW33178   1.862   3.172   5.901 -0.3128  0.3498 -0.2201
 7240SOL    HW133179   1.911   3.254   5.896 -0.3741  0.3856 -0.2380
 7240SOL    HW233180   1.817   3.190   5.984  1.1476  1.0722  0.4153
 7241SOL     OW33181   2.244   1.539  10.705 -0.0929 -0.6455  0.1492
 7241SOL    HW133182   2.239   1.599  10.631 -2.3913 -0.2779  0.6002
 7241SOL    HW233183   2.202   1.589  10.774 -1.0511 -1.5548  0.2341
 7242SOL     OW33184   3.568   3.361   8.446 -0.2311 -0.5403  0.2736
 7242SOL    HW133185   3.489   3.376   8.498 -0.5216  2.2455 -0.9324
 7242SOL    HW233186   3.635   3.364   8.513  1.8639 -1.9364 -1.7664
 7243SOL     OW33187   0.520   2.720   3.135  0.4114  0.1201  0.2082
 7243SOL    HW133188   0.570   2.679   3.064  0.8936  1.7314 -0.3921
 7243SOL    HW233189   0.583   2.791   3.146  0.2121  0.2460  0.4978
 7244SOL     OW33190   1.385   1.867   1.488 -0.1063  0.0027  0.3193
 7244SOL    HW133191   1.333   1.871   1.568 -3.5304 -1.8238 -1.8202
 7244SOL    HW233192   1.317   1.908   1.435 -2.3163 -0.2657  3.0132
 7245SOL     OW33193   3.399   0.980   6.003 -0.5402 -0.4577  0.0137
 7245SOL    HW133194   3.451   0.937   6.071 -1.1464  1.0512  1.4224
 7245SOL    HW233195   3.391   0.915   5.933 -2.8872  1.7312 -1.7355
 7246SOL     OW33196   1.776   2.792   8.474 -0.1161 -0.1420 -0.2857
 7246SOL    HW133197   1.854   2.738   8.490 -0.6957 -0.7382  0.5238
 7246SOL    HW233198   1.802   2.852   8.405  1.4366  0.3601  0.7111
 7247SOL     OW33199   3.894   1.723   5.827  0.2124  0.0017 -0.0788
 7247SOL    HW133200   3.988   1.745   5.822  0.1307 -0.2188 -2.3071
 7247SOL    HW233201   3.888   1.671   5.747 -3.1850 -1.0744  0.8715
 7248SOL     OW33202   4.422   4.646  10.867  0.5534  0.1284  0.1333
 7248SOL    HW133203   4.482   4.573  10.857  1.0928  0.6204 -0.2376
 7248SOL    HW233204   4.482   4.721  10.870  2.1808 -1.1917  0.4008
 7249SOL     OW33205   3.836   1.129  12.988  0.7018 -0.1274 -0.5422
 7249SOL    HW133206   3.830   1.213  12.943 -1.8008  1.1041  2.1398
 7249SOL    HW233207   3.827   1.146  13.081  0.2833 -0.3503 -0.5398
 7250SOL     OW33208   2.228   1.708   2.793 -0.5266 -0.1542  0.1233
 7250SOL    HW133209   2.165   1.662   2.849 -0.3517 -0.4925  0.0453
 7250SOL    HW233210   2.177   1.708   2.712  1.1655  1.2250 -0.9490
 7251SOL     OW33211   1.326   0.302   7.188  0.3859  0.2662  0.0813
 7251SOL    HW133212   1.403   0.247   7.206  0.7195  0.9210  0.6645
 7251SOL    HW233213   1.355   0.393   7.174 -1.9353  0.7731 -1.3502
 7252SOL     OW33214   0.928   1.000   8.798  0.0194  0.0714 -0.1244
 7252SOL    HW133215   0.959   1.051   8.873  2.9432  0.2148 -1.4073
 7252SOL    HW233216   0.913   1.066   8.731  1.0114  0.9441  0.5142
 7253SOL     OW33217   3.827   1.204   2.219 -0.4185 -0.3249  0.2141
 7253SOL    HW133218   3.890   1.254   2.167 -1.4942  2.5049  1.6940
 7253SOL    HW233219   3.823   1.256   2.298 -2.2045  2.2866 -1.5914
 7254SOL     OW33220   2.236   0.604   2.416 -0.2623 -0.1988  0.1073
 7254SOL    HW133221   2.183   0.658   2.358  1.9359  1.5659 -0.2471
 7254SOL    HW233222   2.322   0.609   2.376 -0.1249 -1.5411  0.2312
 7255SOL     OW33223   1.530   2.298   6.082  0.0667 -0.0637 -0.2008
 7255SOL    HW133224   1.604   2.238   6.091  0.4828  0.9903  3.6151
 7255SOL    HW233225   1.508   2.301   5.989  1.6834 -0.0247 -0.5853
 7256SOL     OW33226   3.744   0.911   7.642 -0.2990 -0.1525  0.5845
 7256SOL    HW133227   3.781   0.995   7.614 -1.7392  0.8414  1.6831
 7256SOL    HW233228   3.653   0.913   7.613 -0.0322  2.0353 -0.0618
 7257SOL     OW33229   3.587   0.198   5.125  0.1614 -0.2378  0.0285
 7257SOL    HW133230   3.516   0.228   5.068 -0.2480  2.9420  2.2217
 7257SOL    HW233231   3.561   0.218   5.215 -1.4523 -1.5776 -0.1339
 7258SOL     OW33232   2.797   2.222   3.663 -0.0238 -0.0971  0.1996
 7258SOL    HW133233   2.704   2.232   3.679 -0.1382 -1.3244  0.2878
 7258SOL    HW233234   2.831   2.172   3.737 -1.1750  4.0146  3.4891
 7259SOL     OW33235   2.659   1.066   7.345  0.0173 -0.5011  0.1534
 7259SOL    HW133236   2.678   1.145   7.394 -1.5911  1.4605 -2.3626
 7259SOL    HW233237   2.565   1.064   7.328 -0.6198 -1.5500  3.7982
 7260SOL     OW33238   0.808   0.448   2.328 -0.2643  0.4265  0.2974
 7260SOL    HW133239   0.728   0.428   2.280  0.5648 -1.2182 -0.3764
 7260SOL    HW233240   0.790   0.539   2.353 -2.2747  0.6266 -1.7931
 7261SOL     OW33241   0.726   1.954   3.305 -0.5284 -0.1868  0.1304
 7261SOL    HW133242   0.822   1.951   3.307 -0.4878  1.3969  0.6609
 7261SOL    HW233243   0.706   1.863   3.325  0.1960 -0.2111  0.7570
 7262SOL     OW33244   0.191   1.056   7.466  0.0255  0.2484 -0.1084
 7262SOL    HW133245   0.164   1.138   7.426 -1.4884 -0.5626 -0.7686
 7262SOL    HW233246   0.286   1.062   7.462  0.2133 -1.1166  1.9594
 7263SOL     OW33247   2.455   3.988  16.247 -0.0076 -0.3579 -0.0779
 7263SOL    HW133248   2.435   3.919  16.311 -1.7733 -0.6448 -0.9523
 7263SOL    HW233249   2.416   3.953  16.168 -2.6711 -1.2908  1.6529
 7264SOL     OW33250   1.332   1.409  17.454  0.9774 -0.7072 -0.1525
 7264SOL    HW133251   1.311   1.324  17.417 -0.3320 -0.7874  0.8032
 7264SOL    HW233252   1.415   1.427  17.409  1.7329  0.2431  1.6341
 7265SOL     OW33253   4.106   0.736   6.348  0.3094  0.0145  0.1772
 7265SOL    HW133254   4.181   0.686   6.380  0.3354  1.0079  1.6788
 7265SOL    HW233255   4.118   0.709   6.257 -1.4176  0.0567 -0.0646
 7266SOL     OW33256   0.134   0.678   6.193  0.1274  0.4961 -0.0627
 7266SOL    HW133257   0.137   0.739   6.120  2.6488 -0.2688 -0.5683
 7266SOL    HW233258   0.045   0.697   6.225  0.5546  2.5244 -0.0967
 7267SOL     OW33259   1.869   3.879   5.043  0.7773 -0.2856 -0.1019
 7267SOL    HW133260   1.859   3.903   4.951  0.3098  2.3501  0.6207
 7267SOL    HW233261   1.850   3.967   5.076 -1.4606 -0.5939 -0.5650
 7268SOL     OW33262   1.863   0.756   8.965 -0.0093 -0.5845 -0.5373
 7268SOL    HW133263   1.814   0.837   8.978 -1.3631 -1.3556 -0.8800
 7268SOL    HW233264   1.829   0.695   9.031  2.4496 -0.2219  1.0662
 7269SOL     OW33265   2.787   4.574   3.143 -0.3130 -0.1843  0.3648
 7269SOL    HW133266   2.784   4.655   3.194 -0.2851 -0.0234  0.1104
 7269SOL    HW233267   2.778   4.612   3.055  0.8044  0.8433  0.6968
 7270SOL     OW33268   1.250   0.671   3.063  0.8171 -0.1708  0.3662
 7270SOL    HW133269   1.175   0.624   3.026 -0.5786  0.7348  2.0258
 7270SOL    HW233270   1.310   0.602   3.091  0.0522 -1.7097 -1.7974
 7271SOL     OW33271   4.336   1.534   5.374  0.1661 -0.3567 -0.6799
 7271SOL    HW133272   4.396   1.601   5.342 -0.7937 -0.3713 -2.4577
 7271SOL    HW233273   4.355   1.455   5.323  0.5737 -1.4440  1.1308
 7272SOL     OW33274   3.161   3.843   6.079  0.7057 -0.4410  0.0443
 7272SOL    HW133275   3.079   3.869   6.121  1.5587  2.0091  0.2182
 7272SOL    HW233276   3.151   3.896   5.999 -0.7608  0.2075  0.6564
 7273SOL     OW33277   3.962   0.242   6.643 -0.1508 -0.0390  0.2883
 7273SOL    HW133278   4.006   0.324   6.665 -0.9463  0.4417  0.1157
 7273SOL    HW233279   4.028   0.178   6.667 -0.5163 -0.2023  0.8626
 7274SOL     OW33280   1.410   4.583  13.815  0.1224  0.0509 -0.4036
 7274SOL    HW133281   1.360   4.619  13.741 -1.6361 -2.5190 -0.4471
 7274SOL    HW233282   1.362   4.501  13.828  1.1728 -0.5419 -0.2920
 7275SOL     OW33283   1.365   2.478   6.406 -0.9339 -0.1626  0.1047
 7275SOL    HW133284   1.321   2.503   6.325 -0.9596  0.9039  0.4563
 7275SOL    HW233285   1.397   2.393   6.376 -0.7132  0.0992 -0.4088
 7276SOL     OW33286   1.110   4.523   2.141 -0.0326  0.2312 -0.0082
 7276SOL    HW133287   1.098   4.588   2.072  0.3847  0.1367 -0.1666
 7276SOL    HW233288   1.062   4.564   2.214  1.0612  1.0189  0.2611
 7277SOL     OW33289   4.297   2.961   9.719  0.1311  0.4629  0.4323
 7277SOL    HW133290   4.341   2.880   9.696  2.1993  1.7744 -0.2093
 7277SOL    HW233291   4.286   2.950   9.814 -0.3260 -0.7272  0.2421
 7278SOL     OW33292   1.537   3.794   6.188  0.4124 -0.0987  0.2559
 7278SOL    HW133293   1.485   3.823   6.263 -2.3313 -0.8585 -1.3348
 7278SOL    HW233294   1.566   3.706   6.212  1.6599  1.0242  2.8398
 7279SOL     OW33295   2.942   1.608   8.980  0.3235  0.7716 -0.1693
 7279SOL    HW133296   3.016   1.580   8.926 -0.4285 -1.3859 -0.0768
 7279SOL    HW233297   2.941   1.704   8.976 -1.3990  0.8916  2.9761
 7280SOL     OW33298   3.046   0.873   7.553  0.2106 -0.5122 -0.5480
 7280SOL    HW133299   3.099   0.861   7.474 -1.9525  0.9904 -2.2206
 7280SOL    HW233300   3.111   0.861   7.623  0.0580 -0.5058 -0.4056
 7281SOL     OW33301   3.761   3.249   7.612 -0.2695  0.1308  0.2605
 7281SOL    HW133302   3.817   3.307   7.664 -0.2222 -0.4526  0.8552
 7281SOL    HW233303   3.814   3.170   7.611 -0.2486  0.1434  0.4332
 7282SOL     OW33304   1.325   3.578   7.839 -0.2888 -0.3160  0.2858
 7282SOL    HW133305   1.387   3.579   7.912  0.5567  1.0742 -0.4534
 7282SOL    HW233306   1.350   3.666   7.810 -2.7543  0.3943  0.3372
 7283SOL     OW33307   2.430   2.984   2.501  0.4500  0.2594 -0.5084
 7283SOL    HW133308   2.492   2.933   2.449  0.4823  0.2619 -0.4724
 7283SOL    HW233309   2.482   2.978   2.581 -0.9631 -1.3023  0.2754
 7284SOL     OW33310   4.099   1.289   3.086  0.2953  0.2829  0.4964
 7284SOL    HW133311   4.058   1.276   3.171 -0.6136 -1.1022 -0.1422
 7284SOL    HW233312   4.040   1.356   3.051 -1.7359 -1.1478  1.2202
 7285SOL     OW33313   0.039   0.934   8.510 -0.2175 -0.3319 -0.0658
 7285SOL    HW133314   0.053   1.028   8.507  1.0307 -0.5611 -1.3778
 7285SOL    HW233315   0.039   0.915   8.604 -1.5681 -0.2559 -0.0528
 7286SOL     OW33316   1.644   2.060   6.152 -0.8036 -0.9493 -0.3032
 7286SOL    HW133317   1.715   2.067   6.216 -0.3392 -0.5639 -0.8574
 7286SOL    HW233318   1.594   1.980   6.170 -1.3532 -0.8476 -1.3589
 7287SOL     OW33319   0.226   4.089  13.594 -0.2787  0.1524  0.1571
 7287SOL    HW133320   0.302   4.058  13.643 -0.6409 -0.7838  0.1161
 7287SOL    HW233321   0.202   4.173  13.633 -0.6489 -0.2994  0.8750
 7288SOL     OW33322   4.161   0.860   5.164  0.0794 -0.0087  0.1002
 7288SOL    HW133323   4.189   0.804   5.237  1.6620  1.3608  0.5661
 7288SOL    HW233324   4.094   0.912   5.209 -1.4028 -0.3703 -1.7038
 7289SOL     OW33325   0.136   1.147   8.222  0.5957 -0.6590 -0.3371
 7289SOL    HW133326   0.081   1.069   8.221 -1.0094  0.3992  1.9684
 7289SOL    HW233327   0.123   1.175   8.132  0.1368 -1.3538 -0.4799
 7290SOL     OW33328   0.069   1.901  16.155 -0.0527 -0.0328 -0.4388
 7290SOL    HW133329   0.070   1.909  16.060 -0.0521  1.7655 -0.2914
 7290SOL    HW233330   4.695   1.906  16.158 -0.0726 -0.1974 -0.9564
 7291SOL     OW33331   3.405   1.885   5.817  0.4744  0.1781  0.4862
 7291SOL    HW133332   3.358   1.815   5.863 -0.1578  1.9652  2.5536
 7291SOL    HW233333   3.481   1.891   5.875  1.2127  1.0295 -0.5753
 7292SOL     OW33334   3.034   1.496   7.648 -0.5150 -0.0621  0.4886
 7292SOL    HW133335   3.046   1.430   7.716 -0.3139 -2.1946 -1.6207
 7292SOL    HW233336   2.963   1.471   7.588  1.2920  2.2331 -2.6270
 7293SOL     OW33337   1.109   1.495   6.762  0.0992 -0.0857 -0.0235
 7293SOL    HW133338   1.134   1.406   6.789 -0.3055  0.6073  2.5906
 7293SOL    HW233339   1.014   1.485   6.754  0.2812 -0.6085 -1.4666
 7294SOL     OW33340   1.029   4.508   7.648 -0.0046  0.2650 -0.7598
 7294SOL    HW133341   1.058   4.417   7.650  1.1992  0.6533 -0.9185
 7294SOL    HW233342   0.939   4.494   7.678  0.6370 -1.6503  0.2818
 7295SOL     OW33343   4.354   1.136   5.736  0.1721 -0.2128 -0.1596
 7295SOL    HW133344   4.296   1.203   5.701  0.8202  0.9055  0.9206
 7295SOL    HW233345   4.345   1.082   5.657 -0.2003 -1.4935  0.7571
 7296SOL     OW33346   0.145   1.887   0.082  0.2011 -0.3891 -0.1386
 7296SOL    HW133347   0.106   1.799   0.074 -1.3493  0.4050 -1.4027
 7296SOL    HW233348   0.150   1.924  17.685 -1.2128  1.3217  0.5066
 7297SOL     OW33349   2.871   1.640  12.524 -0.0357  0.4872  0.6867
 7297SOL    HW133350   2.871   1.589  12.443  3.9112 -0.4740  1.3153
 7297SOL    HW233351   2.782   1.670  12.543 -0.1507  0.6426 -0.1049
 7298SOL     OW33352   4.075   1.849   3.141  0.4061 -0.4298 -0.0862
 7298SOL    HW133353   4.140   1.788   3.106  1.6515  0.9340 -0.1622
 7298SOL    HW233354   4.042   1.879   3.056  1.7197 -1.1725 -0.8765
 7299SOL     OW33355   1.027   4.325   1.179 -0.6143  0.4429  0.1446
 7299SOL    HW133356   1.038   4.233   1.153  0.4380  0.8048 -0.6665
 7299SOL    HW233357   0.944   4.344   1.135 -0.1199  0.0189 -0.9448
 7300SOL     OW33358   3.169   2.129  11.929 -0.5256 -0.4271  0.8862
 7300SOL    HW133359   3.141   2.200  11.988  1.7723  1.0158  0.2363
 7300SOL    HW233360   3.095   2.118  11.869  1.9984 -0.5684 -2.2269
 7301SOL     OW33361   0.137   1.257   0.604 -0.7371  0.2868  0.1049
 7301SOL    HW133362   0.139   1.225   0.695 -2.0040 -0.0258  0.0230
 7301SOL    HW233363   0.223   1.224   0.578 -0.1795 -0.1910  2.5193
 7302SOL     OW33364   2.619   4.699  10.451 -0.0759  0.2296  0.2699
 7302SOL    HW133365   2.591   4.608  10.466 -4.0271  1.3860  0.1008
 7302SOL    HW233366   2.698   4.705  10.505 -0.0440  0.7847  0.1611
 7303SOL     OW33367   4.529   0.822   2.887  0.4170 -0.0054 -0.1576
 7303SOL    HW133368   4.555   0.914   2.882 -0.3261  0.0347 -3.3260
 7303SOL    HW233369   4.458   0.837   2.950  1.4968  0.9527  0.8300
 7304SOL     OW33370   2.530   3.876  10.610  0.0873  0.1530 -0.0377
 7304SOL    HW133371   2.547   3.923  10.692  2.7819 -0.8999  0.0236
 7304SOL    HW233372   2.436   3.870  10.594  0.5272 -0.3956 -2.3461
 7305SOL     OW33373   1.918   0.734   5.233  0.5802 -0.7514  0.1274
 7305SOL    HW133374   1.944   0.826   5.234 -0.4425 -0.4288 -1.6793
 7305SOL    HW233375   1.999   0.691   5.208  0.9977 -0.9323  1.7878
 7306SOL     OW33376   4.332   4.684   3.314 -0.0576 -0.4164  0.0415
 7306SOL    HW133377   4.425   4.683   3.290 -0.2096  1.3397 -0.5899
 7306SOL    HW233378   4.300   0.043   3.275  1.6547  0.8422  1.2058
 7307SOL     OW33379   2.153   0.255  10.838 -0.4032 -0.0973  0.1685
 7307SOL    HW133380   2.161   0.261  10.743  0.0532  0.0275  0.2105
 7307SOL    HW233381   2.202   0.174  10.857 -0.2037  0.5337  2.3619
 7308SOL     OW33382   2.546   4.659   0.773  0.4556  0.5373  0.8847
 7308SOL    HW133383   2.503   4.719   0.835 -1.9556 -1.0162  0.7399
 7308SOL    HW233384   2.640   4.671   0.786  0.5406  0.7312  0.0820
 7309SOL     OW33385   1.874   2.850   0.475 -0.0020  0.0731 -0.2661
 7309SOL    HW133386   1.959   2.805   0.474 -1.2154 -2.1969 -0.7739
 7309SOL    HW233387   1.853   2.840   0.568  0.0091 -1.6457 -0.4620
 7310SOL     OW33388   1.886   3.607   1.903  0.0310 -0.0052  0.4241
 7310SOL    HW133389   1.958   3.662   1.933  0.3082 -0.3549  0.4021
 7310SOL    HW233390   1.923   3.521   1.883 -0.9741 -0.2129 -0.5473
 7311SOL     OW33391   1.141   1.042   1.154 -0.0118  0.2712  0.4462
 7311SOL    HW133392   1.076   1.093   1.107 -0.0115 -2.6367 -2.6579
 7311SOL    HW233393   1.161   1.093   1.233  1.2708 -1.4473  1.2229
 7312SOL     OW33394   2.680   3.812   1.770  0.1421 -0.5463  0.0888
 7312SOL    HW133395   2.631   3.804   1.688  0.3446 -1.4701  0.0532
 7312SOL    HW233396   2.719   3.725   1.764 -0.8031 -0.9341 -0.5645
 7313SOL     OW33397   2.901   1.111   7.504 -0.0342  0.2334  0.6300
 7313SOL    HW133398   2.957   1.099   7.427 -0.2298  2.1716  0.1729
 7313SOL    HW233399   2.906   1.026   7.546  2.7152  0.3170  0.4554
 7314SOL     OW33400   2.716   4.492  12.411 -0.1568 -0.1953 -0.6674
 7314SOL    HW133401   2.775   4.498  12.335  2.9679  0.4297  1.8059
 7314SOL    HW233402   2.648   4.557  12.396  0.7227  0.4648 -1.8031
 7315SOL     OW33403   1.415   0.358   2.474 -0.2715  0.3305  0.1984
 7315SOL    HW133404   1.430   0.276   2.522  0.5751  0.8833  0.8820
 7315SOL    HW233405   1.333   0.383   2.515 -1.0938 -1.9962  0.0055
 7316SOL     OW33406   4.413   4.609   9.047 -0.0040  0.2329  0.7609
 7316SOL    HW133407   4.465   4.532   9.022 -1.9138 -0.1249 -2.0818
 7316SOL    HW233408   4.338   4.594   8.990  0.6829 -2.8511  0.6473
 7317SOL     OW33409   3.349   0.318   5.616 -0.2424 -0.5309  0.1755
 7317SOL    HW133410   3.388   0.401   5.645  0.0318 -0.5652 -0.0973
 7317SOL    HW233411   3.263   0.356   5.599 -0.0281 -0.6510 -1.1425
 7318SOL     OW33412   1.227   0.329  10.499 -0.3445  0.1384  0.0899
 7318SOL    HW133413   1.321   0.333  10.520 -0.0253  2.3117 -1.6855
 7318SOL    HW233414   1.207   0.237  10.512  0.8280 -0.3639 -1.6049
 7319SOL     OW33415   4.463   2.078   4.083 -0.3001 -0.4311 -0.6039
 7319SOL    HW133416   4.527   2.132   4.037 -0.3995  0.9098  0.8648
 7319SOL    HW233417   4.519   2.006   4.111  0.9246  0.6001 -0.4132
 7320SOL     OW33418   0.100   3.990  17.183 -0.1105  0.3135 -0.3475
 7320SOL    HW133419   0.064   4.065  17.230  3.7620  2.0584 -0.2284
 7320SOL    HW233420   0.094   4.007  17.089 -0.1542  1.7677 -0.0778
 7321SOL     OW33421   1.897   2.543   3.594 -0.5121  0.9784  0.1470
 7321SOL    HW133422   1.924   2.581   3.678 -0.2285 -0.1243  0.5638
 7321SOL    HW233423   1.867   2.620   3.547 -0.3298  1.2562  0.4802
 7322SOL     OW33424   1.331   2.723   8.570  0.0474 -0.5542  0.1565
 7322SOL    HW133425   1.255   2.680   8.611  0.4964 -0.0391  1.5226
 7322SOL    HW233426   1.335   2.801   8.626  2.1636 -0.0575 -0.7103
 7323SOL     OW33427   4.457   0.858   2.029  0.0836 -0.1886  0.2438
 7323SOL    HW133428   4.481   0.897   1.945 -0.9351 -1.5970 -0.7097
 7323SOL    HW233429   4.374   0.818   2.002  0.0501 -0.4642  0.7408
 7324SOL     OW33430   1.752   0.906  14.664 -0.2335  0.8308  0.7566
 7324SOL    HW133431   1.704   0.825  14.679 -0.9058  0.9791 -0.6544
 7324SOL    HW233432   1.828   0.872  14.618 -1.7447 -0.1342 -1.0023
 7325SOL     OW33433   2.537   0.947   5.873 -0.1516  0.1110  0.2939
 7325SOL    HW133434   2.592   0.982   5.803  0.9587  0.8613  1.5542
 7325SOL    HW233435   2.597   0.949   5.947  0.4960  2.6240 -0.2765
 7326SOL     OW33436   3.579   4.230  12.044 -0.0524  0.4846 -0.2696
 7326SOL    HW133437   3.639   4.247  11.972  1.3938  1.4942  1.1675
 7326SOL    HW233438   3.592   4.312  12.093  1.6296  0.5132 -0.7838
 7327SOL     OW33439   1.721   2.318   4.238 -0.2037 -0.3999 -0.4044
 7327SOL    HW133440   1.718   2.337   4.332  1.0164  0.2347 -0.4823
 7327SOL    HW233441   1.710   2.223   4.240  1.1959 -0.5574  0.2705
 7328SOL     OW33442   0.944   0.113   4.971 -0.5264 -0.6087  0.1946
 7328SOL    HW133443   0.968   0.176   4.904 -2.0057 -0.4083 -0.1370
 7328SOL    HW233444   0.849   0.126   4.967 -0.4336  0.4759  1.4466
 7329SOL     OW33445   2.806   2.588   8.138  0.1664 -0.0595  0.1405
 7329SOL    HW133446   2.786   2.568   8.047  1.7190  2.5040 -0.7843
 7329SOL    HW233447   2.743   2.659   8.150  0.2723  0.1784 -0.6834
 7330SOL     OW33448   4.234   0.680   1.950 -0.1718  0.2940  0.1635
 7330SOL    HW133449   4.214   0.673   1.857  1.5959  2.6895 -0.4059
 7330SOL    HW233450   4.156   0.721   1.987 -0.4281  0.5003 -0.5944
 7331SOL     OW33451   0.902   3.456   1.382  0.0031  0.0182  0.1122
 7331SOL    HW133452   0.937   3.378   1.339 -0.6373 -0.7569  0.9665
 7331SOL    HW233453   0.887   3.516   1.309  0.9714  1.9330  1.4817
 7332SOL     OW33454   0.011   3.866   6.313  0.3184  0.4386 -0.1431
 7332SOL    HW133455   4.711   3.798   6.377  2.4458 -0.9072 -0.8608
 7332SOL    HW233456   0.035   3.815   6.236 -2.2400 -0.3926 -0.4113
 7333SOL     OW33457   1.715   0.768   7.855  0.2942  0.2885 -1.0302
 7333SOL    HW133458   1.672   0.783   7.939  0.9419 -0.5217 -0.5474
 7333SOL    HW233459   1.783   0.836   7.857 -1.3021  1.8388  1.2378
 7334SOL     OW33460   1.175   0.522  15.354 -0.4407  1.2973 -0.3019
 7334SOL    HW133461   1.202   0.598  15.406  0.4332 -1.2652  2.9782
 7334SOL    HW233462   1.082   0.524  15.379 -0.8405 -0.0572 -1.6776
 7335SOL     OW33463   2.155   0.842  17.108  0.5260  0.2422 -0.0990
 7335SOL    HW133464   2.241   0.875  17.081  0.9725 -0.7630  0.1063
 7335SOL    HW233465   2.121   0.914  17.161 -1.7181 -2.1474  1.7012
 7336SOL     OW33466   3.610   4.618   6.596  0.0991  0.4929  0.4332
 7336SOL    HW133467   3.648   4.706   6.591  1.6654 -0.2102 -0.1059
 7336SOL    HW233468   3.615   4.581   6.508  0.4484  1.7939 -0.1011
 7337SOL     OW33469   4.569   4.642   7.699 -0.3195  0.1540 -0.0844
 7337SOL    HW133470   4.485   4.596   7.702  0.2711 -0.8287  1.1163
 7337SOL    HW233471   4.618   4.598   7.630  3.5207  2.3125  1.2575
 7338SOL     OW33472   2.716   4.213   2.127 -0.3018  0.1600 -0.0016
 7338SOL    HW133473   2.682   4.175   2.046  0.2805 -0.4363  0.0414
 7338SOL    HW233474   2.665   4.169   2.195 -0.2251 -0.5532 -0.4166
 7339SOL     OW33475   1.279   0.641  11.941 -0.6387 -0.3891  0.4973
 7339SOL    HW133476   1.273   0.735  11.960  0.1073 -0.0364 -1.0559
 7339SOL    HW233477   1.225   0.637  11.862  1.7307  1.2501 -1.1978
 7340SOL     OW33478   2.670   1.853  13.623 -0.2531 -0.4898  0.0375
 7340SOL    HW133479   2.748   1.898  13.656 -2.3156  3.9912 -1.1742
 7340SOL    HW233480   2.632   1.932  13.583  2.0946  0.9549  0.6270
 7341SOL     OW33481   1.913   2.408   7.088 -0.8209  0.4182  0.3687
 7341SOL    HW133482   1.937   2.369   7.004  1.0317 -0.1381  1.1538
 7341SOL    HW233483   1.986   2.460   7.121  0.0162 -2.2005  2.6556
 7342SOL     OW33484   1.298   1.233   7.302  0.5952  0.3178 -0.3682
 7342SOL    HW133485   1.209   1.212   7.331  1.4943 -0.9061  1.4276
 7342SOL    HW233486   1.302   1.318   7.346  0.4919 -1.0508  2.2382
 7343SOL     OW33487   0.554   3.021   6.892  0.1840 -0.3368 -0.2203
 7343SOL    HW133488   0.580   3.058   6.808  0.3017  2.2798  0.9904
 7343SOL    HW233489   0.569   3.081   6.965 -1.8978  1.1666 -1.0389
 7344SOL     OW33490   3.487   2.071   5.237  0.2339  0.2004  0.5971
 7344SOL    HW133491   3.518   2.013   5.167 -0.3479 -0.3314  0.7804
 7344SOL    HW233492   3.434   2.139   5.196  0.8183  0.3236  0.0377
 7345SOL     OW33493   3.597   3.077   5.819 -0.8026 -0.2641  0.1966
 7345SOL    HW133494   3.558   3.047   5.738  1.1665 -0.6975 -0.5975
 7345SOL    HW233495   3.681   3.113   5.790 -0.5804 -0.8570  0.0966
 7346SOL     OW33496   1.678   1.775   8.561 -0.1042 -0.8303  0.3168
 7346SOL    HW133497   1.624   1.850   8.585  0.1429 -0.8564  0.9779
 7346SOL    HW233498   1.667   1.724   8.642  0.6340 -0.4688  0.6471
 7347SOL     OW33499   4.700   4.687  16.720 -0.4689  0.0229  0.4720
 7347SOL    HW133500   4.611   4.701  16.687 -0.7808  1.2335  1.8592
 7347SOL    HW233501   0.023   4.712  16.640 -2.8891 -2.0068 -1.5532
 7348SOL     OW33502   3.869   3.729   6.214  0.4158  0.0994 -0.2057
 7348SOL    HW133503   3.848   3.818   6.184  2.9737  0.1395 -1.9499
 7348SOL    HW233504   3.843   3.743   6.305  0.3967 -1.1817 -0.0150
 7349SOL     OW33505   3.201   2.407   8.237 -0.5220 -0.0586 -0.1489
 7349SOL    HW133506   3.269   2.454   8.286 -0.6651 -0.3069  0.2848
 7349SOL    HW233507   3.240   2.320   8.236  1.2308  0.7188 -0.2676
 7350SOL     OW33508   2.534   2.217   3.670  0.3979  0.3225 -0.3133
 7350SOL    HW133509   2.538   2.164   3.590  1.3576  2.0044 -1.3984
 7350SOL    HW233510   2.477   2.160   3.720  2.0316 -0.1244  1.0482
 7351SOL     OW33511   2.690   0.991   2.455 -0.0368 -1.1622  0.1309
 7351SOL    HW133512   2.734   1.075   2.447 -1.1796 -0.6779 -1.0318
 7351SOL    HW233513   2.750   0.935   2.406  0.5813  0.1878 -0.6433
 7352SOL     OW33514   1.090   3.109   0.718  0.1207  0.0053  0.2497
 7352SOL    HW133515   1.016   3.049   0.703  0.8723  0.0613 -3.4196
 7352SOL    HW233516   1.143   3.081   0.644  1.4150  0.7790  0.8913
 7353SOL     OW33517   0.033   1.909  13.667  0.1936 -0.2554  0.3654
 7353SOL    HW133518   0.119   1.868  13.656  0.5279  0.1485  1.4145
 7353SOL    HW233519   0.038   1.912  13.763 -2.7428 -1.4300  0.5382
 7354SOL     OW33520   2.937   2.079   5.590  1.1004  0.6665 -0.2660
 7354SOL    HW133521   2.956   2.093   5.683 -2.6864 -1.4891  0.8009
 7354SOL    HW233522   2.851   2.038   5.586  1.9983 -1.1946 -0.3519
 7355SOL     OW33523   1.094   4.711   7.936  0.2159  0.1006  0.1890
 7355SOL    HW133524   1.069   0.023   8.023  1.3332  2.3631 -0.3642
 7355SOL    HW233525   1.106   4.619   7.956  2.4083  0.1417 -0.9047
 7356SOL     OW33526   2.274   3.429   5.250  0.1012  0.0989  0.1409
 7356SOL    HW133527   2.219   3.491   5.298 -1.4232  0.7042 -2.3988
 7356SOL    HW233528   2.211   3.383   5.195  1.0483  0.3539 -1.1737
 7357SOL     OW33529   4.703   2.233   9.316  0.0256  0.6141 -0.2810
 7357SOL    HW133530   0.058   2.246   9.261  0.5969 -0.9873  0.1380
 7357SOL    HW233531   4.704   2.137   9.318 -0.3839  0.6649  2.1114
 7358SOL     OW33532   0.332   0.250   7.981  0.1492  0.1889 -0.0578
 7358SOL    HW133533   0.264   0.311   8.011 -2.0096 -1.6619 -1.1777
 7358SOL    HW233534   0.398   0.308   7.944  0.2490  0.6200  0.7772
 7359SOL     OW33535   1.257   1.196   7.676  0.1605  0.0503  0.0452
 7359SOL    HW133536   1.332   1.236   7.632 -0.6375 -0.9709 -2.2211
 7359SOL    HW233537   1.212   1.275   7.705  2.9527  1.0808  1.6138
 7360SOL     OW33538   1.134   3.500   8.789  0.0001 -0.1675  0.1823
 7360SOL    HW133539   1.109   3.558   8.717 -1.4141 -1.9216 -0.7204
 7360SOL    HW233540   1.130   3.564   8.860 -2.3430  1.5483 -1.5182
 7361SOL     OW33541   0.808   1.477   4.385  0.3621  0.2985  0.5086
 7361SOL    HW133542   0.822   1.418   4.311 -0.6239 -1.5882  1.8060
 7361SOL    HW233543   0.748   1.424   4.437  0.8797 -0.7793  0.0105
 7362SOL     OW33544   0.056   0.236   3.242 -1.4982 -0.0614 -0.3221
 7362SOL    HW133545   0.017   0.317   3.276  1.1902  0.1925  2.1313
 7362SOL    HW233546   0.121   0.213   3.308 -0.6470  1.1356 -0.7340
 7363SOL     OW33547   3.176   1.734  11.796 -0.1524 -0.7178  1.0807
 7363SOL    HW133548   3.244   1.794  11.764 -0.2789 -1.6000 -0.8232
 7363SOL    HW233549   3.188   1.713  11.888  1.8554 -2.8963  0.3316
 7364SOL     OW33550   1.008   2.822   8.325  0.5613 -0.3704  0.0541
 7364SOL    HW133551   1.004   2.865   8.410 -2.5806 -0.6101  0.0403
 7364SOL    HW233552   1.045   2.887   8.265  0.3294 -0.1631  0.1369
 7365SOL     OW33553   0.199   0.119   7.283 -0.4594  0.0208 -0.2137
 7365SOL    HW133554   0.108   0.107   7.310 -0.1366 -0.1504  0.7765
 7365SOL    HW233555   0.184   0.132   7.189 -0.1793 -1.0028 -0.3997
 7366SOL     OW33556   4.331   3.510  11.095 -0.6548  0.6752 -0.0364
 7366SOL    HW133557   4.249   3.478  11.132  0.4211 -2.2336 -0.2327
 7366SOL    HW233558   4.307   3.506  11.003  0.4964 -0.1368 -0.2920
 7367SOL     OW33559   1.873   3.615   1.301 -0.0449  0.2280  0.1001
 7367SOL    HW133560   1.872   3.686   1.366  4.1855  0.7448 -0.3466
 7367SOL    HW233561   1.919   3.660   1.229  2.2851 -0.1188  1.3661
 7368SOL     OW33562   2.546   0.586   0.539  0.2719  0.5400  0.4318
 7368SOL    HW133563   2.613   0.541   0.591 -0.1052 -0.8835 -0.3508
 7368SOL    HW233564   2.474   0.587   0.601 -0.4082  1.2036 -0.3691
 7369SOL     OW33565   1.678   4.211   7.757 -0.8786 -0.0595 -0.3786
 7369SOL    HW133566   1.588   4.201   7.725 -1.2749 -1.5736  1.2043
 7369SOL    HW233567   1.658   4.201   7.850 -1.7632 -1.9974 -0.7968
 7370SOL     OW33568   2.473   2.315   8.036  0.3394  0.2492  0.1658
 7370SOL    HW133569   2.423   2.285   8.112 -2.4659  1.6998 -1.0965
 7370SOL    HW233570   2.559   2.302   8.077 -0.1049  0.5970  1.2023
 7371SOL     OW33571   4.279   0.345   1.630 -0.6604 -0.4916 -0.8048
 7371SOL    HW133572   4.209   0.317   1.571 -1.2291 -1.4285  0.3334
 7371SOL    HW233573   4.264   0.438   1.648  3.3516 -0.2166  1.2880
 7372SOL     OW33574   3.676   1.356  16.639  0.0237 -0.2761 -0.0554
 7372SOL    HW133575   3.589   1.391  16.619 -0.6656 -1.4155  0.9624
 7372SOL    HW233576   3.686   1.403  16.722 -2.8483  0.2941 -0.0094
 7373SOL     OW33577   3.891   2.600   3.920  0.3288  0.2916 -0.1581
 7373SOL    HW133578   3.817   2.653   3.891 -0.0724 -0.2359 -0.1142
 7373SOL    HW233579   3.843   2.517   3.927  0.1162  0.5432  1.2853
 7374SOL     OW33580   1.695   4.662  17.131 -0.5936  0.3022 -0.2098
 7374SOL    HW133581   1.709   0.027  17.167 -1.2177  0.1085  0.4941
 7374SOL    HW233582   1.600   4.658  17.122 -0.5163 -2.0165  0.0222
 7375SOL     OW33583   3.881   4.127   2.975  0.7235  0.1594  0.1942
 7375SOL    HW133584   3.827   4.048   2.971  1.0116 -0.0140 -0.3620
 7375SOL    HW233585   3.894   4.152   2.883  0.2225  3.3455  1.0138
 7376SOL     OW33586   4.682   3.784  11.206  0.9295  0.1540  0.2049
 7376SOL    HW133587   4.599   3.737  11.215  1.7578 -1.4957 -0.9264
 7376SOL    HW233588   0.022   3.729  11.252  0.4008  1.1194  2.0935
 7377SOL     OW33589   0.241   0.892  10.144 -0.0451  0.4723  0.1539
 7377SOL    HW133590   0.297   0.852  10.210 -0.2497 -1.6263 -0.9464
 7377SOL    HW233591   0.286   0.960  10.094  0.9328 -1.0170 -0.9460
 7378SOL     OW33592   0.915   3.399   7.007 -0.0478  0.4315 -0.0184
 7378SOL    HW133593   0.876   3.445   7.081 -2.7565  1.1839 -1.9157
 7378SOL    HW233594   1.009   3.389   7.024  0.0518  0.9153 -0.2870
 7379SOL     OW33595   2.821   4.232  11.775  0.3371  0.0758 -0.1700
 7379SOL    HW133596   2.877   4.309  11.782 -1.2720  1.3211 -1.3368
 7379SOL    HW233597   2.738   4.279  11.769  1.4571  1.7532 -2.6332
 7380SOL     OW33598   0.139   4.674  14.655  0.6078 -0.2270  0.4167
 7380SOL    HW133599   0.186   4.592  14.670 -1.9244 -1.6031  0.9296
 7380SOL    HW233600   0.054   4.631  14.646 -1.0326  3.2708 -0.6444
 7381SOL     OW33601   2.260   2.922   6.267  0.1930 -0.1429  0.6718
 7381SOL    HW133602   2.181   2.976   6.268 -0.2784 -0.8953  4.3889
 7381SOL    HW233603   2.330   2.983   6.290 -0.1589  1.3386 -2.2324
 7382SOL     OW33604   3.351   4.184   4.750  0.1307  0.2959  0.2933
 7382SOL    HW133605   3.343   4.278   4.765 -0.4800  0.4242 -0.8414
 7382SOL    HW233606   3.440   4.168   4.781 -0.0596  0.4847  0.9353
 7383SOL     OW33607   3.218   4.471   1.882  0.2124 -0.3263  0.6651
 7383SOL    HW133608   3.296   4.417   1.869  0.5113  0.4211 -0.5852
 7383SOL    HW233609   3.264   4.547   1.847 -0.7366 -0.5872 -1.1724
 7384SOL     OW33610   3.079   4.073   9.049  0.1086 -0.0438 -0.3586
 7384SOL    HW133611   3.022   4.119   9.110  0.1527 -0.1122 -0.2660
 7384SOL    HW233612   3.075   3.988   9.093 -0.1544 -1.0318 -2.2766
 7385SOL     OW33613   1.968   3.626  13.032 -0.5612  0.1637  0.1985
 7385SOL    HW133614   1.932   3.713  13.048 -0.9132 -0.1743  1.2385
 7385SOL    HW233615   2.039   3.624  13.096 -1.3173  2.6671  1.1100
 7386SOL     OW33616   2.105   2.568   0.157  0.1492  0.3669 -0.2320
 7386SOL    HW133617   2.035   2.503   0.163  0.7858 -0.4483 -1.5177
 7386SOL    HW233618   2.141   2.561   0.068  2.0464 -1.1347  0.6420
 7387SOL     OW33619   1.177   0.736   8.275  0.2603  0.1053  0.2885
 7387SOL    HW133620   1.089   0.773   8.281  0.0000 -0.6132  1.0101
 7387SOL    HW233621   1.208   0.768   8.190 -0.5520  0.3850  0.1038
 7388SOL     OW33622   4.418   1.321  13.350  0.3649 -0.5272 -0.4426
 7388SOL    HW133623   4.485   1.389  13.344 -1.8008  1.6538  0.4147
 7388SOL    HW233624   4.435   1.263  13.276 -2.0665 -1.7683 -0.0146
 7389SOL     OW33625   4.502   4.580   1.318  0.2775 -0.3601 -0.0087
 7389SOL    HW133626   4.454   4.508   1.276  0.6717  0.3458 -1.6587
 7389SOL    HW233627   4.477   4.568   1.410 -0.8451 -0.7876 -0.3733
 7390SOL     OW33628   2.991   0.936   7.275  0.0494  0.8810 -0.0786
 7390SOL    HW133629   3.031   0.969   7.195 -1.0043 -0.0732 -1.0059
 7390SOL    HW233630   3.041   0.858   7.301 -1.7922  0.0690  1.0992
 7391SOL     OW33631   1.824   2.785  15.182 -0.4559  0.1171  0.3261
 7391SOL    HW133632   1.764   2.808  15.253 -2.2183 -1.4653 -0.6848
 7391SOL    HW233633   1.903   2.819  15.225  1.9639 -2.0397 -2.4377
 7392SOL     OW33634   0.002   2.454   8.931  0.3129 -0.7281  0.3369
 7392SOL    HW133635   4.663   2.520   8.899  0.1306 -0.1749  1.7909
 7392SOL    HW233636   4.665   2.398   8.982  0.5018  0.2141  1.5986
 7393SOL     OW33637   2.790   2.988   5.720  0.0843  0.0437  0.1277
 7393SOL    HW133638   2.840   2.948   5.791 -1.3590 -0.1959  0.9923
 7393SOL    HW233639   2.717   2.927   5.726 -2.1737  2.4001 -3.3589
 7394SOL     OW33640   1.248   0.435  12.214  0.1820 -0.1378 -0.2957
 7394SOL    HW133641   1.265   0.507  12.275  1.6943 -0.6788 -0.0880
 7394SOL    HW233642   1.338   0.407  12.227  0.4882  1.4730  1.2326
 7395SOL     OW33643   1.165   2.169   3.985  0.5421 -0.0047  0.2035
 7395SOL    HW133644   1.074   2.192   3.966 -0.1280 -2.5559  0.3396
 7395SOL    HW233645   1.201   2.241   3.933 -1.5896  0.9607  0.0490
 7396SOL     OW33646   1.383   3.762  14.398 -0.3005 -0.1144  0.0159
 7396SOL    HW133647   1.294   3.751  14.366 -0.1550  2.2611 -1.1694
 7396SOL    HW233648   1.419   3.721  14.319 -2.4722 -1.5424 -0.2334
 7397SOL     OW33649   4.530   0.794   5.762  0.3497 -0.1862  0.4554
 7397SOL    HW133650   4.442   0.802   5.724  0.3935 -1.3876  0.1175
 7397SOL    HW233651   4.542   0.881   5.800 -0.5261 -0.9721  2.5828
 7398SOL     OW33652   2.731   3.201   3.445 -0.1223  0.7327 -0.1679
 7398SOL    HW133653   2.789   3.196   3.521  1.1497 -1.2588 -1.2851
 7398SOL    HW233654   2.773   3.139   3.386 -0.5086 -0.9709  1.3595
 7399SOL     OW33655   4.504   2.915   3.160  0.2733 -0.1239  0.1137
 7399SOL    HW133656   4.417   2.918   3.199  0.0736  0.4783 -0.3761
 7399SOL    HW233657   4.525   2.829   3.195  0.5029 -0.0939  0.0533
 7400SOL     OW33658   4.343   0.828  12.761  0.4358 -0.3905  0.0081
 7400SOL    HW133659   4.378   0.744  12.790  0.1122 -0.5042  0.0709
 7400SOL    HW233660   4.383   0.830  12.674 -1.0142  0.0476 -0.6571
 7401SOL     OW33661   1.113   0.182   6.262 -0.0189 -0.3229 -0.6417
 7401SOL    HW133662   1.189   0.236   6.281  0.8070 -0.9568 -2.1300
 7401SOL    HW233663   1.102   0.144   6.350  0.8744  0.5964 -0.1342
 7402SOL     OW33664   4.453   0.098  16.643 -0.3151  0.5846  0.8485
 7402SOL    HW133665   4.484   0.187  16.628 -1.2196  1.0885  1.9945
 7402SOL    HW233666   4.364   0.109  16.676 -0.9412 -4.2527  0.8052
 7403SOL     OW33667   3.349   4.366   6.679  0.5705 -0.0750 -0.0192
 7403SOL    HW133668   3.330   4.426   6.751 -0.9419 -0.9876  0.3448
 7403SOL    HW233669   3.392   4.297   6.730 -0.7484 -0.0114  1.1974
 7404SOL     OW33670   4.437   1.808   2.238  0.2488  0.4751 -0.2865
 7404SOL    HW133671   4.346   1.828   2.215  1.0745  2.8311 -1.5888
 7404SOL    HW233672   4.470   1.890   2.200 -0.4808  0.5596 -0.7363
 7405SOL     OW33673   1.001   1.086   0.289  0.1551  0.1873 -0.4369
 7405SOL    HW133674   1.007   1.179   0.265  1.6766 -0.1787 -1.4808
 7405SOL    HW233675   0.980   1.084   0.382  1.1784  1.2449 -0.1836
 7406SOL     OW33676   1.985   0.610   5.865 -0.5944 -0.7103  0.7002
 7406SOL    HW133677   2.038   0.629   5.942  0.9005 -1.1108 -0.2213
 7406SOL    HW233678   2.023   0.676   5.806 -0.8419 -1.1561  0.0406
 7407SOL     OW33679   4.103   4.625   5.968  0.1485  0.2433  0.0144
 7407SOL    HW133680   4.097   4.711   6.008  0.3054  0.8025 -1.1628
 7407SOL    HW233681   4.026   4.581   6.005 -0.0207  0.7114  0.2171
 7408SOL     OW33682   1.169   2.505   7.446  0.0032 -0.3772 -0.8115
 7408SOL    HW133683   1.140   2.464   7.364  1.1427  0.2220 -1.5129
 7408SOL    HW233684   1.087   2.493   7.493  0.2414 -0.3376 -0.3793
 7409SOL     OW33685   0.775   0.085   4.302  0.2255  0.0163  0.1166
 7409SOL    HW133686   0.833   0.042   4.366 -1.4938 -1.8885  0.3800
 7409SOL    HW233687   0.808   0.042   4.223  1.2506  0.5138  0.2654
 7410SOL     OW33688   0.706   2.430   4.852 -0.0844  0.1323 -0.5934
 7410SOL    HW133689   0.652   2.474   4.918  0.6018  1.9016 -1.1953
 7410SOL    HW233690   0.708   2.501   4.788 -0.4677 -0.4965 -1.3055
 7411SOL     OW33691   0.550   0.929  14.904 -0.2938  0.4957 -0.1616
 7411SOL    HW133692   0.463   0.949  14.869 -0.8367 -0.8449  0.4168
 7411SOL    HW233693   0.558   0.980  14.985 -2.3643  0.3428  0.1343
 7412SOL     OW33694   0.876   3.510   2.693  0.3107 -0.2305  0.6351
 7412SOL    HW133695   0.905   3.560   2.769 -2.0288 -0.5364  1.7015
 7412SOL    HW233696   0.790   3.549   2.677 -0.1836 -1.9609 -0.9001
 7413SOL     OW33697   1.389   2.308   3.558 -0.2705  0.0054 -0.4245
 7413SOL    HW133698   1.473   2.310   3.606  0.5307 -0.6081 -1.8002
 7413SOL    HW233699   1.381   2.400   3.533 -1.1715  0.2291  0.6562
 7414SOL     OW33700   1.230   1.250   4.916 -0.7621 -0.4911 -0.6578
 7414SOL    HW133701   1.236   1.224   4.824 -1.4488  0.9450 -1.1072
 7414SOL    HW233702   1.308   1.212   4.954 -0.6349  0.9445  0.5057
 7415SOL     OW33703   1.128   0.958   1.667 -0.0957 -0.3969  0.4042
 7415SOL    HW133704   1.223   0.956   1.678  0.2739  0.9649 -2.4623
 7415SOL    HW233705   1.109   0.913   1.749 -1.6524  1.9676  1.3680
 7416SOL     OW33706   1.394   1.098   4.042 -0.5706  0.2131 -0.5967
 7416SOL    HW133707   1.463   1.061   4.097  0.0285  0.7221 -1.0195
 7416SOL    HW233708   1.403   1.190   4.065  0.5473  0.0427 -0.3463
 7417SOL     OW33709   4.467   4.257  13.751  0.0096  0.6253  0.2451
 7417SOL    HW133710   4.428   4.218  13.829  2.1838  1.1792  1.5849
 7417SOL    HW233711   4.417   4.337  13.734  0.0787  0.3936 -1.0566
 7418SOL     OW33712   0.334   0.309   2.162  0.1901 -0.1730 -0.0702
 7418SOL    HW133713   0.423   0.329   2.134 -0.2701 -1.1932 -2.2634
 7418SOL    HW233714   0.315   0.365   2.238 -0.2833 -1.0653  0.4597
 7419SOL     OW33715   1.263   1.651  13.514 -0.4916 -0.1999 -0.3588
 7419SOL    HW133716   1.326   1.723  13.513 -0.7324  0.0725  2.3252
 7419SOL    HW233717   1.239   1.656  13.607  0.2275 -2.5124 -0.0404
 7420SOL     OW33718   2.001   3.992   9.188 -0.5770  0.2620 -0.7334
 7420SOL    HW133719   1.996   3.973   9.095  0.6436 -1.1227 -0.5158
 7420SOL    HW233720   1.913   3.966   9.213 -1.0117  0.2820 -2.2455
 7421SOL     OW33721   0.664   4.229  17.524  0.2240  0.4900 -0.4353
 7421SOL    HW133722   0.570   4.234  17.510 -0.2006 -0.3896  2.0992
 7421SOL    HW233723   0.659   4.204  17.616  1.4354  1.8530  0.0035
 7422SOL     OW33724   1.661   3.667   6.446  0.7287 -0.2801  0.3323
 7422SOL    HW133725   1.617   3.751   6.455  0.1037 -0.6187  0.4413
 7422SOL    HW233726   1.724   3.677   6.518  0.2790 -0.5238  0.7613
 7423SOL     OW33727   3.117   3.198   4.184 -0.6185  0.2124 -0.5749
 7423SOL    HW133728   3.197   3.248   4.168 -0.2644  0.3334  1.5281
 7423SOL    HW233729   3.053   3.266   4.164  1.1344  2.1358  0.3579
 7424SOL     OW33730   2.476   1.589  12.678 -0.3682  0.1208  0.0181
 7424SOL    HW133731   2.423   1.513  12.701 -0.4463 -0.0279 -0.6495
 7424SOL    HW233732   2.520   1.560  12.598 -1.5956 -1.1342 -0.1979
 7425SOL     OW33733   1.030   3.282   6.376 -0.1504  0.2914  0.0718
 7425SOL    HW133734   1.041   3.373   6.403 -0.0437  0.8660 -1.8962
 7425SOL    HW233735   1.006   3.303   6.286 -0.8032  0.7207  0.3413
 7426SOL     OW33736   1.684   0.105   7.591 -0.1413 -0.3327 -0.1467
 7426SOL    HW133737   1.688   0.012   7.572 -0.4370 -0.7441  1.8588
 7426SOL    HW233738   1.624   0.100   7.666  2.4036 -2.2887  1.7145
 7427SOL     OW33739   4.319   3.098   6.593 -0.0234  0.0281  0.4198
 7427SOL    HW133740   4.405   3.056   6.596  0.6468  1.2870 -0.8096
 7427SOL    HW233741   4.280   3.065   6.512  0.9544  0.0606 -0.0675
 7428SOL     OW33742   3.985   0.434   2.613  0.4557  0.3361  0.3241
 7428SOL    HW133743   3.970   0.356   2.559 -1.8321  1.8992 -1.2727
 7428SOL    HW233744   3.963   0.510   2.560  0.1229  0.5985  0.8401
 7429SOL     OW33745   2.190   0.341   5.937  0.1961 -0.1426 -0.1576
 7429SOL    HW133746   2.185   0.321   5.844 -0.2295  0.0454 -0.1712
 7429SOL    HW233747   2.106   0.304   5.964 -0.3508 -0.1126 -1.8661
 7430SOL     OW33748   2.589   0.540   6.174  0.7928 -0.0113  0.4118
 7430SOL    HW133749   2.681   0.563   6.186  1.2729 -1.8172  0.3013
 7430SOL    HW233750   2.604   0.458   6.127  0.5250  0.2323 -0.0889
 7431SOL     OW33751   3.161   2.724  17.449  0.1860  1.5124  0.5392
 7431SOL    HW133752   3.094   2.690  17.390 -0.5648  0.3326  2.0806
 7431SOL    HW233753   3.233   2.752  17.392 -1.2492  0.2890 -1.8971
 7432SOL     OW33754   4.583   0.995  12.976  0.3708 -0.2378 -0.2418
 7432SOL    HW133755   4.635   1.017  12.898 -0.8518  1.1329 -0.6635
 7432SOL    HW233756   4.544   0.911  12.951  1.0305 -0.6727  0.1988
 7433SOL     OW33757   2.411   2.856   9.002 -0.0205  0.2607  0.1291
 7433SOL    HW133758   2.500   2.838   9.033 -0.9265 -1.6308  1.6164
 7433SOL    HW233759   2.408   2.946   9.034  0.6311  0.7602 -1.1945
 7434SOL     OW33760   2.364   3.320   9.258  0.2487  0.4886 -0.2377
 7434SOL    HW133761   2.432   3.324   9.325 -0.7187 -1.5257  0.8720
 7434SOL    HW233762   2.278   3.300   9.294  0.7023  2.7061  2.0199
 7435SOL     OW33763   4.360   0.903   0.866 -0.2676  0.2344 -0.3739
 7435SOL    HW133764   4.428   0.836   0.868 -0.2438  0.3279  1.4308
 7435SOL    HW233765   4.413   0.981   0.850  2.7996 -1.8398 -0.2984
 7436SOL     OW33766   1.897   2.850  12.695  0.1423 -0.3367 -0.2608
 7436SOL    HW133767   1.875   2.757  12.687 -0.6464 -0.6704  5.7814
 7436SOL    HW233768   1.835   2.884  12.759 -1.0515 -0.5992 -1.2916
 7437SOL     OW33769   2.694   1.099  12.239  0.3089 -0.1658  0.5847
 7437SOL    HW133770   2.645   1.019  12.221  2.5772 -1.3110 -0.3722
 7437SOL    HW233771   2.776   1.082  12.193  0.0783 -0.1795  0.1732
 7438SOL     OW33772   1.178   4.596   6.186  0.2564 -0.1389 -0.5443
 7438SOL    HW133773   1.171   4.610   6.280  3.3438 -1.7704 -0.0595
 7438SOL    HW233774   1.175   4.501   6.199  0.3056 -0.1300 -0.4679
 7439SOL     OW33775   0.942   0.634   1.670  0.1897 -0.0754 -1.0451
 7439SOL    HW133776   0.948   0.543   1.641  0.7251  0.2758 -2.0425
 7439SOL    HW233777   1.004   0.629   1.743 -1.4945  0.8105  0.4502
 7440SOL     OW33778   0.638   1.450   7.369 -0.0997 -0.6508  0.5229
 7440SOL    HW133779   0.634   1.430   7.276  0.0752  2.0107 -0.0741
 7440SOL    HW233780   0.557   1.405   7.393  0.2424 -0.2743  2.4571
 7441SOL     OW33781   2.107   0.424   8.743 -0.1270 -0.5353  0.1318
 7441SOL    HW133782   2.020   0.406   8.778  0.3995  0.7148  2.0648
 7441SOL    HW233783   2.122   0.518   8.748 -0.0775 -0.4593 -1.4713
 7442SOL     OW33784   1.797   4.231   4.406  0.0875  0.6072  0.7729
 7442SOL    HW133785   1.830   4.320   4.392  1.8339 -0.6595 -3.2653
 7442SOL    HW233786   1.719   4.232   4.352 -0.1218  0.5634  1.0740
 7443SOL     OW33787   2.119   4.234  13.792  0.2218  0.0105  0.2390
 7443SOL    HW133788   2.076   4.151  13.771 -0.4961  0.3454  0.4069
 7443SOL    HW233789   2.113   4.227  13.887 -1.8959  0.2288  0.1170
 7444SOL     OW33790   3.356   0.176   6.045  0.1152  0.3879 -0.3743
 7444SOL    HW133791   3.412   0.242   6.004  2.0972 -2.5475 -2.4080
 7444SOL    HW233792   3.418   0.149   6.113  0.5892 -0.4399 -1.1222
 7445SOL     OW33793   1.185   1.876   5.691 -0.2497  0.2298  0.2141
 7445SOL    HW133794   1.227   1.874   5.777 -1.7394 -1.4308  0.9122
 7445SOL    HW233795   1.265   1.868   5.638 -0.0811 -0.7356  0.6154
 7446SOL     OW33796   1.589   4.393  10.233 -0.2421  0.2479 -0.1513
 7446SOL    HW133797   1.652   4.433  10.293  0.7471 -1.1055 -0.2898
 7446SOL    HW233798   1.652   4.376  10.163  0.6340 -0.1526  0.7480
 7447SOL     OW33799   2.621   1.544   6.217 -0.4210 -0.2760  0.5864
 7447SOL    HW133800   2.551   1.483   6.240  1.0189 -2.7973 -1.6930
 7447SOL    HW233801   2.567   1.623   6.210 -0.0871 -0.0446  0.6539
 7448SOL     OW33802   1.470   1.016   9.931 -0.1990  0.3050 -0.3531
 7448SOL    HW133803   1.413   0.941   9.947 -2.1482  2.0638  0.8553
 7448SOL    HW233804   1.496   0.997   9.841  3.5548 -0.2790  0.8198
 7449SOL     OW33805   0.154   2.898   2.669  0.0152 -0.5745  0.1987
 7449SOL    HW133806   0.179   2.823   2.614  1.4109  0.1314 -0.1406
 7449SOL    HW233807   0.072   2.872   2.710 -0.4706  1.0907  0.2390
 7450SOL     OW33808   3.693   2.032   5.459  0.4965 -0.2269 -0.3612
 7450SOL    HW133809   3.652   2.116   5.439  0.7287  0.2045  0.9448
 7450SOL    HW233810   3.679   1.988   5.376  0.0665  0.1997 -0.5118
 7451SOL     OW33811   4.626   3.405   8.448 -0.5974  0.1168 -0.0699
 7451SOL    HW133812   4.674   3.363   8.519  0.2735 -0.7242 -1.1741
 7451SOL    HW233813   4.700   3.428   8.392 -0.4817 -0.1348 -0.0202
 7452SOL     OW33814   1.618   3.406  15.234  0.2498  0.6455 -0.1514
 7452SOL    HW133815   1.569   3.375  15.157 -2.1754  3.2826  0.3100
 7452SOL    HW233816   1.700   3.425  15.188 -0.2822  0.2692 -1.2694
 7453SOL     OW33817   1.656   0.995   2.215  0.2769  0.1636 -0.5262
 7453SOL    HW133818   1.738   1.012   2.262 -0.4467 -0.4694  0.9536
 7453SOL    HW233819   1.666   0.900   2.201 -0.3746  0.1706 -1.0139
 7454SOL     OW33820   2.531   0.615   8.032  0.1313  0.3197 -0.1346
 7454SOL    HW133821   2.477   0.666   8.091 -1.2025  0.1452 -1.2009
 7454SOL    HW233822   2.545   0.530   8.075  2.4089  0.8512  0.1759
 7455SOL     OW33823   4.438   2.169   1.429  0.0801  0.5871 -0.4683
 7455SOL    HW133824   4.449   2.083   1.388  0.5243  0.0185  0.8634
 7455SOL    HW233825   4.520   2.203   1.393  0.3045  1.5654  0.9860
 7456SOL     OW33826   3.216   2.271   0.500 -0.1556 -0.0394  0.1755
 7456SOL    HW133827   3.181   2.302   0.416  0.2674  1.9677  0.7372
 7456SOL    HW233828   3.172   2.188   0.515 -1.1813  0.5439  0.3262
 7457SOL     OW33829   2.060   2.856   5.138  0.0380 -0.1730 -0.1151
 7457SOL    HW133830   2.056   2.805   5.218 -2.2941  1.9202  1.1073
 7457SOL    HW233831   2.015   2.793   5.081  0.6193 -0.6058 -0.0916
 7458SOL     OW33832   0.615   0.753  13.452  0.7219 -0.3775  0.0877
 7458SOL    HW133833   0.563   0.680  13.486  1.3826 -1.2051 -0.6775
 7458SOL    HW233834   0.635   0.800  13.533 -1.9750  0.8301  0.0551
 7459SOL     OW33835   0.231   2.817   8.855  0.5972 -0.4459  0.2327
 7459SOL    HW133836   0.227   2.869   8.936 -1.0179  2.6491 -1.8508
 7459SOL    HW233837   0.237   2.729   8.893 -0.5755  0.0110  1.4578
 7460SOL     OW33838   0.729   3.661  11.152 -0.3236  0.0747 -0.0938
 7460SOL    HW133839   0.638   3.641  11.174  0.7263 -0.2253  3.8926
 7460SOL    HW233840   0.769   3.590  11.202  0.8050  0.9277  0.2002
 7461SOL     OW33841   0.556   2.314   8.330  0.4742  0.3548 -0.3563
 7461SOL    HW133842   0.466   2.334   8.358 -0.2990  1.6101 -3.7947
 7461SOL    HW233843   0.601   2.348   8.407  0.1402 -2.4190  1.0650
 7462SOL     OW33844   2.553   4.504  16.678  0.6931 -0.4951 -0.2052
 7462SOL    HW133845   2.526   4.591  16.649 -1.3007 -1.6329 -1.8041
 7462SOL    HW233846   2.483   4.474  16.735 -0.6850  2.2698 -0.4456
 7463SOL     OW33847   2.959   2.056   4.406 -0.0344  0.1785  0.1789
 7463SOL    HW133848   2.938   1.979   4.352  0.6182  0.9537 -1.1736
 7463SOL    HW233849   3.052   2.071   4.391 -0.4197  1.3114 -1.0650
 7464SOL     OW33850   2.657   4.545   7.474 -0.3133  0.0622  0.3893
 7464SOL    HW133851   2.707   4.617   7.436  1.3072 -0.8209  0.8514
 7464SOL    HW233852   2.705   4.467   7.447 -0.4176  0.3306 -0.5862
 7465SOL     OW33853   1.499   1.168   4.579 -0.6135  0.5074 -0.0726
 7465SOL    HW133854   1.582   1.193   4.538 -1.1836  1.2403 -0.7929
 7465SOL    HW233855   1.510   1.219   4.659  0.9049 -0.8485  0.5589
 7466SOL     OW33856   2.040   2.639   2.140 -0.0747 -0.2980  0.6484
 7466SOL    HW133857   2.133   2.656   2.127  0.1728 -1.6154  0.6211
 7466SOL    HW233858   2.024   2.590   2.060 -1.9724  0.9127  0.3121
 7467SOL     OW33859   2.039   1.624  11.964  0.4304  0.1667  0.5634
 7467SOL    HW133860   2.131   1.644  11.945  0.9137 -0.6630  2.0502
 7467SOL    HW233861   2.013   1.707  12.004  0.0474  0.9630 -1.3191
 7468SOL     OW33862   0.303   2.441   9.305 -0.5958 -0.2846  0.2646
 7468SOL    HW133863   0.273   2.379   9.238  0.2486  0.2664 -0.6155
 7468SOL    HW233864   0.338   2.383   9.372  0.9939  0.5145  0.1103
 7469SOL     OW33865   0.681   2.189   8.118  0.3788  0.4726 -0.2586
 7469SOL    HW133866   0.751   2.137   8.156  1.1864  0.7806 -1.3182
 7469SOL    HW233867   0.648   2.229   8.199  0.8653 -1.0752  0.6981
 7470SOL     OW33868   2.807   1.981  13.362 -0.6731 -0.3202 -0.1941
 7470SOL    HW133869   2.841   1.938  13.284  1.7328 -0.4152  0.8974
 7470SOL    HW233870   2.799   1.903  13.417  1.3582 -0.8768 -0.6964
 7471SOL     OW33871   2.615   3.295   7.031  0.1937  0.1680 -0.3763
 7471SOL    HW133872   2.693   3.280   6.979 -1.0361 -0.5549 -2.0188
 7471SOL    HW233873   2.584   3.381   7.002  0.5042 -0.3149 -2.1531
 7472SOL     OW33874   4.676   3.779  16.112 -0.0841 -0.0663  0.4205
 7472SOL    HW133875   4.680   3.866  16.153  1.4057 -0.8409  1.9623
 7472SOL    HW233876   4.699   3.798  16.021 -0.1059 -2.1131 -0.0083
 7473SOL     OW33877   4.234   2.783   5.511  0.1182 -0.0477  0.2345
 7473SOL    HW133878   4.251   2.701   5.464 -1.1018 -0.3121  0.2618
 7473SOL    HW233879   4.214   2.752   5.600 -0.2347 -0.6849 -0.0652
 7474SOL     OW33880   3.714   0.944  15.924  0.4023  0.5218  0.1274
 7474SOL    HW133881   3.623   0.930  15.948  1.1656 -0.6195  2.3524
 7474SOL    HW233882   3.722   0.875  15.858  0.2760  1.9773 -1.3961
 7475SOL     OW33883   4.146   2.405  14.201  0.1040  0.0142 -0.3857
 7475SOL    HW133884   4.147   2.449  14.286  0.1850 -3.1444  1.2369
 7475SOL    HW233885   4.179   2.317  14.216  2.5926  1.3430  1.9097
 7476SOL     OW33886   3.428   2.912   7.294 -0.0597 -0.4097  0.4629
 7476SOL    HW133887   3.340   2.878   7.310 -0.6876  0.2809 -1.6200
 7476SOL    HW233888   3.485   2.838   7.315  0.9791  0.6252  1.3368
 7477SOL     OW33889   3.290   4.089  13.538  0.0402  0.1748  0.1369
 7477SOL    HW133890   3.260   4.175  13.570 -2.3413 -1.5409  2.5033
 7477SOL    HW233891   3.259   4.032  13.608 -0.8614 -2.0678 -2.0958
 7478SOL     OW33892   1.565   2.187   6.626 -0.4571 -0.4643 -0.2313
 7478SOL    HW133893   1.477   2.173   6.659 -1.4222  1.6478 -1.8920
 7478SOL    HW233894   1.568   2.121   6.557 -1.4750  0.6798 -1.3916
 7479SOL     OW33895   3.529   3.793   6.287  0.1071  0.3229  0.0048
 7479SOL    HW133896   3.455   3.847   6.314  0.9242  0.8136  1.2774
 7479SOL    HW233897   3.505   3.711   6.331 -1.6168  0.8523  0.0584
 7480SOL     OW33898   1.264   2.985  15.552  0.0956 -0.0241 -0.6195
 7480SOL    HW133899   1.303   3.019  15.472  0.8318  0.9915  0.1697
 7480SOL    HW233900   1.276   2.892  15.534  1.9331  0.4525 -1.7934
 7481SOL     OW33901   3.947   2.100   1.870 -0.0302 -0.1550  0.5076
 7481SOL    HW133902   3.990   2.065   1.793  0.6218  1.2681  0.2179
 7481SOL    HW233903   3.917   2.182   1.830 -0.7372 -0.2851  0.7621
 7482SOL     OW33904   2.119   2.260  11.770 -0.8728  0.6402  0.0280
 7482SOL    HW133905   2.118   2.282  11.863 -0.8771  1.3025 -0.1293
 7482SOL    HW233906   2.055   2.188  11.764 -0.3489  0.2115 -0.3989
 7483SOL     OW33907   2.763   2.927  17.406 -0.2527  0.0942 -0.2715
 7483SOL    HW133908   2.810   2.996  17.453  0.1553  0.0480 -0.6076
 7483SOL    HW233909   2.689   2.918  17.466  0.0143  1.4769  0.2529
 7484SOL     OW33910   1.346   2.766  16.479 -0.5682 -0.3279 -0.4120
 7484SOL    HW133911   1.434   2.730  16.477 -0.1070  0.8361 -0.7077
 7484SOL    HW233912   1.349   2.791  16.572 -0.3813 -3.8323  0.5337
 7485SOL     OW33913   2.138   2.998   2.842 -0.0912 -1.2124 -0.3030
 7485SOL    HW133914   2.128   2.905   2.859 -1.8876 -0.3313  3.4727
 7485SOL    HW233915   2.184   3.013   2.759  1.1960 -0.5883  0.5349
 7486SOL     OW33916   2.442   3.120   9.074  0.5711  0.5004  0.0401
 7486SOL    HW133917   2.402   3.185   9.132  0.8377  0.6559  0.0495
 7486SOL    HW233918   2.468   3.187   9.011 -1.3776  0.9827 -0.2478
 7487SOL     OW33919   0.761   0.075   0.981 -0.0170  0.3697 -0.2265
 7487SOL    HW133920   0.705   0.023   1.037  0.9076 -0.8297 -0.4098
 7487SOL    HW233921   0.803   0.011   0.923 -3.0179 -1.5581 -0.2353
 7488SOL     OW33922   2.702   1.316   0.638  0.6913  0.3996 -0.7026
 7488SOL    HW133923   2.702   1.336   0.731  0.4742  2.1196 -1.0626
 7488SOL    HW233924   2.717   1.404   0.602  0.6286 -0.5585 -3.0743
 7489SOL     OW33925   2.173   2.234   6.440 -0.4423  0.2169  0.4144
 7489SOL    HW133926   2.111   2.295   6.480 -1.0236  1.0362 -1.7564
 7489SOL    HW233927   2.260   2.260   6.473  0.9828 -2.0529 -1.5523
 7490SOL     OW33928   3.751   4.309   3.154  0.3048  0.8159  0.8378
 7490SOL    HW133929   3.780   4.248   3.086  1.3387  0.7567  1.3327
 7490SOL    HW233930   3.760   4.398   3.122  1.2015  0.7398  0.8862
 7491SOL     OW33931   2.661   2.180   7.488  0.0537 -0.0883  0.0116
 7491SOL    HW133932   2.705   2.174   7.404 -3.7644  0.8929 -2.0763
 7491SOL    HW233933   2.570   2.171   7.457  0.1510 -1.1701  0.0472
 7492SOL     OW33934   4.257   3.011  14.898  0.2182 -0.1764  0.0323
 7492SOL    HW133935   4.235   2.955  14.973  2.0020 -1.0769 -0.1197
 7492SOL    HW233936   4.216   2.954  14.832  2.6587 -1.0344 -0.7619
 7493SOL     OW33937   4.132   0.221   4.045  0.2241  0.2065 -0.7158
 7493SOL    HW133938   4.105   0.133   4.019  1.1071  0.0414 -1.0813
 7493SOL    HW233939   4.146   0.201   4.137  1.4668  0.3456 -0.8706
 7494SOL     OW33940   4.114   0.825  14.884  0.3575 -0.4487 -0.4458
 7494SOL    HW133941   4.104   0.913  14.920  0.5848 -0.8092  0.5052
 7494SOL    HW233942   4.026   0.795  14.861 -0.5466  0.4587  1.9269
 7495SOL     OW33943   2.644   0.683   2.636 -0.6116  0.3959 -0.3549
 7495SOL    HW133944   2.584   0.750   2.603 -0.1822  1.1366  0.3495
 7495SOL    HW233945   2.692   0.743   2.693 -0.0717  0.6049 -1.0416
 7496SOL     OW33946   2.809   3.064   8.531  0.4429 -0.3103  0.0721
 7496SOL    HW133947   2.820   3.096   8.620 -0.2292  2.1609 -0.7348
 7496SOL    HW233948   2.746   2.993   8.549  0.4156  0.0917  1.5261
 7497SOL     OW33949   4.147   2.199   3.187 -0.4643 -0.3232  0.0551
 7497SOL    HW133950   4.147   2.284   3.232 -0.0033 -0.0258 -0.5138
 7497SOL    HW233951   4.159   2.135   3.257  0.7879  1.4516  1.4650
 7498SOL     OW33952   4.308   4.294   5.006  0.0948  0.0122 -0.0853
 7498SOL    HW133953   4.276   4.321   4.920  2.3604 -0.5158 -1.0872
 7498SOL    HW233954   4.256   4.215   5.017  0.4382 -0.1890  0.0757
 7499SOL     OW33955   1.894   4.432   6.039  0.1215 -0.0486  0.3373
 7499SOL    HW133956   1.985   4.459   6.023 -1.0427  2.9729 -1.0970
 7499SOL    HW233957   1.855   4.516   6.064  1.5252  0.5528  0.5713
 7500SOL     OW33958   4.677   2.304   8.188  0.1616  0.1949 -0.1157
 7500SOL    HW133959   4.597   2.254   8.170  0.0387  0.4555 -0.2838
 7500SOL    HW233960   4.664   2.379   8.130 -2.1312  0.3433  0.5892
 7501SOL     OW33961   1.810   1.724   5.085  0.0315 -0.6823  0.2063
 7501SOL    HW133962   1.725   1.683   5.097 -0.1347  0.4279  2.8759
 7501SOL    HW233963   1.869   1.659   5.123 -0.3121 -0.8815  0.3936
 7502SOL     OW33964   0.326   2.047  12.490 -1.0668 -0.1304  0.0979
 7502SOL    HW133965   0.270   2.119  12.463 -2.7748 -1.5186 -0.0438
 7502SOL    HW233966   0.269   2.010  12.557  1.4421 -1.9322  1.2445
 7503SOL     OW33967   2.773   3.804   8.083 -0.1058 -0.3455  0.5725
 7503SOL    HW133968   2.806   3.891   8.103  2.3145 -1.1524  0.0691
 7503SOL    HW233969   2.861   3.768   8.071 -0.8267 -1.9235  0.0332
 7504SOL     OW33970   3.048   1.241   9.097  0.5082  0.5320  0.0275
 7504SOL    HW133971   2.987   1.290   9.152  0.5939  0.3904  0.2495
 7504SOL    HW233972   3.130   1.286   9.114  0.4585 -0.2681  2.4331
 7505SOL     OW33973   0.670   2.969  14.164  0.5051  0.6939 -0.3932
 7505SOL    HW133974   0.649   2.921  14.244  0.9487 -1.1565 -1.3870
 7505SOL    HW233975   0.650   2.891  14.112 -1.3746  0.9828 -0.1057
 7506SOL     OW33976   3.726   1.611   2.633  0.2012 -0.0966 -0.3748
 7506SOL    HW133977   3.725   1.584   2.541  2.7813 -2.2352  0.1915
 7506SOL    HW233978   3.816   1.643   2.640  0.4253 -0.8113  0.0912
 7507SOL     OW33979   1.669   2.920  14.975 -0.0349 -0.5781 -0.1267
 7507SOL    HW133980   1.700   2.867  15.048  1.5439  0.6518  0.0984
 7507SOL    HW233981   1.691   2.868  14.898 -1.0361 -1.5688  0.2498
 7508SOL     OW33982   2.540   0.482  16.430 -0.2775 -0.1898  0.4607
 7508SOL    HW133983   2.493   0.441  16.357 -0.9056  0.6777  0.3809
 7508SOL    HW233984   2.621   0.432  16.421 -0.9079 -0.7896 -1.9294
 7509SOL     OW33985   4.330   3.124   5.179  0.4216  0.6046  0.1131
 7509SOL    HW133986   4.379   3.186   5.125  1.8904  0.2775  1.0431
 7509SOL    HW233987   4.311   3.172   5.260 -2.5527  0.4983 -0.5435
 7510SOL     OW33988   0.765   3.357  14.155  0.4658  0.1679  0.2372
 7510SOL    HW133989   0.680   3.371  14.113  0.1904  1.8369  1.3292
 7510SOL    HW233990   0.770   3.430  14.218 -1.7161  0.4553  0.0552
 7511SOL     OW33991   0.574   2.803   9.984  0.2873 -0.2091 -0.4207
 7511SOL    HW133992   0.599   2.753  10.062  1.3921  1.6163  0.3818
 7511SOL    HW233993   0.642   2.792   9.917  2.3426  1.0674  1.4561
 7512SOL     OW33994   2.859   3.113  16.113 -0.0268  0.0041 -0.0658
 7512SOL    HW133995   2.937   3.162  16.087  1.1211 -1.1439  1.2119
 7512SOL    HW233996   2.879   3.030  16.069  0.3226 -0.0262  0.1492
 7513SOL     OW33997   3.699   0.959   6.326 -0.5062 -0.2885 -0.6538
 7513SOL    HW133998   3.792   0.957   6.347 -0.2789  1.0293 -1.5188
 7513SOL    HW233999   3.671   1.026   6.388 -2.5287  0.0469 -1.9138
 7514SOL     OW34000   4.183   1.936   3.766  0.2025  0.2535  0.0965
 7514SOL    HW134001   4.113   1.991   3.730 -1.7882 -1.1031  1.8552
 7514SOL    HW234002   4.151   1.918   3.855  0.1054  0.8524  0.1868
 7515SOL     OW34003   1.338   0.369   7.483 -0.0411  0.0725 -0.0395
 7515SOL    HW134004   1.395   0.302   7.444 -0.5050 -0.6718  0.5695
 7515SOL    HW234005   1.402   0.438   7.467  0.2994 -0.6293 -1.7230
 7516SOL     OW34006   1.957   1.088   1.522  0.3452 -0.0609 -0.1958
 7516SOL    HW134007   1.896   1.156   1.494 -1.7301 -0.7292  2.6913
 7516SOL    HW234008   2.036   1.138   1.544 -0.4250  1.0933 -0.0538
 7517SOL     OW34009   3.399   0.476  15.813 -0.1591 -0.0917 -0.4739
 7517SOL    HW134010   3.445   0.558  15.831 -1.2280  0.2655  0.5631
 7517SOL    HW234011   3.462   0.425  15.762  0.6230  1.9193 -1.5319
 7518SOL     OW34012   2.150   0.606   5.142 -0.4156  0.6808 -0.6710
 7518SOL    HW134013   2.170   0.513   5.130  1.1074  1.1296 -1.5693
 7518SOL    HW234014   2.222   0.653   5.100 -1.4799  1.3105 -1.7884
 7519SOL     OW34015   4.707   4.153   7.479 -0.2086  0.0449  0.0943
 7519SOL    HW134016   4.662   4.069   7.476 -1.8769  0.9122  0.5036
 7519SOL    HW234017   0.011   4.158   7.387 -2.3535 -2.0537 -0.6158
 7520SOL     OW34018   0.090   3.583   4.346  0.6136  0.4604 -0.1398
 7520SOL    HW134019   0.101   3.570   4.440 -0.4568  0.6234  0.0010
 7520SOL    HW234020   0.009   3.633   4.343  0.7291  0.5556 -1.9315
 7521SOL     OW34021   1.168   2.211   1.798 -0.4645  0.0966  0.3306
 7521SOL    HW134022   1.163   2.209   1.702  0.8064  0.4261  0.2472
 7521SOL    HW234023   1.261   2.213   1.821 -1.1466 -0.6997  3.1077
 7522SOL     OW34024   1.766   4.073   1.785 -0.0306  0.1950  0.3538
 7522SOL    HW134025   1.697   4.009   1.766  0.8943 -0.4107 -0.8889
 7522SOL    HW234026   1.738   4.099   1.873 -0.0162  0.0869  0.3903
 7523SOL     OW34027   0.179   0.255   1.732 -0.0082 -0.5260  0.3023
 7523SOL    HW134028   0.091   0.283   1.759  0.0695  0.1064 -0.1030
 7523SOL    HW234029   0.226   0.319   1.786 -0.7134 -1.6743  2.2889
 7524SOL     OW34030   3.804   0.969   3.274  0.0932  0.0609  0.6472
 7524SOL    HW134031   3.756   0.899   3.320 -1.5180  1.8285  1.6334
 7524SOL    HW234032   3.845   0.923   3.201 -2.1779 -1.7886  0.5130
 7525SOL     OW34033   3.473   4.406  11.776 -0.3679  0.4147 -0.1674
 7525SOL    HW134034   3.567   4.393  11.788 -0.5069  1.0360  1.6019
 7525SOL    HW234035   3.449   4.498  11.782  1.3409  0.8401  0.1322
 7526SOL     OW34036   3.286   2.921  14.649  0.3284  0.3401 -0.2085
 7526SOL    HW134037   3.221   2.969  14.598  0.6000  0.6177 -0.2873
 7526SOL    HW234038   3.358   2.980  14.630  0.4790  0.6751  1.3991
 7527SOL     OW34039   4.035   4.180   7.498 -0.0602 -0.0222 -0.3856
 7527SOL    HW134040   4.020   4.110   7.562 -2.4064 -1.5022 -2.5355
 7527SOL    HW234041   3.969   4.156   7.433  1.3351 -0.2748 -1.7113
 7528SOL     OW34042   1.187   3.829   5.737  0.2470  0.1357  0.1288
 7528SOL    HW134043   1.251   3.806   5.670  1.4965 -1.3421  1.8492
 7528SOL    HW234044   1.209   3.766   5.805 -0.4841 -0.9149 -0.6105
 7529SOL     OW34045   3.138   3.032   4.418 -0.0387 -0.0200  0.3987
 7529SOL    HW134046   3.231   3.019   4.405  0.1635  3.5143 -1.6569
 7529SOL    HW234047   3.116   3.078   4.337 -1.1982  1.1307  1.3438
 7530SOL     OW34048   2.573   0.334   8.162  1.0358 -0.0328 -0.4448
 7530SOL    HW134049   2.576   0.350   8.257  0.7606  1.1446 -0.6406
 7530SOL    HW234050   2.635   0.262   8.152 -1.5748 -2.3649  0.0409
 7531SOL     OW34051   1.691   1.783   7.273 -0.2720 -0.0377  0.1031
 7531SOL    HW134052   1.693   1.797   7.367 -1.9306  0.3164  0.0879
 7531SOL    HW234053   1.681   1.874   7.247 -0.2506  0.3200  1.3663
 7532SOL     OW34054   0.678   3.937  17.383 -0.5385  0.6501 -0.2826
 7532SOL    HW134055   0.664   3.905  17.472  2.5394 -0.3596 -0.1899
 7532SOL    HW234056   0.621   3.877  17.335  0.5030  0.0596 -0.7634
 7533SOL     OW34057   0.477   4.375   7.463 -0.1043  0.1317 -0.3449
 7533SOL    HW134058   0.382   4.381   7.451 -0.3914 -0.9086  1.4258
 7533SOL    HW234059   0.494   4.304   7.401 -1.2515  1.1373 -1.8199
 7534SOL     OW34060   3.729   1.998   3.462 -0.0873 -0.2909 -0.5087
 7534SOL    HW134061   3.652   1.953   3.497  0.8023 -0.6864  0.9423
 7534SOL    HW234062   3.787   1.925   3.444 -0.2249 -0.2576 -1.0630
 7535SOL     OW34063   3.114   1.863   0.224 -0.8340  0.6742  0.0169
 7535SOL    HW134064   3.058   1.937   0.245 -1.6932 -0.2847  1.0537
 7535SOL    HW234065   3.051   1.792   0.219 -0.7247  0.5312  0.6868
 7536SOL     OW34066   2.072   1.760   6.087  0.0711  0.4188  0.1937
 7536SOL    HW134067   2.160   1.781   6.054  0.1898 -0.1780  0.1342
 7536SOL    HW234068   2.097   1.744   6.178  2.6583  1.8488 -0.2388
 7537SOL     OW34069   3.982   3.006  14.226 -0.3555 -0.4409  0.8092
 7537SOL    HW134070   3.977   2.975  14.316 -3.7133  0.1760  0.8436
 7537SOL    HW234071   3.919   3.077  14.214 -0.1752 -0.8306 -2.3771
 7538SOL     OW34072   3.759   3.831   8.425 -0.2068 -0.4072 -0.1754
 7538SOL    HW134073   3.815   3.893   8.471 -0.9948  0.6395 -0.6379
 7538SOL    HW234074   3.675   3.843   8.469 -0.4373 -1.4171 -0.3356
 7539SOL     OW34075   1.373   3.762   4.520 -0.7788 -0.0236  0.1990
 7539SOL    HW134076   1.320   3.716   4.585 -0.8977  1.5106  1.2075
 7539SOL    HW234077   1.307   3.764   4.451 -0.4569  0.6861 -0.0878
 7540SOL     OW34078   2.946   0.611  14.634  0.5380  0.0675  0.3679
 7540SOL    HW134079   2.992   0.618  14.718 -0.2024  0.4478  0.7430
 7540SOL    HW234080   2.944   0.704  14.609 -0.1849 -0.5380 -1.7758
 7541SOL     OW34081   2.571   0.015  12.686  0.1614  0.0124 -0.3430
 7541SOL    HW134082   2.543   4.715  12.597  0.0605 -1.2494  0.0113
 7541SOL    HW234083   2.662   0.037  12.667  0.0106 -1.0092 -2.2711
 7542SOL     OW34084   0.609   3.407   1.769  0.4808  0.3130  0.0478
 7542SOL    HW134085   0.578   3.317   1.778 -1.7339  1.3059  2.3084
 7542SOL    HW234086   0.531   3.458   1.749 -0.6205 -1.5979 -0.3906
 7543SOL     OW34087   1.888   0.532   4.714  0.3035 -0.3237 -0.2930
 7543SOL    HW134088   1.884   0.545   4.620 -0.4828 -0.0163 -0.2108
 7543SOL    HW234089   1.977   0.565   4.727  0.1133 -0.5718  1.6979
 7544SOL     OW34090   2.230   3.598   6.169 -0.0874 -0.3173  0.7312
 7544SOL    HW134091   2.239   3.506   6.145  0.9060 -0.1312  0.3684
 7544SOL    HW234092   2.145   3.593   6.213 -2.2233 -0.6578 -3.4126
 7545SOL     OW34093   4.446   0.972  10.358  0.0097 -0.0198 -0.5704
 7545SOL    HW134094   4.388   1.012  10.423 -1.2885  0.9742 -2.3384
 7545SOL    HW234095   4.513   0.920  10.402  0.6879 -0.4778 -2.1422
 7546SOL     OW34096   3.486   1.287   6.107 -0.3642 -0.4087  0.2365
 7546SOL    HW134097   3.548   1.272   6.036  0.4081  0.3360  0.7577
 7546SOL    HW234098   3.524   1.313   6.191  1.4933 -0.7318 -0.5123
 7547SOL     OW34099   2.899   1.639   1.951 -0.7069 -0.2763  0.7424
 7547SOL    HW134100   2.966   1.698   1.986 -0.5122 -1.1253  1.8081
 7547SOL    HW234101   2.949   1.557   1.947 -1.9576 -1.0476  1.0062
 7548SOL     OW34102   3.797   2.755  10.640  0.1137 -0.1884 -0.7325
 7548SOL    HW134103   3.822   2.678  10.690 -0.8927  0.2761  0.4972
 7548SOL    HW234104   3.823   2.725  10.553 -0.5709  0.3454 -1.1271
 7549SOL     OW34105   3.533   3.600   5.952  0.0953 -0.0923 -0.0679
 7549SOL    HW134106   3.594   3.599   6.026  0.3060 -0.6356 -0.2529
 7549SOL    HW234107   3.582   3.633   5.877  1.2919 -1.3082  0.1759
 7550SOL     OW34108   0.257   0.293   8.874 -0.0866 -0.1935  0.2477
 7550SOL    HW134109   0.271   0.219   8.933  2.1054  2.6516  3.3721
 7550SOL    HW234110   0.225   0.254   8.793  1.9698 -0.2535 -0.5406
 7551SOL     OW34111   4.343   0.376   4.026  0.5317 -0.1743  0.3581
 7551SOL    HW134112   4.344   0.425   4.108  1.3246  2.2084 -1.0876
 7551SOL    HW234113   4.256   0.335   4.024  0.1055  0.7724 -0.7908
 7552SOL     OW34114   4.266   1.679   3.045 -0.3429 -0.8423 -0.6118
 7552SOL    HW134115   4.361   1.682   3.060 -0.4574 -0.4298  0.0605
 7552SOL    HW234116   4.275   1.663   2.952 -0.7781  1.5865 -1.0843
 7553SOL     OW34117   3.226   1.875   3.323 -0.0523 -0.0072 -0.2094
 7553SOL    HW134118   3.168   1.866   3.248  2.1773 -0.8857 -1.8194
 7553SOL    HW234119   3.269   1.959   3.303 -0.6732  0.7758  1.6880
 7554SOL     OW34120   3.270   4.111   3.992  0.1203  0.2881  0.3857
 7554SOL    HW134121   3.341   4.047   3.985 -0.0235  0.2534 -0.7935
 7554SOL    HW234122   3.190   4.060   4.004 -0.4761  1.1309 -0.0250
 7555SOL     OW34123   2.400   0.266  13.764  0.6650  0.3256 -0.6337
 7555SOL    HW134124   2.349   0.347  13.759 -0.3858 -0.2833  0.2324
 7555SOL    HW234125   2.478   0.288  13.814  1.5644 -2.1185 -0.9235
 7556SOL     OW34126   2.298   3.370   4.070  0.4467  0.0871 -0.4951
 7556SOL    HW134127   2.354   3.294   4.051 -0.2039 -0.9226  1.6739
 7556SOL    HW234128   2.348   3.443   4.034  1.4313 -0.2671  0.1632
 7557SOL     OW34129   1.581   3.025  14.543 -0.6286 -0.1126 -0.2544
 7557SOL    HW134130   1.635   3.078  14.602  0.6727 -1.6202 -0.0964
 7557SOL    HW234131   1.512   2.995  14.603 -0.1813  1.3093  0.9669
 7558SOL     OW34132   4.596   3.373   9.570 -0.1701 -0.9155 -0.0991
 7558SOL    HW134133   4.657   3.327   9.627  0.4245 -0.1032 -0.0900
 7558SOL    HW234134   4.513   3.331   9.594 -0.3356 -0.1358  0.6839
 7559SOL     OW34135   1.190   0.175   2.303  0.1477 -0.4284  0.1911
 7559SOL    HW134136   1.096   0.171   2.287 -0.1248  2.7955  0.9855
 7559SOL    HW234137   1.198   0.270   2.313 -0.4371 -0.2570 -1.0090
 7560SOL     OW34138   2.922   1.358  16.216 -0.6425  0.7645 -0.0731
 7560SOL    HW134139   2.835   1.393  16.200 -1.8627 -1.8466  0.8412
 7560SOL    HW234140   2.904   1.265  16.231  0.3966  0.6127  0.2480
 7561SOL     OW34141   2.451   3.103   6.069  0.5990  0.6063 -0.0184
 7561SOL    HW134142   2.474   3.163   6.140 -1.9673 -1.0371  2.2038
 7561SOL    HW234143   2.374   3.154   6.045 -0.6441 -0.6153  1.3577
 7562SOL     OW34144   3.370   3.431  16.526 -0.2866 -0.3270 -0.0024
 7562SOL    HW134145   3.458   3.410  16.557 -0.4721 -0.3107  0.5314
 7562SOL    HW234146   3.340   3.502  16.583  2.0113  0.6823 -0.0516
 7563SOL     OW34147   3.405   4.637   3.755  0.3684 -0.3149  0.4665
 7563SOL    HW134148   3.476   4.661   3.695 -0.2416  3.0316  1.0733
 7563SOL    HW234149   3.363   4.558   3.720  0.2176 -0.3706  0.7766
 7564SOL     OW34150   4.586   2.669  17.391  0.3022  0.9663 -0.2673
 7564SOL    HW134151   4.510   2.717  17.425 -0.6760 -1.2737  0.7221
 7564SOL    HW234152   4.581   2.698  17.300  3.7754  0.2079 -0.7057
 7565SOL     OW34153   1.729   4.196   5.580 -0.2053  0.4077 -0.1508
 7565SOL    HW134154   1.743   4.125   5.643 -1.5722 -0.8422 -1.2618
 7565SOL    HW234155   1.781   4.268   5.617 -1.1392 -0.4225  2.7758
 7566SOL     OW34156   3.873   2.929   4.541  0.1096 -0.1207  0.0056
 7566SOL    HW134157   3.786   2.903   4.571 -0.6334  1.6428 -0.6581
 7566SOL    HW234158   3.902   2.996   4.603  3.7935  0.2700 -2.1364
 7567SOL     OW34159   1.921   1.753   2.097  0.6720 -0.3939 -0.4649
 7567SOL    HW134160   1.832   1.789   2.093  0.5841 -0.4213  1.2426
 7567SOL    HW234161   1.962   1.804   2.028 -0.1891  0.1235 -0.6027
 7568SOL     OW34162   2.315   4.402  13.473 -0.3228 -0.3424 -0.1708
 7568SOL    HW134163   2.335   4.382  13.565 -1.3152 -0.0367  0.1142
 7568SOL    HW234164   2.374   4.334  13.440  1.6919  1.3667 -0.0182
 7569SOL     OW34165   2.633   0.583   9.384 -0.3331  0.2428  0.4099
 7569SOL    HW134166   2.614   0.509   9.327  0.3392  1.5680 -1.5272
 7569SOL    HW234167   2.545   0.587   9.422 -0.1967  1.0925  0.6380
 7570SOL     OW34168   0.994   3.980   3.896  0.0051  0.0972  0.2942
 7570SOL    HW134169   1.046   4.039   3.842  0.0385  0.7780  1.0726
 7570SOL    HW234170   0.909   4.022   3.884  0.5622  1.0677 -0.2292
 7571SOL     OW34171   0.682   2.845   3.775 -0.5104  0.2872 -0.2493
 7571SOL    HW134172   0.606   2.840   3.833 -1.7361 -0.2042 -1.9025
 7571SOL    HW234173   0.745   2.880   3.837  0.1950 -0.0526 -0.7733
 7572SOL     OW34174   1.672   3.623  16.710 -0.1106 -0.4530  0.6571
 7572SOL    HW134175   1.655   3.589  16.798 -1.5977 -2.6053 -0.4491
 7572SOL    HW234176   1.727   3.549  16.682 -2.4559 -1.7011 -0.6820
 7573SOL     OW34177   2.037   1.036   0.485 -0.1122 -0.5535 -0.3499
 7573SOL    HW134178   2.049   0.970   0.554 -0.6869  1.0956  1.3220
 7573SOL    HW234179   2.071   0.990   0.408  0.7844 -0.7600  0.1627
 7574SOL     OW34180   2.415   0.506   4.035 -0.3498  0.0195  0.5470
 7574SOL    HW134181   2.474   0.445   3.991 -0.2253  1.1241 -0.8422
 7574SOL    HW234182   2.357   0.522   3.960 -0.9768 -3.6494  0.2700
 7575SOL     OW34183   1.581   0.693   8.352 -0.6093 -0.7941  0.4881
 7575SOL    HW134184   1.543   0.749   8.421  2.0688  2.3782 -0.6049
 7575SOL    HW234185   1.527   0.614   8.354 -0.1077 -1.1613 -0.6704
 7576SOL     OW34186   4.566   2.780   5.408 -0.4191  0.6440  0.3306
 7576SOL    HW134187   4.519   2.863   5.418 -0.8789  0.3200  0.9327
 7576SOL    HW234188   4.641   2.812   5.358 -1.5221  0.9846 -1.1241
 7577SOL     OW34189   3.855   3.675   7.084 -0.3848 -0.2648 -0.2132
 7577SOL    HW134190   3.865   3.681   6.989  0.5085  0.4060 -0.0781
 7577SOL    HW234191   3.944   3.643   7.101  0.3116  1.7686 -0.0647
 7578SOL     OW34192   0.640   4.500   6.386  0.4788  0.0110 -0.3005
 7578SOL    HW134193   0.561   4.458   6.353  0.7591 -0.3513 -0.5079
 7578SOL    HW234194   0.645   4.579   6.331  0.9694  0.5508  0.5161
 7579SOL     OW34195   3.255   1.992   7.697 -0.2203  0.0594  0.2621
 7579SOL    HW134196   3.272   1.993   7.792 -2.8356  0.6232  0.7334
 7579SOL    HW234197   3.180   1.933   7.688  0.2512 -0.1259 -2.3861
 7580SOL     OW34198   0.354   1.109   4.758  0.6777  0.3884 -0.6012
 7580SOL    HW134199   0.261   1.097   4.738  0.6700  2.0768 -1.6387
 7580SOL    HW234200   0.351   1.154   4.842  1.7990 -0.0271 -0.3396
 7581SOL     OW34201   2.606   0.939   4.190  0.7260 -0.0188  0.4003
 7581SOL    HW134202   2.662   0.867   4.218  3.0826  0.5917 -2.7945
 7581SOL    HW234203   2.566   0.980   4.267 -3.6471 -1.0180 -1.3123
 7582SOL     OW34204   4.192   0.141   4.317  0.2403 -0.0971 -0.3360
 7582SOL    HW134205   4.218   0.101   4.400  0.0636 -0.1269 -0.2963
 7582SOL    HW234206   4.103   0.109   4.305 -0.1735  0.8769  0.1347
 7583SOL     OW34207   0.828   4.564  13.417  0.4699 -0.0508  0.1336
 7583SOL    HW134208   0.824   4.496  13.350 -3.7767  0.9381 -0.6532
 7583SOL    HW234209   0.913   4.608  13.411 -0.4483  1.7692  0.3748
 7584SOL     OW34210   3.317   2.929   8.827 -0.1054 -0.0862  0.1982
 7584SOL    HW134211   3.287   2.918   8.917 -1.6922 -0.4161 -0.3753
 7584SOL    HW234212   3.390   2.867   8.836  0.1029  0.3326  1.5089
 7585SOL     OW34213   1.045   1.553   7.990  0.5685 -0.1061 -0.1407
 7585SOL    HW134214   1.044   1.648   7.989  0.9478 -0.1107 -0.7374
 7585SOL    HW234215   1.097   1.534   8.068 -1.7645  0.3305  1.5542
 7586SOL     OW34216   0.322   4.717  10.974 -0.2037 -0.0870 -0.2461
 7586SOL    HW134217   0.269   0.005  11.053  1.2299 -0.8465  0.8304
 7586SOL    HW234218   0.270   0.048  10.914  0.7059  2.0472  0.8223
 7587SOL     OW34219   1.755   3.560   2.133  0.4302 -0.6050  0.0464
 7587SOL    HW134220   1.800   3.603   2.061 -1.8316  0.6148 -0.6292
 7587SOL    HW234221   1.671   3.606   2.135  0.1478 -1.1673  1.3014
 7588SOL     OW34222   4.567   3.527  13.366 -0.5753  0.5940  0.0872
 7588SOL    HW134223   4.615   3.487  13.294 -1.3795  2.2829 -1.3645
 7588SOL    HW234224   4.582   3.461  13.434  0.6589 -1.5288 -2.2483
 7589SOL     OW34225   1.014   0.295   4.798  0.5868  0.3690  0.0852
 7589SOL    HW134226   0.988   0.298   4.706  1.0654  1.0936 -0.0247
 7589SOL    HW234227   1.026   0.387   4.820  2.1342 -0.1169  1.2873
 7590SOL     OW34228   0.781   1.800  11.968  0.1383 -0.1774 -0.0826
 7590SOL    HW134229   0.830   1.729  11.926  0.9023  1.0557 -1.2827
 7590SOL    HW234230   0.701   1.803  11.917 -0.0996 -3.3243  0.0645
 7591SOL     OW34231   1.795   2.523   6.382 -0.0472  0.0142  0.0032
 7591SOL    HW134232   1.725   2.528   6.447 -1.4858  1.3278 -1.6297
 7591SOL    HW234233   1.739   2.516   6.305 -0.5198 -1.8841  0.5122
 7592SOL     OW34234   1.497   4.177   1.352  0.2594  0.1564  0.0201
 7592SOL    HW134235   1.542   4.204   1.272 -0.6438  0.7475 -0.2953
 7592SOL    HW234236   1.517   4.252   1.409  1.0860 -0.8413  1.0434
 7593SOL     OW34237   3.712   2.096   4.866  0.4411  0.0151  0.4043
 7593SOL    HW134238   3.763   2.056   4.937 -0.2089  1.8264  1.8748
 7593SOL    HW234239   3.781   2.093   4.799 -0.9212  0.2647 -1.0180
 7594SOL     OW34240   2.160   1.900   6.670 -0.2285  0.5573 -0.2525
 7594SOL    HW134241   2.208   1.903   6.752  0.9671 -1.0493 -0.9031
 7594SOL    HW234242   2.237   1.914   6.616  0.4707 -0.8958  0.3708
 7595SOL     OW34243   0.076   4.636   9.298 -0.4556  0.0364  0.0314
 7595SOL    HW134244   0.116   4.581   9.230 -0.8355  0.2410 -0.3562
 7595SOL    HW234245   0.152   4.669   9.345 -0.9314  1.5444 -0.2592
 7596SOL     OW34246   4.566   4.190  14.255  0.0641  0.1047 -0.5019
 7596SOL    HW134247   4.491   4.247  14.270  0.9502  1.0938  0.1581
 7596SOL    HW234248   4.630   4.249  14.293  0.4809 -1.5397  1.3518
 7597SOL     OW34249   3.530   3.874   8.562 -0.0033 -0.1406 -0.2073
 7597SOL    HW134250   3.498   3.951   8.608  1.0778 -0.3001  0.8315
 7597SOL    HW234251   3.489   3.801   8.608 -0.3841  0.3222  0.1859
 7598SOL     OW34252   0.416   0.888   3.252 -0.0992 -0.3357 -0.0534
 7598SOL    HW134253   0.403   0.981   3.268  0.1557 -0.5875  1.7236
 7598SOL    HW234254   0.333   0.860   3.214 -1.5478  0.4253  2.5656
 7599SOL     OW34255   1.480   0.590   1.235 -0.1691 -0.3274  0.1232
 7599SOL    HW134256   1.438   0.565   1.317 -0.2509 -0.1625  0.1320
 7599SOL    HW234257   1.452   0.678   1.210 -0.8512 -0.6113 -0.1135
 7600SOL     OW34258   3.421   3.890  11.157  0.8329 -0.3860  0.4548
 7600SOL    HW134259   3.347   3.832  11.177 -0.8672  2.2800  1.9515
 7600SOL    HW234260   3.480   3.864  11.227 -1.1735 -2.5957  1.3445
 7601SOL     OW34261   2.359   2.955   6.751 -0.3207 -0.4067  0.2533
 7601SOL    HW134262   2.419   2.954   6.676 -1.2206  0.6617 -0.4642
 7601SOL    HW234263   2.403   2.988   6.829 -1.3902 -0.4857  0.8800
 7602SOL     OW34264   4.019   0.609   0.156  0.2743 -0.7084  0.2411
 7602SOL    HW134265   3.976   0.596   0.240 -1.0655 -2.8498 -0.7540
 7602SOL    HW234266   3.946   0.640   0.103  2.5763  1.4308 -1.6916
 7603SOL     OW34267   1.291   1.729   8.334 -0.0591  0.0125 -0.3716
 7603SOL    HW134268   1.292   1.657   8.272 -2.9676 -0.4217  0.0638
 7603SOL    HW234269   1.364   1.782   8.304  0.2462 -0.3151 -0.2081
 7604SOL     OW34270   4.403   0.996   7.263  0.7185 -0.1448  0.7148
 7604SOL    HW134271   4.443   1.080   7.283  0.1737  0.0035  1.1578
 7604SOL    HW234272   4.407   0.995   7.167  0.6818  1.6914  0.7016
 7605SOL     OW34273   4.176   2.601  15.410 -0.1685  0.8499  0.1628
 7605SOL    HW134274   4.126   2.678  15.386 -0.6254  0.5096  0.0254
 7605SOL    HW234275   4.163   2.546  15.332  1.7376 -1.6610  1.5794
 7606SOL     OW34276   2.623   4.142   2.521  0.2119  0.1018 -0.2908
 7606SOL    HW134277   2.684   4.204   2.560  1.0651 -1.0708  0.2497
 7606SOL    HW234278   2.688   4.073   2.509 -0.4043 -0.5776  0.2362
 7607SOL     OW34279   2.704   2.682   2.748  0.2888 -0.3254 -0.5711
 7607SOL    HW134280   2.720   2.592   2.777 -1.0499 -0.7061 -0.9828
 7607SOL    HW234281   2.778   2.700   2.690  0.6371 -1.1629 -0.3832
 7608SOL     OW34282   0.771   1.107   6.669  0.0893 -0.5228  0.2753
 7608SOL    HW134283   0.804   1.057   6.744  0.6144 -1.8763 -0.8615
 7608SOL    HW234284   0.859   1.136   6.644 -0.6693 -0.6828 -2.6272
 7609SOL     OW34285   2.099   2.313  12.740  0.2056 -0.8362  0.5446
 7609SOL    HW134286   2.189   2.297  12.768  0.0400  0.5819  1.8700
 7609SOL    HW234287   2.047   2.252  12.792 -2.3181  1.3890  0.6237
 7610SOL     OW34288   3.577   2.353   4.331 -0.0316  0.2828  0.4014
 7610SOL    HW134289   3.620   2.283   4.381  1.5979  2.2540  1.7480
 7610SOL    HW234290   3.634   2.362   4.254 -1.2136  1.4865 -0.3180
 7611SOL     OW34291   1.660   1.246  11.426  0.1867  0.2492  0.0185
 7611SOL    HW134292   1.697   1.264  11.340  0.7122 -0.5210  0.0850
 7611SOL    HW234293   1.740   1.260  11.477 -0.3110  0.9327  0.6080
 7612SOL     OW34294   3.098   3.492  10.156 -0.0498 -0.2843  0.1549
 7612SOL    HW134295   3.066   3.568  10.106 -1.5283 -0.4249  0.9046
 7612SOL    HW234296   3.175   3.462  10.107  1.1135  0.8693  1.2562
 7613SOL     OW34297   3.462   4.159   2.973  0.5878 -0.2815 -0.1658
 7613SOL    HW134298   3.456   4.067   2.946  1.2893 -0.5442  0.5710
 7613SOL    HW234299   3.475   4.202   2.888 -0.1770 -1.3819 -0.8429
 7614SOL     OW34300   3.480   0.829   4.771  1.0134  0.2864 -0.0091
 7614SOL    HW134301   3.566   0.870   4.766  1.1751 -0.3931 -2.6175
 7614SOL    HW234302   3.438   0.860   4.691  0.4362 -0.9894 -0.2035
 7615SOL     OW34303   0.300   0.577   2.900 -0.0417  0.2434 -0.7054
 7615SOL    HW134304   0.330   0.515   2.833 -0.9513 -0.1831 -0.7245
 7615SOL    HW234305   0.237   0.626   2.847  1.4448  0.1763 -2.5070
 7616SOL     OW34306   0.636   1.127   2.385 -0.2832  0.2365  0.7021
 7616SOL    HW134307   0.549   1.165   2.399 -0.8046 -0.3106 -1.0401
 7616SOL    HW234308   0.619   1.039   2.417  1.4728  0.5190  2.3734
 7617SOL     OW34309   3.355   0.651   6.983 -0.3080 -0.3534  0.0212
 7617SOL    HW134310   3.300   0.663   6.906 -0.1847  0.5482  0.0709
 7617SOL    HW234311   3.416   0.724   6.973 -0.0890 -0.4864  0.3938
 7618SOL     OW34312   1.961   3.628  10.923 -0.1451  0.0494 -0.6153
 7618SOL    HW134313   1.931   3.542  10.954  0.2547 -0.0360 -0.4669
 7618SOL    HW234314   1.879   3.675  10.936 -0.3633 -0.8206  1.1411
 7619SOL     OW34315   3.906   2.621  11.977  0.0106  0.2391 -0.5427
 7619SOL    HW134316   3.878   2.693  11.920 -0.2778  2.3256  2.2091
 7619SOL    HW234317   3.825   2.585  12.013 -1.2509  2.1922 -1.4648
 7620SOL     OW34318   2.220   0.123   4.469  0.3061 -0.2008 -0.4021
 7620SOL    HW134319   2.170   0.190   4.516 -1.3903 -0.7524 -1.4200
 7620SOL    HW234320   2.169   0.045   4.490 -2.2827  0.8780 -2.6085
 7621SOL     OW34321   2.174   3.667   3.829  0.1378 -0.1093  0.1238
 7621SOL    HW134322   2.119   3.619   3.891  0.0117 -2.2761 -1.7043
 7621SOL    HW234323   2.128   3.656   3.747  0.9699 -2.3607 -0.0350
 7622SOL     OW34324   2.277   4.200   8.230  0.3477 -0.6732 -0.3166
 7622SOL    HW134325   2.331   4.270   8.267 -1.4357  0.0950  0.8550
 7622SOL    HW234326   2.223   4.162   8.300  0.6286  2.2213  1.4926
 7623SOL     OW34327   1.420   2.324  17.119 -0.0087  0.1199  0.1319
 7623SOL    HW134328   1.500   2.318  17.066  0.6720  1.1420  1.0475
 7623SOL    HW234329   1.425   2.418  17.137 -0.5544 -0.1404  1.6628
 7624SOL     OW34330   2.463   0.554   9.889 -0.2333 -0.1851  0.5819
 7624SOL    HW134331   2.402   0.611   9.842 -0.8616 -0.1135  1.4886
 7624SOL    HW234332   2.504   0.617   9.948  0.0679 -0.0182  0.1946
 7625SOL     OW34333   0.576   3.103  10.660 -0.5314 -0.0841 -0.3430
 7625SOL    HW134334   0.669   3.107  10.640 -0.1124 -0.8567  1.5019
 7625SOL    HW234335   0.532   3.143  10.585  0.1508  0.4278 -0.4666
 7626SOL     OW34336   4.122   0.557   3.089  0.1275  0.4080 -0.5383
 7626SOL    HW134337   4.041   0.505   3.093  0.4247  0.0341  0.6063
 7626SOL    HW234338   4.168   0.524   3.167 -2.1274 -2.4517 -0.3811
 7627SOL     OW34339   2.417   1.325   8.343  0.3606  0.0284 -0.3025
 7627SOL    HW134340   2.480   1.284   8.285  1.3822  1.6357 -0.3187
 7627SOL    HW234341   2.350   1.256   8.336  0.9468 -0.5133 -0.5654
 7628SOL     OW34342   0.912   4.624   2.777 -0.5976 -0.1620  0.0726
 7628SOL    HW134343   0.883   4.546   2.823  1.0335 -0.7639  0.0836
 7628SOL    HW234344   0.866   4.617   2.693 -1.5830 -2.3112  0.7934
 7629SOL     OW34345   3.378   1.692   4.593 -0.2589 -0.1830  0.3458
 7629SOL    HW134346   3.381   1.701   4.689  0.9524  0.4593  0.2474
 7629SOL    HW234347   3.290   1.727   4.582 -0.9377 -1.4486  1.6238
 7630SOL     OW34348   1.141   0.495   6.125 -0.4463 -0.7801  0.3571
 7630SOL    HW134349   1.190   0.577   6.122 -2.4106  0.4705  1.8411
 7630SOL    HW234350   1.207   0.439   6.166  0.9177  0.3997 -0.2280
 7631SOL     OW34351   3.981   0.530   4.776 -0.1777 -0.1320  0.0047
 7631SOL    HW134352   3.972   0.493   4.688  1.8651  1.4168 -0.8531
 7631SOL    HW234353   4.008   0.620   4.757  0.6570 -1.0968 -3.2596
 7632SOL     OW34354   3.257   0.269   9.197 -0.1616  0.5317 -0.0490
 7632SOL    HW134355   3.272   0.343   9.255  0.2599 -0.1635  0.7204
 7632SOL    HW234356   3.224   0.208   9.262 -0.0750 -1.2873 -1.6932
 7633SOL     OW34357   2.762   0.820   7.423 -0.5953 -0.2996  0.0071
 7633SOL    HW134358   2.839   0.847   7.374 -0.7755  0.1901 -0.0095
 7633SOL    HW234359   2.703   0.894   7.405  1.0320  0.6496 -1.4369
 7634SOL     OW34360   1.120   3.241   2.132 -0.1545  0.5091 -0.1948
 7634SOL    HW134361   1.058   3.200   2.072  0.9090  0.1859 -1.0753
 7634SOL    HW234362   1.168   3.163   2.159 -0.8340  0.4922  0.9966
 7635SOL     OW34363   1.719   1.963  10.011 -0.1777 -0.0453 -1.0330
 7635SOL    HW134364   1.656   1.995  10.075 -0.9229 -1.8563 -0.8630
 7635SOL    HW234365   1.769   1.902  10.065  1.0054  2.0995  0.3003
 7636SOL     OW34366   3.280   3.093   6.313  0.0493  0.0597  0.0773
 7636SOL    HW134367   3.286   3.144   6.233  0.9254  2.8949  1.9578
 7636SOL    HW234368   3.284   3.002   6.283 -1.1685  0.5800 -1.6552
 7637SOL     OW34369   3.069   0.228   7.999  0.1091 -0.1812  0.4731
 7637SOL    HW134370   3.017   0.306   8.018 -0.7336 -0.9973  1.5524
 7637SOL    HW234371   3.156   0.267   7.999 -0.0420  0.1439  1.5575
 7638SOL     OW34372   2.806   0.156   7.091 -0.1957 -0.2040 -0.1986
 7638SOL    HW134373   2.850   0.236   7.061 -1.3710  0.1792 -0.9274
 7638SOL    HW234374   2.870   0.138   7.160 -0.2354  1.8926  0.4002
 7639SOL     OW34375   1.338   2.835   3.559 -0.2741 -0.6943 -0.3270
 7639SOL    HW134376   1.393   2.821   3.636 -0.6760 -1.4737 -0.1906
 7639SOL    HW234377   1.299   2.918   3.589 -0.5631 -1.3459  1.0894
 7640SOL     OW34378   2.445   0.474  11.689 -0.4961  0.1217  0.4139
 7640SOL    HW134379   2.537   0.469  11.663 -1.2065  1.0045 -2.2584
 7640SOL    HW234380   2.422   0.381  11.698 -0.0687 -0.0242  0.0377
 7641SOL     OW34381   3.746   2.427   1.326 -0.3066 -0.0923  0.4013
 7641SOL    HW134382   3.696   2.488   1.380  1.0539  0.3353  1.1596
 7641SOL    HW234383   3.825   2.475   1.302  0.8932 -1.5056  1.5271
 7642SOL     OW34384   3.356   1.448   3.804  0.4222  0.0781 -0.0609
 7642SOL    HW134385   3.402   1.365   3.797  0.7906  0.1782  1.3897
 7642SOL    HW234386   3.422   1.503   3.845 -0.4402  1.0922 -0.0137
 7643SOL     OW34387   2.365   2.243  12.774 -0.1945  0.6236 -0.4909
 7643SOL    HW134388   2.442   2.298  12.794 -0.6502  1.0884 -0.0264
 7643SOL    HW234389   2.401   2.156  12.790 -0.3587  1.1002  2.5027
 7644SOL     OW34390   3.844   4.020   5.984 -0.2595  0.1204 -0.3918
 7644SOL    HW134391   3.807   4.026   5.896 -0.9928  1.3404 -0.0017
 7644SOL    HW234392   3.935   3.998   5.964 -0.1763 -1.2121  1.4123
 7645SOL     OW34393   0.417   1.913   8.576 -0.6639 -0.0793 -0.3929
 7645SOL    HW134394   0.442   1.950   8.661 -1.6711  1.3648 -0.7316
 7645SOL    HW234395   0.484   1.848   8.557  1.4997  1.1435  2.9480
 7646SOL     OW34396   2.186   0.077   2.246 -0.1685  0.0008 -0.4101
 7646SOL    HW134397   2.204   4.719   2.296  0.5623  2.9705  4.0217
 7646SOL    HW234398   2.244   0.055   2.173  1.3983  1.0168  0.5287
 7647SOL     OW34399   2.015   0.366   6.404 -0.3981 -0.4767  0.1677
 7647SOL    HW134400   2.082   0.299   6.413 -0.5753 -0.6816 -0.0177
 7647SOL    HW234401   1.933   0.317   6.413 -1.2558  0.7682 -0.6981
 7648SOL     OW34402   4.178   2.300   4.665  0.3350  0.2187  0.5072
 7648SOL    HW134403   4.211   2.342   4.744  0.1989 -0.1179  0.7449
 7648SOL    HW234404   4.260   2.279   4.620  0.6929 -0.0196  1.2640
 7649SOL     OW34405   0.451   3.589  12.799  0.3217  0.2875  0.5564
 7649SOL    HW134406   0.485   3.535  12.728  0.3946  0.4341  0.4814
 7649SOL    HW234407   0.447   3.679  12.767  1.1508 -0.1043 -0.6220
 7650SOL     OW34408   1.042   1.979   3.360  0.4482 -0.5006 -0.1338
 7650SOL    HW134409   1.079   1.932   3.285 -0.6558 -0.1116 -0.9143
 7650SOL    HW234410   1.120   1.997   3.414 -0.3387  0.2266  0.7623
 7651SOL     OW34411   1.537   2.802   6.422  0.0931 -0.2043 -0.3233
 7651SOL    HW134412   1.476   2.866   6.458  1.0169  0.0713  0.7603
 7651SOL    HW234413   1.544   2.826   6.330  1.6265 -1.1627 -0.4547
 7652SOL     OW34414   4.688   0.102   3.505  0.0599  0.3823 -0.5134
 7652SOL    HW134415   4.716   0.117   3.595  1.1165 -0.3430 -0.7218
 7652SOL    HW234416   4.598   0.134   3.509 -0.3853 -1.0289  0.5743
 7653SOL     OW34417   1.400   0.716  10.555 -0.0859 -0.3344  0.1101
 7653SOL    HW134418   1.364   0.666  10.629 -1.1484  2.7484  1.6815
 7653SOL    HW234419   1.423   0.801  10.593 -1.5925 -1.0596  2.6347
 7654SOL     OW34420   3.599   3.641   4.173 -0.2807  0.0254  0.1935
 7654SOL    HW134421   3.505   3.656   4.165 -0.8818 -3.4838  0.7323
 7654SOL    HW234422   3.602   3.586   4.095 -0.1532 -1.4397  1.2375
 7655SOL     OW34423   0.605   1.976  13.859 -0.2858  0.3994  0.2630
 7655SOL    HW134424   0.517   1.956  13.826  0.0288 -0.9545  0.2122
 7655SOL    HW234425   0.646   1.954  13.775  0.0771 -1.3605  0.8846
 7656SOL     OW34426   1.721   1.289   2.071  0.3809 -0.3411 -0.2097
 7656SOL    HW134427   1.788   1.261   2.133  0.4080  0.0087 -0.0788
 7656SOL    HW234428   1.740   1.381   2.050  2.9678 -1.2322 -1.7151
 7657SOL     OW34429   3.059   0.575   8.590  0.7378 -0.0981  0.2553
 7657SOL    HW134430   3.145   0.613   8.569  1.3319 -1.3550  0.3942
 7657SOL    HW234431   3.075   0.543   8.679  1.0544  0.0356  0.2473
 7658SOL     OW34432   1.364   0.482   8.025  0.3555 -0.4080  0.8820
 7658SOL    HW134433   1.401   0.493   8.113 -1.1556  1.7186  1.2642
 7658SOL    HW234434   1.306   0.557   8.010 -0.5384 -1.8549 -2.8054
 7659SOL     OW34435   1.260   0.572  10.757  0.2542 -0.3779 -0.6519
 7659SOL    HW134436   1.214   0.496  10.721 -1.1259  0.7300 -1.2249
 7659SOL    HW234437   1.209   0.584  10.837 -0.2620 -4.0158 -0.4301
 7660SOL     OW34438   0.966   3.455   6.009 -0.4424  0.0710  0.2749
 7660SOL    HW134439   0.989   3.383   5.950 -0.5782  0.6233 -0.4557
 7660SOL    HW234440   0.906   3.404   6.064 -0.1721 -1.1925 -0.6119
 7661SOL     OW34441   2.794   3.681   8.767  0.1775  0.0787 -0.3030
 7661SOL    HW134442   2.823   3.621   8.835 -0.2820  1.0165  0.7191
 7661SOL    HW234443   2.820   3.637   8.687 -3.0462 -1.1344 -0.6795
 7662SOL     OW34444   3.487   0.802   8.707  0.2248  0.1974  0.0805
 7662SOL    HW134445   3.517   0.893   8.704 -0.8387  0.5863  1.5679
 7662SOL    HW234446   3.569   0.753   8.703  0.0961  0.2105 -2.5050
 7663SOL     OW34447   2.968   0.089   6.813 -1.2540  0.1918  0.3807
 7663SOL    HW134448   3.013   0.096   6.729 -1.0976  0.5692  0.4976
 7663SOL    HW234449   2.955   0.178   6.846  2.9214  0.9744 -0.1277
 7664SOL     OW34450   2.601   1.300   8.114  0.6627 -0.9841  0.2433
 7664SOL    HW134451   2.638   1.369   8.058 -0.4655 -0.1148  0.5671
 7664SOL    HW234452   2.674   1.239   8.109 -1.5386 -3.4805 -1.2705
 7665SOL     OW34453   3.484   1.468   4.449 -0.5018 -0.3098 -0.4080
 7665SOL    HW134454   3.569   1.464   4.406  0.0031  3.0906  0.3069
 7665SOL    HW234455   3.486   1.555   4.488 -2.4793 -0.8819  1.0149
 7666SOL     OW34456   3.057   4.502   4.469 -0.4178  0.2041  0.1491
 7666SOL    HW134457   2.987   4.454   4.424  2.3503 -2.6299 -1.1085
 7666SOL    HW234458   3.119   4.502   4.397 -0.3995  0.3244  0.1653
 7667SOL     OW34459   1.782   0.463   7.891  0.3678 -0.0473 -0.1106
 7667SOL    HW134460   1.742   0.549   7.901 -1.5547 -0.8286 -1.2213
 7667SOL    HW234461   1.815   0.460   7.801 -0.4858 -0.0776 -0.4150
 7668SOL     OW34462   2.848   0.907   2.082 -0.1436  0.0818  0.1957
 7668SOL    HW134463   2.824   0.999   2.067  1.2435  0.5516  0.7957
 7668SOL    HW234464   2.903   0.887   2.007  0.7053  1.2859  0.4878
 7669SOL     OW34465   1.947   1.642   9.215 -0.0057  0.9679 -0.1603
 7669SOL    HW134466   2.036   1.678   9.212  0.9249 -1.3594 -0.1773
 7669SOL    HW234467   1.952   1.576   9.284 -0.7295 -2.1382 -3.0669
 7670SOL     OW34468   0.881   2.337   2.164 -0.7156  0.1037 -0.4467
 7670SOL    HW134469   0.813   2.320   2.230 -1.6066  2.3997 -0.7721
 7670SOL    HW234470   0.848   2.411   2.114 -0.6902  0.0306 -0.5708
 7671SOL     OW34471   4.085   2.935   3.534 -0.4468 -0.7157 -0.4318
 7671SOL    HW134472   4.133   2.914   3.614  2.5766 -0.9461 -2.3357
 7671SOL    HW234473   3.992   2.919   3.553 -0.4234  0.8580  0.9824
 7672SOL     OW34474   1.339   1.068   6.277 -0.5629  0.1134  0.2293
 7672SOL    HW134475   1.361   0.975   6.284  4.1611  1.1070 -1.0962
 7672SOL    HW234476   1.424   1.111   6.263 -0.5513 -0.0288 -0.1280
 7673SOL     OW34477   0.412   0.618   6.972 -0.2837 -0.4867  1.1498
 7673SOL    HW134478   0.463   0.543   7.001  0.8750 -0.9397 -2.0265
 7673SOL    HW234479   0.461   0.684   7.021  1.2504  0.0664 -1.1394
 7674SOL     OW34480   3.663   3.985  12.798 -0.5060  0.2918 -0.9506
 7674SOL    HW134481   3.613   3.971  12.717 -2.5363  0.4939  0.2889
 7674SOL    HW234482   3.609   3.930  12.854 -0.3842  0.8450 -0.2912
 7675SOL     OW34483   4.444   3.025   4.452  0.0564 -0.1608  0.1464
 7675SOL    HW134484   4.503   2.952   4.465  0.2327  0.0848  0.7245
 7675SOL    HW234485   4.497   3.091   4.497  0.8849 -1.4328  1.0237
 7676SOL     OW34486   2.377   2.403   1.931 -0.4093  0.0183 -0.2564
 7676SOL    HW134487   2.465   2.366   1.931 -0.0064  0.9708  0.1704
 7676SOL    HW234488   2.368   2.426   2.024 -0.1262 -1.9595  0.2755
 7677SOL     OW34489   0.731   3.522   9.110 -0.4653 -0.9730  0.0456
 7677SOL    HW134490   0.740   3.521   9.015  0.8068 -2.7385  0.1788
 7677SOL    HW234491   0.641   3.552   9.119 -0.0607 -0.0344  0.9296
 7678SOL     OW34492   4.150   3.032   2.379  0.3660 -0.0073  0.3030
 7678SOL    HW134493   4.169   3.022   2.285  0.0942 -2.3948  0.4985
 7678SOL    HW234494   4.072   2.977   2.391  0.1611  0.2498  0.1736
 7679SOL     OW34495   3.295   2.994   5.002 -0.5283  0.0483  0.2801
 7679SOL    HW134496   3.268   2.913   5.045 -1.0224 -0.1740 -0.4453
 7679SOL    HW234497   3.306   2.967   4.910 -1.4041  1.5203 -0.2559
 7680SOL     OW34498   1.655   0.761   5.147 -0.5556 -0.2983 -0.4926
 7680SOL    HW134499   1.751   0.758   5.150 -0.5655 -0.9636 -0.6780
 7680SOL    HW234500   1.630   0.702   5.218 -1.3010  1.5258  0.7498
 7681SOL     OW34501   4.329   3.390  15.917  0.3914  0.7678  0.0337
 7681SOL    HW134502   4.390   3.364  15.986  0.8390 -3.7663 -2.0209
 7681SOL    HW234503   4.374   3.347  15.844  0.5877  1.8072 -0.4447
 7682SOL     OW34504   3.747   4.373   3.950 -0.0400  0.1341  0.5668
 7682SOL    HW134505   3.670   4.423   3.978  0.3615  0.7841  0.5149
 7682SOL    HW234506   3.701   4.289   3.943 -1.4965  0.9912 -0.1520
 7683SOL     OW34507   1.914   3.188  13.925 -0.0035 -0.3473 -0.1773
 7683SOL    HW134508   1.947   3.113  13.875  0.9930 -0.3147  0.4291
 7683SOL    HW234509   1.854   3.239  13.870 -1.3021 -0.7355  0.8912
 7684SOL     OW34510   0.483   2.977   6.340  0.2775 -0.3137 -0.6863
 7684SOL    HW134511   0.493   3.070   6.360  1.5008 -0.8808  1.3085
 7684SOL    HW234512   0.418   2.950   6.405 -0.0054  1.5539 -0.2044
 7685SOL     OW34513   0.455   2.693   2.182 -0.5335 -0.1064 -0.3888
 7685SOL    HW134514   0.503   2.709   2.101 -0.6815 -1.3741 -0.7334
 7685SOL    HW234515   0.432   2.784   2.201  0.2193 -0.1376  0.6659
 7686SOL     OW34516   4.691   3.777   5.861 -0.4747  0.3413  0.1406
 7686SOL    HW134517   0.028   3.767   5.935 -0.4163  1.4542  0.2382
 7686SOL    HW234518   0.023   3.727   5.800 -0.8278  0.6637 -0.4408
 7687SOL     OW34519   1.966   3.469   8.851 -0.1027  0.0754 -0.0989
 7687SOL    HW134520   2.019   3.532   8.899 -1.6381  0.4662  1.0441
 7687SOL    HW234521   2.019   3.392   8.873  0.8359  0.0391 -2.5072
 7688SOL     OW34522   0.245   3.814   3.096 -0.4397 -0.1004  0.4106
 7688SOL    HW134523   0.264   3.907   3.107 -0.0574 -0.0302 -0.7969
 7688SOL    HW234524   0.151   3.808   3.114 -0.7201  1.9590 -0.3659
 7689SOL     OW34525   0.509   4.506   2.583 -0.2286  0.4213  0.0629
 7689SOL    HW134526   0.490   4.430   2.527  0.3272 -0.8770  1.6373
 7689SOL    HW234527   0.473   4.579   2.534  1.8366  2.6324  1.8618
 7690SOL     OW34528   1.927   2.096   7.214 -0.0537  1.0241 -0.9250
 7690SOL    HW134529   1.893   2.069   7.129 -0.9972  1.0417 -0.5545
 7690SOL    HW234530   1.918   2.189   7.193 -1.2968  0.6484 -2.0561
 7691SOL     OW34531   0.824   4.187   1.393  0.2150  0.3349  0.1605
 7691SOL    HW134532   0.761   4.259   1.392 -2.0120 -1.5698  1.5795
 7691SOL    HW234533   0.819   4.143   1.308 -0.8959 -1.3483  1.0746
 7692SOL     OW34534   4.444   3.412  12.863 -0.0179 -0.7911 -0.6162
 7692SOL    HW134535   4.362   3.450  12.831  0.6066 -1.1987 -2.7559
 7692SOL    HW234536   4.406   3.328  12.890 -2.7842  1.3317  2.0214
 7693SOL     OW34537   2.300   1.274   7.499  0.2741  0.1672  0.0263
 7693SOL    HW134538   2.252   1.225   7.566 -1.7772  1.5636 -0.4223
 7693SOL    HW234539   2.329   1.344   7.559 -0.8126 -0.7996  1.6830
 7694SOL     OW34540   2.222   2.490   2.745  0.0908  0.3409 -0.7489
 7694SOL    HW134541   2.220   2.410   2.797  1.5274  0.9673  0.2793
 7694SOL    HW234542   2.129   2.515   2.749  0.3429  1.3741 -1.2357
 7695SOL     OW34543   4.224   2.133  14.244  0.3198  0.2275  0.0793
 7695SOL    HW134544   4.216   2.038  14.236 -0.4984  0.3750 -0.8330
 7695SOL    HW234545   4.300   2.152  14.189  1.7601 -0.5805  1.8115
 7696SOL     OW34546   4.298   3.850   5.238  0.1141  0.4164 -0.9715
 7696SOL    HW134547   4.242   3.896   5.176 -2.1326 -0.4036  0.4480
 7696SOL    HW234548   4.241   3.796   5.292  0.2620  0.4845 -0.7458
 7697SOL     OW34549   0.498   4.196   5.736  0.1704  0.3535  0.0466
 7697SOL    HW134550   0.501   4.202   5.831 -0.2586  0.6979  0.0388
 7697SOL    HW234551   0.434   4.126   5.723  0.0574  0.2519  1.1444
 7698SOL     OW34552   1.292   3.651   1.961 -0.4268  0.7605  0.4606
 7698SOL    HW134553   1.282   3.579   1.900 -0.7020  1.1669  0.0317
 7698SOL    HW234554   1.243   3.622   2.038 -0.6220  1.1781  0.4949
 7699SOL     OW34555   0.130   4.550  10.539  0.1556 -0.2543  0.5618
 7699SOL    HW134556   0.215   4.580  10.507  1.0097 -1.6587  1.4835
 7699SOL    HW234557   0.162   4.509  10.620 -0.8375 -0.0557  1.0576
 7700SOL     OW34558   1.974   4.715   7.884 -0.2175 -0.1100  0.0319
 7700SOL    HW134559   2.069   4.709   7.896 -0.0760  1.0456 -0.5053
 7700SOL    HW234560   1.963   0.087   7.897  1.2145  0.3430 -1.9212
 7701SOL     OW34561   1.585   3.232   8.214  0.0650 -0.6679 -0.0501
 7701SOL    HW134562   1.527   3.305   8.234  1.9129 -0.2292  3.6841
 7701SOL    HW234563   1.563   3.172   8.285 -2.1638 -1.1811 -1.1642
 7702SOL     OW34564   3.229   0.275   4.346 -0.1501 -0.2758 -0.4056
 7702SOL    HW134565   3.213   0.239   4.260 -1.9170  1.8739 -0.9880
 7702SOL    HW234566   3.231   0.198   4.402  0.0719  1.4176  1.9331
 7703SOL     OW34567   2.326   2.764  16.983 -0.6911  1.3158 -0.4336
 7703SOL    HW134568   2.290   2.705  17.049  0.6229  0.7346 -0.2295
 7703SOL    HW234569   2.378   2.701  16.932  2.9127  1.2969  3.3199
 7704SOL     OW34570   3.603   4.369  16.995 -0.3736 -0.4876  0.5615
 7704SOL    HW134571   3.583   4.365  17.088  0.6286 -1.2743  0.7370
 7704SOL    HW234572   3.686   4.417  16.985 -0.1616 -0.8819  0.4530
 7705SOL     OW34573   3.937   0.988  11.382 -0.4595 -0.0312  0.6458
 7705SOL    HW134574   3.924   0.894  11.386 -3.0103  0.2980  0.2126
 7705SOL    HW234575   3.887   1.006  11.302  1.6855 -3.6437 -1.4894
 7706SOL     OW34576   4.457   3.933   7.175  0.5341  0.0612  0.2441
 7706SOL    HW134577   4.409   4.008   7.210 -1.6340 -0.7098 -1.0896
 7706SOL    HW234578   4.483   3.972   7.091  2.4795 -0.7063  0.5035
 7707SOL     OW34579   2.015   3.986   6.938 -0.1766 -0.1296 -0.1709
 7707SOL    HW134580   2.107   4.002   6.962 -0.1827 -0.6475  0.1803
 7707SOL    HW234581   2.023   3.894   6.913  1.2475 -0.2894  0.8800
 7708SOL     OW34582   1.772   1.288  14.577  0.3356 -0.2791 -0.2666
 7708SOL    HW134583   1.810   1.376  14.580  0.3904 -0.2288 -2.8682
 7708SOL    HW234584   1.847   1.242  14.614  0.0984 -0.6724 -0.2799
 7709SOL     OW34585   4.281   3.707   5.639 -0.0396 -0.9021  0.1912
 7709SOL    HW134586   4.317   3.762   5.708 -0.7937 -0.5306  0.2808
 7709SOL    HW234587   4.202   3.753   5.612 -1.8756 -3.6459  0.8657
 7710SOL     OW34588   4.422   3.091   8.147 -0.0125  0.0669  0.1434
 7710SOL    HW134589   4.462   3.009   8.119 -0.8043 -0.0865 -0.5334
 7710SOL    HW234590   4.502   3.139   8.163 -0.3062  1.6378 -3.1435
 7711SOL     OW34591   3.579   4.107  16.420 -0.4762 -0.2591 -0.9265
 7711SOL    HW134592   3.524   4.078  16.347 -1.6327 -0.1117 -0.1174
 7711SOL    HW234593   3.520   4.114  16.495  0.6917 -0.9565  0.0647
 7712SOL     OW34594   3.190   2.469   2.213 -0.6395  0.5866  0.4032
 7712SOL    HW134595   3.205   2.508   2.299 -1.6400 -0.4178  1.0442
 7712SOL    HW234596   3.248   2.525   2.163  0.4982 -2.4651 -1.7098
 7713SOL     OW34597   3.729   2.070   2.777 -0.2613 -0.1725  0.1459
 7713SOL    HW134598   3.746   2.164   2.787 -1.9169  0.1962 -0.5008
 7713SOL    HW234599   3.717   2.060   2.682  2.3358  1.7700 -0.3651
 7714SOL     OW34600   1.915   2.072   7.504  0.3584  0.0558  0.1956
 7714SOL    HW134601   1.947   2.148   7.456 -2.0485  0.5731 -0.6008
 7714SOL    HW234602   1.847   2.038   7.446  0.6254  0.2689 -0.2400
 7715SOL     OW34603   3.603   3.795  15.479 -0.3644  0.2761 -0.7514
 7715SOL    HW134604   3.615   3.756  15.566 -1.8461  1.0916 -0.1733
 7715SOL    HW234605   3.593   3.887  15.505  0.2798 -0.1518  1.0721
 7716SOL     OW34606   0.974   4.210   3.298 -0.2523  0.7449  0.1125
 7716SOL    HW134607   0.900   4.235   3.353 -0.1810  1.2954 -0.0422
 7716SOL    HW234608   1.041   4.187   3.362 -0.1420  0.2796 -0.1682
 7717SOL     OW34609   2.985   1.932   0.763  0.0057 -0.0861 -0.5385
 7717SOL    HW134610   2.906   1.972   0.798  0.0438 -0.3297 -0.1642
 7717SOL    HW234611   2.962   1.839   0.766  0.6923 -0.2600 -0.4352
 7718SOL     OW34612   0.884   4.483   6.521 -0.6272  0.4301 -0.1620
 7718SOL    HW134613   0.813   4.457   6.463  1.6270 -0.1674 -2.6241
 7718SOL    HW234614   0.951   4.435   6.473 -1.6332 -1.2745  0.1362
 7719SOL     OW34615   0.052   1.299   8.007  0.1675  0.2342 -0.1782
 7719SOL    HW134616   0.062   1.311   7.912 -1.5798 -1.5219 -0.5846
 7719SOL    HW234617   4.701   1.237   8.003 -1.0474  1.7262 -1.2929
 7720SOL     OW34618   3.762   0.776   4.001  0.3466 -0.0562 -0.2413
 7720SOL    HW134619   3.679   0.778   4.050  0.6185 -0.5688  0.2384
 7720SOL    HW234620   3.719   0.792   3.917  2.3067  2.2884 -0.8019
 7721SOL     OW34621   0.742   0.851  11.241  0.0014 -0.3364  0.9505
 7721SOL    HW134622   0.656   0.844  11.198  0.6809 -0.4785 -0.3633
 7721SOL    HW234623   0.714   0.807  11.322 -1.0274  0.4044  1.0041
 7722SOL     OW34624   1.508   1.876   3.043  0.5905 -0.1092 -0.2581
 7722SOL    HW134625   1.480   1.915   3.126 -0.6182 -1.8254  0.1396
 7722SOL    HW234626   1.426   1.880   2.994  0.6328  2.1316 -0.1493
 7723SOL     OW34627   3.112   2.587  14.283 -0.2086  0.4842  0.4873
 7723SOL    HW134628   3.192   2.586  14.229 -0.8093 -1.4436 -0.3899
 7723SOL    HW234629   3.055   2.592  14.206  1.1921  1.3298 -0.5122
 7724SOL     OW34630   4.495   3.931  13.204  0.2169 -0.4653 -0.4282
 7724SOL    HW134631   4.534   3.890  13.282 -0.9074 -2.6616 -1.0267
 7724SOL    HW234632   4.543   4.014  13.197  1.9435 -1.2275  2.0204
 7725SOL     OW34633   3.465   3.778  10.712  0.6071 -0.1194 -0.2403
 7725SOL    HW134634   3.549   3.745  10.746  0.4570 -0.1863  0.0672
 7725SOL    HW234635   3.474   3.768  10.617  0.0703  0.5032 -0.3566
 7726SOL     OW34636   3.989   2.611   5.428  0.3894 -0.5697  0.6529
 7726SOL    HW134637   3.894   2.621   5.434  0.4382 -1.5566  3.1069
 7726SOL    HW234638   4.007   2.664   5.505 -0.4076  0.9401 -0.1848
 7727SOL     OW34639   3.585   4.511   8.665  0.3503  0.4965  0.1515
 7727SOL    HW134640   3.530   4.527   8.742  0.6524 -1.9187  0.8810
 7727SOL    HW234641   3.573   4.597   8.624  2.0047  0.3262 -0.7212
 7728SOL     OW34642   2.342   1.002   6.697 -0.3467 -0.2201 -0.2285
 7728SOL    HW134643   2.365   0.909   6.687  0.9204 -0.1574  2.1487
 7728SOL    HW234644   2.256   0.990   6.737 -0.0010 -0.6522  0.3835
 7729SOL     OW34645   3.715   0.632   8.658  0.3496 -0.2042  0.7517
 7729SOL    HW134646   3.780   0.702   8.663  0.0813  0.2340 -1.7702
 7729SOL    HW234647   3.776   0.567   8.691  0.3019 -0.1157  1.0228
 7730SOL     OW34648   4.542   2.848   2.644  0.3563  0.5189 -0.0113
 7730SOL    HW134649   4.483   2.872   2.573  1.8031  0.7142 -1.1484
 7730SOL    HW234650   4.567   2.758   2.623 -0.9406 -0.6498  3.5132
 7731SOL     OW34651   3.737   1.458  16.891  0.0937 -0.4069 -0.3842
 7731SOL    HW134652   3.739   1.424  16.981  1.9525 -0.2248 -0.3683
 7731SOL    HW234653   3.654   1.504  16.904 -0.0390 -0.5939 -0.5866
 7732SOL     OW34654   3.834   1.563   8.280  0.1343 -0.5153  0.1151
 7732SOL    HW134655   3.875   1.560   8.366 -0.3666 -1.9441  0.3124
 7732SOL    HW234656   3.776   1.638   8.290  0.2620 -0.2199 -1.3585
 7733SOL     OW34657   0.265   3.626   7.552  0.3608 -0.2579 -0.5493
 7733SOL    HW134658   0.267   3.636   7.647  1.0656 -0.4323 -0.5434
 7733SOL    HW234659   0.211   3.699   7.523  0.7763  1.3591  2.7356
 7734SOL     OW34660   1.353   3.437  16.990  0.6462 -0.1914  0.2169
 7734SOL    HW134661   1.348   3.353  16.944  1.6277 -1.0351  1.6219
 7734SOL    HW234662   1.395   3.409  17.072 -0.1075 -0.1365  0.6311
 7735SOL     OW34663   2.080   2.880  10.254  0.5979  0.5058 -0.2356
 7735SOL    HW134664   2.003   2.924  10.220 -0.5709 -1.7558 -0.4896
 7735SOL    HW234665   2.139   2.893  10.180 -0.8189 -1.6673 -1.7512
 7736SOL     OW34666   3.976   1.662   4.884 -0.4716  0.5586  0.4257
 7736SOL    HW134667   3.884   1.658   4.855 -0.3604 -1.5861  0.4085
 7736SOL    HW234668   3.992   1.729   4.817 -2.2082  0.9684  0.4060
 7737SOL     OW34669   0.275   3.254  11.640 -0.7610 -0.2710 -0.0045
 7737SOL    HW134670   0.327   3.208  11.706  0.1951  1.9144  0.7804
 7737SOL    HW234671   0.211   3.305  11.690 -1.8556 -1.7327  0.0619
 7738SOL     OW34672   0.981   2.010  11.903  0.0669 -0.1259  0.4547
 7738SOL    HW134673   0.893   1.973  11.909  0.0590 -0.2458 -0.3648
 7738SOL    HW234674   0.970   2.074  11.833 -1.9173 -0.9091  0.0586
 7739SOL     OW34675   4.050   2.167   7.742  1.0351 -0.4055 -0.0706
 7739SOL    HW134676   3.976   2.115   7.711  0.2951  0.7978 -0.3402
 7739SOL    HW234677   4.084   2.211   7.664 -0.5060  1.6517  0.4107
 7740SOL     OW34678   0.050   1.105   3.263 -0.1638 -0.0651  0.3442
 7740SOL    HW134679   0.019   1.015   3.255  0.5333 -0.3983  1.3113
 7740SOL    HW234680   0.119   1.094   3.328 -0.7997  2.1203  1.3713
 7741SOL     OW34681   0.059   4.673   8.509  0.1531  0.3420 -0.0690
 7741SOL    HW134682   0.083   0.033   8.464 -0.6816 -0.7763 -2.5522
 7741SOL    HW234683   0.017   4.624   8.439 -0.0336 -0.8226  0.8601
 7742SOL     OW34684   2.207   3.341   6.014  0.1179  0.4253  0.1774
 7742SOL    HW134685   2.236   3.313   5.927 -0.4470  0.6817 -0.0858
 7742SOL    HW234686   2.129   3.390   5.989 -1.1694 -0.7032  1.9481
 7743SOL     OW34687   2.955   2.924  15.888 -0.8354 -0.1278  0.3123
 7743SOL    HW134688   2.888   2.970  15.838  0.3296  1.3269  0.1007
 7743SOL    HW234689   2.936   2.830  15.885 -1.2439 -0.0288 -0.1821
 7744SOL     OW34690   1.819   1.615   2.557  0.2667 -0.3168 -0.6676
 7744SOL    HW134691   1.860   1.678   2.498  0.1822  0.1441 -0.2331
 7744SOL    HW234692   1.844   1.530   2.519  0.4001 -1.3041  1.6308
 7745SOL     OW34693   0.900   3.484  16.852 -0.7236  0.2690  0.0626
 7745SOL    HW134694   0.822   3.520  16.809  0.7356  0.4234 -2.5100
 7745SOL    HW234695   0.897   3.525  16.938 -1.7236  1.5474 -0.5949
 7746SOL     OW34696   3.540   1.389   2.943  0.0166 -0.0801  0.1503
 7746SOL    HW134697   3.538   1.436   2.860  0.8178  0.6777  0.5574
 7746SOL    HW234698   3.618   1.334   2.943 -0.4391 -0.7262  0.7381
 7747SOL     OW34699   0.416   0.450   3.252 -0.4170  0.0077 -0.2331
 7747SOL    HW134700   0.395   0.358   3.236  2.8618 -0.6903 -0.4958
 7747SOL    HW234701   0.405   0.490   3.166 -0.9440 -0.3268 -0.3205
 7748SOL     OW34702   0.328   3.685   7.024 -0.4663  0.4499 -0.2909
 7748SOL    HW134703   0.388   3.640   6.965 -1.9032 -1.5630 -0.2102
 7748SOL    HW234704   0.249   3.638   7.000  0.3307 -1.1801  0.2805
 7749SOL     OW34705   3.582   4.171  16.006  0.2536 -0.2508 -0.3387
 7749SOL    HW134706   3.639   4.142  15.935  1.6063  3.1111 -0.6456
 7749SOL    HW234707   3.626   4.255  16.020 -0.2347 -0.1180  0.3502
 7750SOL     OW34708   0.836   3.000   3.947 -0.5165 -0.2597 -0.2057
 7750SOL    HW134709   0.802   3.088   3.931 -0.4595 -0.0542  0.7915
 7750SOL    HW234710   0.825   2.993   4.042  2.6829  2.2911  0.3555
 7751SOL     OW34711   1.025   2.234   5.659  0.0235  0.6076 -0.2232
 7751SOL    HW134712   0.988   2.146   5.646  2.0794  0.0097 -1.9511
 7751SOL    HW234713   0.991   2.276   5.580 -1.2831 -3.3204 -1.7909
 7752SOL     OW34714   2.519   1.303  13.209  0.0301  0.0157 -0.1690
 7752SOL    HW134715   2.507   1.317  13.303 -1.7362  3.7070 -0.9182
 7752SOL    HW234716   2.543   1.211  13.211 -1.3938 -0.3456  0.2653
 7753SOL     OW34717   1.735   0.551   6.219  0.2336  0.0342  0.1959
 7753SOL    HW134718   1.768   0.569   6.307 -0.9372  0.7957  0.4802
 7753SOL    HW234719   1.771   0.622   6.166  0.1734  0.7485  1.1096
 7754SOL     OW34720   2.315   0.163   3.825  0.4552 -0.2039 -0.3859
 7754SOL    HW134721   2.245   0.111   3.865  0.9910  0.1274  0.9739
 7754SOL    HW234722   2.369   0.169   3.903 -0.0600  1.7666 -0.1857
 7755SOL     OW34723   1.315   1.087  16.693  0.8468 -0.1232  0.2631
 7755SOL    HW134724   1.305   1.149  16.621 -0.6789 -0.4350  0.2045
 7755SOL    HW234725   1.349   1.010  16.649  1.2729 -0.1043  0.5623
 7756SOL     OW34726   3.408   3.564   4.599 -0.2493  0.1768 -0.1262
 7756SOL    HW134727   3.375   3.478   4.625  2.7959 -0.1517  2.6322
 7756SOL    HW234728   3.324   3.611   4.600  0.1729  0.9960 -1.8376
 7757SOL     OW34729   4.458   0.865   1.745  0.2189  0.6845  0.4769
 7757SOL    HW134730   4.483   0.944   1.697  2.0700 -0.6242 -0.6964
 7757SOL    HW234731   4.363   0.865   1.732  0.3094  1.6427 -0.1951
 7758SOL     OW34732   4.370   2.034   2.980 -0.7501 -0.2166 -0.3932
 7758SOL    HW134733   4.311   2.016   2.907 -1.5472  1.0188 -0.0417
 7758SOL    HW234734   4.305   2.080   3.034 -0.0735 -0.0162  0.2647
 7759SOL     OW34735   4.502   0.131   1.384  0.1380 -0.0160 -0.2073
 7759SOL    HW134736   4.498   0.122   1.480 -0.3275 -0.2572 -0.2522
 7759SOL    HW234737   4.513   0.043   1.349  0.0763 -0.9454  2.0958
 7760SOL     OW34738   2.257   1.189   1.723  0.2590 -0.1364 -0.2035
 7760SOL    HW134739   2.190   1.246   1.760  0.7240  0.1665  0.1687
 7760SOL    HW234740   2.259   1.222   1.633  0.1108  4.1562  1.3666
 7761SOL     OW34741   2.683   3.753   2.069  0.3674  0.7036 -0.5637
 7761SOL    HW134742   2.592   3.764   2.097  0.4068  0.3686 -0.2995
 7761SOL    HW234743   2.689   3.657   2.072  1.1629  0.7860  0.4829
 7762SOL     OW34744   1.990   0.335   1.930  0.2482  0.1537  0.5277
 7762SOL    HW134745   1.997   0.428   1.909  1.5563  0.2071  1.2064
 7762SOL    HW234746   1.961   0.299   1.846 -0.0941 -0.1975  0.7966
 7763SOL     OW34747   3.448   0.409   2.069  0.1396 -0.0055 -0.1348
 7763SOL    HW134748   3.425   0.451   2.152  1.2606  0.3019  0.0283
 7763SOL    HW234749   3.510   0.472   2.033 -1.5942  0.9891 -1.3310
 7764SOL     OW34750   0.844   3.717   5.686  0.6411  0.2454 -0.2472
 7764SOL    HW134751   0.766   3.669   5.658  0.6293 -0.5012  1.0473
 7764SOL    HW234752   0.904   3.670   5.628  1.4023 -0.1726  0.8867
 7765SOL     OW34753   4.221   1.437   6.939  0.3922 -0.2697  0.0403
 7765SOL    HW134754   4.173   1.518   6.920  1.8915  0.7686  0.5876
 7765SOL    HW234755   4.310   1.451   6.908 -0.3161  0.3934 -1.6826
 7766SOL     OW34756   3.545   4.408   0.561 -0.4454  0.0624 -0.3286
 7766SOL    HW134757   3.509   4.440   0.478  0.8736  2.0321 -0.1244
 7766SOL    HW234758   3.539   4.487   0.613 -1.3554  0.9463 -1.7732
 7767SOL     OW34759   0.166   1.259   5.868 -0.2215  0.1328  0.2129
 7767SOL    HW134760   0.227   1.298   5.931  2.9246 -0.0723 -2.6894
 7767SOL    HW234761   0.157   1.168   5.896 -0.1093  0.8928  2.6892
 7768SOL     OW34762   2.938   2.100   0.230 -0.1540 -0.1859 -0.2200
 7768SOL    HW134763   3.001   2.172   0.232  1.0118 -1.2263  1.0078
 7768SOL    HW234764   2.904   2.100   0.320  0.8111 -0.0245  0.1487
 7769SOL     OW34765   2.835   1.746   1.708 -0.1036 -0.2903  0.0636
 7769SOL    HW134766   2.918   1.718   1.670  0.2030  0.3851  0.2450
 7769SOL    HW234767   2.854   1.716   1.797  0.5482 -1.3921 -0.4517
 7770SOL     OW34768   2.496   4.471   2.466  0.1788  0.7819  0.4924
 7770SOL    HW134769   2.483   4.553   2.419  0.4711 -0.1976 -1.2773
 7770SOL    HW234770   2.523   4.413   2.395 -0.1304 -1.0764  1.8791
 7771SOL     OW34771   4.688   4.015   4.122 -0.0350  0.5320 -0.0487
 7771SOL    HW134772   0.025   3.943   4.148 -0.3492  0.2963  0.0130
 7771SOL    HW234773   0.024   4.087   4.145 -0.3808  1.7576 -3.0804
 7772SOL     OW34774   0.160   0.563   3.902 -0.5336  0.1523 -0.5437
 7772SOL    HW134775   0.076   0.583   3.860 -0.3913  3.1917  0.6495
 7772SOL    HW234776   0.137   0.512   3.979  2.4760 -0.6870 -0.1967
 7773SOL     OW34777   3.737   1.634   2.928  0.0103  0.0647 -0.0163
 7773SOL    HW134778   3.732   1.705   2.864  2.4668  2.7971  2.8330
 7773SOL    HW234779   3.646   1.630   2.958  0.2822 -3.8922  0.2451
 7774SOL     OW34780   2.105   2.722   0.402  0.2668  0.1416  0.0145
 7774SOL    HW134781   2.186   2.757   0.364  1.3600 -1.1331  1.1425
 7774SOL    HW234782   2.088   2.656   0.334  0.4915 -1.5174  1.5712
 7775SOL     OW34783   2.462   0.438   5.506 -0.0384 -0.6834 -0.0628
 7775SOL    HW134784   2.429   0.374   5.443 -0.5666  1.1241 -1.6178
 7775SOL    HW234785   2.385   0.477   5.548 -0.3878 -0.9079 -0.4981
 7776SOL     OW34786   1.496   0.466   1.005 -0.3130 -0.1672 -0.3735
 7776SOL    HW134787   1.408   0.473   1.043 -1.1690 -2.7925 -1.8454
 7776SOL    HW234788   1.541   0.511   1.076 -0.5829 -1.0142  0.3387
 7777SOL     OW34789   2.297   4.267   0.439  0.1939  0.5458 -0.0379
 7777SOL    HW134790   2.334   4.268   0.350  1.8501  1.4479  0.6643
 7777SOL    HW234791   2.377   4.253   0.489  0.3402  2.2519  0.2161
 7778SOL     OW34792   1.674   3.728   4.087  0.3706  0.0556 -0.5541
 7778SOL    HW134793   1.635   3.763   4.007 -0.4741 -1.2921 -0.7372
 7778SOL    HW234794   1.595   3.706   4.136  1.0524  0.8925  0.9281
 7779SOL     OW34795   0.905   1.024   5.593  0.0265  0.6984 -0.1180
 7779SOL    HW134796   0.887   0.938   5.556  1.3307  0.4370 -0.1379
 7779SOL    HW234797   0.854   1.012   5.672 -1.4991  0.3228 -1.1664
 7780SOL     OW34798   2.619   0.846   9.269 -0.5610  0.1554  0.5743
 7780SOL    HW134799   2.543   0.817   9.220  1.1312 -1.3820 -1.1690
 7780SOL    HW234800   2.648   0.765   9.312  0.2142  0.4195  0.5587
 7781SOL     OW34801   2.802   2.130   6.978 -0.1457  0.0855 -0.0176
 7781SOL    HW134802   2.885   2.159   7.016  0.5194 -2.5279  0.5657
 7781SOL    HW234803   2.842   2.117   6.892  0.7198 -0.9358  0.5313
 7782SOL     OW34804   0.116   1.153  15.337 -0.0761  0.2357 -0.1829
 7782SOL    HW134805   0.118   1.143  15.432  1.0187 -1.1475 -0.3604
 7782SOL    HW234806   0.172   1.229  15.324  1.0288 -0.6168 -0.3456
 7783SOL     OW34807   4.093   2.762  14.951  0.1736 -0.6024 -0.0397
 7783SOL    HW134808   4.179   2.761  14.992  0.8750  0.3534 -1.4824
 7783SOL    HW234809   4.113   2.782  14.859  1.6117  0.2285  0.4481
 7784SOL     OW34810   3.559   4.096   7.804  0.4167 -0.0490  0.2013
 7784SOL    HW134811   3.533   4.005   7.796 -1.2519  0.1923  2.7690
 7784SOL    HW234812   3.637   4.076   7.857  1.7856 -0.8178 -2.1324
 7785SOL     OW34813   2.147   2.270   1.942  0.5699 -0.2621  0.1269
 7785SOL    HW134814   2.076   2.316   1.897  3.9728  2.2325 -2.6768
 7785SOL    HW234815   2.219   2.334   1.941  1.7546 -1.6074 -0.1860
 7786SOL     OW34816   1.613   0.287   2.296 -0.0179  0.6656  0.0586
 7786SOL    HW134817   1.671   0.363   2.294  0.3115  0.3977 -0.5321
 7786SOL    HW234818   1.532   0.316   2.338  0.3302  0.4865  0.8524
 7787SOL     OW34819   1.464   1.563   3.804 -0.0813 -0.0702  0.3561
 7787SOL    HW134820   1.424   1.477   3.820 -0.7535  0.0400 -0.7626
 7787SOL    HW234821   1.410   1.601   3.735 -0.8237 -1.6424  0.0551
 7788SOL     OW34822   2.273   3.864  10.532 -0.1206  0.1265 -0.3610
 7788SOL    HW134823   2.238   3.867  10.443 -0.5800 -1.0722 -0.2249
 7788SOL    HW234824   2.206   3.825  10.588  1.4822 -2.4561 -0.1768
 7789SOL     OW34825   0.049   0.841   7.399  0.0122 -0.6040 -0.1974
 7789SOL    HW134826   0.116   0.782   7.435  0.7722 -0.4303 -1.3271
 7789SOL    HW234827   0.101   0.921   7.402  0.8392 -1.1163 -1.0527
 7790SOL     OW34828   3.738   2.034   2.029 -0.2579  0.3241  0.5504
 7790SOL    HW134829   3.667   2.074   1.978  0.8447  1.8070  0.1934
 7790SOL    HW234830   3.811   2.079   1.988 -0.6996 -1.4324 -2.1523
 7791SOL     OW34831   0.313   0.938   1.307  0.4366  0.2314  0.4170
 7791SOL    HW134832   0.391   0.918   1.358 -0.3300 -2.7380  0.4007
 7791SOL    HW234833   0.257   0.977   1.375  0.9594  0.9165  0.4550
 7792SOL     OW34834   0.312   1.402  16.875  0.3536 -0.1397 -0.8931
 7792SOL    HW134835   0.372   1.328  16.880  0.7258  0.1785 -0.6521
 7792SOL    HW234836   0.240   1.379  16.816 -1.1669  1.3180  0.3665
 7793SOL     OW34837   2.962   4.415   6.124  0.0575  0.1573 -0.2223
 7793SOL    HW134838   3.000   4.455   6.046  0.3041 -0.3009 -0.3403
 7793SOL    HW234839   2.907   4.356   6.072  2.1759 -2.2610  0.3017
 7794SOL     OW34840   4.474   4.679   2.929  0.0583  0.1206 -0.1171
 7794SOL    HW134841   4.455   4.585   2.938 -1.1851  0.6248  2.4179
 7794SOL    HW234842   4.498   4.711   3.016 -0.8025  0.6777 -0.0870
 7795SOL     OW34843   2.200   0.711   7.913 -0.1372  0.1077 -0.2191
 7795SOL    HW134844   2.194   0.616   7.923  1.2411 -0.0006 -0.3844
 7795SOL    HW234845   2.135   0.716   7.843  1.3791  1.6465 -1.5154
 7796SOL     OW34846   2.881   2.984   7.119  0.0366 -0.2917 -0.3883
 7796SOL    HW134847   2.817   2.932   7.167 -0.7078  1.0135  0.0157
 7796SOL    HW234848   2.883   3.061   7.176 -2.3184 -0.0031 -0.6995
 7797SOL     OW34849   3.662   3.386   5.722  0.5181 -0.0820 -0.4181
 7797SOL    HW134850   3.708   3.353   5.799  2.4794  2.7288 -0.3621
 7797SOL    HW234851   3.665   3.480   5.740  3.0696 -0.2302  0.0170
 7798SOL     OW34852   4.002   1.885   4.038  0.6878 -0.4804  0.3239
 7798SOL    HW134853   3.938   1.892   4.108 -0.2506  0.1464 -0.5832
 7798SOL    HW234854   4.064   1.954   4.064  1.1640 -0.9698  0.4897
 7799SOL     OW34855   1.718   3.790   9.627 -0.4308 -0.0356  0.2739
 7799SOL    HW134856   1.767   3.708   9.618 -1.1538 -0.4193 -0.1797
 7799SOL    HW234857   1.630   3.758   9.607 -0.0207 -0.5327 -0.7590
 7800SOL     OW34858   4.506   3.876   9.182 -0.0399 -0.1962  0.2227
 7800SOL    HW134859   4.559   3.821   9.124  0.7905  1.5611 -0.6680
 7800SOL    HW234860   4.531   3.968   9.171 -0.8878  0.0470  0.3146
 7801SOL     OW34861   4.553   4.355   7.579  0.3168 -0.6517 -0.0763
 7801SOL    HW134862   4.578   4.433   7.529  2.4537  0.6980  3.1697
 7801SOL    HW234863   4.628   4.299   7.559  2.6819  1.6505  2.4822
 7802SOL     OW34864   1.393   2.796  17.092 -0.6393 -0.0240 -0.2043
 7802SOL    HW134865   1.427   2.745  17.165 -1.6794 -0.3030  0.0846
 7802SOL    HW234866   1.419   2.734  17.025  0.4143 -1.2080  1.3105
 7803SOL     OW34867   4.680   3.430  12.703 -0.3857  0.6869  0.2997
 7803SOL    HW134868   4.598   3.457  12.745 -1.1868 -0.3792 -0.6024
 7803SOL    HW234869   0.026   3.481  12.748  3.1680 -3.6002 -0.2392
 7804SOL     OW34870   4.033   1.617   9.465 -0.0031 -0.0762  0.0652
 7804SOL    HW134871   4.101   1.565   9.509 -0.9317 -1.8172 -0.5694
 7804SOL    HW234872   3.975   1.631   9.540  0.3182 -0.3866  0.3747
 7805SOL     OW34873   3.905   4.021  10.135  0.3145 -0.1109 -0.0209
 7805SOL    HW134874   3.845   4.082  10.178 -0.5704 -0.8533 -0.1891
 7805SOL    HW234875   3.930   4.089  10.072 -0.9728  1.4509  1.1382
 7806SOL     OW34876   1.204   3.371   3.827  0.3392 -0.0489 -0.4824
 7806SOL    HW134877   1.253   3.387   3.746  1.2489  1.1097  0.2919
 7806SOL    HW234878   1.192   3.460   3.860  0.6945 -0.7371  1.4823
 7807SOL     OW34879   4.264   0.879  15.986 -0.0633 -0.0612  0.4140
 7807SOL    HW134880   4.235   0.849  15.900  0.5596  0.5141 -0.0004
 7807SOL    HW234881   4.219   0.822  16.049  0.0186 -2.3956 -1.6495
 7808SOL     OW34882   1.584   2.931   5.280  0.1888  0.1266  0.3496
 7808SOL    HW134883   1.616   2.929   5.190 -0.9920 -0.6044 -0.0567
 7808SOL    HW234884   1.589   3.025   5.296  2.9519 -0.0166  0.3193
 7809SOL     OW34885   0.095   0.148   8.717 -0.8721 -0.0957 -0.1237
 7809SOL    HW134886   0.021   0.138   8.777 -1.4157  0.1414 -0.7540
 7809SOL    HW234887   0.055   0.078   8.665  0.3059 -0.3809 -0.6521
 7810SOL     OW34888   1.378   2.093   4.157 -0.2940  0.3630  0.8471
 7810SOL    HW134889   1.346   2.142   4.233 -1.5997  1.9683 -0.7427
 7810SOL    HW234890   1.300   2.076   4.105  1.6657 -2.2302 -1.1988
 7811SOL     OW34891   1.303   0.288   4.786  0.3997  0.1524 -0.0836
 7811SOL    HW134892   1.217   0.259   4.818  0.0233 -0.8631 -2.0131
 7811SOL    HW234893   1.292   0.272   4.692 -2.0257 -1.3871  0.4442
 7812SOL     OW34894   2.740   2.902  13.591  0.4380  0.4057  0.4004
 7812SOL    HW134895   2.793   2.945  13.523  0.0706 -0.5683 -0.5107
 7812SOL    HW234896   2.662   2.956  13.592 -1.3852 -2.2181  0.5967
 7813SOL     OW34897   2.942   2.602   7.343  0.5459 -0.2013 -0.1420
 7813SOL    HW134898   2.943   2.507   7.346  1.3207 -0.1389  1.8146
 7813SOL    HW234899   2.861   2.622   7.391  1.7469 -0.3826  1.9615
 7814SOL     OW34900   0.015   0.493   3.541 -0.2207 -0.1294  0.7687
 7814SOL    HW134901   0.088   0.431   3.554 -0.2599 -0.3971 -0.3245
 7814SOL    HW234902   0.037   0.528   3.455  1.1251 -1.4676  0.5621
 7815SOL     OW34903   1.444   2.789   6.959  0.2549  0.4865 -0.0185
 7815SOL    HW134904   1.411   2.798   7.049  1.5924 -0.2673  0.5548
 7815SOL    HW234905   1.525   2.742   6.981  0.9128  1.6689  0.0791
 7816SOL     OW34906   3.983   0.248  11.172 -0.6979  0.2541 -0.2859
 7816SOL    HW134907   3.986   0.306  11.248 -1.5830  1.2489 -1.0171
 7816SOL    HW234908   4.033   0.303  11.112 -0.6122  0.7703  0.2549
 7817SOL     OW34909   1.675   3.013   2.296 -0.2524 -0.6361  0.5408
 7817SOL    HW134910   1.733   2.956   2.246  1.5695  1.7305 -0.0845
 7817SOL    HW234911   1.711   3.101   2.281  3.5416 -2.2424  0.2164
 7818SOL     OW34912   0.398   2.682   6.171  0.5571  0.0904  0.0711
 7818SOL    HW134913   0.385   2.589   6.151 -1.7619  0.5708 -0.5996
 7818SOL    HW234914   0.366   2.690   6.261  0.2773  1.5020 -0.1616
 7819SOL     OW34915   1.437   1.890   3.683  0.5043 -0.0115  0.0154
 7819SOL    HW134916   1.457   1.928   3.768 -1.6030  0.8940  0.1055
 7819SOL    HW234917   1.508   1.930   3.632  0.5052 -0.2544 -0.1753
 7820SOL     OW34918   3.033   0.603   9.818 -0.7631 -0.1003 -0.1896
 7820SOL    HW134919   2.938   0.618   9.814 -0.7591 -0.2597 -0.8590
 7820SOL    HW234920   3.041   0.508   9.809  0.6048 -0.0604  0.6421
 7821SOL     OW34921   3.379   0.067   2.643  0.0489 -0.3697  0.3357
 7821SOL    HW134922   3.390   4.699   2.674  1.4045 -0.0208  0.8523
 7821SOL    HW234923   3.371   0.048   2.549  0.2679  0.6827  0.1117
 7822SOL     OW34924   0.044   4.663   4.316  0.4994 -0.2666  0.3190
 7822SOL    HW134925   0.058   0.018   4.371 -1.3937  0.5336 -0.3224
 7822SOL    HW234926   4.695   4.623   4.368  2.4253 -0.5401  2.7455
 7823SOL     OW34927   0.900   2.572  11.912  0.1353 -0.4535 -0.0175
 7823SOL    HW134928   0.905   2.601  12.003 -2.7786  1.1146 -0.3370
 7823SOL    HW234929   0.878   2.480  11.924 -0.3403 -0.5272 -1.4346
 7824SOL     OW34930   3.219   0.791   7.799  0.0929 -0.4482  0.7502
 7824SOL    HW134931   3.161   0.717   7.815 -2.1759  0.8411 -1.5925
 7824SOL    HW234932   3.284   0.769   7.866  0.7254  1.2980  0.7124
 7825SOL     OW34933   2.068   0.768  14.100  0.5242 -0.1847 -0.1941
 7825SOL    HW134934   2.146   0.809  14.064  0.0337 -1.6258 -2.8969
 7825SOL    HW234935   2.044   0.705  14.032  0.5845 -0.4997  0.0760
 7826SOL     OW34936   2.475   3.051  13.584 -0.2104  0.6809 -0.1236
 7826SOL    HW134937   2.389   3.018  13.611  0.4395  0.2954  1.4734
 7826SOL    HW234938   2.469   3.142  13.615  1.9953  0.8344 -0.1493
 7827SOL     OW34939   1.514   2.518   7.719  0.3557  0.4068  0.2798
 7827SOL    HW134940   1.438   2.569   7.692  0.5904  1.3551  1.4486
 7827SOL    HW234941   1.529   2.464   7.640 -0.7269 -0.1123  0.4345
 7828SOL     OW34942   0.392   3.533   1.641 -0.1080  0.5811  0.4868
 7828SOL    HW134943   0.412   3.560   1.552  0.2366  2.6297  1.1887
 7828SOL    HW234944   0.299   3.553   1.650 -0.8658 -1.5534 -2.6589
 7829SOL     OW34945   4.717   3.482   4.977  0.0482  0.1271 -0.0827
 7829SOL    HW134946   0.027   3.535   5.050  0.4654  1.1337 -1.0045
 7829SOL    HW234947   4.649   3.535   4.936 -1.5097 -0.3556  1.8530
 7830SOL     OW34948   2.652   3.276   5.689  0.1047 -0.1215 -0.0708
 7830SOL    HW134949   2.735   3.312   5.660  0.2273 -1.1435 -0.9580
 7830SOL    HW234950   2.693   3.224   5.758 -0.0174 -0.8746 -0.5757
 7831SOL     OW34951   3.924   2.670  13.362  0.1095  0.3213 -0.0412
 7831SOL    HW134952   3.858   2.716  13.310 -0.0214  0.1133 -0.0612
 7831SOL    HW234953   3.973   2.609  13.307 -0.6468 -0.2640 -0.0667
 7832SOL     OW34954   3.161   0.048   4.536 -0.4007 -0.6453 -0.0603
 7832SOL    HW134955   3.124   4.718   4.607 -1.7600 -0.7981 -0.8584
 7832SOL    HW234956   3.084   0.061   4.479 -0.2411 -1.2444 -0.4157
 7833SOL     OW34957   2.070   4.524   9.273 -0.4060 -0.0623 -0.3868
 7833SOL    HW134958   2.051   4.436   9.306 -0.0823  0.5942  1.5466
 7833SOL    HW234959   2.095   4.566   9.355 -0.2650 -0.0115 -0.4547
 7834SOL     OW34960   1.545   0.849  13.887 -0.3793  0.0204 -0.2856
 7834SOL    HW134961   1.591   0.927  13.857  0.0709  0.4896  1.6431
 7834SOL    HW234962   1.575   0.854  13.977 -0.7775  1.8873 -0.2579
 7835SOL     OW34963   4.687   4.551   8.991  0.6014  0.1678 -0.1746
 7835SOL    HW134964   4.692   4.530   8.897  0.7908 -0.3440 -0.0451
 7835SOL    HW234965   0.051   4.522   9.021  0.6604  1.6127  1.0363
 7836SOL     OW34966   1.528   3.724   2.124  0.4012  0.0346  0.0128
 7836SOL    HW134967   1.545   3.811   2.089  1.6824  0.3800  1.4828
 7836SOL    HW234968   1.440   3.705   2.093  1.0489  0.4450 -2.0565
 7837SOL     OW34969   1.829   3.464   2.466 -0.0752  0.0957  0.0140
 7837SOL    HW134970   1.734   3.473   2.458  0.3429  1.5051 -3.5181
 7837SOL    HW234971   1.843   3.403   2.393  1.1700  0.7106 -0.2713
 7838SOL     OW34972   4.205   2.654  11.676 -0.2756  0.3327 -0.3530
 7838SOL    HW134973   4.222   2.722  11.741 -0.2592 -0.0778  0.0720
 7838SOL    HW234974   4.164   2.583  11.724  2.5572 -0.3982  1.0222
 7839SOL     OW34975   2.006   2.754   8.186  0.1563  0.6491  0.1404
 7839SOL    HW134976   2.055   2.692   8.132 -0.4646 -1.7588  2.3553
 7839SOL    HW234977   1.920   2.743   8.145  0.1876 -0.7642  0.4358
 7840SOL     OW34978   1.757   0.722  12.341  0.3808  0.3437  0.5140
 7840SOL    HW134979   1.685   0.772  12.302  1.9485  0.7793 -1.7810
 7840SOL    HW234980   1.768   0.784  12.414  0.4452 -1.3963  1.9627
 7841SOL     OW34981   2.673   3.611   7.910  0.1719  0.6325  0.1902
 7841SOL    HW134982   2.698   3.680   7.972 -0.6340  0.3478  0.8214
 7841SOL    HW234983   2.747   3.614   7.849 -1.2180 -0.0149 -1.4930
 7842SOL     OW34984   1.245   2.419  15.024  0.1774  0.2344 -0.1385
 7842SOL    HW134985   1.239   2.514  15.033 -0.2161  0.0724  1.2878
 7842SOL    HW234986   1.318   2.414  14.962  0.0139 -0.9640 -0.2402
 7843SOL     OW34987   1.044   3.585  11.994 -0.4381 -0.4237 -0.5543
 7843SOL    HW134988   1.100   3.508  11.984 -2.0159 -2.0001  2.5309
 7843SOL    HW234989   1.085   3.614  12.075 -0.4707  1.1747 -1.1133
 7844SOL     OW34990   4.114   4.036   1.243 -0.1264  0.5162 -0.0474
 7844SOL    HW134991   4.174   4.106   1.215  0.3309 -0.0230 -0.4139
 7844SOL    HW234992   4.098   4.065   1.332 -1.8679  0.4792 -0.3514
 7845SOL     OW34993   2.836   2.984  17.139  0.3661  0.6372 -0.0154
 7845SOL    HW134994   2.806   2.961  17.227 -1.5509  0.6567 -0.6444
 7845SOL    HW234995   2.825   3.079  17.133 -2.2519  0.3546 -0.0216
 7846SOL     OW34996   0.653   2.970   0.034 -0.6268 -0.8551  0.3241
 7846SOL    HW134997   0.745   2.947   0.020 -1.0951 -1.7295 -1.3717
 7846SOL    HW234998   0.673   3.032   0.103 -1.4008 -1.2498  0.8982
 7847SOL     OW34999   3.175   2.197  16.316  0.2588 -0.6237 -0.2459
 7847SOL    HW135000   3.186   2.263  16.248  1.1944 -0.6472 -0.1189
 7847SOL    HW235001   3.097   2.151  16.286  0.0533 -0.5641  0.1904
 7848SOL     OW35002   3.051   2.212   7.629  0.6597 -0.4288 -0.3513
 7848SOL    HW135003   2.997   2.146   7.674  1.5065  0.2364  1.6373
 7848SOL    HW235004   2.979   2.266   7.596 -1.0022 -1.7373  1.0917
 7849SOL     OW35005   3.039   0.994   8.199  0.4730  0.0704 -1.2237
 7849SOL    HW135006   2.982   1.061   8.162  0.2783  1.1599  1.1210
 7849SOL    HW235007   3.102   0.977   8.128  2.3867 -0.4525  0.5846
 7850SOL     OW35008   1.505   2.077   3.866  0.3756  0.3367  0.1524
 7850SOL    HW135009   1.487   2.098   3.958  0.9896  0.7867  0.1683
 7850SOL    HW235010   1.567   2.145   3.840 -0.8654  0.8358 -1.4360
 7851SOL     OW35011   2.312   3.026   8.486  0.5486  0.2619 -0.0698
 7851SOL    HW135012   2.238   2.987   8.533  0.0255 -0.1447 -1.2179
 7851SOL    HW235013   2.319   2.959   8.418 -0.5605 -0.8256  0.8647
 7852SOL     OW35014   4.295   0.909   4.366  0.2387 -0.4013 -0.7144
 7852SOL    HW135015   4.360   0.844   4.394  0.8546  0.9501  0.9738
 7852SOL    HW235016   4.324   0.948   4.284 -0.6917 -1.6294 -1.6348
 7853SOL     OW35017   1.975   2.146   2.374  0.8078  0.5240 -0.1565
 7853SOL    HW135018   1.984   2.233   2.335  1.8034  0.2803 -0.4766
 7853SOL    HW235019   1.919   2.160   2.450  0.2521  0.3142 -0.5256
 7854SOL     OW35020   3.424   1.218   5.533 -0.2490  0.4236 -0.3815
 7854SOL    HW135021   3.469   1.134   5.522  1.6118  1.1782  1.5367
 7854SOL    HW235022   3.382   1.227   5.448 -2.7102  0.0194  0.7982
 7855SOL     OW35023   2.540   3.815   2.793 -0.3304  0.0791 -0.6189
 7855SOL    HW135024   2.463   3.772   2.832  1.8957 -3.5922 -0.2793
 7855SOL    HW235025   2.520   3.828   2.700 -1.9738 -1.1244 -0.4423
 7856SOL     OW35026   0.043   3.867   8.840  0.3350  0.4338  0.1441
 7856SOL    HW135027   0.123   3.911   8.868 -0.1492  0.5567  1.3521
 7856SOL    HW235028   0.046   3.861   8.745  1.5866  1.0918  0.1324
 7857SOL     OW35029   0.664   3.969   8.036 -0.0117  0.1576  0.3342
 7857SOL    HW135030   0.662   4.020   7.954 -0.2245 -0.3607  0.0179
 7857SOL    HW235031   0.604   4.019   8.091  0.2556  2.7392 -1.6648
 7858SOL     OW35032   2.550   0.708   3.327  0.1086 -0.1310  0.8270
 7858SOL    HW135033   2.576   0.654   3.251  3.1199  1.7865  0.4916
 7858SOL    HW235034   2.637   0.736   3.355  1.1572 -0.2693 -2.2018
 7859SOL     OW35035   2.282   2.071   3.815  0.2484  0.1909 -0.6831
 7859SOL    HW135036   2.205   2.016   3.799 -1.0630  0.9435  2.9315
 7859SOL    HW235037   2.247   2.159   3.799  0.1898  0.3391  0.2770
 7860SOL     OW35038   1.087   0.614   5.524 -0.1114  0.2079 -0.2307
 7860SOL    HW135039   1.092   0.541   5.462 -1.0636  0.9836 -1.2146
 7860SOL    HW235040   1.163   0.596   5.581 -0.8664 -1.4127  0.2918
 7861SOL     OW35041   0.907   4.333   3.533  0.0329  0.6764 -0.4164
 7861SOL    HW135042   0.909   4.238   3.547 -0.1805  0.8172  0.5774
 7861SOL    HW235043   0.920   4.365   3.622  4.1814 -2.4191  0.0661
 7862SOL     OW35044   2.334   3.866   3.715  0.1033  0.2084 -0.5464
 7862SOL    HW135045   2.284   3.801   3.764  1.0834  0.6808  1.1214
 7862SOL    HW235046   2.422   3.846   3.747 -0.9629 -1.3758  1.3769
 7863SOL     OW35047   4.194   3.481  11.903 -0.1955 -0.1821  0.1393
 7863SOL    HW135048   4.132   3.480  11.829 -1.5690 -1.8248  1.3007
 7863SOL    HW235049   4.157   3.559  11.945 -0.5053 -1.0014  1.3893
 7864SOL     OW35050   1.195   1.273   0.573  0.2829 -0.4345  0.0288
 7864SOL    HW135051   1.231   1.207   0.514 -0.3002 -0.6921 -0.0373
 7864SOL    HW235052   1.226   1.239   0.656  1.6713  1.4636  0.2997
 7865SOL     OW35053   2.491   0.054   1.010  0.4939 -0.0685 -0.6164
 7865SOL    HW135054   2.440   0.131   1.033 -0.6417 -0.9185 -0.2672
 7865SOL    HW235055   2.578   0.070   1.046  0.3805 -0.0442 -0.3536
 7866SOL     OW35056   3.060   1.427   5.151  0.2602  0.3173 -0.5089
 7866SOL    HW135057   2.994   1.485   5.189 -0.1251 -0.6882  0.3734
 7866SOL    HW235058   3.014   1.346   5.127 -1.6057  1.1069  0.3853
 7867SOL     OW35059   2.434   0.613   4.336 -0.4567 -0.6742  0.9641
 7867SOL    HW135060   2.365   0.676   4.315  0.5392 -0.5650 -1.9259
 7867SOL    HW235061   2.433   0.601   4.431  2.3335  1.4568  1.2364
 7868SOL     OW35062   4.423   3.546   7.979 -0.0821 -0.1843  0.4448
 7868SOL    HW135063   4.407   3.507   7.893  1.4422 -2.2321  1.0822
 7868SOL    HW235064   4.384   3.633   7.965 -0.3987 -0.1862  1.3157
 7869SOL     OW35065   3.645   2.533   6.489  0.0567 -0.4412 -0.3536
 7869SOL    HW135066   3.615   2.477   6.561 -0.7131  0.8585  0.3458
 7869SOL    HW235067   3.582   2.603   6.474  0.7954  0.0712 -1.0139
 7870SOL     OW35068   1.033   4.222   5.728  0.2772 -0.4110  0.1742
 7870SOL    HW135069   1.018   4.128   5.725  1.4004 -0.5627 -0.6822
 7870SOL    HW235070   0.955   4.257   5.770  1.5038 -0.7864  2.7541
 7871SOL     OW35071   2.677   1.257   6.063  0.0932 -0.2743 -0.5307
 7871SOL    HW135072   2.726   1.176   6.051 -0.5329 -0.6804 -0.3734
 7871SOL    HW235073   2.630   1.264   5.980  0.3209 -0.6030 -0.6855
 7872SOL     OW35074   0.221   3.736   1.960 -0.1953 -0.3936 -0.5154
 7872SOL    HW135075   0.252   3.680   1.889  0.0212 -0.6653 -0.2049
 7872SOL    HW235076   0.188   3.810   1.909 -0.1066 -0.0144 -0.0171
 7873SOL     OW35077   0.999   3.941  13.568  0.2048  0.4103 -0.1469
 7873SOL    HW135078   0.999   4.036  13.561  0.0237  0.4609  0.5591
 7873SOL    HW235079   0.952   3.918  13.648 -0.0767 -0.0721 -0.4531
 7874SOL     OW35080   0.669   0.568   9.910  0.4415 -0.3914  0.4801
 7874SOL    HW135081   0.585   0.561   9.955  0.2430 -1.9492 -0.1405
 7874SOL    HW235082   0.657   0.503   9.841 -2.3711  2.2554 -1.5358
 7875SOL     OW35083   1.997   4.603   8.960  0.0752 -0.1664  1.3434
 7875SOL    HW135084   1.980   4.632   9.050 -1.4283  1.3644  0.5582
 7875SOL    HW235085   1.962   4.677   8.910 -1.9676 -1.4487  0.9192
 7876SOL     OW35086   3.093   2.711   0.999  0.0502 -0.5506  1.0307
 7876SOL    HW135087   3.010   2.745   0.967  1.0140  0.8873  0.0848
 7876SOL    HW235088   3.132   2.796   1.019  0.8664 -0.6300 -0.2328
 7877SOL     OW35089   2.212   3.647   8.516 -0.9226 -0.0658  0.0628
 7877SOL    HW135090   2.283   3.584   8.520 -0.8402 -0.0183 -0.6215
 7877SOL    HW235091   2.143   3.597   8.559 -2.1240  0.1180 -1.6215
 7878SOL     OW35092   2.131   1.806   5.315  0.2701  0.0882  0.3552
 7878SOL    HW135093   2.111   1.863   5.390  0.7211  1.6779 -0.7227
 7878SOL    HW235094   2.069   1.733   5.310 -0.4358  0.5595  1.9391
 7879SOL     OW35095   0.642   2.008  10.373 -0.3687  0.1325  0.4984
 7879SOL    HW135096   0.701   1.933  10.365 -0.4125 -0.0483  1.9072
 7879SOL    HW235097   0.640   2.036  10.281 -0.5077 -0.6803  0.2494
 7880SOL     OW35098   2.462   0.118   9.120 -0.0457 -0.0821  0.4694
 7880SOL    HW135099   2.426   0.168   9.047 -0.1733  1.5733  1.6760
 7880SOL    HW235100   2.400   0.045   9.111  0.6159 -0.2839 -2.4094
 7881SOL     OW35101   1.319   1.443   7.083 -0.6934  0.0927 -0.2846
 7881SOL    HW135102   1.363   1.365   7.117  0.3872  0.6039 -0.5139
 7881SOL    HW235103   1.348   1.440   6.992  0.2623  0.9745 -0.0073
 7882SOL     OW35104   3.166   2.779   5.093 -0.0693  0.4952 -0.1919
 7882SOL    HW135105   3.135   2.758   5.181 -0.8990 -0.5435 -0.7333
 7882SOL    HW235106   3.080   2.799   5.056 -0.2122  1.1646  0.5059
 7883SOL     OW35107   2.352   2.913   5.392  0.8573 -0.5431  0.3826
 7883SOL    HW135108   2.417   2.967   5.438 -1.1939  0.3190  2.2551
 7883SOL    HW235109   2.395   2.828   5.390 -0.3571 -1.1268 -0.6621
 7884SOL     OW35110   3.927   3.258   7.940  0.0853  0.1159  0.1161
 7884SOL    HW135111   3.914   3.168   7.912 -2.3809  0.3336  0.5782
 7884SOL    HW235112   3.961   3.240   8.028 -1.2653  1.6854  0.9729
 7885SOL     OW35113   0.718   3.454   4.794  0.4201  0.1921 -0.1902
 7885SOL    HW135114   0.657   3.516   4.836  0.1967  0.4408 -0.8887
 7885SOL    HW235115   0.702   3.376   4.847 -2.0911  0.3707 -0.6544
 7886SOL     OW35116   0.951   0.204  16.799  0.0309 -0.4521  0.0241
 7886SOL    HW135117   0.862   0.228  16.825 -0.3494 -0.2806 -1.4134
 7886SOL    HW235118   0.927   0.179  16.709  3.1379 -0.9456 -0.6523
 7887SOL     OW35119   3.642   1.254   4.203 -0.4540  0.0431 -0.1841
 7887SOL    HW135120   3.701   1.181   4.219  1.6445  1.3210 -2.1949
 7887SOL    HW235121   3.567   1.200   4.180 -0.8352 -0.3173  1.9027
 7888SOL     OW35122   3.022   1.334   5.808  0.2622  0.1890 -0.2018
 7888SOL    HW135123   3.089   1.287   5.857 -1.5892 -1.8165  0.4186
 7888SOL    HW235124   3.056   1.323   5.720  1.2111  2.7792 -0.1589
 7889SOL     OW35125   3.253   2.303   7.057  0.2199  0.0961  0.0747
 7889SOL    HW135126   3.222   2.378   7.006  1.9591  0.6041 -0.2633
 7889SOL    HW235127   3.325   2.348   7.101  0.9753 -1.0048 -0.0398
 7890SOL     OW35128   0.917   4.238  17.380 -0.7585 -0.1946 -0.3556
 7890SOL    HW135129   0.849   4.239  17.448 -1.4433 -0.5873 -1.0377
 7890SOL    HW235130   0.867   4.195  17.311 -0.3169 -0.3857 -0.5537
 7891SOL     OW35131   3.218   3.791  16.315  0.2063  0.0943 -0.2611
 7891SOL    HW135132   3.139   3.750  16.351 -0.8442  0.9111 -1.6527
 7891SOL    HW235133   3.211   3.787  16.220  0.5374 -0.5602 -0.2586
 7892SOL     OW35134   0.004   0.519   9.851 -0.2565 -0.4273  0.1131
 7892SOL    HW135135   0.067   0.487   9.786 -1.1371 -1.2550 -0.3248
 7892SOL    HW235136   0.069   0.568   9.902  1.4328 -1.1370 -1.3268
 7893SOL     OW35137   1.064   4.052   7.034  0.0854 -0.1809  0.1781
 7893SOL    HW135138   1.061   4.111   6.959  0.6937  0.0256  0.3175
 7893SOL    HW235139   1.156   4.025   7.035 -0.4321 -1.9477 -0.2933
 7894SOL     OW35140   3.251   0.959   5.713  0.0837 -0.2731  0.3777
 7894SOL    HW135141   3.264   0.939   5.621  0.3189  2.8401 -0.2917
 7894SOL    HW235142   3.290   0.883   5.756  0.0329 -0.6834 -0.3048
 7895SOL     OW35143   1.119   0.705   9.534  0.3234  0.0797  0.3756
 7895SOL    HW135144   1.188   0.703   9.467 -1.3056  1.5334 -1.3292
 7895SOL    HW235145   1.123   0.796   9.562 -0.4269  0.6749 -1.4764
 7896SOL     OW35146   4.294   3.405   4.310  0.3856  0.5160 -0.2531
 7896SOL    HW135147   4.277   3.429   4.401 -0.4168  1.3774 -0.6321
 7896SOL    HW235148   4.249   3.321   4.310 -1.3784  1.4430  2.1033
 7897SOL     OW35149   2.318   0.641  16.752  0.6683 -0.2975 -0.2121
 7897SOL    HW135150   2.385   0.667  16.815  0.2731  1.6406 -0.5863
 7897SOL    HW235151   2.352   0.555  16.729 -2.1347 -1.4842  0.1352
 7898SOL     OW35152   3.499   0.300  17.685  0.9079  0.9559 -0.9979
 7898SOL    HW135153   3.536   0.295  17.597 -1.4539 -0.7375 -1.9041
 7898SOL    HW235154   3.411   0.264  17.673  1.3848 -0.6274  0.1799
 7899SOL     OW35155   0.254   1.131   5.157 -0.4729 -0.2854 -0.2699
 7899SOL    HW135156   0.256   1.190   5.232  1.0902 -1.5182  0.6530
 7899SOL    HW235157   0.311   1.167   5.090  0.3395 -0.8730  0.1091
 7900SOL     OW35158   1.075   3.960   8.367 -0.3592 -0.3028  0.0412
 7900SOL    HW135159   0.987   3.960   8.405 -1.7402  3.6313 -3.1234
 7900SOL    HW235160   1.058   3.964   8.273 -0.7175 -2.3949  0.0155
 7901SOL     OW35161   1.503   4.662  16.208 -0.3896  0.1868  0.1997
 7901SOL    HW135162   1.452   4.708  16.275  1.2601  1.9815  0.2233
 7901SOL    HW235163   1.430   4.609  16.176 -0.4383  0.0456  0.5389
 7902SOL     OW35164   0.828   3.961   2.236  0.2807 -0.1371  0.1406
 7902SOL    HW135165   0.796   3.875   2.207 -0.1881  0.8385 -2.2108
 7902SOL    HW235166   0.804   4.026   2.170  1.1952  1.1950  1.1286
 7903SOL     OW35167   1.854   2.105   0.082  0.0797 -0.1378 -0.3075
 7903SOL    HW135168   1.777   2.061   0.046 -0.0277  0.8156 -1.2547
 7903SOL    HW235169   1.888   2.047   0.149  0.4627 -1.8146 -1.9531
 7904SOL     OW35170   1.597   2.678   4.878  0.3330  0.6744  0.1557
 7904SOL    HW135171   1.502   2.668   4.873  0.1431  1.7895  1.4960
 7904SOL    HW235172   1.615   2.663   4.971 -1.8763  1.8532  0.7680
 7905SOL     OW35173   2.225   0.167   8.272 -0.0653 -0.5480 -0.4969
 7905SOL    HW135174   2.137   0.142   8.245 -0.2173 -0.1712 -0.3626
 7905SOL    HW235175   2.208   0.262   8.268  0.7209 -0.4366 -1.1844
 7906SOL     OW35176   2.627   2.220   5.720 -0.4465 -0.0777  0.6338
 7906SOL    HW135177   2.639   2.167   5.641 -0.5640  0.8103  0.0183
 7906SOL    HW235178   2.650   2.153   5.785  0.8592  0.0620  0.3197
 7907SOL     OW35179   3.103   4.605  13.645 -0.0184 -0.2413  0.2855
 7907SOL    HW135180   3.105   4.694  13.681  0.6780 -0.3965  0.6263
 7907SOL    HW235181   3.035   4.622  13.580 -0.6454 -0.2054  0.9594
 7908SOL     OW35182   1.775   3.262   2.193  0.3265  0.6067  0.0710
 7908SOL    HW135183   1.719   3.329   2.156  1.1830  0.0140 -2.2738
 7908SOL    HW235184   1.798   3.217   2.112  0.8577 -0.4356  0.7976
 7909SOL     OW35185   1.647   0.160  13.786  0.1321 -0.1855 -0.2889
 7909SOL    HW135186   1.710   0.157  13.714  1.9988 -1.5214  1.4007
 7909SOL    HW235187   1.696   0.113  13.854  0.2560  0.2640 -0.0709
 7910SOL     OW35188   3.836   3.538  11.131 -0.0303  0.0783  0.5377
 7910SOL    HW135189   3.809   3.470  11.071  0.5493  0.7088 -0.4436
 7910SOL    HW235190   3.831   3.621  11.084 -0.3805 -0.5246 -0.4701
 7911SOL     OW35191   3.236   2.566   4.224 -0.4141 -0.2073  0.3359
 7911SOL    HW135192   3.180   2.625   4.274 -1.0853  0.2474 -0.9584
 7911SOL    HW235193   3.260   2.511   4.299 -2.4529 -1.6262 -0.0742
 7912SOL     OW35194   1.465   0.162  17.259 -0.0265 -0.1729 -0.1650
 7912SOL    HW135195   1.456   0.236  17.200 -0.1379 -1.5365 -1.8526
 7912SOL    HW235196   1.410   0.096  17.219 -3.5988  0.8361  3.0735
 7913SOL     OW35197   2.269   1.539  13.420 -0.2033  0.0317 -0.8142
 7913SOL    HW135198   2.356   1.506  13.441 -0.9724 -0.2741  1.9907
 7913SOL    HW235199   2.242   1.585  13.500 -0.6030  0.4496 -1.1906
 7914SOL     OW35200   3.679   3.156   5.544 -0.0108 -0.3217 -0.6981
 7914SOL    HW135201   3.586   3.134   5.555  0.0538 -0.9346 -1.4459
 7914SOL    HW235202   3.694   3.227   5.607  0.0049 -1.5958  0.7478
 7915SOL     OW35203   3.304   0.271   4.955 -0.8469  0.0846 -0.1307
 7915SOL    HW135204   3.264   0.339   4.900 -2.3933 -0.4955  0.2681
 7915SOL    HW235205   3.255   0.283   5.036  1.4930 -0.0608  1.3029
 7916SOL     OW35206   0.852   2.623   8.247  0.1784 -0.3500  0.1960
 7916SOL    HW135207   0.898   2.543   8.220 -0.6323 -0.4793 -0.8191
 7916SOL    HW235208   0.916   2.679   8.290 -1.1703 -0.8995  2.9379
 7917SOL     OW35209   2.323   0.553   8.414  0.0133  0.1194  0.1844
 7917SOL    HW135210   2.313   0.503   8.495  0.2217  1.2179  0.8924
 7917SOL    HW235211   2.252   0.523   8.358 -0.7646  0.7826  0.8315
 7918SOL     OW35212   0.898   1.029   4.515 -0.2822  0.0010 -0.3638
 7918SOL    HW135213   0.989   1.004   4.507  0.2540  2.7732 -3.3779
 7918SOL    HW235214   0.888   1.063   4.426  2.8050 -1.0076 -1.0769
 7919SOL     OW35215   3.251   1.042  13.622  0.1761  0.3591 -0.3383
 7919SOL    HW135216   3.320   1.039  13.688  0.4272 -0.1541 -0.6248
 7919SOL    HW235217   3.311   1.038  13.548  0.9286  2.3519  0.1744
 7920SOL     OW35218   3.540   4.384   6.384  0.7539  0.4471  0.6053
 7920SOL    HW135219   3.540   4.288   6.392  3.5688  0.1985 -2.5207
 7920SOL    HW235220   3.449   4.398   6.360  0.5867  0.5776  1.3056
 7921SOL     OW35221   3.281   3.294   3.698 -0.6136  0.2649 -0.6026
 7921SOL    HW135222   3.243   3.332   3.619  0.6448  0.6731 -1.0103
 7921SOL    HW235223   3.258   3.201   3.697  0.6037 -0.0232 -1.5370
 7922SOL     OW35224   0.028   3.967  12.174 -0.5055  0.4372  0.1044
 7922SOL    HW135225   0.038   3.974  12.269 -3.1780 -1.0682  0.5053
 7922SOL    HW235226   4.656   3.964  12.155 -0.7040 -0.8117  1.3158
 7923SOL     OW35227   0.598   1.842   1.468  0.7080 -0.2639 -0.1502
 7923SOL    HW135228   0.671   1.903   1.453 -0.0127  0.4328 -0.8284
 7923SOL    HW235229   0.644   1.759   1.483  0.6712 -0.7203 -2.5449
 7924SOL     OW35230   3.035   4.298  11.575 -0.1883 -0.4279  0.4811
 7924SOL    HW135231   3.130   4.291  11.580 -0.1782 -0.2618  0.5198
 7924SOL    HW235232   3.014   4.215  11.532  0.6801  0.2244 -1.2145
 7925SOL     OW35233   3.822   3.317   3.880 -0.2407 -0.5323  0.3227
 7925SOL    HW135234   3.794   3.379   3.812  1.8747  1.2315  1.0426
 7925SOL    HW235235   3.742   3.297   3.930  0.1774  2.9206  2.4448
 7926SOL     OW35236   2.267   3.861   1.108 -0.4246 -0.5965 -0.8403
 7926SOL    HW135237   2.202   3.858   1.178 -0.7644 -1.2449 -1.1824
 7926SOL    HW235238   2.292   3.769   1.112  0.2842 -0.3303  0.7013
 7927SOL     OW35239   1.279   3.735   6.816  0.3686  0.3511 -0.3897
 7927SOL    HW135240   1.369   3.768   6.811 -0.1449  1.8043 -0.0335
 7927SOL    HW235241   1.299   3.643   6.833 -1.5384 -0.0601 -0.3373
 7928SOL     OW35242   4.683   2.326  12.928  0.3434 -0.5808 -0.1346
 7928SOL    HW135243   0.037   2.378  12.903 -1.8148  1.1314 -3.2420
 7928SOL    HW235244   4.687   2.251  12.869 -0.5073 -0.7949  0.0736
 7929SOL     OW35245   3.234   0.605  12.849  0.3331 -0.1492  0.4002
 7929SOL    HW135246   3.283   0.652  12.781  0.9392 -0.3919  0.6729
 7929SOL    HW235247   3.222   0.671  12.917  1.0356 -0.8836  1.2416
 7930SOL     OW35248   0.863   4.603   1.277  0.5015 -0.1583 -0.8150
 7930SOL    HW135249   0.776   4.638   1.260  0.7429 -0.1618 -2.0348
 7930SOL    HW235250   0.865   4.513   1.243  1.7140 -1.6407  3.1727
 7931SOL     OW35251   3.114   4.431  12.006  0.8335  0.5442  0.4709
 7931SOL    HW135252   3.197   4.388  11.988 -0.1070 -1.4856  0.9156
 7931SOL    HW235253   3.104   4.487  11.929  2.3609  1.9786  1.3253
 7932SOL     OW35254   3.505   1.890  10.991 -0.2431  0.0791 -0.4651
 7932SOL    HW135255   3.576   1.948  11.017  0.4172 -1.0040  0.1605
 7932SOL    HW235256   3.536   1.860  10.906  1.8039  2.1870 -0.4397
 7933SOL     OW35257   0.713   2.628   2.901  0.2263 -0.2804  0.2129
 7933SOL    HW135258   0.647   2.592   2.842 -0.9501 -2.3509  2.7526
 7933SOL    HW235259   0.711   2.572   2.979 -1.3650  0.4552  0.7030
 7934SOL     OW35260   4.076   3.554   6.248  0.4222 -0.1528 -0.1045
 7934SOL    HW135261   4.015   3.627   6.238 -1.2979 -1.2237  2.3952
 7934SOL    HW235262   4.035   3.487   6.193 -1.1631  1.1265 -0.4761
 7935SOL     OW35263   0.906   3.729   4.482  0.1712  0.4008  0.1307
 7935SOL    HW135264   0.969   3.703   4.549  0.4045 -0.8550 -0.5587
 7935SOL    HW235265   0.855   3.649   4.494  0.0563  0.5185  0.4245
 7936SOL     OW35266   1.570   3.097   9.542 -0.5402  0.1290 -0.4612
 7936SOL    HW135267   1.486   3.111   9.499 -2.4253 -0.8998  2.9032
 7936SOL    HW235268   1.572   3.002   9.553  1.4279  0.0406 -1.5987
 7937SOL     OW35269   2.674   2.890   4.876 -0.3624  0.2000 -0.4857
 7937SOL    HW135270   2.630   2.968   4.911  0.7294  0.9757 -0.8495
 7937SOL    HW235271   2.612   2.826   4.912  1.3234 -1.9112 -1.3498
 7938SOL     OW35272   2.158   0.536  11.603  0.1348 -0.3024 -0.4050
 7938SOL    HW135273   2.222   0.559  11.536  0.9029  1.2836  0.8857
 7938SOL    HW235274   2.146   0.619  11.648  0.5414 -0.8311  0.6879
 7939SOL     OW35275   1.397   2.774  16.742 -0.2648 -0.2150  0.0536
 7939SOL    HW135276   1.380   2.834  16.815  2.5536 -2.5979  2.6278
 7939SOL    HW235277   1.457   2.710  16.779  1.7706 -0.0827 -2.9649
 7940SOL     OW35278   4.128   3.294   2.471  0.3294 -0.2567 -0.1325
 7940SOL    HW135279   4.153   3.205   2.445 -0.1848 -0.5720  0.4497
 7940SOL    HW235280   4.118   3.294   2.567  0.1789 -3.1546 -0.1362
 7941SOL     OW35281   4.368   4.030   2.120 -0.0146  0.1773 -0.1501
 7941SOL    HW135282   4.435   4.097   2.130  0.9661 -0.7941 -0.1520
 7941SOL    HW235283   4.311   4.070   2.054 -0.0973 -0.3915 -0.4302
 7942SOL     OW35284   1.792   1.522   7.562 -0.0093  0.6787 -0.5996
 7942SOL    HW135285   1.801   1.484   7.649  1.4973 -1.4554 -1.6570
 7942SOL    HW235286   1.765   1.609   7.590  0.0799  0.3959  0.3757
 7943SOL     OW35287   1.532   4.414   0.984  0.2774  0.6211  0.1661
 7943SOL    HW135288   1.529   4.506   0.958 -2.7272 -0.0459 -1.9587
 7943SOL    HW235289   1.440   4.387   0.978  0.7772 -0.8516 -1.0113
 7944SOL     OW35290   1.017   4.713   9.006  0.2735  0.0105 -0.0429
 7944SOL    HW135291   1.017   0.030   9.093  0.3606 -1.0256  0.4201
 7944SOL    HW235292   1.100   4.667   9.001 -0.3316 -0.9939 -0.7570
 7945SOL     OW35293   0.063   3.072  10.023 -0.0616  0.3143 -0.0799
 7945SOL    HW135294   0.093   3.163  10.019  0.6095  0.0815 -0.3354
 7945SOL    HW235295   0.051   3.049   9.931  0.0953 -2.2945  0.5605
 7946SOL     OW35296   2.245   4.560   3.618 -0.3273  0.0461 -0.0894
 7946SOL    HW135297   2.189   4.545   3.694 -0.3746  1.3401  0.1202
 7946SOL    HW235298   2.289   4.475   3.607 -0.7066 -0.2027  0.3170
 7947SOL     OW35299   4.325   4.325  14.350 -0.2988 -0.0220 -0.0124
 7947SOL    HW135300   4.272   4.391  14.305 -1.6452 -1.0369  0.0809
 7947SOL    HW235301   4.366   4.366  14.426  1.1654 -0.0401 -0.7996
 7948SOL     OW35302   1.414   0.802   7.416  0.1643  0.0763  0.0379
 7948SOL    HW135303   1.320   0.790   7.429  0.1441  0.1252 -0.0640
 7948SOL    HW235304   1.431   0.814   7.322 -3.0935 -2.8623 -0.8992
 7949SOL     OW35305   2.413   1.941   6.582  0.3575  0.8593 -0.2167
 7949SOL    HW135306   2.435   2.003   6.511 -1.5403  1.5131 -0.2410
 7949SOL    HW235307   2.500   1.931   6.619  0.2158  1.8574  0.3708
 7950SOL     OW35308   3.828   0.873   7.900 -0.0643  0.2427 -0.9812
 7950SOL    HW135309   3.792   0.880   7.812  1.1575 -2.0089 -1.6548
 7950SOL    HW235310   3.749   0.835   7.939  1.6383  0.2303  2.5250
 7951SOL     OW35311   3.934   2.786   7.392  0.1409  0.3675 -0.5050
 7951SOL    HW135312   4.028   2.773   7.385 -0.0986 -1.1402 -0.7868
 7951SOL    HW235313   3.936   2.785   7.488 -0.6275  0.5514 -0.4858
 7952SOL     OW35314   1.989   3.703   2.847 -0.1624  0.0961 -0.1600
 7952SOL    HW135315   1.931   3.756   2.791 -1.1833 -0.9935 -0.1330
 7952SOL    HW235316   1.985   3.617   2.805  1.0954 -0.2214  0.3816
 7953SOL     OW35317   2.254   3.309   6.880  0.2962 -0.7115  0.3222
 7953SOL    HW135318   2.287   3.294   6.968  2.9563 -0.9605 -0.7157
 7953SOL    HW235319   2.258   3.403   6.859 -1.1397 -0.2498  2.1380
 7954SOL     OW35320   0.978   0.808   6.135  0.1116  0.5057  0.2244
 7954SOL    HW135321   0.894   0.781   6.099  0.6595 -2.7151  1.4005
 7954SOL    HW235322   1.029   0.777   6.060  0.4872  1.1317  0.2181
 7955SOL     OW35323   2.008   1.054   4.573 -0.1838  0.0923  0.1195
 7955SOL    HW135324   2.017   1.141   4.610 -1.0225  0.2640 -0.0818
 7955SOL    HW235325   2.101   1.031   4.570  0.3162  2.2975 -0.8713
 7956SOL     OW35326   4.319   2.905   7.554  0.3274  0.7261 -0.2947
 7956SOL    HW135327   4.289   2.958   7.627 -0.5897  0.1314 -0.2401
 7956SOL    HW235328   4.414   2.915   7.554  0.4711 -0.7047  1.2709
 7957SOL     OW35329   2.800   0.966   7.817 -0.2279  0.0887 -0.4187
 7957SOL    HW135330   2.714   0.986   7.780 -0.2105 -0.5465 -0.8143
 7957SOL    HW235331   2.807   0.870   7.815 -0.1995  0.0581  1.2887
 7958SOL     OW35332   2.021   0.211   6.906 -0.4262 -0.3143  0.0778
 7958SOL    HW135333   2.087   0.275   6.879  0.1830 -0.9586  0.0366
 7958SOL    HW235334   2.079   0.137   6.920 -0.9602 -0.5878  0.8594
 7959SOL     OW35335   2.309   3.312   2.913 -0.0212  0.1124  0.0539
 7959SOL    HW135336   2.221   3.276   2.919 -0.0896 -0.0932 -2.1207
 7959SOL    HW235337   2.334   3.320   2.821 -0.2926 -0.7731 -0.0911
 7960SOL     OW35338   4.186   4.574   3.513  0.2592  0.4296  0.1733
 7960SOL    HW135339   4.238   4.614   3.443 -1.9363  1.7100 -0.7220
 7960SOL    HW235340   4.243   4.584   3.589  0.5467 -0.5412  0.0876
 7961SOL     OW35341   1.480   1.504   7.721 -0.3266  0.3691 -0.8956
 7961SOL    HW135342   1.535   1.426   7.723 -1.2458 -0.2402  0.8723
 7961SOL    HW235343   1.443   1.504   7.633 -1.6625  0.7335 -0.3326
 7962SOL     OW35344   3.903   2.224  16.952 -0.0641  0.7315  0.2457
 7962SOL    HW135345   3.836   2.293  16.950  1.6629  2.3766 -0.5671
 7962SOL    HW235346   3.982   2.275  16.933 -0.3425  1.3195  0.6674
 7963SOL     OW35347   0.484   1.138   7.361  0.0121  0.3209 -0.1914
 7963SOL    HW135348   0.515   1.060   7.407  1.2151 -0.3488 -2.1283
 7963SOL    HW235349   0.557   1.174   7.311  1.2062 -0.7475  0.7743
 7964SOL     OW35350   0.391   3.390  16.377 -0.2675  0.2083 -0.4173
 7964SOL    HW135351   0.315   3.349  16.336  0.2087 -0.9409 -0.1469
 7964SOL    HW235352   0.411   3.312  16.428  1.1324  1.1384  0.4674
 7965SOL     OW35353   2.843   3.467   6.615 -0.9777  0.5832  0.3970
 7965SOL    HW135354   2.879   3.493   6.531  2.0448 -0.0486  1.5093
 7965SOL    HW235355   2.907   3.503   6.676 -0.8923  0.8370  0.1506
 7966SOL     OW35356   4.127   1.291   0.806  0.1905  0.7343 -0.0194
 7966SOL    HW135357   4.143   1.285   0.712 -0.6223 -1.7536  0.0230
 7966SOL    HW235358   4.123   1.387   0.809 -2.6118  0.6627 -1.5495
 7967SOL     OW35359   0.034   4.520   2.490  0.2771 -0.7747  0.3434
 7967SOL    HW135360   0.049   4.485   2.578 -1.9906  0.5407  1.2394
 7967SOL    HW235361   0.123   4.518   2.455 -0.1191 -1.2824 -0.6309
 7968SOL     OW35362   2.104   4.303   7.910 -0.5733 -0.1061  0.8284
 7968SOL    HW135363   2.070   4.350   7.834  0.2351 -1.4177 -0.3486
 7968SOL    HW235364   2.194   4.275   7.894  0.1373  3.9814 -2.3865
 7969SOL     OW35365   2.696   1.052   3.044  0.2574  0.3149 -0.3533
 7969SOL    HW135366   2.672   1.107   2.969  1.7540 -0.4706 -1.4048
 7969SOL    HW235367   2.731   1.118   3.104 -0.3974 -1.0474  1.4914
 7970SOL     OW35368   2.825   0.586  14.010 -0.6626 -0.6254 -0.3968
 7970SOL    HW135369   2.862   0.639  13.939 -1.4560  0.5148  0.0265
 7970SOL    HW235370   2.890   0.598  14.079 -2.3483 -0.8199  1.2361
 7971SOL     OW35371   0.093   2.308   5.335  0.2482 -0.1225 -0.3571
 7971SOL    HW135372   0.049   2.223   5.346 -2.1085  0.7725 -2.6661
 7971SOL    HW235373   0.106   2.324   5.241 -1.7528 -0.2270 -0.6480
 7972SOL     OW35374   2.357   2.714   2.787  0.1858  0.3107  0.5722
 7972SOL    HW135375   2.353   2.619   2.784 -1.3288  0.3768  0.5673
 7972SOL    HW235376   2.288   2.728   2.723 -0.2412 -1.0673  0.7312
 7973SOL     OW35377   3.828   2.647   8.017  0.3645  0.3856  0.2631
 7973SOL    HW135378   3.801   2.739   8.011  2.0444  0.9693  1.7491
 7973SOL    HW235379   3.920   2.663   8.038  0.2344 -0.1691  1.2533
 7974SOL     OW35380   3.668   0.478   0.832 -0.0756 -0.4049  0.1907
 7974SOL    HW135381   3.698   0.568   0.815 -1.6392 -0.0954 -0.9017
 7974SOL    HW235382   3.576   0.476   0.805 -0.5437 -0.6474  1.8076
 7975SOL     OW35383   2.503   3.597   5.397 -0.1411  0.3224  0.2305
 7975SOL    HW135384   2.519   3.643   5.480 -1.6137 -2.1023  1.8577
 7975SOL    HW235385   2.458   3.669   5.353 -1.8242 -1.2101 -0.5661
 7976SOL     OW35386   3.079   1.788   3.963  0.5188  0.3502  0.1497
 7976SOL    HW135387   3.135   1.861   3.991 -0.6742  1.8119 -1.2341
 7976SOL    HW235388   3.135   1.744   3.900 -0.3900 -1.4195  0.5888
 7977SOL     OW35389   4.046   1.577   5.331 -0.7685 -0.4576  0.0860
 7977SOL    HW135390   4.029   1.636   5.258  0.1073 -0.8308 -0.4236
 7977SOL    HW235391   4.138   1.592   5.353 -0.8030 -0.0045 -0.0715
 7978SOL     OW35392   1.589   1.452   1.760 -0.1891 -0.1578  0.7272
 7978SOL    HW135393   1.646   1.375   1.762 -1.4103 -1.0940 -0.6745
 7978SOL    HW235394   1.628   1.507   1.828  1.9676 -2.2873  1.2374
 7979SOL     OW35395   4.264   2.850   3.730  0.2100  0.1145 -0.6572
 7979SOL    HW135396   4.214   2.775   3.763  1.1363 -0.7060 -1.1149
 7979SOL    HW235397   4.344   2.851   3.782 -1.0632  1.1752  1.2630
 7980SOL     OW35398   0.134   3.455   1.960  0.3444 -0.1635 -0.5683
 7980SOL    HW135399   0.057   3.460   1.904 -0.0235 -0.4897 -0.0890
 7980SOL    HW235400   0.145   3.542   1.999  0.3897 -0.3669 -0.1237
 7981SOL     OW35401   4.622   1.190   4.067 -0.0495 -0.4976 -0.0623
 7981SOL    HW135402   4.548   1.158   4.119  0.9195 -2.4513  0.0918
 7981SOL    HW235403   4.692   1.126   4.074  0.5144  0.2576  1.3627
 7982SOL     OW35404   2.606   2.499   5.433  0.0469 -0.0565  0.0682
 7982SOL    HW135405   2.553   2.575   5.458 -0.0466 -0.1511  0.1548
 7982SOL    HW235406   2.660   2.486   5.511 -0.3079  1.3247  0.5443
 7983SOL     OW35407   3.812   4.104   5.090 -0.2896 -0.1027 -0.4541
 7983SOL    HW135408   3.884   4.125   5.150  0.2783 -0.1108 -1.1270
 7983SOL    HW235409   3.755   4.056   5.150 -1.6377 -2.2281 -3.3916
 7984SOL     OW35410   1.522   2.427   0.110 -0.7113 -0.0904 -0.0968
 7984SOL    HW135411   1.500   2.352   0.054  0.0582  0.3101 -0.9501
 7984SOL    HW235412   1.516   2.387   0.196 -0.9493  1.1732  0.4653
 7985SOL     OW35413   4.621   4.103   2.285 -0.7276 -0.1283 -0.0821
 7985SOL    HW135414   4.544   4.132   2.333 -0.9100  1.7034 -1.4697
 7985SOL    HW235415   4.618   4.163   2.210 -4.4815 -2.3200 -1.6713
 7986SOL     OW35416   3.305   0.550   3.976  0.0550 -0.0988  0.1241
 7986SOL    HW135417   3.219   0.510   3.969  1.3782 -2.7637 -0.8701
 7986SOL    HW235418   3.351   0.480   4.024  2.8701 -0.5115 -3.2040
 7987SOL     OW35419   1.835   1.144   5.837 -0.0805 -0.0632  0.1927
 7987SOL    HW135420   1.814   1.067   5.786  1.7128  0.6493 -1.6178
 7987SOL    HW235421   1.774   1.131   5.910 -1.3081 -0.5827 -0.9324
 7988SOL     OW35422   3.156   1.372   6.536 -0.2018 -0.0429 -0.2748
 7988SOL    HW135423   3.130   1.285   6.508 -1.8473  0.0085  1.0998
 7988SOL    HW235424   3.102   1.431   6.483 -0.5635 -0.6262 -0.5440
 7989SOL     OW35425   3.513   4.560  16.825 -0.0973  0.1648  0.3157
 7989SOL    HW135426   3.518   4.481  16.878  2.7991 -0.9843 -1.6699
 7989SOL    HW235427   3.539   4.523  16.741  3.0106  1.0137  0.8832
 7990SOL     OW35428   4.457   2.868   7.167 -0.5509 -1.1542 -0.3578
 7990SOL    HW135429   4.539   2.914   7.183 -1.4297  1.0240 -2.1003
 7990SOL    HW235430   4.489   2.835   7.083  0.5680 -0.5314 -0.1604
 7991SOL     OW35431   3.943   2.918   1.147  0.0140  0.1886 -0.8261
 7991SOL    HW135432   3.866   2.868   1.176  0.7417 -0.3787  0.1471
 7991SOL    HW235433   3.906   2.923   1.059 -0.2587 -2.5937 -0.8849
 7992SOL     OW35434   4.080   2.232  15.145  0.5035  0.7680 -0.3035
 7992SOL    HW135435   4.136   2.186  15.082 -1.0171  0.0685 -1.1575
 7992SOL    HW235436   4.031   2.157  15.179  2.3834 -0.6154 -0.6691
 7993SOL     OW35437   4.340   4.176   1.269  0.4212 -0.4153  0.2465
 7993SOL    HW135438   4.324   4.270   1.259  0.3462 -0.5667 -1.0442
 7993SOL    HW235439   4.407   4.167   1.337  2.6363 -0.5522 -1.9039
 7994SOL     OW35440   3.864   2.890   1.524  0.0308  0.0774  0.5196
 7994SOL    HW135441   3.878   2.874   1.617 -0.2205  0.1964  0.5793
 7994SOL    HW235442   3.904   2.814   1.483  0.8311  1.6669 -1.6371
 7995SOL     OW35443   0.228   3.545  17.109  0.8018  0.2179 -0.7372
 7995SOL    HW135444   0.318   3.525  17.136  0.6332  0.1525 -0.2092
 7995SOL    HW235445   0.231   3.494  17.028  0.9705  1.5437 -1.5550
 7996SOL     OW35446   1.699   3.145   7.167 -0.0927 -0.4828  0.2681
 7996SOL    HW135447   1.722   3.111   7.254 -1.1133 -1.6518  0.0782
 7996SOL    HW235448   1.745   3.081   7.112 -2.0349 -1.6720  0.0120
 7997SOL     OW35449   4.022   2.559   8.334  0.4310 -0.4776 -0.0521
 7997SOL    HW135450   3.941   2.599   8.367 -0.2083  0.8141 -3.2173
 7997SOL    HW235451   4.043   2.610   8.256  0.4213 -1.5024 -0.7341
 7998SOL     OW35452   4.015   3.463   4.929  0.7417  0.2954  0.1685
 7998SOL    HW135453   3.935   3.486   4.978 -0.1293 -1.4619 -0.4318
 7998SOL    HW235454   4.056   3.548   4.917  1.4095 -0.0381  0.0675
 7999SOL     OW35455   0.501   1.261  12.763  0.0803  0.1729 -0.4969
 7999SOL    HW135456   0.435   1.195  12.746  0.9065 -0.8515  0.3061
 7999SOL    HW235457   0.566   1.198  12.793 -0.1625  0.2150  0.1201
 8000SOL     OW35458   2.652   3.720  14.753 -0.0585 -0.7184 -0.0342
 8000SOL    HW135459   2.565   3.698  14.719  0.3736 -0.3629 -1.3315
 8000SOL    HW235460   2.714   3.682  14.691  1.9889  0.5639  1.2278
 8001SOL     OW35461   1.290   2.247   2.860 -0.3432  0.2227  0.1396
 8001SOL    HW135462   1.352   2.226   2.790  0.0772  1.2591  0.1971
 8001SOL    HW235463   1.271   2.339   2.841 -0.5060  0.1519 -0.0460
 8002SOL     OW35464   0.313   1.578   9.179 -0.1185 -0.0006 -0.0083
 8002SOL    HW135465   0.306   1.485   9.160 -1.3800  0.3787 -1.4326
 8002SOL    HW235466   0.235   1.613   9.137 -0.1888  0.3656  0.4285
 8003SOL     OW35467   4.451   2.288   7.252 -0.6422  0.2614 -0.4355
 8003SOL    HW135468   4.438   2.309   7.344  0.0943  0.3489 -0.3522
 8003SOL    HW235469   4.393   2.356   7.216 -0.1936 -0.1235 -1.8883
 8004SOL     OW35470   3.714   1.472   4.331  0.2274 -0.0598  0.0305
 8004SOL    HW135471   3.806   1.494   4.316  0.3273 -0.5101 -0.0119
 8004SOL    HW235472   3.705   1.396   4.273 -1.7580  1.2887 -1.4231
 8005SOL     OW35473   2.207   1.970  12.734 -0.0342 -0.0189 -0.4318
 8005SOL    HW135474   2.276   1.922  12.779 -0.1843  1.4888  1.3564
 8005SOL    HW235475   2.125   1.921  12.742  0.8363 -1.2038  1.1111
 8006SOL     OW35476   2.158   0.515   6.903 -0.2933 -0.1677  0.2382
 8006SOL    HW135477   2.206   0.507   6.986 -0.4289  1.1580  0.4415
 8006SOL    HW235478   2.209   0.459   6.845  0.1241 -0.1682  0.6005
 8007SOL     OW35479   4.037   1.803   2.411 -0.3130  0.3078 -0.2101
 8007SOL    HW135480   4.017   1.760   2.328  0.5676  2.5736 -1.6042
 8007SOL    HW235481   3.962   1.863   2.410 -0.8500 -0.3487  2.6053
 8008SOL     OW35482   1.595   4.637   8.048 -0.0297  0.0742  0.5199
 8008SOL    HW135483   1.509   4.671   8.075 -0.1000  0.6313 -0.4055
 8008SOL    HW235484   1.585   4.542   8.061 -2.1611 -0.0509 -2.0567
 8009SOL     OW35485   2.404   1.633   8.907  0.4646  0.4302 -0.4650
 8009SOL    HW135486   2.327   1.614   8.854 -0.4455  2.7798  0.0282
 8009SOL    HW235487   2.393   1.556   8.963  0.2962  1.0392  0.3330
 8010SOL     OW35488   0.108   0.355  16.909  0.1998 -0.2326 -0.7131
 8010SOL    HW135489   0.076   0.347  16.819  1.8563 -0.9040 -1.2478
 8010SOL    HW235490   0.121   0.447  16.929  0.9203 -0.1865 -1.3900
 8011SOL     OW35491   2.976   3.643   5.338  0.1929 -0.2986  0.3080
 8011SOL    HW135492   2.998   3.559   5.296  1.5652  0.0606  0.3097
 8011SOL    HW235493   2.911   3.678   5.277 -0.9191  0.2838  1.8206
 8012SOL     OW35494   1.525   2.684   4.287 -0.0438  0.1356  0.0700
 8012SOL    HW135495   1.462   2.630   4.336  0.3995 -0.7147 -0.2943
 8012SOL    HW235496   1.551   2.620   4.220  0.7616  1.0948 -0.5268
 8013SOL     OW35497   3.287   1.312   5.281 -0.2760 -0.2868  0.4887
 8013SOL    HW135498   3.205   1.361   5.272  0.4678  0.8505 -0.0878
 8013SOL    HW235499   3.271   1.231   5.233  2.2166 -0.2214 -0.4415
 8014SOL     OW35500   0.719   2.587   3.372  0.0792  0.3117  0.5219
 8014SOL    HW135501   0.703   2.576   3.278  0.6949  0.3998  0.4090
 8014SOL    HW235502   0.810   2.559   3.379  0.1202  0.2909 -0.0559
 8015SOL     OW35503   1.574   2.374   5.465  0.1761 -0.3203  0.7455
 8015SOL    HW135504   1.486   2.390   5.433  0.7297  0.0676 -0.6140
 8015SOL    HW235505   1.563   2.290   5.510  1.0643 -2.3141 -2.6859
 8016SOL     OW35506   2.179   4.363   8.927 -0.6983  0.0514 -0.0100
 8016SOL    HW135507   2.135   4.447   8.939 -1.8570 -0.7578  1.4293
 8016SOL    HW235508   2.203   4.340   9.017 -2.6710  2.1122  1.0282
 8017SOL     OW35509   0.058   2.479   4.462  0.2076  0.5751 -0.0500
 8017SOL    HW135510   0.123   2.501   4.529  1.0404  1.2313 -1.0751
 8017SOL    HW235511   4.701   2.464   4.513  1.9309 -1.9892  1.8894
 8018SOL     OW35512   0.314   4.450  14.684  0.6115 -0.6108  0.6638
 8018SOL    HW135513   0.397   4.451  14.732  0.1934 -0.3559  1.3833
 8018SOL    HW235514   0.309   4.356  14.671  0.5477 -0.7472  1.6675
 8019SOL     OW35515   1.510   2.766  11.771 -0.3395  0.2131  0.0418
 8019SOL    HW135516   1.435   2.739  11.823  1.2641 -1.2995  1.5750
 8019SOL    HW235517   1.467   2.775  11.686 -2.4745 -0.6266  1.0252
 8020SOL     OW35518   3.967   2.596  13.831 -0.1798  0.4023 -0.2412
 8020SOL    HW135519   3.902   2.531  13.856  0.1248  0.1717 -0.0427
 8020SOL    HW235520   4.004   2.617  13.916  0.5017  0.3546 -0.5198
 8021SOL     OW35521   1.864   4.528   4.368  0.4189 -0.0677  0.5112
 8021SOL    HW135522   1.806   4.556   4.439 -2.1000 -1.4977 -1.0362
 8021SOL    HW235523   1.863   4.607   4.313 -0.9145 -0.9532 -0.7211
 8022SOL     OW35524   2.797   1.687  13.343 -0.3708 -0.8008  0.6132
 8022SOL    HW135525   2.781   1.630  13.267 -0.4776 -1.5976  1.2393
 8022SOL    HW235526   2.892   1.688  13.350 -0.2026 -0.4121 -1.6782
 8023SOL     OW35527   0.520   0.557   4.058 -0.5741 -0.0752 -0.0931
 8023SOL    HW135528   0.477   0.624   4.004  0.0259  0.8323  0.5546
 8023SOL    HW235529   0.495   0.473   4.019  0.7800 -0.1769 -0.7313
 8024SOL     OW35530   1.206   0.086   1.661  0.5526  0.0644 -0.2352
 8024SOL    HW135531   1.131   0.037   1.627  1.7353 -1.6277 -0.3403
 8024SOL    HW235532   1.273   0.021   1.643  0.5588 -0.0953  0.3585
 8025SOL     OW35533   3.115   3.415   3.505  0.6638  0.1995  0.0580
 8025SOL    HW135534   3.029   3.456   3.501  1.1200  1.1165 -0.3411
 8025SOL    HW235535   3.098   3.336   3.453  0.9605 -2.0135  3.3118
 8026SOL     OW35536   1.208   0.931   7.747  0.4170  0.5440 -0.3114
 8026SOL    HW135537   1.196   1.025   7.732 -1.2512  0.4132  0.1860
 8026SOL    HW235538   1.131   0.897   7.701  0.8375 -0.1410 -0.5067
 8027SOL     OW35539   1.995   2.029   6.487  0.0503  0.4483 -0.1136
 8027SOL    HW135540   2.033   2.008   6.573  0.6496 -2.5638 -1.1040
 8027SOL    HW235541   2.055   2.094   6.452  0.8214 -1.1648 -1.7967
 8028SOL     OW35542   1.359   4.155  13.136  0.0872  0.6839  0.5930
 8028SOL    HW135543   1.412   4.217  13.085  2.5126 -0.1956  2.0596
 8028SOL    HW235544   1.424   4.111  13.190 -1.1538  0.7193  2.1213
 8029SOL     OW35545   1.595   1.082   1.939  0.2898 -0.1458 -0.4987
 8029SOL    HW135546   1.601   1.153   2.004  1.2059  2.3738 -3.3162
 8029SOL    HW235547   1.626   1.010   1.993 -1.2879  0.3124  1.0108
 8030SOL     OW35548   1.005   2.161   2.887  0.3257 -0.0781  0.8576
 8030SOL    HW135549   1.088   2.194   2.853 -0.5727 -1.5739 -2.7852
 8030SOL    HW235550   1.008   2.065   2.888  0.1761 -0.0881  0.1492
 8031SOL     OW35551   1.579   4.537   5.016  0.3603  0.0560  0.6649
 8031SOL    HW135552   1.666   4.562   4.984  0.5295  0.4024  1.3798
 8031SOL    HW235553   1.586   4.555   5.110 -0.1833  0.2892  0.6601
 8032SOL     OW35554   3.606   1.494  14.372 -0.2464 -0.0824 -0.1474
 8032SOL    HW135555   3.517   1.529  14.366 -0.6045 -0.8401  0.7206
 8032SOL    HW235556   3.652   1.544  14.305 -2.1155  1.5619 -0.1763
 8033SOL     OW35557   1.095   2.792  12.825  0.2328 -0.6665  0.1558
 8033SOL    HW135558   1.081   2.720  12.763  0.5299  0.3271 -1.0486
 8033SOL    HW235559   1.190   2.799  12.830  0.3122 -0.9763 -0.9948
 8034SOL     OW35560   1.387   3.838   6.441  0.1411 -0.1609  0.4698
 8034SOL    HW135561   1.328   3.885   6.499 -0.6167  0.0988 -0.5163
 8034SOL    HW235562   1.363   3.746   6.452  0.1214 -0.1637  0.4022
 8035SOL     OW35563   0.696   2.218   7.663 -0.5024 -0.2642  0.1776
 8035SOL    HW135564   0.624   2.215   7.726 -0.5709  0.6922  0.1397
 8035SOL    HW235565   0.697   2.310   7.638 -1.9591  0.3306  2.3399
 8036SOL     OW35566   3.774   2.948   3.641  0.1179  0.4593 -0.4892
 8036SOL    HW135567   3.804   2.931   3.731  0.0029  2.4938 -0.0658
 8036SOL    HW235568   3.686   2.975   3.669 -0.2555 -0.0889 -1.1598
 8037SOL     OW35569   2.740   3.254   4.658  0.2326 -0.2353  0.2181
 8037SOL    HW135570   2.799   3.178   4.657  0.0105 -0.3845 -1.4063
 8037SOL    HW235571   2.746   3.279   4.750  0.7059  0.6323 -0.0511
 8038SOL     OW35572   1.544   1.763   4.766 -0.5189  0.0951  0.3303
 8038SOL    HW135573   1.460   1.772   4.812 -0.1436  1.5300  0.7379
 8038SOL    HW235574   1.569   1.689   4.821 -2.2949 -0.0722  0.9425
 8039SOL     OW35575   2.440   0.104   5.182 -0.2712  0.5064  0.1124
 8039SOL    HW135576   2.449   0.010   5.199  1.2406  0.8437  1.1521
 8039SOL    HW235577   2.396   0.091   5.098  1.5330  1.6280 -1.0157
 8040SOL     OW35578   0.484   1.047   5.801 -0.6491 -0.1330 -0.2543
 8040SOL    HW135579   0.483   0.968   5.746  2.0072 -1.1404  1.1705
 8040SOL    HW235580   0.441   0.999   5.873  1.5412  0.5642  1.5030
 8041SOL     OW35581   1.174   2.967  13.581 -0.0549 -0.0987  0.3591
 8041SOL    HW135582   1.262   2.933  13.594  0.5787  1.9113  1.3302
 8041SOL    HW235583   1.167   3.041  13.642  1.4041  0.7165 -0.4794
 8042SOL     OW35584   4.514   4.069   6.950  0.3590  0.1933  0.6257
 8042SOL    HW135585   4.566   4.011   6.895 -0.1603 -0.8869  1.2497
 8042SOL    HW235586   4.489   4.135   6.886 -1.9019 -1.4463 -0.1887
 8043SOL     OW35587   3.798   0.221   4.835  0.2561 -0.4318 -0.3851
 8043SOL    HW135588   3.764   0.132   4.832  1.1201 -0.7313 -1.3849
 8043SOL    HW235589   3.891   0.206   4.819  0.6353 -0.1013  1.5319
 8044SOL     OW35590   0.123   3.286   4.853 -0.4962  0.4833 -0.1365
 8044SOL    HW135591   0.068   3.347   4.903 -0.5033 -0.4543  0.9940
 8044SOL    HW235592   0.066   3.271   4.778 -1.0411  0.0336  0.3686
 8045SOL     OW35593   0.406   1.185   5.522  0.2420 -0.1663 -0.0445
 8045SOL    HW135594   0.501   1.186   5.507  0.4164 -2.3212  0.9103
 8045SOL    HW235595   0.405   1.177   5.617 -1.7135  0.3703 -0.0302
 8046SOL     OW35596   0.939   2.299   6.059  0.1057  0.4505 -0.0419
 8046SOL    HW135597   0.883   2.308   5.982 -0.4222  1.3821  0.4444
 8046SOL    HW235598   1.023   2.275   6.022  0.0161 -0.4553  0.3419
 8047SOL     OW35599   0.783   0.958   3.010 -0.3733  0.1115 -0.0387
 8047SOL    HW135600   0.828   0.989   2.931 -0.7456 -1.1071 -0.7336
 8047SOL    HW235601   0.846   0.935   3.078  1.2103  0.3336 -1.4494
 8048SOL     OW35602   1.806   1.627   6.436 -0.3342  0.6538  0.2097
 8048SOL    HW135603   1.818   1.539   6.399  0.2800  0.4486  0.8926
 8048SOL    HW235604   1.773   1.668   6.356 -3.4156 -1.8028  0.1907
 8049SOL     OW35605   4.719   0.177   7.953  0.1517  0.7426 -0.2788
 8049SOL    HW135606   0.035   0.125   8.024  1.5465  2.5817  0.3216
 8049SOL    HW235607   4.645   0.230   7.983 -1.3012 -1.2492 -0.3317
 8050SOL     OW35608   2.706   0.239  10.975  0.1243  0.4326 -0.6725
 8050SOL    HW135609   2.734   0.303  11.040 -0.0847  1.4255 -1.5594
 8050SOL    HW235610   2.701   0.156  11.022 -2.0040  0.4116 -0.9258
 8051SOL     OW35611   3.304   1.200  14.468 -0.2179  0.5242 -0.5949
 8051SOL    HW135612   3.323   1.207  14.374  1.0491  0.8104 -0.3164
 8051SOL    HW235613   3.389   1.182  14.508 -0.1624  1.9972 -0.0857
 8052SOL     OW35614   4.229   0.818   0.170 -0.1004 -0.1818  0.1430
 8052SOL    HW135615   4.183   0.896   0.199 -1.7355 -0.9991 -0.2842
 8052SOL    HW235616   4.158   0.761   0.141  1.1916 -1.8148  0.1505
 8053SOL     OW35617   4.589   3.525  17.325 -0.6714 -0.7209 -0.4158
 8053SOL    HW135618   4.648   3.589  17.285 -3.3884  1.7061 -0.5157
 8053SOL    HW235619   4.644   3.447  17.332  2.3657  1.3466 -0.9901
 8054SOL     OW35620   2.478   2.291   6.094  0.4946 -0.0736 -0.3911
 8054SOL    HW135621   2.423   2.341   6.034  0.6148  0.5630  0.0290
 8054SOL    HW235622   2.483   2.358   6.163 -0.2562  0.8120 -1.2093
 8055SOL     OW35623   2.918   1.686   0.323  0.4248  0.3642 -0.1693
 8055SOL    HW135624   2.926   1.595   0.292 -2.0590  0.0770  0.0427
 8055SOL    HW235625   2.870   1.670   0.404 -0.3940 -1.4210 -0.9828
 8056SOL     OW35626   3.468   0.298   2.702 -0.2068  0.2029 -0.2031
 8056SOL    HW135627   3.506   0.305   2.790  1.3934  1.7845 -1.0220
 8056SOL    HW235628   3.442   0.206   2.700 -1.1095  0.4932 -1.8841
 8057SOL     OW35629   1.457   0.783   5.647 -0.2459  0.5275  0.3837
 8057SOL    HW135630   1.373   0.818   5.618 -0.6081 -0.8752 -0.2190
 8057SOL    HW235631   1.460   0.712   5.583 -0.2041 -0.1870  1.1711
 8058SOL     OW35632   3.531   3.155  11.229 -0.0920 -0.3611 -0.0694
 8058SOL    HW135633   3.461   3.221  11.232 -0.5542 -0.8595  0.1738
 8058SOL    HW235634   3.531   3.140  11.134  1.4642 -1.1823  0.0579
 8059SOL     OW35635   4.621   3.975   6.726  0.1788 -0.1108 -0.6974
 8059SOL    HW135636   4.576   4.017   6.652  0.3521  0.0827 -0.6938
 8059SOL    HW235637   4.709   4.013   6.721  0.6951 -1.2061  0.1526
 8060SOL     OW35638   4.713   1.115   7.636 -0.8184 -0.2473  0.2905
 8060SOL    HW135639   0.077   1.083   7.608 -0.1192  0.6607  1.4135
 8060SOL    HW235640   0.021   1.195   7.679 -1.5396  0.6946 -0.9818
 8061SOL     OW35641   4.253   0.190   3.203 -0.0378 -0.4257 -0.2390
 8061SOL    HW135642   4.223   0.185   3.112  0.6728 -0.1267 -0.4978
 8061SOL    HW235643   4.267   0.284   3.214 -0.0554 -0.3289 -0.9991
 8062SOL     OW35644   3.882   2.796   7.670  0.8996 -0.1279  0.0103
 8062SOL    HW135645   3.903   2.703   7.683  0.6929  0.1726  2.5478
 8062SOL    HW235646   3.787   2.804   7.675  0.9519  0.4613  0.0665
 8063SOL     OW35647   1.341   1.296   3.785 -0.0105 -0.3292  0.9608
 8063SOL    HW135648   1.342   1.274   3.692 -0.8672 -1.2195  1.1715
 8063SOL    HW235649   1.253   1.267   3.805 -0.5808  3.0970  3.3989
 8064SOL     OW35650   0.160   3.638   5.724 -0.2271 -0.3742 -0.6770
 8064SOL    HW135651   0.205   3.660   5.642  0.1376  3.3452  0.5051
 8064SOL    HW235652   0.164   3.542   5.721 -2.1778 -0.5019  0.8870
 8065SOL     OW35653   0.017   3.551  10.052 -0.1405  0.3177  0.1422
 8065SOL    HW135654   4.669   3.584   9.995 -1.6115 -2.7431  0.1757
 8065SOL    HW235655   4.713   3.604  10.127  1.3560  0.4417  0.5714
 8066SOL     OW35656   1.125   0.941   0.622  0.7456 -0.0362  0.2921
 8066SOL    HW135657   1.149   0.969   0.711 -0.7653 -1.2526  1.0712
 8066SOL    HW235658   1.044   0.992   0.613  0.1033 -0.8361  1.5495
 8067SOL     OW35659   0.469   3.723   0.664  0.3730  0.1768 -0.0672
 8067SOL    HW135660   0.445   3.722   0.757 -1.2061  0.9924 -0.4769
 8067SOL    HW235661   0.416   3.792   0.625 -1.9326 -1.2301  0.6312
 8068SOL     OW35662   3.123   3.501  16.115  0.1907  0.1420  0.3412
 8068SOL    HW135663   3.062   3.456  16.056  1.1052 -0.4377 -0.1758
 8068SOL    HW235664   3.131   3.588  16.075 -0.5260  1.4815  3.1857
 8069SOL     OW35665   4.633   2.539   9.893 -0.0220  0.4134  0.2516
 8069SOL    HW135666   4.657   2.455   9.854  0.6774  1.1136 -0.8032
 8069SOL    HW235667   4.607   2.594   9.819 -1.6405  0.0790  0.5676
 8070SOL     OW35668   4.371   2.122  15.419 -0.7811 -0.8388 -0.1227
 8070SOL    HW135669   4.423   2.044  15.440 -0.1986 -0.2841  0.4965
 8070SOL    HW235670   4.442   2.186  15.418 -0.6906 -0.9431 -0.4629
 8071SOL     OW35671   0.480   4.171   7.243 -0.4709  0.6628  0.3922
 8071SOL    HW135672   0.568   4.139   7.222 -0.5532  1.1641 -0.7371
 8071SOL    HW235673   0.444   4.082   7.244 -0.1270  0.5226  0.2842
 8072SOL     OW35674   0.144   0.716   1.284  0.2309 -0.0528  0.6541
 8072SOL    HW135675   0.125   0.705   1.191 -0.1709 -1.7814  0.9542
 8072SOL    HW235676   0.204   0.790   1.273 -0.1059  0.1348  0.0848
 8073SOL     OW35677   3.579   3.749   8.146  0.0518 -0.0415 -0.2677
 8073SOL    HW135678   3.559   3.660   8.172  1.0405 -0.6131 -1.4465
 8073SOL    HW235679   3.674   3.747   8.157  0.2084  0.5063 -1.4949
 8074SOL     OW35680   2.248   2.301   2.952 -0.1447  0.1404 -0.0268
 8074SOL    HW135681   2.288   2.387   2.961 -1.3778  0.9381 -2.3132
 8074SOL    HW235682   2.225   2.282   3.044 -0.5229 -2.2232 -0.6014
 8075SOL     OW35683   3.729   3.493   0.300 -0.2643 -0.1996 -0.2912
 8075SOL    HW135684   3.709   3.414   0.249 -1.6470 -0.3977  0.5613
 8075SOL    HW235685   3.816   3.471   0.335 -0.7469 -0.3252  0.8408
 8076SOL     OW35686   0.919   2.059   2.164  0.2532  0.6571  0.6646
 8076SOL    HW135687   0.902   2.149   2.192  3.6098  1.7295 -0.7309
 8076SOL    HW235688   0.938   2.085   2.074 -2.1878 -0.0920 -0.0478
 8077SOL     OW35689   3.536   1.808   2.592  0.1668 -0.3372 -0.2093
 8077SOL    HW135690   3.598   1.877   2.565  0.6661 -0.2707  1.1355
 8077SOL    HW235691   3.585   1.729   2.569 -0.8002 -1.8931  3.2185
 8078SOL     OW35692   2.752   3.438   7.603 -0.2505 -0.9072 -0.4349
 8078SOL    HW135693   2.779   3.502   7.669 -2.5694 -1.1733  0.7902
 8078SOL    HW235694   2.823   3.375   7.615 -2.4069 -3.2145  0.1591
 8079SOL     OW35695   3.185   3.390   9.867  0.1317 -0.5924 -0.2265
 8079SOL    HW135696   3.206   3.463   9.810  0.3277  0.8725  1.7116
 8079SOL    HW235697   3.253   3.408   9.932  0.6682 -2.0356 -0.3904
 8080SOL     OW35698   4.499   2.416  11.330  0.4606  0.4350 -0.4072
 8080SOL    HW135699   4.507   2.472  11.253  1.3768  3.3369  1.8008
 8080SOL    HW235700   4.419   2.446  11.372  0.5448  2.5819 -1.7389
 8081SOL     OW35701   3.596   1.864   7.532 -0.3040  0.4433  0.1756
 8081SOL    HW135702   3.632   1.807   7.599  1.4516  0.3566 -0.8516
 8081SOL    HW235703   3.516   1.815   7.511 -0.2154  0.4641 -0.2171
 8082SOL     OW35704   3.083   2.459   4.925 -0.2638 -0.0567 -0.4693
 8082SOL    HW135705   3.063   2.368   4.903  1.1864  0.1242 -2.5789
 8082SOL    HW235706   3.053   2.468   5.015  1.0371  0.0562 -0.0454
 8083SOL     OW35707   3.902   1.855   4.629 -0.0644 -0.4738  0.0831
 8083SOL    HW135708   3.928   1.910   4.703 -0.6400  0.7292 -0.6040
 8083SOL    HW235709   3.984   1.845   4.581 -0.0918  0.3520 -0.1511
 8084SOL     OW35710   4.070   1.005   7.132  0.1813 -0.3381  0.5335
 8084SOL    HW135711   4.150   0.986   7.084 -0.1599  0.1044 -0.2192
 8084SOL    HW235712   4.078   1.101   7.135  0.0842 -0.4377  3.7194
 8085SOL     OW35713   3.751   2.663   8.304  0.9183  0.0963 -0.4211
 8085SOL    HW135714   3.700   2.740   8.328  2.7770 -0.4874  5.5171
 8085SOL    HW235715   3.758   2.675   8.210  2.4714 -0.3584 -0.3687
 8086SOL     OW35716   3.687   0.567   2.638  0.2009 -0.3288 -0.3309
 8086SOL    HW135717   3.671   0.576   2.732  0.6412 -2.8156 -0.0294
 8086SOL    HW235718   3.778   0.538   2.633 -0.0809 -1.0063 -1.8761
 8087SOL     OW35719   1.514   1.915  10.604  0.5475 -0.1227  0.3585
 8087SOL    HW135720   1.442   1.962  10.647  0.6954  0.8067 -0.3852
 8087SOL    HW235721   1.579   1.982  10.581  1.0604 -1.3651 -1.7711
 8088SOL     OW35722   0.700   1.972   9.812 -0.4058  0.0701 -0.2031
 8088SOL    HW135723   0.727   1.885   9.841  0.2547  0.8708  1.6148
 8088SOL    HW235724   0.775   2.028   9.832  1.0233 -1.3579 -1.5182
 8089SOL     OW35725   1.582   1.933   8.958 -0.5213 -0.4155  0.1567
 8089SOL    HW135726   1.644   1.998   8.993 -0.2017  0.0364 -1.2573
 8089SOL    HW235727   1.633   1.856   8.984  0.2834 -0.2009 -0.8023
 8090SOL     OW35728   2.062   1.774   7.692 -0.0244  0.0416  0.3404
 8090SOL    HW135729   2.108   1.856   7.703  0.5053 -0.3324  0.9291
 8090SOL    HW235730   1.982   1.792   7.742  0.3895 -1.8220  1.6748
 8091SOL     OW35731   1.880   2.793   0.100  0.7750 -0.1962 -0.2649
 8091SOL    HW135732   1.943   2.722   0.113 -0.2638 -1.1200 -0.3199
 8091SOL    HW235733   1.923   2.828   0.022 -0.8775  0.5743 -0.8125
 8092SOL     OW35734   4.524   1.611   4.274 -0.1335  0.1731 -0.0839
 8092SOL    HW135735   4.599   1.671   4.283 -0.6532  1.0806 -1.8128
 8092SOL    HW235736   4.543   1.554   4.349 -2.5067 -0.6147 -0.1045
 8093SOL     OW35737   1.950   2.530   2.743  0.3798 -0.0728 -0.6644
 8093SOL    HW135738   1.911   2.485   2.819  0.3744  2.4747  0.8333
 8093SOL    HW235739   1.902   2.493   2.669 -0.0536 -0.1775 -0.3387
 8094SOL     OW35740   1.728   2.874  10.826 -0.0327  0.0339 -0.0845
 8094SOL    HW135741   1.818   2.843  10.821  0.0718  0.2663  0.4056
 8094SOL    HW235742   1.696   2.848  10.739  1.4639 -0.1550 -0.5732
 8095SOL     OW35743   0.510   2.177   4.548  0.2050 -0.2660 -0.3986
 8095SOL    HW135744   0.541   2.094   4.513  1.0336  0.4715 -1.4183
 8095SOL    HW235745   0.578   2.238   4.517  0.9588  0.3687  2.4712
 8096SOL     OW35746   3.039   1.717   7.859  0.3262  0.2951 -0.3345
 8096SOL    HW135747   3.037   1.630   7.820 -1.5157 -0.0646  0.5125
 8096SOL    HW235748   3.133   1.732   7.864  0.5374 -1.0555 -0.4302
 8097SOL     OW35749   0.265   0.624   8.415 -0.2382  0.3250 -0.3513
 8097SOL    HW135750   0.267   0.532   8.388  1.5517 -0.2187  1.6515
 8097SOL    HW235751   0.173   0.649   8.412 -0.2604  0.1505 -1.2714
 8098SOL     OW35752   3.899   1.623   0.059 -0.0597  0.3276  0.2877
 8098SOL    HW135753   3.926   1.715   0.064  0.0091  0.3570 -0.7019
 8098SOL    HW235754   3.822   1.629   0.002 -0.6231 -0.7341  0.9300
 8099SOL     OW35755   0.281   0.948  15.083  0.0683 -0.2726  0.1954
 8099SOL    HW135756   0.293   1.031  15.129  1.2847 -0.2796 -0.1031
 8099SOL    HW235757   0.198   0.926  15.125 -1.6129  1.3215 -2.2552
 8100SOL     OW35758   1.135   2.587  16.888 -0.1634 -0.0874  0.2321
 8100SOL    HW135759   1.203   2.534  16.846  1.5535  1.3695  1.1643
 8100SOL    HW235760   1.124   2.660  16.828 -0.6832 -0.0891  0.3251
 8101SOL     OW35761   3.859   3.749   1.472 -0.2452 -0.0177 -0.2432
 8101SOL    HW135762   3.894   3.714   1.389  0.1437  1.7236 -0.8040
 8101SOL    HW235763   3.829   3.672   1.521  1.3977 -0.4470  0.0800
 8102SOL     OW35764   3.506   0.082  13.845  0.3828  0.4377 -0.1613
 8102SOL    HW135765   3.579   0.144  13.840  2.0348 -1.5076 -0.2004
 8102SOL    HW235766   3.442   0.153  13.846  1.4807  1.4162  1.2508
 8103SOL     OW35767   0.698   2.948  10.298 -0.4046 -0.0397 -0.2502
 8103SOL    HW135768   0.677   2.856  10.279 -0.4271 -0.3069  1.0834
 8103SOL    HW235769   0.608   2.980  10.305 -0.2070 -0.4082  3.8724
 8104SOL     OW35770   4.386   0.318  10.869  0.1335 -0.0229  0.1808
 8104SOL    HW135771   4.445   0.282  10.803  2.1633  3.3103  0.1693
 8104SOL    HW235772   4.404   0.411  10.858 -1.1525  0.0089 -1.6906
 8105SOL     OW35773   0.619   4.310   4.758 -0.4377 -0.4048  0.1707
 8105SOL    HW135774   0.593   4.395   4.793  0.6184 -0.3848  0.8701
 8105SOL    HW235775   0.664   4.274   4.834 -0.8456 -1.0038  0.1336
 8106SOL     OW35776   4.429   3.625   6.524  0.0958  0.3211  0.0748
 8106SOL    HW135777   4.374   3.569   6.578  0.1589 -0.3806 -0.5910
 8106SOL    HW235778   4.403   3.587   6.440  0.6378 -1.4009  0.6921
 8107SOL     OW35779   4.021   1.030   8.021 -0.0600 -0.6228  0.0106
 8107SOL    HW135780   3.967   1.021   8.099  2.4291 -2.5032  1.5092
 8107SOL    HW235781   3.955   0.996   7.960  0.5916  0.4200 -1.2777
 8108SOL     OW35782   4.321   4.437   1.184 -0.3995 -0.5028 -0.3167
 8108SOL    HW135783   4.359   4.395   1.107  1.9336  1.8933 -0.4936
 8108SOL    HW235784   4.247   4.475   1.137  0.4872  0.5201 -0.8735
 8109SOL     OW35785   0.607   0.646   8.196 -0.1122  0.3479  0.3572
 8109SOL    HW135786   0.645   0.664   8.110  2.0764 -0.9724  1.0500
 8109SOL    HW235787   0.555   0.724   8.215 -1.3540 -0.3473 -0.2000
 8110SOL     OW35788   3.099   4.566   0.163  0.2007  0.0780 -0.2366
 8110SOL    HW135789   3.178   4.522   0.192  0.1951  0.7155  0.7316
 8110SOL    HW235790   3.044   4.570   0.241 -1.1825 -1.4281 -1.1460
 8111SOL     OW35791   1.234   2.005   8.656  0.0375  0.3176  0.1659
 8111SOL    HW135792   1.224   2.023   8.749 -2.2547 -3.4813  0.6114
 8111SOL    HW235793   1.216   1.911   8.657 -0.1225  0.3673  1.2858
 8112SOL     OW35794   0.038   1.866   1.626  0.2983 -0.0113 -0.4403
 8112SOL    HW135795   0.001   1.927   1.562 -2.2362  0.0124  1.0864
 8112SOL    HW235796   0.115   1.913   1.658 -2.0786  2.8260  1.1161
 8113SOL     OW35797   3.980   0.992  12.248  0.2651  0.1423 -0.3105
 8113SOL    HW135798   3.908   1.051  12.228 -0.8538 -1.5987 -1.4251
 8113SOL    HW235799   4.018   1.033  12.326 -0.0344 -0.5749  0.2233
 8114SOL     OW35800   2.883   0.354   3.833 -0.2796 -0.2591 -0.2846
 8114SOL    HW135801   2.909   0.262   3.835 -2.3237 -0.7904  3.3283
 8114SOL    HW235802   2.943   0.393   3.896  1.0132 -0.2184 -1.5652
 8115SOL     OW35803   2.037   1.537   5.175  0.5621 -0.2553  0.0284
 8115SOL    HW135804   2.068   1.532   5.084  0.7717 -4.5684  0.3430
 8115SOL    HW235805   2.085   1.463   5.210 -0.1897 -1.6514 -1.8894
 8116SOL     OW35806   2.897   3.613   4.407 -0.3434 -0.0454 -0.1038
 8116SOL    HW135807   2.827   3.567   4.453 -1.9257  2.4985  0.0026
 8116SOL    HW235808   2.865   3.607   4.317  0.5452 -2.5497 -0.2616
 8117SOL     OW35809   3.432   0.382   4.127  0.1428  0.1493  0.2065
 8117SOL    HW135810   3.498   0.321   4.093  2.3352  2.4220  0.3724
 8117SOL    HW235811   3.423   0.359   4.219 -3.1848  0.5809 -0.0315
 8118SOL     OW35812   0.046   3.340  17.207 -0.4283  0.8137  0.2319
 8118SOL    HW135813   4.718   3.399  17.151  0.3575  2.3833  1.1918
 8118SOL    HW235814   0.113   3.400  17.241 -0.9046  0.6373  1.4666
 8119SOL     OW35815   2.608   1.576   8.217  0.2364  0.0727 -0.0408
 8119SOL    HW135816   2.686   1.622   8.188 -0.4240 -0.5879 -2.8189
 8119SOL    HW235817   2.622   1.482   8.206 -0.6989 -0.2245  1.2795
 8120SOL     OW35818   2.239   1.168  16.802  0.3512 -0.7671 -0.5093
 8120SOL    HW135819   2.276   1.202  16.883 -0.8093 -1.4168  0.2920
 8120SOL    HW235820   2.234   1.235  16.734 -1.1229 -0.5642 -0.1871
 8121SOL     OW35821   3.019   4.172   9.756 -0.0536  0.0199  0.1713
 8121SOL    HW135822   2.970   4.241   9.800 -1.4144  0.0711 -1.4531
 8121SOL    HW235823   3.073   4.216   9.690  0.4934 -3.2766 -1.5946
 8122SOL     OW35824   0.608   0.340   9.725  0.3995  0.9901  0.2372
 8122SOL    HW135825   0.539   0.276   9.712 -0.8306  2.5539 -0.9834
 8122SOL    HW235826   0.583   0.417   9.674  3.2621  2.5036  1.0810
 8123SOL     OW35827   1.684   3.526  13.946 -0.4944  0.2058 -0.2400
 8123SOL    HW135828   1.766   3.564  13.977 -0.9550  1.3935 -0.4659
 8123SOL    HW235829   1.707   3.528  13.853 -0.0416  0.3954 -0.1266
 8124SOL     OW35830   0.519   2.124   7.058 -0.5779  0.4480 -0.0333
 8124SOL    HW135831   0.506   2.210   7.098  2.0255  1.4668 -1.3346
 8124SOL    HW235832   0.598   2.097   7.106 -1.0071  0.2789  0.5699
 8125SOL     OW35833   3.648   3.414  16.142  0.1888  0.8766 -0.1436
 8125SOL    HW135834   3.705   3.467  16.087  1.7585  0.1243  0.7863
 8125SOL    HW235835   3.600   3.477  16.195 -1.6435 -0.7218  0.1284
 8126SOL     OW35836   4.476   2.507   7.757  0.2452  0.2552 -0.0111
 8126SOL    HW135837   4.514   2.592   7.779 -0.7370  0.8802 -0.7402
 8126SOL    HW235838   4.385   2.533   7.748  0.4121  0.5490 -0.9221
 8127SOL     OW35839   4.494   1.885  11.428 -0.4468  0.0427  0.2288
 8127SOL    HW135840   4.504   1.978  11.405 -0.1965  0.1568  0.7969
 8127SOL    HW235841   4.553   1.885  11.503 -0.2292 -5.6165 -0.0038
 8128SOL     OW35842   2.855   3.369  10.086  0.0545 -0.2384  0.1152
 8128SOL    HW135843   2.947   3.359  10.111 -0.0458  1.5444  1.2005
 8128SOL    HW235844   2.827   3.431  10.154 -1.1319  0.3859 -0.9467
 8129SOL     OW35845   1.856   4.043   4.089  0.7893  0.6369 -0.1503
 8129SOL    HW135846   1.845   4.040   4.184  1.9076  1.6777  0.0176
 8129SOL    HW235847   1.766   4.063   4.064  0.4070  0.5261  1.0906
 8130SOL     OW35848   1.301   3.455  13.577 -0.0764 -0.3802 -0.1545
 8130SOL    HW135849   1.367   3.417  13.520  0.3392  0.7653 -0.4302
 8130SOL    HW235850   1.346   3.468  13.660  0.2675  2.2273 -0.7273
 8131SOL     OW35851   0.206   1.314  17.256 -0.2601 -0.2044 -0.1421
 8131SOL    HW135852   0.230   1.270  17.338 -1.3858 -2.1445 -0.8325
 8131SOL    HW235853   0.252   1.397  17.265 -0.6443  0.1658 -1.6302
 8132SOL     OW35854   1.422   4.677   8.482  0.3484  0.1954  0.2766
 8132SOL    HW135855   1.383   4.656   8.568  0.1126  2.7772  0.7931
 8132SOL    HW235856   1.482   4.605   8.467 -1.2423 -1.3506  1.2005
 8133SOL     OW35857   1.513   0.343   3.882 -0.1337  0.1495  0.1506
 8133SOL    HW135858   1.425   0.371   3.906 -1.2013 -1.4246 -1.9175
 8133SOL    HW235859   1.542   0.407   3.817  0.6645 -0.6788 -0.3150
 8134SOL     OW35860   0.596   4.055   7.502 -0.3640  0.1404  0.7387
 8134SOL    HW135861   0.615   3.976   7.552  0.6107 -0.2679 -0.2721
 8134SOL    HW235862   0.501   4.055   7.516 -0.5955  0.2622 -0.8048
 8135SOL     OW35863   4.321   1.422   2.227  0.0904 -0.0689 -0.0362
 8135SOL    HW135864   4.328   1.337   2.185 -0.4555 -0.7625  1.2843
 8135SOL    HW235865   4.365   1.484   2.168 -0.5008 -0.7409 -1.1804
 8136SOL     OW35866   0.529   2.642   8.359  0.3671  0.2588 -0.3277
 8136SOL    HW135867   0.576   2.597   8.289 -1.6573 -2.5949  0.1744
 8136SOL    HW235868   0.594   2.700   8.400  0.5127 -1.5944  2.0468
 8137SOL     OW35869   0.180   0.467   8.080  0.2353  0.3437  0.0115
 8137SOL    HW135870   0.247   0.472   8.148  0.4874 -3.1735 -0.0004
 8137SOL    HW235871   0.099   0.481   8.130  1.0841  2.8542  0.7106
 8138SOL     OW35872   2.283   2.505   0.832  0.1638  0.0679  0.5482
 8138SOL    HW135873   2.257   2.509   0.924  0.3176  3.5812  0.4369
 8138SOL    HW235874   2.213   2.556   0.791 -0.1718 -0.4669  0.4533
 8139SOL     OW35875   1.675   4.322   5.344  0.1470 -0.5875  0.3029
 8139SOL    HW135876   1.664   4.262   5.418 -2.3167  1.7339  1.8267
 8139SOL    HW235877   1.604   4.381   5.368 -0.1423 -1.9109  2.7697
 8140SOL     OW35878   4.604   3.293   4.119  0.7226  0.5157  0.1188
 8140SOL    HW135879   4.673   3.227   4.119  1.7784  1.6213 -1.1208
 8140SOL    HW235880   4.609   3.322   4.028  0.7339  0.1912  0.0133
 8141SOL     OW35881   1.416   4.030   7.401 -0.1868  0.1778  0.0435
 8141SOL    HW135882   1.366   4.052   7.479  1.0685 -1.4918  1.3201
 8141SOL    HW235883   1.410   4.106   7.343 -0.8439 -0.4013 -0.6530
 8142SOL     OW35884   1.888   3.733   8.599  0.3122  1.0110  0.0941
 8142SOL    HW135885   1.866   3.825   8.586  0.4931  1.0361 -0.0339
 8142SOL    HW235886   1.965   3.749   8.655 -0.2158  1.9573  0.5526
 8143SOL     OW35887   1.123   0.025   5.973 -0.3174 -0.1996 -0.0189
 8143SOL    HW135888   1.083   0.088   6.032 -0.9503  0.7359 -1.4302
 8143SOL    HW235889   1.172   4.696   6.037 -1.9402 -1.3488  0.3109
 8144SOL     OW35890   3.794   0.536   6.586  0.0393  0.1055 -0.3014
 8144SOL    HW135891   3.862   0.540   6.653 -0.9079  0.4064  0.6444
 8144SOL    HW235892   3.719   0.565   6.639 -1.6288 -1.2312 -1.9152
 8145SOL     OW35893   1.242   1.132   4.655 -0.2939 -1.1634 -0.2240
 8145SOL    HW135894   1.208   1.139   4.565 -1.1579 -0.9935  0.1200
 8145SOL    HW235895   1.335   1.151   4.641  0.2211 -0.8964  3.5629
 8146SOL     OW35896   0.124   2.431  11.213  0.5055 -0.4417 -0.0987
 8146SOL    HW135897   0.146   2.524  11.217  0.5754 -0.5902  3.6022
 8146SOL    HW235898   0.161   2.407  11.298  1.4580  1.8786  0.1476
 8147SOL     OW35899   1.734   4.415   2.460  0.2767  0.3605 -0.6884
 8147SOL    HW135900   1.795   4.342   2.449  0.2202  0.5884 -2.5711
 8147SOL    HW235901   1.670   4.390   2.394 -0.6235  2.1113 -0.5050
 8148SOL     OW35902   3.644   0.198   2.490  0.1023  0.1340 -0.4637
 8148SOL    HW135903   3.578   0.244   2.542 -0.2279 -0.6399 -0.2012
 8148SOL    HW235904   3.680   0.138   2.554  0.7297 -1.9750 -2.7955
 8149SOL     OW35905   2.288   2.241  16.276 -0.0710  0.3715 -0.8045
 8149SOL    HW135906   2.257   2.305  16.339  0.8574  0.5711 -0.5459
 8149SOL    HW235907   2.365   2.279  16.233 -0.6434 -0.4577 -2.5876
 8150SOL     OW35908   0.937   1.607  11.825  0.3588 -0.8084 -0.4534
 8150SOL    HW135909   1.026   1.595  11.794  0.4168 -2.3803  0.3047
 8150SOL    HW235910   0.897   1.523  11.800 -1.6241  0.1580 -0.5014
 8151SOL     OW35911   3.881   3.486   4.469  0.2059 -0.5783  0.7329
 8151SOL    HW135912   3.938   3.440   4.531  0.3499 -1.6329 -0.1945
 8151SOL    HW235913   3.803   3.430   4.470 -0.3054  0.1071 -1.9336
 8152SOL     OW35914   1.888   4.474   5.315  0.3840  0.2067 -0.3278
 8152SOL    HW135915   1.883   4.528   5.394 -0.8660 -1.0378  0.4463
 8152SOL    HW235916   1.818   4.412   5.335  0.6052 -0.0449 -0.3295
 8153SOL     OW35917   1.632   0.205   0.011 -0.0670 -0.3455 -0.1514
 8153SOL    HW135918   1.714   0.160   0.032  0.3349  0.2061 -0.5145
 8153SOL    HW235919   1.610   0.228   0.101  2.3698  1.6197 -0.0698
 8154SOL     OW35920   4.560   0.455   5.508 -0.2837 -0.1829  0.5258
 8154SOL    HW135921   4.528   0.365   5.501 -0.5316 -0.2198  2.0712
 8154SOL    HW235922   4.566   0.478   5.415  0.4690  1.8108  1.0757
 8155SOL     OW35923   2.872   4.601   2.508 -0.0066 -0.8950  0.2581
 8155SOL    HW135924   2.968   4.596   2.503 -0.0988 -2.6142  0.1255
 8155SOL    HW235925   2.851   4.641   2.424 -0.5496 -1.0902  0.3026
 8156SOL     OW35926   3.816   3.228   2.663 -0.0290 -0.5814  0.2634
 8156SOL    HW135927   3.751   3.251   2.729 -0.4972  1.3673 -0.8934
 8156SOL    HW235928   3.893   3.203   2.716 -0.7972 -0.4996  1.4156
 8157SOL     OW35929   1.946   0.867  13.691 -0.1252  0.3688 -0.3911
 8157SOL    HW135930   1.974   0.954  13.719 -0.5405  0.2265  0.4674
 8157SOL    HW235931   1.920   0.829  13.775  2.0691  2.2587  1.1385
 8158SOL     OW35932   3.109   2.675   6.351  0.3366 -0.4535  0.1535
 8158SOL    HW135933   3.198   2.708   6.335  1.0097 -2.0421  0.5852
 8158SOL    HW235934   3.069   2.761   6.362 -1.3051 -1.4714  2.2795
 8159SOL     OW35935   1.487   4.488   6.154  0.0433 -0.4103 -0.1815
 8159SOL    HW135936   1.444   4.549   6.214  0.9325 -0.3051  0.3429
 8159SOL    HW235937   1.428   4.412   6.147  1.4487 -1.6304  1.1829
 8160SOL     OW35938   2.956   3.649   3.801 -0.1500 -0.3289 -0.0007
 8160SOL    HW135939   2.871   3.607   3.810 -1.5276  2.2848 -0.6875
 8160SOL    HW235940   2.920   3.738   3.795  2.0508  0.6516  1.1856
 8161SOL     OW35941   0.368   4.464  10.255  0.0701 -0.2372  1.1552
 8161SOL    HW135942   0.450   4.451  10.207 -1.8156 -2.3474 -1.5132
 8161SOL    HW235943   0.387   4.457  10.348  2.6434 -0.3691  0.6120
 8162SOL     OW35944   0.712   1.805   6.974 -0.3742 -0.0070  0.0253
 8162SOL    HW135945   0.792   1.759   6.950  0.0327  0.5044  0.4013
 8162SOL    HW235946   0.741   1.892   7.003  0.7077 -0.6636  0.9181
 8163SOL     OW35947   4.076   4.400  14.178  0.0317  0.0183  0.2554
 8163SOL    HW135948   3.999   4.456  14.189 -0.7758 -0.5836 -2.1979
 8163SOL    HW235949   4.043   4.315  14.208  0.1833 -0.4448 -0.8813
 8164SOL     OW35950   1.727   4.552   7.597 -0.1682 -0.3571 -0.3849
 8164SOL    HW135951   1.740   4.562   7.691 -0.5849 -1.2488 -0.2361
 8164SOL    HW235952   1.742   4.459   7.579 -2.4844 -0.6885 -0.5994
 8165SOL     OW35953   0.196   4.094   5.994 -0.0352 -0.2090 -0.5942
 8165SOL    HW135954   0.280   4.059   6.024  0.4029  0.4662 -1.0295
 8165SOL    HW235955   0.152   4.126   6.073 -0.0254  1.2439 -1.1779
 8166SOL     OW35956   3.911   3.267   0.045  0.6121 -0.4279 -0.2597
 8166SOL    HW135957   3.865   3.287  17.655 -0.7089 -0.1241  0.5758
 8166SOL    HW235958   3.841   3.262   0.109  0.1384 -0.2464 -0.7657
 8167SOL     OW35959   2.480   0.087  13.573 -0.7077 -0.6794 -0.2176
 8167SOL    HW135960   2.563   0.056  13.608 -0.0137  0.1923 -1.0965
 8167SOL    HW235961   2.461   0.164  13.627  1.3085 -1.4903  1.6590
 8168SOL     OW35962   0.773   3.292  10.857  0.3978  0.1774  0.2127
 8168SOL    HW135963   0.699   3.233  10.870  1.7514 -2.1698 -2.5511
 8168SOL    HW235964   0.729   3.366  10.815  0.0269  0.3033  0.8220
 8169SOL     OW35965   4.605   0.402  10.622 -0.6607  0.2002 -0.6122
 8169SOL    HW135966   4.684   0.375  10.669  0.8888 -1.0342 -3.9222
 8169SOL    HW235967   4.563   0.323  10.588 -1.3431  0.1195  0.4100
 8170SOL     OW35968   1.419   4.675   4.826  0.1171 -0.1159  0.7151
 8170SOL    HW135969   1.481   4.610   4.857 -0.8720  0.0716  3.0747
 8170SOL    HW235970   1.351   4.695   4.890 -1.2218  1.9807 -1.3503
 8171SOL     OW35971   1.333   2.474   7.987 -0.0601 -0.7596  0.4465
 8171SOL    HW135972   1.246   2.491   8.025 -0.0534  1.0178 -0.3359
 8171SOL    HW235973   1.305   2.459   7.897 -0.8481 -0.0508  0.5803
 8172SOL     OW35974   2.520   2.710  11.952 -0.3270 -0.2094  0.1065
 8172SOL    HW135975   2.436   2.708  11.905 -0.3879 -1.7595  0.2593
 8172SOL    HW235976   2.539   2.618  11.969  1.2331 -0.0566 -0.8801
 8173SOL     OW35977   2.053   4.368   6.654 -0.7809  0.3568 -0.3937
 8173SOL    HW135978   2.123   4.391   6.716 -0.0869  0.2208 -1.1249
 8173SOL    HW235979   2.011   4.304   6.711 -0.6432 -1.2919 -2.1446
 8174SOL     OW35980   1.516   2.196   4.564  0.2373  0.3420  0.1388
 8174SOL    HW135981   1.608   2.167   4.563 -0.3711 -1.5450 -0.8835
 8174SOL    HW235982   1.474   2.112   4.547 -0.2225 -0.1117  3.4883
 8175SOL     OW35983   2.526   2.266  16.136 -0.4593  0.4089 -0.0183
 8175SOL    HW135984   2.505   2.323  16.062 -0.7791  1.5058  0.9115
 8175SOL    HW235985   2.611   2.240  16.101 -1.2716 -0.1707 -1.5844
 8176SOL     OW35986   1.831   2.612  14.326 -0.1690 -0.2370  0.3979
 8176SOL    HW135987   1.795   2.667  14.396 -2.4046 -0.0520 -0.9124
 8176SOL    HW235988   1.877   2.543  14.374 -1.2033 -2.4837 -1.8606
 8177SOL     OW35989   4.222   3.413  13.581  0.3419 -0.9836  0.0492
 8177SOL    HW135990   4.161   3.429  13.653 -1.8384  1.6831 -2.3529
 8177SOL    HW235991   4.166   3.357  13.527  0.5970 -0.4045 -0.8328
 8178SOL     OW35992   3.228   2.940  10.244 -0.0398  0.2636  0.4188
 8178SOL    HW135993   3.177   3.014  10.212 -0.5053  0.0983  0.7835
 8178SOL    HW235994   3.319   2.969  10.238 -0.4295  0.8140 -2.6668
 8179SOL     OW35995   2.382   0.329   8.645  0.2552 -0.2186  0.3245
 8179SOL    HW135996   2.435   0.257   8.681  0.2841  0.1759  1.0690
 8179SOL    HW235997   2.293   0.308   8.672  0.0407  0.3230  0.0286
 8180SOL     OW35998   2.057   1.918   3.790 -0.0809  0.2480 -0.2416
 8180SOL    HW135999   1.962   1.928   3.786  0.1250  1.0285 -2.9562
 8180SOL    HW236000   2.069   1.858   3.863 -3.5716  1.1355  1.0036
 8181SOL     OW36001   1.984   1.148  13.757  0.2047  0.0682  0.2283
 8181SOL    HW136002   2.036   1.225  13.779 -1.1898  0.4814  2.0347
 8181SOL    HW236003   2.004   1.144  13.664 -0.2467  0.9558  0.0917
 8182SOL     OW36004   1.323   2.860   6.160 -0.3696  0.0870 -0.2745
 8182SOL    HW136005   1.265   2.902   6.098  1.0546 -0.2818 -1.8540
 8182SOL    HW236006   1.284   2.772   6.162 -0.1821 -0.0018 -0.5291
 8183SOL     OW36007   4.592   4.242   0.991 -0.2837  0.0730  0.8124
 8183SOL    HW136008   4.559   4.296   0.919 -0.8963 -1.6993 -0.2510
 8183SOL    HW236009   4.505   4.229   1.028 -2.0882  2.6051 -2.5714
 8184SOL     OW36010   4.210   1.989   3.358 -0.3010  0.1804 -0.6702
 8184SOL    HW136011   4.302   1.970   3.344 -0.6864 -1.8619 -0.3869
 8184SOL    HW236012   4.173   1.917   3.307 -0.4931 -1.8767  2.3646
 8185SOL     OW36013   1.783   0.532   4.406  0.2399  0.1622 -0.3350
 8185SOL    HW136014   1.756   0.475   4.334 -1.2319  0.6259 -0.1397
 8185SOL    HW236015   1.770   0.615   4.359  4.0787  0.7366 -0.3857
 8186SOL     OW36016   1.643   1.836  12.195  0.0621 -0.8395  0.0668
 8186SOL    HW136017   1.651   1.858  12.102  1.5744  0.1280  0.4290
 8186SOL    HW236018   1.729   1.847  12.235  0.2472 -2.5891  0.1767
 8187SOL     OW36019   3.071   0.584   0.365 -0.8933 -0.0754 -0.7646
 8187SOL    HW136020   3.010   0.539   0.424  0.5243  1.1842  1.6439
 8187SOL    HW236021   3.008   0.618   0.301 -2.1014  1.0123  1.0029
 8188SOL     OW36022   4.527   2.622   8.839 -0.6582  0.5561 -0.6690
 8188SOL    HW136023   4.534   2.705   8.790  1.6437 -0.4794 -2.1190
 8188SOL    HW236024   4.438   2.635   8.871 -0.9289 -3.3868  0.1262
 8189SOL     OW36025   4.264   0.050   4.575 -0.1075 -0.2979  0.3343
 8189SOL    HW136026   4.280   0.027   4.667 -0.8067  0.1269  0.5588
 8189SOL    HW236027   4.213   4.695   4.548  2.0389 -1.4854 -0.3316
 8190SOL     OW36028   0.473   0.435  11.309 -1.1978  0.0683 -0.3480
 8190SOL    HW136029   0.423   0.353  11.313 -0.2219 -0.5241 -0.2633
 8190SOL    HW236030   0.466   0.466  11.399  0.5376 -0.8973  0.1195
 8191SOL     OW36031   2.408   2.756   0.090  0.0131  0.1218 -0.4418
 8191SOL    HW136032   2.377   2.829   0.036  1.3261  1.4939  0.6318
 8191SOL    HW236033   2.360   2.773   0.171  3.2963  1.2760  1.2670
 8192SOL     OW36034   2.324   4.595   1.817  0.0530  0.8107 -0.0006
 8192SOL    HW136035   2.320   4.687   1.791  0.0722  1.1559  1.2641
 8192SOL    HW236036   2.377   4.600   1.896 -1.7188 -3.8552  1.4652
 8193SOL     OW36037   1.873   3.161   4.678 -0.6351  0.0743 -0.5160
 8193SOL    HW136038   1.834   3.177   4.592 -0.1194 -1.7434 -1.0858
 8193SOL    HW236039   1.867   3.067   4.691  1.6907  0.2361  1.7266
 8194SOL     OW36040   1.240   2.114   4.743  0.3157  0.0234 -0.0844
 8194SOL    HW136041   1.203   2.039   4.791  0.3588 -1.0892 -1.7769
 8194SOL    HW236042   1.258   2.078   4.656  1.7428 -0.0693  0.2492
 8195SOL     OW36043   0.724   3.181   4.818  0.0858 -0.1776  0.0413
 8195SOL    HW136044   0.786   3.113   4.844 -2.1563 -1.5333  1.8040
 8195SOL    HW236045   0.739   3.182   4.723 -0.0123  0.1682  0.0290
 8196SOL     OW36046   1.755   3.222   2.943 -0.2979 -0.0412  0.3363
 8196SOL    HW136047   1.769   3.150   2.881 -0.6769  0.2450 -0.0868
 8196SOL    HW236048   1.695   3.180   3.004 -2.0053  1.1953 -0.4962
 8197SOL     OW36049   1.211   1.705   6.640  0.1210 -0.7806  0.1270
 8197SOL    HW136050   1.202   1.762   6.717  1.5772  0.1096 -0.3611
 8197SOL    HW236051   1.181   1.625   6.684  0.6122 -0.4221  1.1344
 8198SOL     OW36052   1.165   1.159   1.472 -0.1757 -0.6588 -0.6248
 8198SOL    HW136053   1.150   1.218   1.546 -0.6916 -1.7687  0.1684
 8198SOL    HW236054   1.145   1.074   1.512 -1.5651  1.0658  2.3744
 8199SOL     OW36055   3.792   3.131   6.872 -0.5447  0.0461 -0.0039
 8199SOL    HW136056   3.856   3.137   6.943  0.5073 -0.8602 -0.8681
 8199SOL    HW236057   3.771   3.038   6.862  0.6915 -0.2324 -0.0443
 8200SOL     OW36058   1.602   0.849   4.857  0.3052  0.3250  0.3617
 8200SOL    HW136059   1.665   0.812   4.919  1.7130 -0.2760 -1.4349
 8200SOL    HW236060   1.672   0.866   4.793  0.8379  1.1617  1.1520
 8201SOL     OW36061   2.046   2.506   3.144 -0.0555  0.2138  0.1031
 8201SOL    HW136062   2.134   2.541   3.134  0.9172 -1.6259  2.1774
 8201SOL    HW236063   1.995   2.578   3.108  1.1594  0.5571 -0.9367
 8202SOL     OW36064   4.060   1.570   6.434 -0.9955  0.0302 -0.0687
 8202SOL    HW136065   3.968   1.564   6.460 -1.0890  0.1416 -0.3732
 8202SOL    HW236066   4.050   1.563   6.339 -0.5881 -0.2436 -0.0930
 8203SOL     OW36067   2.941   0.502   8.335 -0.3167  0.8630  0.2746
 8203SOL    HW136068   2.938   0.407   8.344  1.9442  0.6836 -0.6539
 8203SOL    HW236069   2.973   0.532   8.419 -0.7623 -1.3292  1.2242
 8204SOL     OW36070   3.980   2.518   7.577  0.3432  0.3970  0.3019
 8204SOL    HW136071   3.918   2.474   7.519  1.4248  1.7703 -1.8695
 8204SOL    HW236072   3.939   2.491   7.659  1.2705 -0.8057  0.3664
 8205SOL     OW36073   2.293   4.304   2.535  0.2488 -0.2591 -0.1048
 8205SOL    HW136074   2.273   4.282   2.445  3.5280 -0.7413 -0.7375
 8205SOL    HW236075   2.372   4.357   2.517 -1.1674  2.1032  0.5639
 8206SOL     OW36076   2.590   2.717   4.459  0.8795  0.5464  0.2592
 8206SOL    HW136077   2.638   2.782   4.511 -0.8746  1.7523  0.3469
 8206SOL    HW236078   2.504   2.757   4.445  0.8930  0.4514 -0.1146
 8207SOL     OW36079   3.025   3.018  14.491 -0.1658 -0.1467 -0.1689
 8207SOL    HW136080   3.011   2.924  14.480  0.8390 -0.1931 -1.0223
 8207SOL    HW236081   2.961   3.040  14.559 -0.6998 -0.9169 -0.4100
 8208SOL     OW36082   4.555   4.001   1.392  0.0406  0.0184 -0.2012
 8208SOL    HW136083   4.571   3.916   1.433 -1.2320  0.2342  0.7301
 8208SOL    HW236084   4.564   3.981   1.299 -0.6109  0.0152 -0.2607
 8209SOL     OW36085   3.436   2.551   8.349  0.2115  0.4605  0.6798
 8209SOL    HW136086   3.514   2.605   8.341  1.2660 -0.9357  1.3950
 8209SOL    HW236087   3.470   2.476   8.398  0.4711 -0.2974 -0.6599
 8210SOL     OW36088   0.126   1.849  12.365  0.0852  0.4386 -0.3323
 8210SOL    HW136089   0.094   1.877  12.451  2.5931  1.7355  0.1528
 8210SOL    HW236090   0.044   1.852  12.315  1.0992 -0.5407 -2.0548
 8211SOL     OW36091   4.203   0.642  17.579 -0.7355  0.1655  0.0091
 8211SOL    HW136092   4.295   0.642  17.605 -1.1252 -1.8442  1.3717
 8211SOL    HW236093   4.175   0.730  17.603  0.7607  0.6731 -0.1218
 8212SOL     OW36094   2.551   0.632   3.779  0.3546  0.2548 -0.1227
 8212SOL    HW136095   2.610   0.681   3.836 -0.7719  0.8637  0.5240
 8212SOL    HW236096   2.617   0.575   3.739 -0.2707 -0.6013  0.0590
 8213SOL     OW36097   4.605   1.047   8.890 -0.2807 -0.2303  0.1927
 8213SOL    HW136098   4.681   0.997   8.861  0.0274  0.2467  0.1809
 8213SOL    HW236099   4.616   1.123   8.832 -1.9105  0.6110  0.9857
 8214SOL     OW36100   1.338   0.865   2.322 -0.4015  0.0828 -0.1638
 8214SOL    HW136101   1.332   0.805   2.248  0.1732 -0.7490  0.4645
 8214SOL    HW236102   1.390   0.936   2.285 -1.4863  1.2896  0.6185
 8215SOL     OW36103   2.846   1.708   3.815  0.1528 -0.7878 -0.0224
 8215SOL    HW136104   2.925   1.751   3.849  0.1076 -1.3441  0.8015
 8215SOL    HW236105   2.879   1.619   3.797 -0.2938 -0.7258 -1.1476
 8216SOL     OW36106   4.354   3.215   4.742  0.6212  0.0471  0.0230
 8216SOL    HW136107   4.280   3.186   4.688  1.6448  0.1406 -1.4170
 8216SOL    HW236108   4.308   3.219   4.826 -0.1934  3.3815 -0.6021
 8217SOL     OW36109   2.584   1.242   4.318 -0.4985 -0.2217  0.1661
 8217SOL    HW136110   2.606   1.211   4.230 -0.0985 -0.2164  0.2679
 8217SOL    HW236111   2.645   1.189   4.369  0.7317 -0.0186 -1.0849
 8218SOL     OW36112   2.940   1.810   8.691  0.2309  0.2280  0.0894
 8218SOL    HW136113   3.026   1.768   8.684  0.7624  0.8222  2.7529
 8218SOL    HW236114   2.920   1.816   8.598  4.2061  0.4839 -0.7372
 8219SOL     OW36115   4.570   1.748   5.302 -0.7601  0.8061 -0.4293
 8219SOL    HW136116   4.665   1.738   5.305 -0.8595  0.0213 -0.0466
 8219SOL    HW236117   4.562   1.779   5.212  1.5011 -2.9104 -1.8916
 8220SOL     OW36118   1.009   4.707   7.411  0.0226 -0.1890 -0.0666
 8220SOL    HW136119   1.053   0.060   7.451 -0.7666 -1.8736  3.9673
 8220SOL    HW236120   1.013   4.656   7.492 -0.5919 -0.8270 -0.4431
 8221SOL     OW36121   4.594   3.306   3.247 -0.4281 -0.5374  0.3103
 8221SOL    HW136122   4.597   3.319   3.342 -4.6409 -2.4369  0.6916
 8221SOL    HW236123   4.588   3.395   3.213  0.5669 -1.1561 -1.4797
 8222SOL     OW36124   2.539   0.057   2.388  0.2393  0.1008  0.6135
 8222SOL    HW136125   2.586   0.140   2.376  0.5327 -0.0596  0.6502
 8222SOL    HW236126   2.556   0.005   2.309  0.6141  1.4192 -0.1737
 8223SOL     OW36127   3.417   0.137   4.598 -0.0013  0.8558  0.2159
 8223SOL    HW136128   3.412   0.083   4.677 -1.0465  0.1258 -0.3474
 8223SOL    HW236129   3.329   0.120   4.563  0.2906  1.3730 -0.7729
 8224SOL     OW36130   3.759   1.620  14.220  0.1858  0.4868 -0.1338
 8224SOL    HW136131   3.829   1.556  14.203  0.0391  0.4127 -0.4685
 8224SOL    HW236132   3.805   1.659  14.294 -0.3119  1.2523 -0.2330
 8225SOL     OW36133   1.245   1.048  17.060 -0.1605  0.1313 -0.8309
 8225SOL    HW136134   1.233   1.116  17.127  1.4149 -1.2772  0.9076
 8225SOL    HW236135   1.320   1.078  17.009 -0.5016  0.4938 -1.1135
 8226SOL     OW36136   3.134   3.920   6.559  0.0542 -0.1805 -0.2367
 8226SOL    HW136137   3.091   3.921   6.645  0.8647  2.6636  0.1455
 8226SOL    HW236138   3.074   3.968   6.501  0.9617  1.1392 -0.0906
 8227SOL     OW36139   2.157   1.009   2.013  0.8662  0.1635 -0.0924
 8227SOL    HW136140   2.119   1.055   1.938  2.2497 -1.6460 -1.8684
 8227SOL    HW236141   2.109   1.044   2.088  1.2099 -2.5260  1.3709
 8228SOL     OW36142   3.149   3.450  12.447 -0.4903  0.0135 -0.0854
 8228SOL    HW136143   3.132   3.491  12.362  0.2552  0.0905 -0.1905
 8228SOL    HW236144   3.149   3.533  12.496 -1.3124 -1.2329  2.0629
 8229SOL     OW36145   1.582   4.310   3.518  1.0264 -0.5898 -0.0083
 8229SOL    HW136146   1.591   4.371   3.592  0.2828 -2.0163  1.2454
 8229SOL    HW236147   1.554   4.377   3.455  3.0887 -1.1574 -1.5553
 8230SOL     OW36148   2.569   0.475  11.358 -0.1102  0.2090  0.4735
 8230SOL    HW136149   2.566   0.384  11.387 -1.2381 -0.5081 -1.9123
 8230SOL    HW236150   2.633   0.468  11.287  0.0692  1.2759  0.5289
 8231SOL     OW36151   4.483   4.366   3.714 -0.0234 -0.0021  0.4659
 8231SOL    HW136152   4.473   4.319   3.631 -3.3083  1.7598 -0.1012
 8231SOL    HW236153   4.534   4.305   3.767 -0.5583  0.1409  1.1474
 8232SOL     OW36154   1.661   3.390  15.734 -0.0146 -0.1064 -0.4126
 8232SOL    HW136155   1.643   3.372  15.642  0.5675  0.0983 -0.5643
 8232SOL    HW236156   1.752   3.363  15.744  0.3113  1.7616  1.6209
 8233SOL     OW36157   3.728   2.700   0.590  0.2471  0.4116 -0.1314
 8233SOL    HW136158   3.764   2.648   0.662 -0.4864  0.2237  0.0938
 8233SOL    HW236159   3.653   2.648   0.562  0.7515 -1.1358  1.4105
 8234SOL     OW36160   4.482   0.706   3.992 -0.7494 -0.2373 -0.2602
 8234SOL    HW136161   4.542   0.717   3.918  2.1105 -1.3491  1.8962
 8234SOL    HW236162   4.527   0.640   4.045  1.5623  1.5782  0.0230
 8235SOL     OW36163   3.857   2.635   0.843 -0.2530  0.8505  0.2580
 8235SOL    HW136164   3.877   2.728   0.832  0.7113  0.8319  1.9231
 8235SOL    HW236165   3.935   2.598   0.883 -1.2072 -0.7266  0.6367
 8236SOL     OW36166   3.497   1.678   7.741 -0.1002  0.3409  0.4024
 8236SOL    HW136167   3.519   1.762   7.782 -2.1568  1.0310  0.0744
 8236SOL    HW236168   3.407   1.691   7.712 -0.3177 -0.0115  0.9048
 8237SOL     OW36169   3.099   2.079   0.951 -0.4460  0.2927 -1.0316
 8237SOL    HW136170   3.192   2.056   0.959 -0.0365  2.4306  0.2137
 8237SOL    HW236171   3.064   2.029   0.877 -1.9268  1.5874 -1.1981
 8238SOL     OW36172   0.971   3.238   1.688 -0.3961 -0.8060 -0.3420
 8238SOL    HW136173   1.049   3.224   1.636  0.7776 -0.5746  1.3409
 8238SOL    HW236174   0.966   3.332   1.670 -0.8875 -0.9475 -0.9401
 8239SOL     OW36175   2.464   0.349  10.860 -0.2222  0.1696 -0.3116
 8239SOL    HW136176   2.547   0.331  10.904 -0.9398  1.1669  1.4082
 8239SOL    HW236177   2.410   0.357  10.938  0.2801 -0.2095  0.0690
 8240SOL     OW36178   0.567   0.529   0.082  0.4174 -0.0407  0.0850
 8240SOL    HW136179   0.536   0.538  17.683 -1.5295  0.4107  0.7997
 8240SOL    HW236180   0.484   0.524   0.129 -0.1002 -1.9067 -1.0320
 8241SOL     OW36181   1.522   1.555   7.990  0.7929  0.0505 -0.1089
 8241SOL    HW136182   1.570   1.638   7.996  1.0509 -0.1744  0.8416
 8241SOL    HW236183   1.516   1.545   7.895 -1.1720 -2.4073  0.2817
 8242SOL     OW36184   2.045   1.139   8.451 -0.0289  0.1899  0.3799
 8242SOL    HW136185   2.005   1.225   8.454 -1.6130 -0.5610  0.6164
 8242SOL    HW236186   2.091   1.127   8.534 -1.3412 -0.0950  1.0632
 8243SOL     OW36187   1.272   3.152   1.294 -0.4648 -0.0928 -0.0883
 8243SOL    HW136188   1.317   3.090   1.351 -1.1533 -0.5535 -0.0455
 8243SOL    HW236189   1.182   3.118   1.286 -0.4278  0.0297 -1.0666
 8244SOL     OW36190   2.868   1.594   8.378 -0.2245  0.3933  0.2196
 8244SOL    HW136191   2.816   1.674   8.387 -1.3711 -0.6107  2.4838
 8244SOL    HW236192   2.824   1.529   8.432 -0.0150  0.1804  0.1331
 8245SOL     OW36193   2.285   1.934   7.782 -0.2004  0.4219 -0.4074
 8245SOL    HW136194   2.336   1.925   7.702  1.6606  0.0673  0.8138
 8245SOL    HW236195   2.347   1.972   7.843 -1.1038  0.4845  0.4831
 8246SOL     OW36196   1.701   1.462   6.886 -0.6163 -0.3716  0.3406
 8246SOL    HW136197   1.727   1.479   6.977  0.3687  0.1541 -0.0458
 8246SOL    HW236198   1.610   1.436   6.903 -0.2479 -1.4914  0.5914
 8247SOL     OW36199   0.706   1.335   6.809  0.4117  0.0482  0.3951
 8247SOL    HW136200   0.717   1.263   6.747  1.7285 -1.5486  2.4559
 8247SOL    HW236201   0.620   1.326   6.851 -0.4315  0.7336 -1.2235
 8248SOL     OW36202   3.363   1.927   8.451 -0.9196 -0.1967  0.0815
 8248SOL    HW136203   3.281   1.945   8.497 -0.5777 -1.1739  1.0854
 8248SOL    HW236204   3.386   1.847   8.499 -2.1879  0.2520  1.4077
 8249SOL     OW36205   3.528   4.106   5.674 -0.6011  0.0166  0.2432
 8249SOL    HW136206   3.601   4.046   5.691 -0.9957  0.2581  2.7698
 8249SOL    HW236207   3.456   4.044   5.683  0.6735 -1.4010  0.6647
 8250SOL     OW36208   3.963   3.360  15.001  0.0729  0.2227  0.1370
 8250SOL    HW136209   3.980   3.340  14.910 -2.2342 -1.7717  0.1493
 8250SOL    HW236210   3.899   3.431  14.999  0.4624  0.5630 -0.0581
 8251SOL     OW36211   1.252   2.637   2.852 -0.0026 -0.1923  0.4866
 8251SOL    HW136212   1.175   2.599   2.895  0.5315 -0.9401  0.7643
 8251SOL    HW236213   1.225   2.708   2.793  0.0543 -0.2136  0.4343
 8252SOL     OW36214   4.196   2.921   2.640  0.2676  0.0405  0.3586
 8252SOL    HW136215   4.217   2.935   2.548 -1.0423 -1.2560 -0.1496
 8252SOL    HW236216   4.147   2.840   2.625 -1.0684  1.4125 -2.5540
 8253SOL     OW36217   0.339   4.486   5.402  0.3684 -0.3130 -0.2744
 8253SOL    HW136218   0.300   4.447   5.480 -0.2436  2.2472  0.7064
 8253SOL    HW236219   0.419   4.523   5.439 -0.3324  0.1260  0.7980
 8254SOL     OW36220   1.764   0.749   5.469  0.4226 -0.2149 -0.2650
 8254SOL    HW136221   1.693   0.702   5.425 -0.3184  0.6500  0.0073
 8254SOL    HW236222   1.818   0.771   5.393 -1.6225 -0.7499 -1.8414
 8255SOL     OW36223   3.000   0.115   3.690 -0.2756  0.0762 -0.0829
 8255SOL    HW136224   2.906   0.102   3.682  0.1217 -2.8207 -0.0713
 8255SOL    HW236225   3.038   0.060   3.621  2.2560  0.9403  0.6070
 8256SOL     OW36226   0.847   0.229   1.216 -0.1295  0.2733 -0.1829
 8256SOL    HW136227   0.827   0.163   1.282  0.6482 -1.2549 -1.4605
 8256SOL    HW236228   0.826   0.191   1.130 -2.5080  2.8880 -0.7231
 8257SOL     OW36229   2.958   1.459   3.867 -0.2363  0.7587  0.6029
 8257SOL    HW136230   2.878   1.406   3.871 -0.1800  0.6950  0.9389
 8257SOL    HW236231   2.998   1.447   3.953 -0.4022 -2.9489  0.1584
 8258SOL     OW36232   0.316   4.040   1.849 -0.2735 -0.0172  0.5576
 8258SOL    HW136233   0.352   4.072   1.931 -0.5153 -0.3749  0.8054
 8258SOL    HW236234   0.244   4.099   1.828 -0.6910 -0.2766  1.2563
 8259SOL     OW36235   3.246   0.213   6.626 -0.6813 -0.3717  0.1172
 8259SOL    HW136236   3.282   0.302   6.621  1.2593 -1.3050 -2.4334
 8259SOL    HW236237   3.240   0.207   6.721 -1.5453  3.8457  0.3426
 8260SOL     OW36238   0.694   3.576  14.306  0.4803 -0.3039  0.4141
 8260SOL    HW136239   0.731   3.645  14.361  0.3484  0.1195 -0.0278
 8260SOL    HW236240   0.707   3.615  14.219 -0.8914 -1.9438 -0.5169
 8261SOL     OW36241   1.313   2.766   7.216  0.2745  0.0174  0.0464
 8261SOL    HW136242   1.265   2.829   7.270  1.4193  1.9159 -1.1419
 8261SOL    HW236243   1.285   2.682   7.252 -1.6847 -0.3443 -2.3371
 8262SOL     OW36244   1.950   0.343   1.409 -0.0153  0.5965 -0.1604
 8262SOL    HW136245   1.892   0.273   1.437  0.5367 -0.9006 -2.7201
 8262SOL    HW236246   1.912   0.364   1.324  0.1858  1.2221 -0.0965
 8263SOL     OW36247   3.250   0.738   6.167  0.3137  0.5050  0.3680
 8263SOL    HW136248   3.333   0.780   6.185  0.0074  1.5290 -0.5604
 8263SOL    HW236249   3.272   0.660   6.116  1.0791  0.6029  0.5480
 8264SOL     OW36250   2.354   4.570   2.247 -0.3424 -0.1913 -0.1397
 8264SOL    HW136251   2.431   4.573   2.190  0.4223  1.5266  0.9964
 8264SOL    HW236252   2.316   4.493   2.206 -0.4975  0.1220 -0.5856
 8265SOL     OW36253   4.270   1.027   8.249 -0.1149  0.6691 -0.0772
 8265SOL    HW136254   4.231   0.940   8.259  0.8816  0.5194  2.5952
 8265SOL    HW236255   4.232   1.076   8.321  1.5903  0.7932  0.7552
 8266SOL     OW36256   3.895   1.323  15.218 -0.5520  0.2845  0.0891
 8266SOL    HW136257   3.917   1.376  15.141  1.4813  0.0342  0.5157
 8266SOL    HW236258   3.971   1.346  15.272  1.1166 -1.2044 -1.6234
 8267SOL     OW36259   1.265   2.448  10.348 -0.2482 -0.8648 -0.2786
 8267SOL    HW136260   1.343   2.474  10.398 -1.4947 -1.0536  1.7140
 8267SOL    HW236261   1.209   2.525  10.355 -1.1455 -1.6731  1.2212
 8268SOL     OW36262   2.560   2.239   5.391 -0.1037 -0.2862  0.2123
 8268SOL    HW136263   2.578   2.326   5.426  1.1900 -1.4543  2.4798
 8268SOL    HW236264   2.616   2.246   5.313  2.5199 -1.4994  1.9715
 8269SOL     OW36265   2.803   0.556  16.253 -0.2576  0.4545 -0.6297
 8269SOL    HW136266   2.794   0.470  16.294  0.2267  0.5002 -0.4321
 8269SOL    HW236267   2.876   0.532  16.195 -0.6680  0.1629 -1.0241
 8270SOL     OW36268   2.727   4.625   6.690 -0.3297 -0.2422 -0.0244
 8270SOL    HW136269   2.712   4.719   6.697 -1.9266 -0.3821 -1.7575
 8270SOL    HW236270   2.742   4.600   6.782  0.1276  1.0991  0.2611
 8271SOL     OW36271   2.183   3.090   0.407  0.3780  0.5016 -0.2715
 8271SOL    HW136272   2.229   3.172   0.424  0.1569  0.4649  0.5220
 8271SOL    HW236273   2.097   3.131   0.418 -0.0192 -0.6556  0.9802
 8272SOL     OW36274   2.260   1.541   3.245 -0.0887 -0.0903 -0.1747
 8272SOL    HW136275   2.282   1.451   3.220  3.1203  0.8732 -0.7978
 8272SOL    HW236276   2.175   1.532   3.289 -1.7667  0.1597 -3.3333
 8273SOL     OW36277   4.025   0.178   6.195  0.0546 -0.0617  0.1444
 8273SOL    HW136278   3.976   0.120   6.253 -0.3472 -1.7358 -1.8765
 8273SOL    HW236279   3.957   0.186   6.128  1.6670 -1.0411 -1.6165
 8274SOL     OW36280   1.999   3.489   5.908 -0.6499  0.3098  0.3622
 8274SOL    HW136281   2.044   3.550   5.850  0.6825 -2.0160 -1.0680
 8274SOL    HW236282   1.915   3.529   5.931 -0.6646  1.7835 -2.3600
 8275SOL     OW36283   0.498   3.484   6.893  0.3475 -0.8669  0.0676
 8275SOL    HW136284   0.452   3.458   6.813 -0.8132 -0.8109  0.7185
 8275SOL    HW236285   0.585   3.477   6.854 -0.2044  0.2348 -1.3387
 8276SOL     OW36286   1.812   2.360  10.694 -0.0301 -0.5186 -0.2695
 8276SOL    HW136287   1.875   2.419  10.736 -0.7726 -1.1479  1.7023
 8276SOL    HW236288   1.737   2.366  10.754 -0.1383  0.8284 -0.5418
 8277SOL     OW36289   4.439   0.602   6.220 -0.6890  0.1516 -0.2588
 8277SOL    HW136290   4.489   0.521   6.214 -1.1249 -0.2721  1.7550
 8277SOL    HW236291   4.383   0.585   6.296 -0.0078  0.1692  0.2560
 8278SOL     OW36292   0.207   4.456   9.096 -0.2899  0.1244 -0.1583
 8278SOL    HW136293   0.229   4.413   9.014  0.0949  1.5912 -0.8218
 8278SOL    HW236294   0.212   4.381   9.156  1.3800  0.8491  0.6297
 8279SOL     OW36295   4.502   0.414   3.426  0.3401  0.0888  0.3331
 8279SOL    HW136296   4.480   0.327   3.457 -0.6699 -0.3324 -1.5380
 8279SOL    HW236297   4.569   0.444   3.487  2.9516 -1.3787 -1.7953
 8280SOL     OW36298   1.692   2.066   7.967 -0.1129  0.5432  0.7018
 8280SOL    HW136299   1.661   2.147   7.928 -1.3683 -0.8549 -1.2061
 8280SOL    HW236300   1.729   2.094   8.051  1.3606 -1.4963  0.7350
 8281SOL     OW36301   3.167   2.450   6.172 -0.3645  0.4370 -0.4276
 8281SOL    HW136302   3.080   2.411   6.169 -0.0563 -0.5307  2.7573
 8281SOL    HW236303   3.146   2.532   6.216  1.1424 -0.6131  2.2698
 8282SOL     OW36304   3.079   1.758  12.630 -0.2812 -0.5842 -0.1988
 8282SOL    HW136305   3.098   1.795  12.543  0.3784  1.2393  0.7026
 8282SOL    HW236306   2.994   1.717  12.616 -0.4614 -0.7332  1.3348
 8283SOL     OW36307   2.307   3.853   7.185 -0.1188 -0.1075 -0.3733
 8283SOL    HW136308   2.382   3.799   7.161  0.2987  0.0165  0.6414
 8283SOL    HW236309   2.278   3.893   7.102 -1.5258  1.2864  0.7916
 8284SOL     OW36310   3.617   1.098   2.495 -0.4351  0.2712  0.1085
 8284SOL    HW136311   3.635   1.017   2.446 -0.2805  1.3779 -1.6615
 8284SOL    HW236312   3.656   1.083   2.581  0.3573 -0.8055 -0.4399
 8285SOL     OW36313   4.310   3.440   6.369  0.0647  0.1561 -0.1007
 8285SOL    HW136314   4.215   3.440   6.360  0.0804  1.7166 -0.1545
 8285SOL    HW236315   4.312   3.401   6.457 -3.0675  0.9004  0.3084
 8286SOL     OW36316   1.412   3.262   7.627 -0.5348  0.3558 -0.7098
 8286SOL    HW136317   1.482   3.263   7.693 -0.3472 -0.8447 -0.9040
 8286SOL    HW236318   1.341   3.298   7.680  0.4621  0.2262  0.7222
 8287SOL     OW36319   0.604   0.543   1.959  0.0173  0.0350  0.3807
 8287SOL    HW136320   0.643   0.466   2.002 -1.7408 -0.8851  0.3598
 8287SOL    HW236321   0.625   0.547   1.866  2.0765  0.6848  0.8709
 8288SOL     OW36322   3.658   2.022   4.186  0.3318 -0.5403  0.0773
 8288SOL    HW136323   3.679   2.060   4.271  1.5413 -2.7785  0.7773
 8288SOL    HW236324   3.574   2.065   4.170  0.5036  0.6896  2.3707
 8289SOL     OW36325   2.642   4.434   4.609  0.3043  0.0572 -0.2212
 8289SOL    HW136326   2.663   4.361   4.551 -0.5987 -0.8896  0.6367
 8289SOL    HW236327   2.648   4.399   4.698 -0.9282  0.0110 -0.1616
 8290SOL     OW36328   4.611   3.329   4.689 -0.1283  0.0948 -0.4167
 8290SOL    HW136329   4.526   3.298   4.722 -0.0452  1.5486  1.1906
 8290SOL    HW236330   4.592   3.333   4.596  0.2363 -0.6866 -0.5206
 8291SOL     OW36331   3.784   2.868  15.129  0.1532 -0.4964  0.3034
 8291SOL    HW136332   3.694   2.877  15.097 -0.7514 -1.6296  2.5141
 8291SOL    HW236333   3.812   2.959  15.122  0.0186 -0.4701  0.1173
 8292SOL     OW36334   0.410   1.009   8.648 -0.0597 -0.2650  0.2310
 8292SOL    HW136335   0.471   1.046   8.584 -0.9165 -1.4863 -1.2795
 8292SOL    HW236336   0.419   0.914   8.645  3.3310  0.1740 -3.3801
 8293SOL     OW36337   2.534   0.928  13.002  0.3602 -0.5923 -0.2135
 8293SOL    HW136338   2.517   0.980  12.924 -0.7936  3.0392  2.4517
 8293SOL    HW236339   2.580   0.852  12.967  0.8491  0.1234 -1.1190
 8294SOL     OW36340   1.618   0.554   2.653 -0.1344 -0.3665 -0.0095
 8294SOL    HW136341   1.528   0.584   2.662  0.0044 -0.1125  0.4630
 8294SOL    HW236342   1.612   0.462   2.679  0.6566 -0.0058  1.4177
 8295SOL     OW36343   2.736   1.912   8.902  0.2935 -0.4088 -0.0431
 8295SOL    HW136344   2.646   1.907   8.870 -0.8698 -1.6531  3.3318
 8295SOL    HW236345   2.795   1.913   8.827  0.7214 -2.7322  0.2728
 8296SOL     OW36346   4.203   0.460   8.205  0.0167 -0.7164  0.4040
 8296SOL    HW136347   4.287   0.434   8.242  0.0264 -1.0784  0.1294
 8296SOL    HW236348   4.203   0.417   8.119 -0.5671  2.1909 -1.0301
 8297SOL     OW36349   1.548   0.902   4.534 -0.5104  0.2348  0.0357
 8297SOL    HW136350   1.623   0.891   4.593 -1.3505 -2.3172  0.6129
 8297SOL    HW236351   1.530   0.996   4.544 -0.0182  0.2977  0.3470
 8298SOL     OW36352   3.616   0.123  10.910  0.3905  0.0177 -0.5873
 8298SOL    HW136353   3.595   0.074  10.831  1.8342 -1.2019 -0.2092
 8298SOL    HW236354   3.568   0.071  10.974 -2.1239  0.0556 -2.4611
 8299SOL     OW36355   3.906   2.032   5.695 -0.3141  0.6207  0.6811
 8299SOL    HW136356   3.848   2.014   5.620 -1.5972 -0.2884  1.8888
 8299SOL    HW236357   3.992   2.019   5.655  0.3790 -0.8471  2.6925
 8300SOL     OW36358   1.357   2.072   6.807  0.4110 -0.0395 -0.4673
 8300SOL    HW136359   1.274   2.030   6.783 -0.3911  0.0112  2.2656
 8300SOL    HW236360   1.400   2.011   6.868 -2.1367  0.8103  2.1750
 8301SOL     OW36361   0.509   1.535   8.154  0.2914 -0.0137  0.7918
 8301SOL    HW136362   0.421   1.502   8.138  1.0702  0.0397 -3.6291
 8301SOL    HW236363   0.550   1.547   8.069  0.4930 -0.6764  0.8029
 8302SOL     OW36364   1.180   0.849   0.950 -0.6647 -0.3286  0.9289
 8302SOL    HW136365   1.147   0.890   1.030 -0.9582 -1.6341  1.4688
 8302SOL    HW236366   1.094   0.829   0.911 -0.1156  0.2507 -0.5846
 8303SOL     OW36367   2.537   2.458  15.425 -0.0551  0.3095 -0.3850
 8303SOL    HW136368   2.514   2.478  15.335  2.5109  2.4632 -0.5842
 8303SOL    HW236369   2.485   2.378  15.429 -0.1884  0.3227 -1.9629
 8304SOL     OW36370   3.620   3.732  10.295  0.1381  0.0450 -0.3554
 8304SOL    HW136371   3.560   3.726  10.369 -1.0437  0.7906 -1.2602
 8304SOL    HW236372   3.589   3.669  10.231 -3.5531 -0.9658  2.4534
 8305SOL     OW36373   2.180   1.410  13.701  0.8356  0.5073 -0.1116
 8305SOL    HW136374   2.181   1.426  13.795  0.7232  1.6603 -0.3020
 8305SOL    HW236375   2.168   1.500  13.670 -0.7479 -0.4432 -2.2330
 8306SOL     OW36376   2.919   2.177   4.149 -0.1833  0.2866  0.4579
 8306SOL    HW136377   2.827   2.179   4.127  0.5183 -1.9087 -2.6300
 8306SOL    HW236378   2.912   2.122   4.228  0.7683 -0.8901 -0.2617
 8307SOL     OW36379   1.796   2.176   6.375 -0.6609 -0.1130 -0.0492
 8307SOL    HW136380   1.721   2.169   6.434 -1.7705  0.3725 -1.4081
 8307SOL    HW236381   1.861   2.118   6.415  0.4435  2.1141  1.3606
 8308SOL     OW36382   0.228   4.046  12.967  0.3897 -0.2349  0.4614
 8308SOL    HW136383   0.305   3.992  12.949 -0.8976 -1.4958 -1.2651
 8308SOL    HW236384   0.179   4.013  13.043 -0.4731  0.4663  0.2043
 8309SOL     OW36385   2.945   2.706  11.453  0.0285 -0.6452  0.2265
 8309SOL    HW136386   2.854   2.701  11.424  0.2606 -1.0676 -0.4370
 8309SOL    HW236387   2.963   2.612  11.458  0.8463 -0.5113 -0.1891
 8310SOL     OW36388   3.471   3.768   5.179 -0.3698 -0.1306  0.7969
 8310SOL    HW136389   3.463   3.740   5.088  0.2273  0.5798  0.5231
 8310SOL    HW236390   3.545   3.829   5.173 -0.1930 -0.3174  1.0699
 8311SOL     OW36391   4.033   2.451  17.186 -0.2072 -0.4497  0.1200
 8311SOL    HW136392   3.971   2.394  17.232 -1.8775  0.4124 -1.1101
 8311SOL    HW236393   3.979   2.485  17.115 -2.0310 -1.4632  1.0201
 8312SOL     OW36394   0.885   1.774  13.404  0.7894 -0.5340  0.1419
 8312SOL    HW136395   0.965   1.755  13.355  1.1490  1.8513 -0.1841
 8312SOL    HW236396   0.830   1.818  13.339  0.1010 -2.0131 -0.2700
 8313SOL     OW36397   2.460   3.835  11.355  0.3780  0.0999  0.0207
 8313SOL    HW136398   2.526   3.802  11.416 -2.0578 -2.6610  1.1069
 8313SOL    HW236399   2.380   3.808  11.399  1.1597 -1.4779  0.4592
 8314SOL     OW36400   2.197   4.338   6.890 -0.1642  0.1470  0.6318
 8314SOL    HW136401   2.165   4.322   6.978 -0.2664 -3.2500 -0.0315
 8314SOL    HW236402   2.285   4.302   6.892 -0.1282  0.2693  1.1473
 8315SOL     OW36403   0.363   0.803  10.387  0.7166 -0.4395  0.3870
 8315SOL    HW136404   0.353   0.785  10.481 -0.9614 -0.8823  0.1194
 8315SOL    HW236405   0.427   0.738  10.357 -0.8231 -1.3033 -1.0183
 8316SOL     OW36406   3.975   3.667   1.005  0.2552  0.4366 -0.2347
 8316SOL    HW136407   4.028   3.589   0.987 -0.5395  0.1269 -1.2520
 8316SOL    HW236408   3.952   3.699   0.918  2.5100  2.6586 -0.0043
 8317SOL     OW36409   1.729   4.646   4.590  0.1245 -0.1765  0.4083
 8317SOL    HW136410   1.757   4.663   4.679 -0.3232  0.8724  0.3473
 8317SOL    HW236411   1.655   4.708   4.591  1.2766  1.1898  1.1596
 8318SOL     OW36412   0.423   3.683   0.212 -0.3289  0.2227  0.1236
 8318SOL    HW136413   0.344   3.735   0.198  0.8715  1.9205 -0.3461
 8318SOL    HW236414   0.490   3.745   0.241  1.0773 -1.1365 -0.2305
 8319SOL     OW36415   0.940   3.865   2.452 -0.0439  0.4164 -0.1299
 8319SOL    HW136416   0.913   3.903   2.369 -1.4907 -0.1031  0.1032
 8319SOL    HW236417   0.856   3.853   2.496  1.0001  2.0481  2.3134
 8320SOL     OW36418   1.308   2.094   8.916  0.4516  0.1222 -0.4308
 8320SOL    HW136419   1.272   2.043   8.988 -0.7984  2.6540  0.7190
 8320SOL    HW236420   1.403   2.101   8.931  0.4488 -0.9427  0.0606
 8321SOL     OW36421   0.613   1.990   5.835  0.8858 -0.2070  0.1334
 8321SOL    HW136422   0.662   2.061   5.875  1.0670  0.2962 -0.9647
 8321SOL    HW236423   0.559   2.038   5.772  1.2269  0.9554  0.7461
 8322SOL     OW36424   2.778   0.133   8.154 -0.0220  0.5199 -0.4108
 8322SOL    HW136425   2.765   0.084   8.073  1.3121 -1.9799  0.9203
 8322SOL    HW236426   2.783   0.076   8.230  1.4967  0.7745 -0.3223
 8323SOL     OW36427   3.836   0.167   8.874  0.0480 -0.3634 -0.3281
 8323SOL    HW136428   3.872   0.204   8.793  0.2164 -1.0987 -0.5918
 8323SOL    HW236429   3.917   0.154   8.924  0.2517  0.5399 -0.4188
 8324SOL     OW36430   4.618   3.288   1.372 -0.0469 -0.2147 -0.0421
 8324SOL    HW136431   4.539   3.321   1.330 -0.1038  0.6199  0.7057
 8324SOL    HW236432   4.602   3.322   1.461  2.9983 -0.2889  0.5306
 8325SOL     OW36433   0.378   0.510   9.290  0.3212 -0.3362  0.3031
 8325SOL    HW136434   0.373   0.496   9.195  0.7129 -0.4133  0.2931
 8325SOL    HW236435   0.298   0.465   9.319  0.4964 -2.4478 -2.4656
 8326SOL     OW36436   1.520   3.227   3.426  0.4432  0.3199 -0.3817
 8326SOL    HW136437   1.537   3.319   3.445  1.2150 -0.1919  1.4326
 8326SOL    HW236438   1.590   3.191   3.481 -0.0960  0.1288  0.1859
 8327SOL     OW36439   2.348   1.516  16.418  0.3650 -0.4344 -0.2701
 8327SOL    HW136440   2.280   1.523  16.350  1.2603  0.8106 -1.0384
 8327SOL    HW236441   2.394   1.593  16.385  1.6238 -1.1322 -0.1115
 8328SOL     OW36442   3.498   4.158  16.861  0.2312  0.2702 -0.7245
 8328SOL    HW136443   3.537   4.238  16.898 -2.5411  0.5996  1.4940
 8328SOL    HW236444   3.542   4.088  16.909  0.4890  1.5041  0.8220
 8329SOL     OW36445   1.669   2.698   7.108 -0.1951  0.3422 -0.1120
 8329SOL    HW136446   1.736   2.696   7.039 -0.2593 -0.2241 -0.1618
 8329SOL    HW236447   1.703   2.757   7.175  0.4039  0.5630 -0.6050
 8330SOL     OW36448   2.226   3.064   4.414  0.9047  0.4486  0.1180
 8330SOL    HW136449   2.263   3.118   4.483  3.8666  1.6622 -2.4051
 8330SOL    HW236450   2.141   3.108   4.402  0.0310 -1.9140 -2.3376
 8331SOL     OW36451   0.827   3.831  12.835  0.8777 -0.5281 -0.2723
 8331SOL    HW136452   0.877   3.768  12.782 -1.5508 -2.5577 -0.1989
 8331SOL    HW236453   0.871   3.915  12.830 -1.0968  0.5275  0.1208
 8332SOL     OW36454   0.172   1.735   5.627 -0.3381  0.3889  0.5484
 8332SOL    HW136455   0.225   1.698   5.698  1.1249  0.2655 -0.6124
 8332SOL    HW236456   0.222   1.706   5.551 -1.3206  1.3542 -0.4653
 8333SOL     OW36457   1.124   2.917   1.845 -0.5280 -0.0821  0.6280
 8333SOL    HW136458   1.136   2.836   1.796  2.0030  1.5413 -1.4557
 8333SOL    HW236459   1.061   2.893   1.914 -0.6582  1.3667  1.0280
 8334SOL     OW36460   0.321   0.553   1.404  0.1464 -0.1045  0.2286
 8334SOL    HW136461   0.262   0.614   1.359 -0.7785 -1.9115 -1.0404
 8334SOL    HW236462   0.264   0.477   1.420  0.8558 -0.8505 -0.7619
 8335SOL     OW36463   1.866   1.170   3.575 -0.4782 -0.3835 -0.4924
 8335SOL    HW136464   1.774   1.165   3.550 -0.5424  0.8646 -0.5235
 8335SOL    HW236465   1.883   1.084   3.611 -2.3748 -0.3038  0.5808
 8336SOL     OW36466   0.605   0.766  10.644  0.1701 -0.2845 -0.0203
 8336SOL    HW136467   0.629   0.840  10.701  0.3269  0.4427 -1.0316
 8336SOL    HW236468   0.510   0.774  10.639  0.3226  1.7509  0.4423
 8337SOL     OW36469   2.604   3.355   0.213  0.3012 -0.0755 -0.1944
 8337SOL    HW136470   2.653   3.367   0.295  0.7964  0.2011 -0.5288
 8337SOL    HW236471   2.635   3.432   0.165  1.2383  0.3944  1.1468
 8338SOL     OW36472   2.146   0.052   7.408  0.2705  0.4834 -0.3473
 8338SOL    HW136473   2.096   0.130   7.430 -2.0765 -1.2401  0.3983
 8338SOL    HW236474   2.237   0.083   7.409  0.7422 -0.9612  1.6516
 8339SOL     OW36475   2.231   0.694  15.918 -0.0666 -0.0350  0.0687
 8339SOL    HW136476   2.315   0.740  15.918  0.7736 -1.6017 -2.7054
 8339SOL    HW236477   2.175   0.747  15.862  0.0195 -2.4521 -2.3101
 8340SOL     OW36478   2.398   3.542   3.039  0.3402 -0.3982  0.0804
 8340SOL    HW136479   2.385   3.460   2.990 -0.9845  0.8149 -1.5742
 8340SOL    HW236480   2.491   3.564   3.035  0.3001 -0.0943  0.8341
 8341SOL     OW36481   1.161   4.504   3.291  0.4260 -0.2286 -0.2411
 8341SOL    HW136482   1.142   4.493   3.198 -1.6417 -2.4879  0.4636
 8341SOL    HW236483   1.092   4.450   3.331  2.6160 -2.5891  0.3392
 8342SOL     OW36484   3.853   2.861  11.802 -0.5130  0.0870 -0.4172
 8342SOL    HW136485   3.820   2.904  11.882  0.7831  0.0102  0.1637
 8342SOL    HW236486   3.886   2.930  11.744 -0.9461  1.6671  1.1893
 8343SOL     OW36487   2.100   0.808   5.708  0.2599  0.4676 -0.0518
 8343SOL    HW136488   2.101   0.862   5.629  0.4049 -0.7517 -0.8817
 8343SOL    HW236489   2.111   0.877   5.773 -0.1577 -1.6813  2.2884
 8344SOL     OW36490   2.111   0.608   6.127  0.0115 -1.1684  0.0526
 8344SOL    HW136491   2.182   0.650   6.079  0.1762  0.0278  1.3387
 8344SOL    HW236492   2.140   0.521   6.153  0.0909 -1.5617 -1.3894
 8345SOL     OW36493   1.414   4.007  11.185  0.3307  0.6008 -0.3201
 8345SOL    HW136494   1.380   3.920  11.162  0.8938  0.3618 -0.2410
 8345SOL    HW236495   1.334   4.040  11.227 -0.5395  0.0644 -1.5426
 8346SOL     OW36496   1.244   4.131   8.897 -0.0968  0.1489  0.4568
 8346SOL    HW136497   1.194   4.065   8.946 -0.1940 -1.0510 -1.2764
 8346SOL    HW236498   1.296   4.078   8.836  1.6693  1.2994  0.9529
 8347SOL     OW36499   2.337   1.006   0.279 -0.6409  0.0275 -0.0121
 8347SOL    HW136500   2.415   0.961   0.249 -0.2754  0.1863  0.6942
 8347SOL    HW236501   2.267   0.943   0.262  0.8723 -1.8280  0.7343
 8348SOL     OW36502   3.411   0.387   7.079 -0.3804 -0.2499 -0.0789
 8348SOL    HW136503   3.483   0.418   7.134 -0.3349 -2.1952  0.9905
 8348SOL    HW236504   3.380   0.471   7.046  0.5516  0.8360  1.7375
 8349SOL     OW36505   3.307   3.932   4.669 -0.4984 -0.5705 -0.3826
 8349SOL    HW136506   3.323   3.921   4.575  1.0834  0.7135 -0.2678
 8349SOL    HW236507   3.293   4.026   4.677 -1.0783 -0.7890  1.2059
 8350SOL     OW36508   1.224   4.116   5.538  0.3771  0.4401  0.3495
 8350SOL    HW136509   1.159   4.165   5.589  0.3651  0.1670  0.5933
 8350SOL    HW236510   1.167   4.070   5.476  2.0370 -0.5893 -0.3828
 8351SOL     OW36511   2.498   4.581   6.170  0.2257 -0.4076  0.3954
 8351SOL    HW136512   2.529   4.492   6.183  2.0252  0.4771  2.1714
 8351SOL    HW236513   2.559   4.632   6.223  1.6004  0.6881 -2.2579
 8352SOL     OW36514   3.933   2.190   1.519  0.6429 -0.7615 -0.2282
 8352SOL    HW136515   4.011   2.148   1.552  0.2012  0.2732  2.1028
 8352SOL    HW236516   3.955   2.207   1.427  0.3308 -2.0670 -0.5502
 8353SOL     OW36517   3.025   1.803   3.560 -0.2530  0.1157  0.2404
 8353SOL    HW136518   2.971   1.829   3.485  1.3858 -3.7360 -2.2732
 8353SOL    HW236519   3.032   1.710   3.540 -1.3096 -0.2812  1.7367
 8354SOL     OW36520   0.712   2.503   7.699 -0.0723  0.2175  0.6012
 8354SOL    HW136521   0.618   2.517   7.710 -0.2894  0.0767 -1.2051
 8354SOL    HW236522   0.753   2.554   7.770  1.5734 -0.3632  0.0600
 8355SOL     OW36523   4.209   1.899   6.359 -0.4735  0.1654  0.1946
 8355SOL    HW136524   4.188   1.991   6.344 -0.6148 -0.1172 -1.3370
 8355SOL    HW236525   4.147   1.866   6.424 -0.8163  0.1442 -0.1411
 8356SOL     OW36526   0.890   3.101  10.609 -0.2716  0.0454 -0.2315
 8356SOL    HW136527   0.973   3.062  10.637  0.3947  0.9454 -0.9333
 8356SOL    HW236528   0.892   3.183  10.657 -0.3201 -0.4898  0.6875
 8357SOL     OW36529   2.190   4.031   0.719 -0.2183  0.3386  0.2051
 8357SOL    HW136530   2.223   4.006   0.632 -0.9550  1.4547 -0.3981
 8357SOL    HW236531   2.274   4.014   0.762  0.4886  3.0999 -0.0443
 8358SOL     OW36532   0.384   2.911   1.796  0.1717 -0.0709  0.7364
 8358SOL    HW136533   0.417   2.925   1.707  0.5847  0.6595  1.0087
 8358SOL    HW236534   0.355   3.000   1.815 -3.9926 -0.6299 -2.7587
 8359SOL     OW36535   0.442   3.876   7.254  0.1628 -0.2380  0.6248
 8359SOL    HW136536   0.526   3.834   7.273 -0.7754 -2.4562 -0.1457
 8359SOL    HW236537   0.394   3.865   7.337 -0.6694  1.0932  0.3281
 8360SOL     OW36538   1.241   4.424   1.029  0.0281  0.3468 -0.1090
 8360SOL    HW136539   1.220   4.517   1.019 -0.7621  0.3483  1.5788
 8360SOL    HW236540   1.174   4.393   1.090 -1.0691  0.2588 -1.3628
 8361SOL     OW36541   3.904   2.282   5.300 -0.5301 -0.3916 -0.5693
 8361SOL    HW136542   3.818   2.314   5.327 -0.4027 -0.5879  0.0701
 8361SOL    HW236543   3.954   2.298   5.380  0.3058  0.7193 -1.3218
 8362SOL     OW36544   4.144   3.777  10.394  0.0651 -0.0966 -0.0895
 8362SOL    HW136545   4.060   3.770  10.348 -0.4753 -0.9293  1.0198
 8362SOL    HW236546   4.123   3.733  10.477  1.1234 -2.2583 -0.9853
 8363SOL     OW36547   3.882   4.618   7.299 -0.0858 -0.3224 -0.2346
 8363SOL    HW136548   3.972   4.650   7.294  0.0044 -0.7466 -1.3674
 8363SOL    HW236549   3.837   4.691   7.256 -0.7214 -0.8708 -0.4951
 8364SOL     OW36550   0.457   0.793  17.391  0.0642  0.2229 -0.7656
 8364SOL    HW136551   0.458   0.886  17.367 -1.8588  0.0320 -1.5709
 8364SOL    HW236552   0.371   0.764  17.359  0.2808  0.0412 -1.1894
 8365SOL     OW36553   4.581   4.414  10.840  0.2014 -0.0354  0.0263
 8365SOL    HW136554   4.637   4.409  10.917 -0.8623 -1.2922  0.7154
 8365SOL    HW236555   4.501   4.377  10.877  1.5519 -0.0815  2.8648
 8366SOL     OW36556   4.494   2.765   4.559 -0.1169  0.2952 -0.1347
 8366SOL    HW136557   4.487   2.697   4.627 -0.2787 -1.7808 -2.2262
 8366SOL    HW236558   4.586   2.747   4.540  0.0870  1.1777  0.0128
 8367SOL     OW36559   2.868   1.331  12.675  0.4244  0.1985  0.4036
 8367SOL    HW136560   2.839   1.420  12.696 -3.5424 -0.7853 -0.8126
 8367SOL    HW236561   2.919   1.345  12.596 -0.8426 -1.8720 -0.7840
 8368SOL     OW36562   2.118   3.115   9.145  0.0373  0.2091 -0.5784
 8368SOL    HW136563   2.182   3.087   9.210 -1.4180 -3.8549 -0.8967
 8368SOL    HW236564   2.077   3.030   9.127  1.7926 -0.8815  0.6655
 8369SOL     OW36565   1.346   4.361   5.024  0.1951  0.0626 -0.0044
 8369SOL    HW136566   1.321   4.427   4.959 -1.1673 -0.6893 -0.2438
 8369SOL    HW236567   1.440   4.376   5.035  0.2513  0.0148 -0.4165
 8370SOL     OW36568   1.901   3.746  17.631  0.1304  0.2711  0.2019
 8370SOL    HW136569   1.946   3.721  17.551  1.6142 -0.8999  1.4039
 8370SOL    HW236570   1.877   3.657  17.656 -0.5668  0.5809  0.6542
 8371SOL     OW36571   1.649   3.363   9.622  0.2343  0.0705  0.2711
 8371SOL    HW136572   1.639   3.273   9.590  3.2820 -1.0569  2.5979
 8371SOL    HW236573   1.662   3.356   9.716 -2.6481 -0.2703  0.6661
 8372SOL     OW36574   3.301   1.162   6.262 -0.5931  0.3906  0.3528
 8372SOL    HW136575   3.357   1.214   6.203 -0.8163 -0.2845 -0.4499
 8372SOL    HW236576   3.304   1.081   6.211 -0.5768 -0.8134  2.3131
 8373SOL     OW36577   3.590   1.220  12.024  0.4181  0.3654  0.3276
 8373SOL    HW136578   3.627   1.175  12.100 -0.1831  2.1345  1.6422
 8373SOL    HW236579   3.590   1.308  12.061 -1.0350 -0.1045  1.4399
 8374SOL     OW36580   3.983   2.774   3.191 -0.1587  0.4946  0.0253
 8374SOL    HW136581   3.982   2.711   3.118  1.7973  0.7412 -0.2129
 8374SOL    HW236582   3.996   2.857   3.146  2.5822  1.7085  3.0736
 8375SOL     OW36583   4.583   2.351   4.992  0.1616 -0.6563  0.1308
 8375SOL    HW136584   4.644   2.277   4.998  0.3188 -0.3137  2.8818
 8375SOL    HW236585   4.632   2.425   5.027 -0.2638 -1.7850  3.1363
 8376SOL     OW36586   3.773   1.319  13.496 -0.5158  0.2633  0.6005
 8376SOL    HW136587   3.750   1.339  13.405 -4.2402  1.1181  1.6963
 8376SOL    HW236588   3.785   1.406  13.533  2.5930 -0.6182  1.6053
 8377SOL     OW36589   3.522   0.442   3.616 -0.4460 -0.0757  0.1855
 8377SOL    HW136590   3.548   0.373   3.677  0.3254 -2.4216 -2.7631
 8377SOL    HW236591   3.603   0.447   3.565  0.6325 -0.0073  1.8939
 8378SOL     OW36592   4.455   0.361   8.212  0.5286 -0.1527  0.0325
 8378SOL    HW136593   4.524   0.427   8.220 -1.1179  1.4726  0.7525
 8378SOL    HW236594   4.448   0.356   8.116 -0.1268 -0.0673  0.0784
 8379SOL     OW36595   1.352   2.845  10.763  0.8277  0.0844 -0.1942
 8379SOL    HW136596   1.383   2.755  10.760  0.9102  0.1465 -1.1191
 8379SOL    HW236597   1.416   2.883  10.703 -1.4497  1.2076 -1.8930
 8380SOL     OW36598   1.135   2.300   9.122  1.3062  0.6150 -0.1475
 8380SOL    HW136599   1.076   2.358   9.074 -1.0041 -0.1159  1.8358
 8380SOL    HW236600   1.098   2.215   9.097  2.1576  0.5800 -1.3468
 8381SOL     OW36601   3.672   2.226   8.245  0.0530  0.7604  0.1285
 8381SOL    HW136602   3.667   2.288   8.172 -1.3128  0.4219 -0.0683
 8381SOL    HW236603   3.677   2.289   8.317 -0.2034  1.5177 -0.5194
 8382SOL     OW36604   3.647   1.384   5.107  0.8001  0.4905 -0.2447
 8382SOL    HW136605   3.628   1.306   5.159 -0.2383  0.6063 -0.4655
 8382SOL    HW236606   3.565   1.418   5.072  0.6964  1.3937  0.8769
 8383SOL     OW36607   2.979   1.354   4.111  0.3122 -0.0657 -0.4750
 8383SOL    HW136608   2.933   1.341   4.194  1.5240  1.9819  0.5134
 8383SOL    HW236609   3.050   1.293   4.126  0.3336  0.3766  1.1951
 8384SOL     OW36610   2.977   1.017   0.775  0.1548 -0.3623 -0.0399
 8384SOL    HW136611   3.012   1.101   0.804 -1.1661  0.4635 -0.8502
 8384SOL    HW236612   2.890   1.033   0.812  0.0293  0.8978 -0.8919
 8385SOL     OW36613   4.553   0.075   8.832 -0.5749  0.4365  0.7409
 8385SOL    HW136614   4.470   0.097   8.875 -1.2203 -0.7261  0.1236
 8385SOL    HW236615   4.558   4.702   8.845  0.1009  0.5656  1.3807
 8386SOL     OW36616   1.242   3.388   3.337  0.6473  0.3886 -0.0371
 8386SOL    HW136617   1.209   3.431   3.259 -1.2369  1.4705  1.3533
 8386SOL    HW236618   1.288   3.452   3.391 -0.5339  0.8076  0.4788
 8387SOL     OW36619   2.087   3.925   3.615  0.7074 -0.2371  1.2413
 8387SOL    HW136620   2.180   3.921   3.635  1.2972 -1.0936 -1.7270
 8387SOL    HW236621   2.046   3.938   3.700  0.4860 -1.8768  1.3887
 8388SOL     OW36622   3.339   2.430   4.449 -0.2433 -0.0621  0.2412
 8388SOL    HW136623   3.408   2.394   4.393  1.5169  1.2807  1.5454
 8388SOL    HW236624   3.304   2.347   4.482 -0.6149  1.0664  2.6646
 8389SOL     OW36625   3.515   2.533   2.902 -0.2433  0.4014  0.3616
 8389SOL    HW136626   3.574   2.471   2.860 -0.1838  1.2306 -0.7780
 8389SOL    HW236627   3.493   2.481   2.979 -0.2969  0.0662  0.1205
 8390SOL     OW36628   0.961   1.686   4.272  0.0646 -0.7547 -0.0275
 8390SOL    HW136629   1.023   1.632   4.223  1.2912 -0.3314  1.0674
 8390SOL    HW236630   0.889   1.630   4.300 -0.1744  1.2022  3.2253
 8391SOL     OW36631   0.258   1.509   6.809  0.3491  0.0463  0.4426
 8391SOL    HW136632   0.236   1.509   6.716 -1.6056  0.2868  0.9129
 8391SOL    HW236633   0.328   1.574   6.806 -1.6780  2.1270 -1.1149
 8392SOL     OW36634   3.743   3.660   2.826  0.2654 -0.2110  0.1024
 8392SOL    HW136635   3.829   3.630   2.796  0.0407  0.2014 -0.9808
 8392SOL    HW236636   3.690   3.687   2.750  0.7275 -2.4568 -1.0248
 8393SOL     OW36637   0.592   2.804   1.962  0.0624 -0.3328  0.0307
 8393SOL    HW136638   0.644   2.883   1.974 -1.0457  0.4492 -0.3944
 8393SOL    HW236639   0.528   2.839   1.901  1.3103  0.5772 -0.7614
 8394SOL     OW36640   1.784   2.739   6.047  0.6579 -0.5347 -0.3058
 8394SOL    HW136641   1.707   2.682   6.047 -0.1013  0.4950 -1.2833
 8394SOL    HW236642   1.728   2.807   6.086  0.4927 -0.1906 -1.1530
 8395SOL     OW36643   3.135   0.765   1.428  0.0623 -0.6439 -0.1154
 8395SOL    HW136644   3.217   0.719   1.444  0.4657 -0.6804 -2.2404
 8395SOL    HW236645   3.098   0.716   1.354 -0.7152  0.3782 -0.3994
 8396SOL     OW36646   2.281   0.001  17.481  0.0279 -0.1382  0.6210
 8396SOL    HW136647   2.292   0.093  17.457 -2.0287 -0.0453  0.0539
 8396SOL    HW236648   2.279   4.716  17.577 -1.8573 -1.7279  0.4749
 8397SOL     OW36649   1.291   2.229   2.303 -0.3144 -0.0222 -0.0755
 8397SOL    HW136650   1.237   2.158   2.338 -0.1916 -1.8561 -3.6152
 8397SOL    HW236651   1.231   2.298   2.275  0.6463  0.7797 -0.1514
 8398SOL     OW36652   2.059   0.913   7.642 -0.0884  0.6687  0.2289
 8398SOL    HW136653   2.138   0.861   7.633 -1.2197 -0.8602 -0.6929
 8398SOL    HW236654   1.996   0.841   7.640 -3.1594  3.2449  3.7082
 8399SOL     OW36655   0.171   3.237   6.801 -0.2023 -0.5751 -0.8811
 8399SOL    HW136656   0.233   3.170   6.828  2.1790  2.3626  1.0236
 8399SOL    HW236657   0.089   3.189   6.811  0.6124 -2.1236 -1.8054
 8400SOL     OW36658   1.001   1.341   3.533 -0.2107 -0.0484 -0.1832
 8400SOL    HW136659   1.033   1.360   3.445  1.4069  1.3037  0.6927
 8400SOL    HW236660   0.931   1.275   3.532 -1.7112  1.4963  1.6279
 8401SOL     OW36661   1.318   1.502   5.812  0.0955 -0.3502 -0.0032
 8401SOL    HW136662   1.234   1.545   5.823 -1.0742 -3.1065  1.7992
 8401SOL    HW236663   1.378   1.577   5.818  1.6523 -1.7265  1.7031
 8402SOL     OW36664   3.461   1.273  16.028 -0.0775  0.1242  0.4672
 8402SOL    HW136665   3.422   1.232  16.105 -0.7669  0.8145  0.4897
 8402SOL    HW236666   3.542   1.223  16.025 -0.0281  0.2739 -0.8304
 8403SOL     OW36667   3.289   4.339   2.711 -0.3905 -0.0772 -0.4613
 8403SOL    HW136668   3.212   4.372   2.757 -0.6243  0.2665 -1.1051
 8403SOL    HW236669   3.250   4.304   2.630 -2.0961 -1.3235  0.9008
 8404SOL     OW36670   0.626   0.017   5.174  0.7378  0.1446 -0.0880
 8404SOL    HW136671   0.691   0.055   5.232  0.3176 -0.3084  0.6834
 8404SOL    HW236672   0.626   0.087   5.108 -0.4138 -0.8474 -1.1298
 8405SOL     OW36673   4.589   2.926   7.598 -0.6656  0.4497  0.2119
 8405SOL    HW136674   4.620   2.933   7.508  0.5388 -0.5336  0.5511
 8405SOL    HW236675   4.627   3.002   7.641  0.5256  0.2609 -0.5082
 8406SOL     OW36676   4.445   0.484   7.127 -1.4236 -0.4623  0.2506
 8406SOL    HW136677   4.508   0.550   7.152  1.0732 -1.4146 -3.5423
 8406SOL    HW236678   4.399   0.487   7.211 -1.6626 -0.9633  0.1387
 8407SOL     OW36679   4.431   3.526   9.767 -0.2101 -0.5891  0.8579
 8407SOL    HW136680   4.449   3.590   9.835  0.5066  0.1442 -0.0193
 8407SOL    HW236681   4.347   3.490   9.795  0.2939 -3.8156 -1.6922
 8408SOL     OW36682   3.687   0.282   8.472  0.1751  0.4448 -0.0894
 8408SOL    HW136683   3.632   0.360   8.478 -0.4055  0.1664 -1.6066
 8408SOL    HW236684   3.760   0.307   8.528  1.6019 -0.9353 -1.3139
 8409SOL     OW36685   3.083   0.885   2.742 -0.2195  0.2298 -0.6133
 8409SOL    HW136686   3.096   0.928   2.658  1.4188 -0.2064 -0.5858
 8409SOL    HW236687   2.990   0.899   2.763  0.1261 -1.3645  2.0673
 8410SOL     OW36688   3.542   3.689  12.194 -0.5996  0.5113  0.0468
 8410SOL    HW136689   3.536   3.766  12.250  0.9398 -0.2279  1.2293
 8410SOL    HW236690   3.454   3.670  12.161  1.0029 -0.2654 -3.8123
 8411SOL     OW36691   0.252   0.114   4.624  0.0180 -0.0660  0.3595
 8411SOL    HW136692   0.269   0.066   4.543  1.1690 -1.6076  1.4924
 8411SOL    HW236693   0.166   0.084   4.653  0.2244  0.3385  1.3861
 8412SOL     OW36694   2.994   1.488  11.008  0.1050  0.2859  0.3459
 8412SOL    HW136695   3.046   1.552  10.962 -1.2238  1.8530  1.0200
 8412SOL    HW236696   2.952   1.538  11.079  0.9297 -0.4744  1.3775
 8413SOL     OW36697   3.475   4.075  15.388  0.0175 -0.0998  0.4336
 8413SOL    HW136698   3.505   3.994  15.348 -0.1927 -0.1958  0.4735
 8413SOL    HW236699   3.405   4.108  15.332  0.1604  0.4523  0.5814
 8414SOL     OW36700   0.135   1.519  10.737 -0.0039 -0.2107  0.5211
 8414SOL    HW136701   0.231   1.521  10.734 -0.0768  0.6440 -2.0429
 8414SOL    HW236702   0.111   1.599  10.784  0.3140 -0.1268  0.5425
 8415SOL     OW36703   0.536   2.447   3.809  0.4765 -0.2550 -0.0193
 8415SOL    HW136704   0.605   2.481   3.751 -0.6120 -0.6837 -1.5772
 8415SOL    HW236705   0.581   2.458   3.893  1.3984  0.9828 -0.6774
 8416SOL     OW36706   1.458   0.274  16.295  0.5672  0.0917 -0.4738
 8416SOL    HW136707   1.425   0.358  16.264 -1.9116 -1.0441 -0.8509
 8416SOL    HW236708   1.410   0.266  16.377 -0.2391  0.9472 -0.8655
 8417SOL     OW36709   3.992   2.448   5.887 -0.1157  0.4033 -0.1243
 8417SOL    HW136710   3.921   2.404   5.838  0.7832 -2.3922  1.0606
 8417SOL    HW236711   3.983   2.542   5.871  1.9385  0.6686  0.3210
 8418SOL     OW36712   2.437   3.991   3.360 -0.5062 -0.3369 -0.2987
 8418SOL    HW136713   2.369   3.925   3.371  1.3984 -2.4113 -0.9606
 8418SOL    HW236714   2.449   4.037   3.444  0.9659  1.6758 -1.6090
 8419SOL     OW36715   1.330   4.603   8.193  0.5063 -0.1317  0.7427
 8419SOL    HW136716   1.263   4.536   8.204 -0.1619  0.0495 -2.2625
 8419SOL    HW236717   1.341   4.634   8.283  1.5143  0.9525  0.2461
 8420SOL     OW36718   0.825   0.195   0.207 -0.8523 -0.5288 -0.2272
 8420SOL    HW136719   0.749   0.178   0.262 -0.8828  0.4286  0.0174
 8420SOL    HW236720   0.886   0.219   0.276 -0.6436 -1.1033 -0.2123
 8421SOL     OW36721   0.817   1.067   6.265 -0.5208  0.5929  0.5079
 8421SOL    HW136722   0.832   0.977   6.238  0.6469  0.3573  1.9243
 8421SOL    HW236723   0.904   1.105   6.252 -0.0074 -1.2017 -1.2213
 8422SOL     OW36724   0.793   1.675   2.253  0.2462 -0.3609 -0.2542
 8422SOL    HW136725   0.805   1.625   2.334 -1.2859 -2.1797 -1.1538
 8422SOL    HW236726   0.700   1.693   2.245  0.1615  0.2589  2.0379
 8423SOL     OW36727   1.568   0.134   6.579 -0.4054 -0.2863 -0.7005
 8423SOL    HW136728   1.650   0.137   6.630  0.1618 -0.4872 -1.6010
 8423SOL    HW236729   1.537   0.223   6.593 -0.7323 -0.7834  1.6810
 8424SOL     OW36730   1.221   0.867   5.515  0.5485 -0.2304  0.3157
 8424SOL    HW136731   1.132   0.837   5.497 -0.0625  0.6978  1.8962
 8424SOL    HW236732   1.217   0.962   5.519  0.9863 -0.2615  1.3590
 8425SOL     OW36733   3.803   0.743   3.611 -0.1858  0.9194  0.0858
 8425SOL    HW136734   3.894   0.769   3.626 -0.2562  1.5087 -0.4816
 8425SOL    HW236735   3.819   0.649   3.609 -1.8902  0.6566 -1.1915
 8426SOL     OW36736   0.348   1.712  12.256  0.2436 -0.7110  0.2260
 8426SOL    HW136737   0.287   1.778  12.289  1.5352 -1.1922  3.6530
 8426SOL    HW236738   0.422   1.772  12.263 -1.9261  1.9258  0.7552
 8427SOL     OW36739   2.267   1.315   0.716  0.7286 -0.1980  0.0619
 8427SOL    HW136740   2.248   1.396   0.763  0.5548  0.6984 -1.5676
 8427SOL    HW236741   2.209   1.258   0.767 -1.0136  0.3099 -1.3250
 8428SOL     OW36742   4.420   0.645   9.259 -0.4444  0.0670  0.4196
 8428SOL    HW136743   4.435   0.650   9.353  2.7903 -0.5582 -0.0453
 8428SOL    HW236744   4.479   0.573   9.235 -1.4698 -1.7593  3.3885
 8429SOL     OW36745   2.114   0.781   8.330 -0.4113  0.0192 -0.0848
 8429SOL    HW136746   2.159   0.796   8.413 -0.5819 -3.0000  0.5451
 8429SOL    HW236747   2.034   0.736   8.358 -1.9243  3.0357  0.4246
 8430SOL     OW36748   1.878   1.543   5.425  0.0944  0.2934 -0.4342
 8430SOL    HW136749   1.916   1.525   5.339  0.5239  2.9568 -0.8187
 8430SOL    HW236750   1.892   1.463   5.474 -0.5999 -0.0801 -0.8408
 8431SOL     OW36751   0.139   2.697  17.380 -0.3850  0.5561  0.1397
 8431SOL    HW136752   0.149   2.759  17.452 -0.4421 -1.6507  2.0848
 8431SOL    HW236753   0.047   2.675  17.396 -0.2087  1.1234  1.9694
 8432SOL     OW36754   1.197   2.582   5.581  0.3331  0.3680 -0.1506
 8432SOL    HW136755   1.215   2.645   5.651  0.7818  1.7654 -1.5118
 8432SOL    HW236756   1.107   2.556   5.602  0.6314 -1.5807 -1.3566
 8433SOL     OW36757   4.554   3.518   6.938  0.1884 -0.6264  0.3629
 8433SOL    HW136758   4.549   3.447   6.874 -0.5738 -0.4656  0.2538
 8433SOL    HW236759   4.526   3.598   6.892  0.8053  0.4800  1.9231
 8434SOL     OW36760   0.401   2.566   7.347 -0.2077 -0.2667  0.8599
 8434SOL    HW136761   0.474   2.581   7.408 -0.6468 -0.1838  1.3716
 8434SOL    HW236762   0.347   2.511   7.403 -0.7505  1.2463  1.8263
 8435SOL     OW36763   2.385   2.896   3.858 -0.3186 -0.0317 -0.1541
 8435SOL    HW136764   2.340   2.811   3.853  2.7541 -1.5388 -2.2289
 8435SOL    HW236765   2.410   2.895   3.951 -1.9153 -0.4721  0.2694
 8436SOL     OW36766   1.496   3.315   4.010  0.2003  0.1101 -0.4262
 8436SOL    HW136767   1.570   3.348   3.958  1.7119 -2.8908 -0.1846
 8436SOL    HW236768   1.448   3.283   3.934 -1.3015  0.5175  0.3590
 8437SOL     OW36769   3.163   2.811   7.385 -0.2249 -0.5542 -0.1731
 8437SOL    HW136770   3.136   2.740   7.444 -0.4416  0.0558  0.4668
 8437SOL    HW236771   3.117   2.886   7.421 -0.3720 -1.8322  2.3392
 8438SOL     OW36772   0.328   3.485   9.740  0.2325 -0.0881 -0.6239
 8438SOL    HW136773   0.309   3.579   9.734  1.3567  0.2126  0.5061
 8438SOL    HW236774   0.410   3.486   9.691  0.7598  0.7236  0.2743
 8439SOL     OW36775   3.249   2.528  15.278 -0.4069  0.7341 -0.1551
 8439SOL    HW136776   3.259   2.471  15.202 -0.0137  0.1514  0.3346
 8439SOL    HW236777   3.160   2.560  15.263 -0.4947  1.2103  1.3482
 8440SOL     OW36778   3.054   2.855   5.631  0.0065 -0.0606  0.2111
 8440SOL    HW136779   3.015   2.855   5.718 -0.8520 -1.7567 -0.1700
 8440SOL    HW236780   3.049   2.946   5.601 -2.1134  0.3975  1.9014
 8441SOL     OW36781   1.273   1.153   3.264  0.3016 -0.2003 -0.1851
 8441SOL    HW136782   1.272   1.066   3.224 -0.2801 -0.0606 -0.4747
 8441SOL    HW236783   1.344   1.203   3.225  1.7114 -0.7811  1.6249
 8442SOL     OW36784   2.890   4.014   2.189 -0.7055  0.5231 -0.1846
 8442SOL    HW136785   2.966   4.066   2.164  1.0419 -1.5850  0.6292
 8442SOL    HW236786   2.817   4.069   2.161  0.3411  2.4215  0.8329
 8443SOL     OW36787   2.456   0.737   2.276  0.3186 -0.1918  0.3494
 8443SOL    HW136788   2.438   0.808   2.213  2.0215 -1.2922 -1.3656
 8443SOL    HW236789   2.447   0.792   2.354  0.3553  0.7189 -0.2786
 8444SOL     OW36790   4.709   2.953   7.159 -0.2792 -0.6309 -0.2369
 8444SOL    HW136791   0.037   2.873   7.145 -0.7993 -0.8517 -0.8414
 8444SOL    HW236792   0.033   2.994   7.232  1.5096 -1.7267 -0.7587
 8445SOL     OW36793   1.726   2.100  10.625 -0.5872 -0.2292  0.3852
 8445SOL    HW136794   1.782   2.038  10.578  0.4785  1.5815 -0.7299
 8445SOL    HW236795   1.783   2.167  10.663 -1.3268 -0.3581  1.7301
 8446SOL     OW36796   3.248   3.601   3.334 -0.4267  0.4146 -0.1383
 8446SOL    HW136797   3.218   3.565   3.417  1.3963  1.1158  0.8090
 8446SOL    HW236798   3.166   3.621   3.289  0.2526  0.3906 -1.3833
 8447SOL     OW36799   2.117   0.563  12.528 -0.2218 -0.1050  0.7242
 8447SOL    HW136800   2.066   0.621  12.584 -0.3412 -1.6807  2.2645
 8447SOL    HW236801   2.093   0.482  12.574  0.8075 -0.8602 -0.0577
 8448SOL     OW36802   0.176   2.315   9.114  0.5256 -0.5185  0.0128
 8448SOL    HW136803   0.131   2.378   9.057  2.5641 -0.6723 -1.7568
 8448SOL    HW236804   0.213   2.250   9.055 -1.1097 -0.7300 -0.7813
 8449SOL     OW36805   1.812   0.540   2.930  0.8420 -0.3480 -0.2700
 8449SOL    HW136806   1.895   0.504   2.962  0.6393 -0.5918 -0.0201
 8449SOL    HW236807   1.812   0.510   2.839  1.3428 -1.6975  0.1784
 8450SOL     OW36808   2.188   0.442   9.102 -0.0262 -0.3880 -0.7370
 8450SOL    HW136809   2.172   0.517   9.045 -2.0840 -0.6625 -0.5213
 8450SOL    HW236810   2.208   0.480   9.188  1.5339 -1.9906 -0.3885
 8451SOL     OW36811   0.212   1.573   8.775  0.0119  0.2485  0.6625
 8451SOL    HW136812   0.138   1.597   8.719  0.1464 -2.3705 -0.6437
 8451SOL    HW236813   0.263   1.514   8.719  1.2674  1.3226  0.6747
 8452SOL     OW36814   4.436   4.395   0.714  0.2620  0.7125  0.2130
 8452SOL    HW136815   4.504   4.328   0.712 -0.1443  0.3152 -0.0807
 8452SOL    HW236816   4.388   4.374   0.634 -1.5841 -0.6396  1.6849
 8453SOL     OW36817   3.356   2.529   5.962 -0.0175 -0.3298 -0.2170
 8453SOL    HW136818   3.330   2.617   5.936 -2.9486 -1.8162 -2.3418
 8453SOL    HW236819   3.285   2.517   6.025  0.7968 -0.4446  0.6843
 8454SOL     OW36820   3.730   0.754   5.386 -0.1363 -0.3903 -0.4205
 8454SOL    HW136821   3.773   0.717   5.464 -0.4304  1.9180  0.8427
 8454SOL    HW236822   3.706   0.677   5.334 -1.7317  2.1284 -3.4143
 8455SOL     OW36823   0.578   1.719   3.378 -0.2587  0.2140  0.3939
 8455SOL    HW136824   0.601   1.675   3.460  0.6220 -1.4701 -0.7618
 8455SOL    HW236825   0.622   1.660   3.317 -0.6395 -0.6139  0.9089
 8456SOL     OW36826   1.754   0.227   1.781 -0.7206 -0.1972 -0.0060
 8456SOL    HW136827   1.674   0.207   1.732  1.3037 -1.2824 -2.8772
 8456SOL    HW236828   1.713   0.237   1.867  1.0420 -0.7600  0.8773
 8457SOL     OW36829   1.580   2.615  15.425  0.3202  0.3806  0.5987
 8457SOL    HW136830   1.675   2.608  15.427  0.3009 -0.2650 -0.7828
 8457SOL    HW236831   1.577   2.709  15.406 -0.4278  0.4459  1.0458
 8458SOL     OW36832   3.343   4.463   4.683  0.0510 -0.0229  0.0467
 8458SOL    HW136833   3.391   4.528   4.734  1.4663  0.2893 -1.6730
 8458SOL    HW236834   3.405   4.450   4.612  1.0614  0.1915  0.8913
 8459SOL     OW36835   1.082   4.262   1.886 -0.0392 -0.7345 -0.4136
 8459SOL    HW136836   1.004   4.280   1.834 -0.4032  0.2890  0.4903
 8459SOL    HW236837   1.064   4.168   1.896  0.5296 -0.7410  0.5833
 8460SOL     OW36838   2.983   3.124   4.637  0.3733  0.1891 -0.2769
 8460SOL    HW136839   3.007   3.032   4.647  2.4604  0.8590  1.0957
 8460SOL    HW236840   3.006   3.120   4.545 -1.7711 -0.6751 -0.7489
 8461SOL     OW36841   0.566   1.114   4.126  0.5832  0.8611  0.9696
 8461SOL    HW136842   0.506   1.054   4.171  0.4010  0.7361  0.5627
 8461SOL    HW236843   0.579   1.088   4.035 -1.0705  2.2440  0.3207
 8462SOL     OW36844   1.161   3.986   6.545 -0.2858 -0.1477  0.3010
 8462SOL    HW136845   1.084   3.947   6.503 -0.1820 -0.7464  0.6670
 8462SOL    HW236846   1.137   3.998   6.637 -2.0943 -0.3793 -0.1251
 8463SOL     OW36847   0.817   0.683   4.052 -0.2081 -0.0808  0.3806
 8463SOL    HW136848   0.729   0.647   4.061 -0.2649 -0.4764 -1.8076
 8463SOL    HW236849   0.876   0.621   4.095 -2.1741 -0.9379  1.8491
 8464SOL     OW36850   0.037   2.017   2.094 -0.1513 -0.3258  0.2454
 8464SOL    HW136851   4.701   2.047   2.164  0.5286 -1.5692  1.3459
 8464SOL    HW236852   4.698   1.967   2.040  1.8256  0.8389 -3.0668
 8465SOL     OW36853   0.131   0.396   6.089  0.1735 -0.6360 -0.4063
 8465SOL    HW136854   0.078   0.451   6.147 -0.4959 -0.5253 -1.1239
 8465SOL    HW236855   0.172   0.454   6.025 -0.0055  1.8446  1.7112
 8466SOL     OW36856   3.960   1.580  16.002 -0.2276  0.2891 -0.4341
 8466SOL    HW136857   3.869   1.554  15.992  0.3034 -1.2656 -1.2838
 8466SOL    HW236858   3.973   1.564  16.096  0.8680  0.5360 -0.5360
 8467SOL     OW36859   3.844   2.226   6.176 -0.5440  0.4056 -0.0660
 8467SOL    HW136860   3.760   2.245   6.135 -2.0587 -4.0856  0.9491
 8467SOL    HW236861   3.883   2.163   6.114 -0.0739 -0.8092  1.4711
 8468SOL     OW36862   2.896   0.335  14.658 -0.0668  0.2172 -0.3492
 8468SOL    HW136863   2.851   0.363  14.738 -1.2109 -3.7224  0.4266
 8468SOL    HW236864   2.953   0.408  14.635  0.2547 -0.1001 -0.5619
 8469SOL     OW36865   2.179   4.444  13.224 -0.5900 -0.3690 -0.1739
 8469SOL    HW136866   2.092   4.473  13.251 -0.1451  1.5329 -0.7657
 8469SOL    HW236867   2.222   4.423  13.307  0.1864  0.8639 -0.2652
 8470SOL     OW36868   2.312   2.204   8.236 -0.0930 -0.0210 -0.2828
 8470SOL    HW136869   2.287   2.278   8.292  1.4184 -0.4806  0.9822
 8470SOL    HW236870   2.236   2.146   8.241  0.7461 -0.8394  2.8945
 8471SOL     OW36871   2.478   0.693   4.744  0.1301 -0.7846  0.4507
 8471SOL    HW136872   2.538   0.629   4.704 -0.1836  0.0006 -1.2750
 8471SOL    HW236873   2.537   0.768   4.737  0.2397 -0.9174 -0.0970
 8472SOL     OW36874   0.789   0.907  12.175  0.5998 -0.3394 -0.2720
 8472SOL    HW136875   0.782   0.949  12.261 -1.4059  0.5198 -0.8664
 8472SOL    HW236876   0.866   0.856  12.201  0.4229 -1.5695 -2.1676
 8473SOL     OW36877   2.828   0.063  12.573 -0.4983 -0.1322  0.3236
 8473SOL    HW136878   2.879   0.073  12.492  1.5130  2.1961  1.8892
 8473SOL    HW236879   2.884   0.090  12.646 -1.7361  1.4696  0.6805
 8474SOL     OW36880   1.087   2.455   6.225 -0.0377  0.1920 -0.1227
 8474SOL    HW136881   1.046   2.489   6.304  1.9645 -3.0888  2.2936
 8474SOL    HW236882   1.008   2.425   6.178  0.3358  0.8431 -1.1774
 8475SOL     OW36883   0.179   1.958  15.881 -0.0593 -0.0866 -0.2571
 8475SOL    HW136884   0.108   1.901  15.854  0.7803 -1.9149  1.3626
 8475SOL    HW236885   0.224   1.970  15.797 -1.3636  2.7720 -0.5670
 8476SOL     OW36886   0.639   2.632   4.437  0.6189 -0.0952  0.6052
 8476SOL    HW136887   0.572   2.700   4.442 -0.9439 -1.5896  0.1924
 8476SOL    HW236888   0.675   2.652   4.351  3.2040 -1.9679  1.2293
 8477SOL     OW36889   0.906   3.401  15.656  0.3553 -0.4011  0.0502
 8477SOL    HW136890   0.863   3.472  15.705  1.4620  0.7567 -0.6474
 8477SOL    HW236891   0.828   3.379  15.605 -0.2971  0.2243  0.7706
 8478SOL     OW36892   4.519   1.905   8.231 -0.3090 -0.0956 -0.5211
 8478SOL    HW136893   4.513   1.935   8.322 -0.7289  1.2613 -0.9980
 8478SOL    HW236894   4.521   1.809   8.238  1.7070 -0.0262 -0.1593
 8479SOL     OW36895   2.626   3.051   5.376 -0.0472 -0.0645  0.9554
 8479SOL    HW136896   2.579   3.124   5.337  0.7114 -0.5062 -0.8258
 8479SOL    HW236897   2.596   3.060   5.466 -1.6155  1.1096  0.3117
 8480SOL     OW36898   0.056   0.725   9.638 -0.2710  0.2111 -0.0808
 8480SOL    HW136899   4.698   0.775   9.652  0.4327  1.5097 -0.6885
 8480SOL    HW236900   0.057   0.671   9.717 -0.4509 -2.6606 -2.0515
 8481SOL     OW36901   0.625   2.946   3.284 -0.0708  0.2442  0.1695
 8481SOL    HW136902   0.650   2.949   3.377  1.5138  0.9437 -0.2755
 8481SOL    HW236903   0.705   2.991   3.256  0.9526 -1.3979  0.4394
 8482SOL     OW36904   3.863   2.302  11.936 -0.7495  0.3034  0.0941
 8482SOL    HW136905   3.773   2.324  11.910 -0.5483  0.7634 -0.2087
 8482SOL    HW236906   3.842   2.277  12.027 -0.5639  0.6789  0.2405
 8483SOL     OW36907   4.531   3.099  10.069  0.8180  0.4953 -0.3952
 8483SOL    HW136908   4.623   3.084  10.051  1.5107  1.5376  2.2470
 8483SOL    HW236909   4.521   3.188  10.104 -0.0028 -0.6164  2.2035
 8484SOL     OW36910   0.003   0.685   8.431  0.2286  0.7683 -0.2009
 8484SOL    HW136911   0.009   0.776   8.460  0.5833  0.2346  1.4016
 8484SOL    HW236912   0.014   0.644   8.517  3.1756  1.1000 -0.4024
 8485SOL     OW36913   1.038   0.848  13.717  0.5686 -0.0559  0.0691
 8485SOL    HW136914   1.108   0.869  13.779  1.3578  0.3990 -0.9868
 8485SOL    HW236915   1.086   0.834  13.635 -0.6664  0.8451 -0.8060
 8486SOL     OW36916   0.033   1.994   2.450  0.1919  0.1404  0.8405
 8486SOL    HW136917   0.013   2.079   2.411 -0.4985 -1.5115 -2.3773
 8486SOL    HW236918   4.670   1.951   2.439 -0.7773  1.8460  1.6649
 8487SOL     OW36919   0.934   2.295   1.242 -0.3796 -0.0819 -0.0379
 8487SOL    HW136920   0.962   2.234   1.174  2.7997  0.6660  0.6123
 8487SOL    HW236921   0.991   2.271   1.314  1.5825  0.5690 -1.3500
 8488SOL     OW36922   2.578   2.615   6.967 -0.5201  0.2117 -0.2463
 8488SOL    HW136923   2.651   2.677   6.972 -0.6910  0.1717  2.5402
 8488SOL    HW236924   2.622   2.530   6.964  2.5119  1.7353  0.5476
 8489SOL     OW36925   3.664   4.223   8.683  0.2319 -0.2417 -0.3646
 8489SOL    HW136926   3.730   4.225   8.752  0.9587  0.5408 -1.0707
 8489SOL    HW236927   3.646   4.317   8.673 -0.6998 -0.2345  1.4794
 8490SOL     OW36928   4.268   2.764   1.974 -0.4486 -0.0008 -0.2375
 8490SOL    HW136929   4.240   2.721   1.893  0.5727  0.9837 -1.1274
 8490SOL    HW236930   4.354   2.803   1.954 -0.3850  0.2005  0.4359
 8491SOL     OW36931   2.693   3.526   7.361 -0.6520  0.1936  0.8834
 8491SOL    HW136932   2.717   3.488   7.446  0.2115 -0.4109  0.3751
 8491SOL    HW236933   2.598   3.536   7.363 -0.5046  1.7579  0.0622
 8492SOL     OW36934   0.891   3.394   3.280 -0.0363  0.2546  0.3304
 8492SOL    HW136935   0.879   3.461   3.347 -2.1550 -0.5442  0.7407
 8492SOL    HW236936   0.959   3.429   3.222 -0.4114  0.0558 -0.2296
 8493SOL     OW36937   4.256   0.905  12.200 -0.3290 -0.1932 -0.2560
 8493SOL    HW136938   4.288   0.987  12.161  0.2834  0.0607  0.7675
 8493SOL    HW236939   4.180   0.940  12.246 -0.5134  0.8659 -1.3782
 8494SOL     OW36940   3.587   3.539   3.099 -0.0267  0.1404 -0.6617
 8494SOL    HW136941   3.513   3.501   3.146 -0.8596  0.7265 -1.4963
 8494SOL    HW236942   3.570   3.631   3.120 -1.1261 -0.4361  0.9762
 8495SOL     OW36943   3.346   3.358   2.817 -0.3996 -0.2315 -0.2983
 8495SOL    HW136944   3.320   3.338   2.907 -0.7224 -3.5944 -1.1332
 8495SOL    HW236945   3.265   3.363   2.767 -1.1753 -0.0660  0.9631
 8496SOL     OW36946   3.291   1.247   2.752  0.0253 -0.3147  0.1526
 8496SOL    HW136947   3.340   1.327   2.732 -0.4130  0.1992  1.1506
 8496SOL    HW236948   3.306   1.197   2.672  0.9322 -1.2980  0.9265
 8497SOL     OW36949   3.051   3.722  15.292  0.1669 -0.0161  0.1109
 8497SOL    HW136950   3.020   3.798  15.242 -0.4610  0.2488  0.9104
 8497SOL    HW236951   2.979   3.712  15.353  0.8363 -3.8416  0.2544
 8498SOL     OW36952   4.286   2.232  14.888 -0.1785 -0.3320  0.1095
 8498SOL    HW136953   4.354   2.248  14.823  1.0032 -1.4561  1.0799
 8498SOL    HW236954   4.230   2.165  14.848 -1.5111 -0.0461  1.4470
 8499SOL     OW36955   3.747   1.510   8.763  0.9339 -0.0308 -0.1498
 8499SOL    HW136956   3.664   1.502   8.717  0.0929  1.2084  1.1665
 8499SOL    HW236957   3.737   1.595   8.805  0.8540  0.7920 -1.8700
 8500SOL     OW36958   3.325   0.983  12.312  0.2141  0.2114 -0.0062
 8500SOL    HW136959   3.401   0.973  12.370  1.7385  0.7436 -1.9048
 8500SOL    HW236960   3.358   1.014  12.228  1.5109  0.9954  0.7775
 8501SOL     OW36961   2.246   3.397   3.410 -0.0592 -0.4135  0.1714
 8501SOL    HW136962   2.336   3.418   3.387 -0.3646  2.8706  1.9303
 8501SOL    HW236963   2.211   3.443   3.334 -1.6518 -1.5777  0.1920
 8502SOL     OW36964   1.966   1.252   7.649  0.2070  0.0531  0.1460
 8502SOL    HW136965   1.948   1.321   7.713 -1.7034 -0.2535 -0.0550
 8502SOL    HW236966   1.981   1.176   7.706 -0.1779  0.1804  0.4194
 8503SOL     OW36967   3.670   3.259   0.173  0.1858  0.0285  0.2063
 8503SOL    HW136968   3.654   3.178   0.221 -0.6059 -0.2701 -0.5488
 8503SOL    HW236969   3.580   3.275   0.143 -0.2355 -1.2016  0.7848
 8504SOL     OW36970   2.900   3.718   2.971 -0.2882 -0.5781  0.0145
 8504SOL    HW136971   2.885   3.804   3.011  0.9965  0.0782 -0.9324
 8504SOL    HW236972   2.983   3.732   2.927  0.0994  0.4918  1.0965
 8505SOL     OW36973   0.471   4.602   3.387  0.1053  0.7135  0.5214
 8505SOL    HW136974   0.430   4.565   3.465  0.1002  1.6622  0.9697
 8505SOL    HW236975   0.558   4.566   3.404  0.9716  2.6736  0.3090
 8506SOL     OW36976   1.708   0.765   7.585 -0.1144 -0.3907 -0.0460
 8506SOL    HW136977   1.632   0.823   7.596 -1.1627 -1.5494 -1.2921
 8506SOL    HW236978   1.733   0.745   7.675 -0.7923  1.6662  0.6097
 8507SOL     OW36979   0.111   0.348   2.778 -0.0342 -0.1108 -0.3091
 8507SOL    HW136980   0.206   0.361   2.785 -0.1017 -0.4954  1.3859
 8507SOL    HW236981   0.100   0.344   2.683 -0.0197  1.8836 -0.3954
 8508SOL     OW36982   3.854   1.675   6.743  0.4269  0.4545 -0.1666
 8508SOL    HW136983   3.931   1.669   6.800  1.1406 -2.8625 -1.4653
 8508SOL    HW236984   3.792   1.660   6.815  2.1113 -2.1908  0.7265
 8509SOL     OW36985   3.036   2.004   5.071  0.3263  0.7227  0.3587
 8509SOL    HW136986   3.107   2.045   5.023 -0.8359 -0.3831 -2.3128
 8509SOL    HW236987   3.023   2.064   5.144  1.0782  0.8331  0.4012
 8510SOL     OW36988   1.843   4.672   4.854 -0.0913  0.5316 -0.5059
 8510SOL    HW136989   1.905   4.650   4.923  0.6666  0.5209 -1.1933
 8510SOL    HW236990   1.861   0.044   4.852 -0.2073  0.6221  2.0928
 8511SOL     OW36991   0.447   2.645  10.383 -0.2730  0.1538  0.5515
 8511SOL    HW136992   0.471   2.672  10.472 -1.0694  0.9396  0.5293
 8511SOL    HW236993   0.513   2.698  10.337 -0.3065  0.8559  1.3081
 8512SOL     OW36994   4.522   4.569   5.972  0.4423 -0.0148 -0.2981
 8512SOL    HW136995   4.505   4.613   6.055 -0.2291  0.6987 -0.8218
 8512SOL    HW236996   4.611   4.598   5.953 -0.0049  1.9000  0.5644
 8513SOL     OW36997   2.713   0.882   3.531 -0.4040  0.0708 -0.2612
 8513SOL    HW136998   2.715   0.978   3.527 -0.4918  0.1312  1.1049
 8513SOL    HW236999   2.628   0.866   3.572  0.5397 -1.7780  0.9418
 8514SOL     OW37000   3.971   1.921   2.911  0.0686 -0.0520 -0.4698
 8514SOL    HW137001   3.941   1.891   2.825 -2.1314  1.5673 -0.2430
 8514SOL    HW237002   3.898   1.977   2.934 -0.4048 -1.0413  0.4491
 8515SOL     OW37003   3.761   1.622   5.203 -0.0162 -0.6313  0.5292
 8515SOL    HW137004   3.746   1.581   5.288  1.1423  0.7840  1.4218
 8515SOL    HW237005   3.710   1.566   5.145  0.7244 -0.4086 -0.3504
 8516SOL     OW37006   1.968   3.335  11.636 -0.4233  0.4799  0.6349
 8516SOL    HW137007   1.958   3.240  11.629 -3.8244  0.8926 -0.3308
 8516SOL    HW237008   1.924   3.368  11.557 -1.6514  1.6305  1.8147
 8517SOL     OW37009   1.243   3.256   1.528 -0.0299 -0.4936 -0.0322
 8517SOL    HW137010   1.239   3.223   1.438 -0.7722  1.4732 -0.7251
 8517SOL    HW237011   1.239   3.350   1.508 -0.7954 -0.6060 -0.4327
 8518SOL     OW37012   2.966   0.956  10.989 -0.3972  0.3620 -0.9998
 8518SOL    HW137013   2.891   1.016  10.982  0.3945  1.1912 -2.4505
 8518SOL    HW237014   2.962   0.913  10.903 -1.7194 -2.0855  0.2694
 8519SOL     OW37015   3.304   2.125   4.994  0.6770 -0.2051 -0.0568
 8519SOL    HW137016   3.335   2.083   4.914  0.7256  1.3249 -0.8462
 8519SOL    HW237017   3.328   2.217   4.983  0.1566 -0.2109 -1.2594
 8520SOL     OW37018   4.158   2.294   9.096  0.1490  0.6219  0.3570
 8520SOL    HW137019   4.090   2.294   9.030  0.2878 -1.9926  0.2260
 8520SOL    HW237020   4.142   2.217   9.150  0.9136  1.7760  2.2554
 8521SOL     OW37021   1.516   4.509   4.397 -0.3451 -0.5560  0.2111
 8521SOL    HW137022   1.496   4.452   4.471 -0.1461  2.0629  2.3199
 8521SOL    HW237023   1.430   4.545   4.374 -0.6467 -0.9366  0.7504
 8522SOL     OW37024   0.542   2.430   5.727  0.0827  0.4360  0.4252
 8522SOL    HW137025   0.506   2.393   5.808  0.1751  0.2604  0.3853
 8522SOL    HW237026   0.539   2.353   5.671  0.7779  0.7133  0.0151
 8523SOL     OW37027   0.094   3.246   3.654  0.1360  0.7626  0.5148
 8523SOL    HW137028   0.076   3.199   3.573  0.5180 -1.7946  1.9205
 8523SOL    HW237029   0.184   3.216   3.663 -0.1170 -0.7258 -2.0956
 8524SOL     OW37030   0.723   1.870  11.293  0.0263  0.3679  0.3025
 8524SOL    HW137031   0.789   1.908  11.235 -0.0295 -2.2890 -1.5242
 8524SOL    HW237032   0.783   1.830  11.356 -2.3802 -0.1967  2.2444
 8525SOL     OW37033   4.595   1.103   7.995 -0.0200  0.0651  0.3242
 8525SOL    HW137034   4.657   1.036   7.966 -0.1441  0.0344  0.1385
 8525SOL    HW237035   4.513   1.069   7.960  0.2636 -1.7839  1.4418
 8526SOL     OW37036   2.684   4.061   2.840 -0.5146  0.1429 -0.2941
 8526SOL    HW137037   2.600   4.108   2.835 -1.2548 -1.2001 -0.4973
 8526SOL    HW237038   2.664   3.987   2.781 -0.2020  2.0515 -2.8127
 8527SOL     OW37039   0.027   0.220   5.716  0.2113  0.1002 -0.2341
 8527SOL    HW137040   0.067   0.295   5.670  0.1566  0.9626  1.1449
 8527SOL    HW237041   4.713   0.179   5.637 -3.0808 -0.3832  1.5710
 8528SOL     OW37042   1.853   2.550   7.617  0.7605  0.1032  0.1892
 8528SOL    HW137043   1.796   2.474   7.629  1.7491 -0.5499  0.7342
 8528SOL    HW237044   1.813   2.624   7.662 -0.4423  0.1062 -0.9056
 8529SOL     OW37045   1.024   2.294   3.391 -0.3852  0.2769  0.3470
 8529SOL    HW137046   1.055   2.205   3.410 -1.8743 -0.2313  0.3726
 8529SOL    HW237047   0.932   2.286   3.415 -0.8809  4.0154 -0.2620
 8530SOL     OW37048   4.204   0.676   7.058  0.3643 -0.7930  0.1886
 8530SOL    HW137049   4.291   0.644   7.035  0.5840  1.0099 -1.4946
 8530SOL    HW237050   4.195   0.725   6.976  2.1124  0.8102  0.9400
 8531SOL     OW37051   3.717   2.230   6.697 -0.4821 -0.3434 -0.4151
 8531SOL    HW137052   3.672   2.286   6.761 -1.4938 -1.6404  0.0005
 8531SOL    HW237053   3.644   2.229   6.635 -1.9870 -0.5343  1.3707
 8532SOL     OW37054   3.211   3.592   4.935  0.4393  0.0132  0.1888
 8532SOL    HW137055   3.131   3.559   4.894  0.8065 -2.1286  1.1776
 8532SOL    HW237056   3.251   3.506   4.948 -0.8339 -0.3602  1.6369
 8533SOL     OW37057   3.662   2.271   8.742 -0.3790 -0.7647 -0.2046
 8533SOL    HW137058   3.610   2.344   8.775 -0.3841 -0.2973 -1.2378
 8533SOL    HW237059   3.629   2.194   8.789  0.8143 -1.2471 -0.1464
 8534SOL     OW37060   1.667   1.102  13.833  0.0909 -0.1596 -0.1833
 8534SOL    HW137061   1.761   1.090  13.842 -0.3157 -3.1455 -0.1124
 8534SOL    HW237062   1.649   1.155  13.911  0.7644 -0.4084  0.1402
 8535SOL     OW37063   1.354   0.757   4.014  0.2397  0.9375  0.3045
 8535SOL    HW137064   1.378   0.800   3.932  1.6577  0.1640  0.3068
 8535SOL    HW237065   1.442   0.748   4.052  0.3999 -0.3680 -0.3851
 8536SOL     OW37066   3.975   3.581   1.277  0.4333  0.3270  0.1916
 8536SOL    HW137067   4.036   3.513   1.248  0.0845  0.4029 -0.7041
 8536SOL    HW237068   3.946   3.620   1.195  0.8512 -0.0127 -0.1175
 8537SOL     OW37069   1.838   2.764   5.779  0.0767  0.4256 -0.5323
 8537SOL    HW137070   1.751   2.801   5.759 -0.6517 -1.6609 -1.1794
 8537SOL    HW237071   1.842   2.789   5.871 -0.2876 -0.0454 -0.3867
 8538SOL     OW37072   3.486   2.282   6.533  0.4190  0.1097  0.3775
 8538SOL    HW137073   3.458   2.240   6.452  0.5433 -0.8703  0.8473
 8538SOL    HW237074   3.436   2.364   6.528  1.3661  0.6619  0.0367
 8539SOL     OW37075   4.628   1.389   8.253  0.1901 -0.0022 -0.0082
 8539SOL    HW137076   4.717   1.367   8.279  0.9246 -0.4786 -2.9242
 8539SOL    HW237077   4.619   1.349   8.167 -1.0560  0.2059  0.0304
 8540SOL     OW37078   2.103   2.032   8.275  0.2153 -0.0556 -0.2942
 8540SOL    HW137079   2.033   1.988   8.324  1.2202 -1.9039 -0.5493
 8540SOL    HW237080   2.077   2.001   8.188  1.7067 -0.8001 -0.4616
 8541SOL     OW37081   4.409   2.236   8.153 -0.4568 -0.2367 -0.6807
 8541SOL    HW137082   4.356   2.198   8.083  0.0986  0.2597 -1.3795
 8541SOL    HW237083   4.405   2.327   8.122  1.3064  0.6761  1.7785
 8542SOL     OW37084   0.339   2.955   6.647 -0.2620 -0.1150 -0.6582
 8542SOL    HW137085   0.427   2.977   6.679 -0.1856 -0.3645 -0.7004
 8542SOL    HW237086   0.317   3.008   6.569  0.7492  1.2855  0.0063
 8543SOL     OW37087   2.215   2.531   2.443  0.2785  0.0804 -0.2357
 8543SOL    HW137088   2.265   2.451   2.463  0.5975  0.5381  0.8268
 8543SOL    HW237089   2.197   2.554   2.534  3.1089 -1.1010  0.6499
 8544SOL     OW37090   2.049   3.324  16.449 -0.1155 -0.5241  0.4680
 8544SOL    HW137091   2.130   3.314  16.499 -0.2304 -0.1769  0.7206
 8544SOL    HW237092   2.077   3.399  16.396 -2.9280  0.1840 -0.0377
 8545SOL     OW37093   0.754   3.978   2.833  0.0763  0.3999  0.0672
 8545SOL    HW137094   0.774   3.885   2.830  1.7181  0.8100 -1.8480
 8545SOL    HW237095   0.818   4.015   2.772  0.3662  1.2471  0.8987
 8546SOL     OW37096   1.388   2.132   7.743 -0.0077 -0.5379  0.4429
 8546SOL    HW137097   1.336   2.200   7.785  0.8513  1.1501 -1.1803
 8546SOL    HW237098   1.384   2.177   7.658 -0.4449 -1.6947 -0.1409
 8547SOL     OW37099   4.623   0.655   7.212  0.1959  0.2023 -0.4205
 8547SOL    HW137100   4.642   0.736   7.166  1.1034 -0.1970 -0.7570
 8547SOL    HW237101   4.649   0.682   7.300 -0.8489 -0.9343  0.2501
 8548SOL     OW37102   3.120   3.182  15.980  0.0321 -0.2112  0.1089
 8548SOL    HW137103   3.065   3.216  15.910 -0.6939 -0.4159  0.5858
 8548SOL    HW237104   3.178   3.123  15.932  0.1630 -0.7891  0.9792
 8549SOL     OW37105   1.947   1.355   8.572 -0.5586 -0.2715  0.6111
 8549SOL    HW137106   1.889   1.417   8.528 -1.2085 -1.4020 -0.1344
 8549SOL    HW237107   1.953   1.403   8.654  0.5514 -0.0055  0.3804
 8550SOL     OW37108   2.149   1.014   2.369 -1.1967  0.1012 -0.1582
 8550SOL    HW137109   2.228   1.048   2.327 -0.2696 -1.1915  0.5461
 8550SOL    HW237110   2.170   1.018   2.463 -2.6310 -0.5620  0.1876
 8551SOL     OW37111   4.382   3.669  10.283  1.0660 -0.0589 -0.4452
 8551SOL    HW137112   4.301   3.718  10.298  0.7710 -0.1766 -1.6288
 8551SOL    HW237113   4.358   3.609  10.354 -0.0119  0.0307 -0.7294
 8552SOL     OW37114   0.162   1.709   8.259 -0.3426  0.1633 -0.1087
 8552SOL    HW137115   0.126   1.775   8.318  0.7396  0.9220 -0.3052
 8552SOL    HW237116   0.162   1.755   8.175 -2.1067  0.6006  0.1297
 8553SOL     OW37117   0.213   0.723   0.453  0.3614  0.2862 -0.0872
 8553SOL    HW137118   0.255   0.807   0.472  2.9259 -0.7091 -1.4527
 8553SOL    HW237119   0.131   0.741   0.407  1.0764  0.2976 -1.3562
 8554SOL     OW37120   0.702   2.124   3.678 -0.1266 -0.2306 -0.0350
 8554SOL    HW137121   0.709   2.029   3.683  3.4896  0.1263  2.1416
 8554SOL    HW237122   0.747   2.149   3.759 -0.1629  0.2795 -0.1709
 8555SOL     OW37123   0.801   0.261  17.111 -0.1756  0.2015 -0.7609
 8555SOL    HW137124   0.743   0.191  17.082 -0.8827  0.0521  0.9756
 8555SOL    HW237125   0.836   0.233  17.196 -0.2061  2.6468  0.0582
 8556SOL     OW37126   2.302   0.150   1.962 -0.0225 -0.2195 -0.8838
 8556SOL    HW137127   2.390   0.186   1.955 -0.6343  1.5522  0.6185
 8556SOL    HW237128   2.268   0.149   1.872 -3.6709  1.7504  0.4675
 8557SOL     OW37129   1.733   1.282   9.052  0.6838 -0.2390  0.2784
 8557SOL    HW137130   1.647   1.322   9.063  0.8589  0.0113  0.7351
 8557SOL    HW237131   1.789   1.353   9.021  0.0373 -0.2049 -0.8039
 8558SOL     OW37132   1.853   0.111   3.026 -0.5457 -0.0430 -0.5263
 8558SOL    HW137133   1.894   0.038   2.979  0.9427  1.0883 -0.9959
 8558SOL    HW237134   1.763   0.102   2.994 -0.7279  0.0353 -0.0371
 8559SOL     OW37135   1.707   4.630   6.101  0.3896  0.2026  0.3686
 8559SOL    HW137136   1.634   4.568   6.111  0.2391 -0.0688 -2.3298
 8559SOL    HW237137   1.655   4.710   6.094  1.6704  1.1047  1.2750
 8560SOL     OW37138   4.457   1.322   3.722 -0.7824 -0.3323  0.2695
 8560SOL    HW137139   4.417   1.332   3.636 -1.5692 -0.7217  0.5848
 8560SOL    HW237140   4.378   1.306   3.774 -1.2432  0.1834 -0.2714
 8561SOL     OW37141   0.349   4.672   9.305  0.1790  0.2877 -0.8325
 8561SOL    HW137142   0.427   4.673   9.249 -0.3030 -1.4988 -1.5423
 8561SOL    HW237143   0.322   0.041   9.316 -0.2903  0.0919 -0.3482
 8562SOL     OW37144   3.343   2.035   3.775  0.3986 -0.1617 -0.7829
 8562SOL    HW137145   3.357   2.116   3.824  1.0036 -0.1361 -0.9945
 8562SOL    HW237146   3.253   2.053   3.749  1.2660  3.6173 -1.2598
 8563SOL     OW37147   2.115   4.670  10.708 -0.2928  0.4087  0.0180
 8563SOL    HW137148   2.128   4.713  10.793 -2.7763 -0.7751  0.9764
 8563SOL    HW237149   2.026   4.690  10.680 -0.8243 -1.1784  0.5639
 8564SOL     OW37150   1.416   0.659  17.089 -0.4884  0.6595 -0.4139
 8564SOL    HW137151   1.342   0.667  17.028 -0.7187  3.0334  0.1697
 8564SOL    HW237152   1.462   0.743  17.081  3.0422 -1.2837 -0.0003
 8565SOL     OW37153   2.333   0.872   6.985 -0.3154 -0.1299 -0.2210
 8565SOL    HW137154   2.247   0.835   7.005  0.4997 -2.7281 -1.5156
 8565SOL    HW237155   2.389   0.796   6.969  0.3011  0.4754 -0.9397
 8566SOL     OW37156   4.536   0.690   9.503 -0.1538 -0.1790 -0.0699
 8566SOL    HW137157   4.627   0.669   9.485 -0.2389  0.0078 -0.7352
 8566SOL    HW237158   4.516   0.606   9.544  1.3136 -0.3734  0.2387
 8567SOL     OW37159   0.551   4.201   5.208  0.0415  0.3778  0.2198
 8567SOL    HW137160   0.597   4.268   5.259 -2.7360  1.7389  0.9251
 8567SOL    HW237161   0.532   4.140   5.278 -4.0052 -0.0981 -1.3218
 8568SOL     OW37162   4.256   1.416  13.537 -0.3042  0.1556  0.5236
 8568SOL    HW137163   4.314   1.385  13.468  4.1056  3.1604  2.9035
 8568SOL    HW237164   4.178   1.360  13.532 -1.1283  1.1176  2.4564
 8569SOL     OW37165   3.822   3.466  16.787 -0.3532  0.4058 -0.3643
 8569SOL    HW137166   3.867   3.460  16.703  0.7991  0.1227  0.2697
 8569SOL    HW237167   3.831   3.379  16.827 -0.7035  0.7112  0.3769
 8570SOL     OW37168   1.798   2.436   8.411 -0.0539 -0.4981 -0.2657
 8570SOL    HW137169   1.732   2.481   8.464 -1.9561 -1.9141 -1.4279
 8570SOL    HW237170   1.837   2.377   8.476 -0.2205  0.0225  0.3153
 8571SOL     OW37171   2.707   3.389   8.093  0.8345 -0.1418  0.1135
 8571SOL    HW137172   2.695   3.449   8.019  0.2828  1.0131  1.1589
 8571SOL    HW237173   2.798   3.361   8.082  1.1433  1.5328 -1.5084
 8572SOL     OW37174   2.661   3.050   8.837  0.5516 -0.1458  0.2192
 8572SOL    HW137175   2.714   3.112   8.788 -1.3220 -0.6822 -2.4917
 8572SOL    HW237176   2.601   3.014   8.771  0.3991 -0.7439  0.6807
 8573SOL     OW37177   3.173   4.416   5.898 -0.1078  0.7028 -0.3294
 8573SOL    HW137178   3.199   4.498   5.856  1.0750  0.9384  0.8486
 8573SOL    HW237179   3.263   4.386   5.912  0.2279  1.1887 -1.4843
 8574SOL     OW37180   4.166   0.862  12.970  0.3791 -0.2072 -0.5096
 8574SOL    HW137181   4.237   0.860  12.906  0.6493  0.4907 -0.2284
 8574SOL    HW237182   4.219   0.851  13.049  0.5239 -0.3909 -0.6327
 8575SOL     OW37183   1.071   1.548   7.476  0.1135  0.2926 -0.1572
 8575SOL    HW137184   1.137   1.523   7.540 -0.2247 -0.2827 -0.0384
 8575SOL    HW237185   1.069   1.643   7.487  1.8866  0.1703  1.1469
 8576SOL     OW37186   2.090   0.167   4.207  0.3210 -0.1097 -0.3622
 8576SOL    HW137187   2.150   0.140   4.276 -2.2158 -1.8045  1.1733
 8576SOL    HW237188   2.122   0.257   4.196 -1.2941  0.3939 -0.8787
 8577SOL     OW37189   1.396   3.736   8.525  0.1958 -0.2054 -0.1232
 8577SOL    HW137190   1.483   3.698   8.515 -0.0209 -0.7815  0.1574
 8577SOL    HW237191   1.384   3.740   8.620 -0.1570  4.3803 -0.3438
 8578SOL     OW37192   4.642   2.111   7.342  0.4345  0.1082  0.2073
 8578SOL    HW137193   4.570   2.161   7.301 -0.7270 -0.8449  1.0926
 8578SOL    HW237194   4.649   2.050   7.268  0.0364 -1.5251  1.5247
 8579SOL     OW37195   2.805   2.799   6.675  0.1883  0.1056  0.1678
 8579SOL    HW137196   2.871   2.868   6.672 -0.8887  1.1302 -0.0481
 8579SOL    HW237197   2.763   2.819   6.759 -1.0793 -3.0079  0.3052
 8580SOL     OW37198   4.583   0.100   5.497 -0.8350 -0.0587 -0.3165
 8580SOL    HW137199   4.577   0.006   5.517 -1.3985  0.2505  0.9796
 8580SOL    HW237200   4.491   0.122   5.512 -0.7113 -0.2991  0.8524
 8581SOL     OW37201   2.032   4.342   7.512 -0.0921 -0.1734 -0.0270
 8581SOL    HW137202   2.001   4.411   7.452  0.7808  1.2256  1.1179
 8581SOL    HW237203   2.035   4.397   7.590 -1.1237 -0.9642  0.5618
 8582SOL     OW37204   3.202   0.556  15.983  0.0532  0.1286 -0.7377
 8582SOL    HW137205   3.268   0.529  15.919  0.8359  0.1597  0.0572
 8582SOL    HW237206   3.145   0.618  15.937  0.4577 -0.3148 -1.8547
 8583SOL     OW37207   0.745   1.938   1.789  0.4861 -0.0798 -0.2709
 8583SOL    HW137208   0.668   1.932   1.846  0.4261  1.1411 -0.2169
 8583SOL    HW237209   0.787   2.017   1.824  0.1450 -0.0362  0.0481
 8584SOL     OW37210   4.369   3.483   4.079 -0.3637  0.2908 -0.3156
 8584SOL    HW137211   4.407   3.401   4.048 -0.1256  0.9135 -1.6603
 8584SOL    HW237212   4.342   3.448   4.165  0.2214  1.0436  0.1721
 8585SOL     OW37213   0.442   4.659   0.558  0.0150 -0.0282 -0.2081
 8585SOL    HW137214   0.395   4.691   0.635 -0.1386 -0.3457 -0.1705
 8585SOL    HW237215   0.534   4.668   0.584  0.0939  0.3736 -0.6363
 8586SOL     OW37216   4.531   0.341   9.896  0.0315 -0.4161  0.4586
 8586SOL    HW137217   4.583   0.261   9.888 -0.3248 -0.4158 -1.9269
 8586SOL    HW237218   4.580   0.406   9.846  3.2042 -0.9323  2.8959
 8587SOL     OW37219   4.563   4.095  13.480 -0.5362  0.7707  0.1793
 8587SOL    HW137220   4.615   4.111  13.559 -0.2041 -3.7365  0.8370
 8587SOL    HW237221   4.533   4.006  13.500 -2.4743  1.1263 -1.1191
 8588SOL     OW37222   4.342   3.725  12.049 -0.1183  0.2567 -0.2674
 8588SOL    HW137223   4.306   3.726  12.138 -0.2401 -2.2978 -0.2895
 8588SOL    HW237224   4.378   3.637  12.041 -0.3227  0.1978 -0.5242
 8589SOL     OW37225   2.605   3.366   5.973 -1.1291 -0.2415  0.0843
 8589SOL    HW137226   2.658   3.290   5.996  0.5185  0.9618  0.2613
 8589SOL    HW237227   2.678   3.422   5.947 -1.7734  0.8927  0.7008
 8590SOL     OW37228   3.470   2.337   9.345  0.0098 -0.2487 -0.2035
 8590SOL    HW137229   3.441   2.289   9.267 -0.7612 -1.7342  1.0211
 8590SOL    HW237230   3.492   2.419   9.301  0.8733 -1.3601 -1.8489
 8591SOL     OW37231   0.662   1.377   6.511  0.4231 -0.0870 -0.0191
 8591SOL    HW137232   0.614   1.443   6.561 -0.1173 -0.9608  0.6197
 8591SOL    HW237233   0.617   1.296   6.535 -0.4051  0.2978 -0.2589
 8592SOL     OW37234   1.116   2.888   5.483 -0.4125  0.3489  0.0354
 8592SOL    HW137235   1.171   2.823   5.526 -1.0765 -0.5827 -0.5036
 8592SOL    HW237236   1.048   2.829   5.448 -0.5822  0.6829 -0.1962
 8593SOL     OW37237   0.498   0.187  12.578  0.5316  0.4160  0.3755
 8593SOL    HW137238   0.539   0.126  12.517 -0.5278  0.8349 -0.7630
 8593SOL    HW237239   0.566   0.197  12.645  2.3171  1.6296 -1.6345
 8594SOL     OW37240   0.288   3.964   6.962  0.3569  0.2356 -0.1107
 8594SOL    HW137241   0.375   3.999   6.941  1.0269 -0.9713  0.6150
 8594SOL    HW237242   0.312   3.873   6.981 -0.7128  0.1385  0.7381
 8595SOL     OW37243   3.150   3.481   4.301  0.5718 -0.0572 -0.5309
 8595SOL    HW137244   3.086   3.510   4.237 -0.1672  0.3457  0.3864
 8595SOL    HW237245   3.149   3.546   4.371 -3.7755 -1.3677  0.6393
 8596SOL     OW37246   0.997   2.768  13.583  0.8398 -0.3809 -0.3530
 8596SOL    HW137247   1.059   2.840  13.591 -0.3985  0.2614  3.1300
 8596SOL    HW237248   1.002   2.740  13.674  1.7228 -2.7077 -1.1336
 8597SOL     OW37249   0.190   3.265   7.155  0.3375  0.5343 -0.6550
 8597SOL    HW137250   0.169   3.307   7.239 -0.4274 -0.1959 -0.4835
 8597SOL    HW237251   0.104   3.238   7.124  0.3193  0.7678 -0.8103
 8598SOL     OW37252   2.535   3.582   0.763  0.0483 -0.1961  0.4928
 8598SOL    HW137253   2.540   3.613   0.853 -0.4270 -1.0508  0.8090
 8598SOL    HW237254   2.453   3.533   0.764 -0.2281  0.2684  0.3493
 8599SOL     OW37255   0.943   0.034   8.567  0.6354  0.5031 -0.8257
 8599SOL    HW137256   0.987   4.689   8.516  2.8853  0.0470  1.7423
 8599SOL    HW237257   0.857   0.036   8.525  1.0074  0.3273 -1.5861
 8600SOL     OW37258   1.642   0.051   3.505  0.6568  0.0325  0.2848
 8600SOL    HW137259   1.615   0.138   3.475  1.2575 -1.2050 -3.8526
 8600SOL    HW237260   1.702   0.034   3.433 -2.7100 -1.7025 -2.1413
 8601SOL     OW37261   2.708   2.236  13.226  0.2046  0.2732  0.5109
 8601SOL    HW137262   2.710   2.166  13.160  2.1055 -0.9614  1.8970
 8601SOL    HW237263   2.650   2.297  13.180 -0.0032 -1.4987 -1.5796
 8602SOL     OW37264   0.791   1.797  10.286  0.6783 -0.4896 -0.1393
 8602SOL    HW137265   0.886   1.797  10.272  0.7521  0.8304  0.4541
 8602SOL    HW237266   0.769   1.711  10.249  1.1927 -0.3164 -0.8452
 8603SOL     OW37267   2.158   2.633   6.866  0.2358  0.0009  0.0083
 8603SOL    HW137268   2.189   2.621   6.777  3.5489 -1.1423  1.3403
 8603SOL    HW237269   2.235   2.605   6.915  1.0081  1.9614 -0.0709
 8604SOL     OW37270   3.805   4.545   3.045 -0.0619 -0.6988 -0.2061
 8604SOL    HW137271   3.833   4.603   3.115 -0.2994  0.7068 -1.2845
 8604SOL    HW237272   3.890   4.503   3.034  1.4497  2.5351 -0.8235
 8605SOL     OW37273   3.691   3.009   0.273  0.3853 -0.2602  0.1605
 8605SOL    HW137274   3.624   2.964   0.326 -1.8702  0.2304 -2.2935
 8605SOL    HW237275   3.672   2.985   0.182  0.3472  2.2996 -0.4937
 8606SOL     OW37276   1.682   4.063   2.418  0.6664 -0.0838 -0.0432
 8606SOL    HW137277   1.597   4.056   2.374 -0.4922 -1.0150  2.4028
 8606SOL    HW237278   1.657   4.040   2.507 -0.8668 -0.6211 -0.6244
 8607SOL     OW37279   0.182   3.294  10.007 -0.1559 -0.3454  0.1324
 8607SOL    HW137280   0.139   3.380  10.003  0.2553  0.0484  3.9745
 8607SOL    HW237281   0.265   3.319  10.046 -0.1797  0.1221 -0.1239
 8608SOL     OW37282   1.400   3.113   9.293 -0.5404 -0.2826 -0.5173
 8608SOL    HW137283   1.365   3.202   9.285  1.2178  0.6207  2.0215
 8608SOL    HW237284   1.478   3.111   9.238  0.6017 -1.0530  1.1456
 8609SOL     OW37285   4.347   3.132  10.523  0.0340 -0.3797  0.2649
 8609SOL    HW137286   4.258   3.146  10.490  0.4330  1.1824 -0.1358
 8609SOL    HW237287   4.386   3.218  10.506 -0.1615 -0.5077 -0.8275
 8610SOL     OW37288   0.651   1.519   1.764  0.1083 -0.4605  0.0907
 8610SOL    HW137289   0.570   1.470   1.771  0.7517 -2.0428 -3.3187
 8610SOL    HW237290   0.673   1.544   1.854  0.7141 -1.9097  0.3402
 8611SOL     OW37291   0.425   1.703   5.743  0.2164 -0.4677 -0.0499
 8611SOL    HW137292   0.519   1.694   5.760  0.9456  2.6632 -2.5466
 8611SOL    HW237293   0.425   1.706   5.647  0.8269  0.7737 -0.0018
 8612SOL     OW37294   3.040   1.531   3.247 -0.2720  0.0708  0.0268
 8612SOL    HW137295   3.011   1.529   3.339 -2.0144  1.5882 -0.4866
 8612SOL    HW237296   2.961   1.498   3.205 -1.0471 -2.0521  3.1123
 8613SOL     OW37297   2.472   4.228  14.514  0.8892  0.3037  0.7031
 8613SOL    HW137298   2.404   4.267  14.459 -0.4946 -1.8526  0.8704
 8613SOL    HW237299   2.423   4.188  14.585 -1.0025  0.8857 -0.2814
 8614SOL     OW37300   0.379   1.173  10.123 -0.4646  0.1907  0.0421
 8614SOL    HW137301   0.291   1.179  10.161  0.2436  0.2720  1.6829
 8614SOL    HW237302   0.426   1.129  10.194 -0.2050  0.4657  0.0378
 8615SOL     OW37303   2.351   4.546   5.666 -0.4313 -0.0533  0.3552
 8615SOL    HW137304   2.334   4.617   5.604  0.3907 -1.2043 -1.1757
 8615SOL    HW237305   2.392   4.596   5.737 -0.0095 -1.3093  0.9938
 8616SOL     OW37306   0.535   4.209  14.039  0.0989 -0.0960  0.0357
 8616SOL    HW137307   0.593   4.286  14.042  0.8970 -0.7215  0.4996
 8616SOL    HW237308   0.606   4.146  14.026 -0.0464 -0.1739 -0.3881
 8617SOL     OW37309   1.037   3.011   1.444 -0.0928  0.1127 -0.1157
 8617SOL    HW137310   0.955   3.027   1.490 -0.9462  0.3440 -1.7463
 8617SOL    HW237311   1.099   3.006   1.517 -0.6518  0.6333  0.3939
 8618SOL     OW37312   3.456   4.720  11.090  0.1168 -0.5012 -0.0962
 8618SOL    HW137313   3.497   4.636  11.112  0.0396 -0.1369  1.4065
 8618SOL    HW237314   3.392   0.021  11.157  0.2802  2.0508 -0.8171
 8619SOL     OW37315   0.342   4.510  13.997 -0.0236  0.5017  0.2130
 8619SOL    HW137316   0.425   4.544  13.965 -0.7977  1.2298 -1.0394
 8619SOL    HW237317   0.281   4.552  13.936 -0.9211 -2.5899 -0.9975
 8620SOL     OW37318   2.043   2.392  15.597 -0.0456 -0.1304 -0.1626
 8620SOL    HW137319   2.075   2.468  15.547  2.4757  0.0581  1.7432
 8620SOL    HW237320   1.975   2.425  15.656 -0.2689 -0.7151 -0.1008
 8621SOL     OW37321   3.726   1.656   4.793 -0.1214 -0.3044  0.0020
 8621SOL    HW137322   3.667   1.731   4.798  1.9036  1.4603 -2.6443
 8621SOL    HW237323   3.665   1.584   4.775 -0.0063 -0.4423  0.1578
 8622SOL     OW37324   3.717   2.259  12.438  0.3669  0.1385  0.1103
 8622SOL    HW137325   3.639   2.310  12.459 -0.5032 -1.0623 -0.2052
 8622SOL    HW237326   3.776   2.331  12.461  1.3232 -1.2775  2.1014
 8623SOL     OW37327   3.347   0.545   4.385  0.1600  0.1133 -0.3188
 8623SOL    HW137328   3.356   0.543   4.480  0.0643 -0.2491 -0.3161
 8623SOL    HW237329   3.282   0.476   4.371  0.8304 -0.4805 -0.5247
 8624SOL     OW37330   4.551   1.496   0.195  0.0402 -0.8746  0.0546
 8624SOL    HW137331   4.467   1.509   0.151 -0.8444 -1.7996  1.4401
 8624SOL    HW237332   4.526   1.537   0.278 -2.1672 -0.8779 -0.6154
 8625SOL     OW37333   1.124   1.339   1.677  0.5341  0.4089 -0.2021
 8625SOL    HW137334   1.205   1.390   1.685  0.4591  0.3891  0.6919
 8625SOL    HW237335   1.062   1.400   1.715 -2.0230 -2.1663 -0.2538
 8626SOL     OW37336   1.165   1.886   4.016 -0.1694  0.8335 -0.7395
 8626SOL    HW137337   1.172   1.834   3.936 -0.1006  1.4647 -1.1413
 8626SOL    HW237338   1.187   1.971   3.977 -1.8642  1.9212  0.6690
 8627SOL     OW37339   0.509   1.904  12.325  0.2884  0.2946 -0.1851
 8627SOL    HW137340   0.459   1.951  12.392 -0.5453  2.5197 -2.3714
 8627SOL    HW237341   0.519   1.972  12.259 -1.1889 -1.0682 -1.8163
 8628SOL     OW37342   3.376   2.711   9.081 -0.3352 -0.2992 -0.4734
 8628SOL    HW137343   3.424   2.669   9.153  1.0997  1.4551 -0.3995
 8628SOL    HW237344   3.450   2.765   9.054  0.4432 -0.6519  0.9467
 8629SOL     OW37345   2.863   0.155   5.942  0.6392  0.1314  0.1062
 8629SOL    HW137346   2.866   0.094   5.869  1.4641 -2.0790  1.9740
 8629SOL    HW237347   2.831   0.098   6.012 -3.2680  1.3131 -0.7290
 8630SOL     OW37348   3.183   0.996   7.064  0.1804  0.7360  0.1123
 8630SOL    HW137349   3.120   0.964   6.999  1.5365 -1.1197 -0.2657
 8630SOL    HW237350   3.260   0.998   7.007  0.5374  0.8489  0.6024
 8631SOL     OW37351   3.800   3.001  11.122  0.0061 -0.1239  0.2069
 8631SOL    HW137352   3.847   2.925  11.087  0.2207  0.4042 -0.6355
 8631SOL    HW237353   3.743   3.022  11.049 -0.8925  0.2335  1.0147
 8632SOL     OW37354   3.211   2.547  16.366  0.5165  0.2034  0.3325
 8632SOL    HW137355   3.174   2.610  16.304  0.7121 -2.6329 -2.6816
 8632SOL    HW237356   3.293   2.587  16.394  1.4729 -2.0680  0.7566
 8633SOL     OW37357   0.342   0.715  15.234 -0.0585 -0.2913  0.1548
 8633SOL    HW137358   0.320   0.797  15.189 -0.8823 -1.1671 -1.0083
 8633SOL    HW237359   0.311   0.748  15.319  2.2541  0.3274  0.7831
 8634SOL     OW37360   0.120   3.489   9.450 -0.4411 -0.4292  0.0744
 8634SOL    HW137361   0.067   3.501   9.529 -0.8152 -2.5637  0.1426
 8634SOL    HW237362   0.055   3.479   9.380 -0.5124 -1.5641  0.2942
 8635SOL     OW37363   0.671   2.532   2.288 -0.2995 -0.7417  0.1948
 8635SOL    HW137364   0.598   2.593   2.282  0.8442  0.4208 -2.0151
 8635SOL    HW237365   0.723   2.538   2.207 -0.3460  0.7171  0.2655
 8636SOL     OW37366   1.579   3.218   2.629  0.4261 -0.1312 -0.2616
 8636SOL    HW137367   1.491   3.184   2.648  1.1891 -1.3316  1.0772
 8636SOL    HW237368   1.644   3.154   2.660  0.0798 -0.4973 -0.2835
 8637SOL     OW37369   1.954   4.564  17.099 -0.4924 -0.2854  0.1867
 8637SOL    HW137370   1.891   4.633  17.078  1.9633  2.0547  0.6033
 8637SOL    HW237371   1.899   4.490  17.125 -1.1595  0.3345  0.5193
 8638SOL     OW37372   2.284   2.668  11.818  0.4675 -0.3521 -0.3969
 8638SOL    HW137373   2.299   2.576  11.796  0.7186 -0.3754 -0.1254
 8638SOL    HW237374   2.217   2.699  11.757 -0.5343 -1.7407 -0.0024
 8639SOL     OW37375   2.582   4.498   7.741 -0.0072 -0.4177 -0.3118
 8639SOL    HW137376   2.602   4.546   7.661 -2.3630 -0.4646 -0.9324
 8639SOL    HW237377   2.637   4.419   7.740 -2.6389 -2.2520 -0.1667
 8640SOL     OW37378   1.076   3.666   2.529  0.1529 -0.4610  0.3581
 8640SOL    HW137379   1.029   3.747   2.507  0.4399 -0.4749 -0.2875
 8640SOL    HW237380   1.049   3.638   2.617 -0.8356 -0.9799 -0.0971
 8641SOL     OW37381   3.686   2.987   0.618 -0.6444 -0.1690 -0.7332
 8641SOL    HW137382   3.698   2.892   0.609 -3.6565 -0.9036  2.6529
 8641SOL    HW237383   3.591   2.991   0.606 -0.8217 -0.9588  0.4834
 8642SOL     OW37384   0.957   2.245   7.782  0.2821 -0.2218 -0.5285
 8642SOL    HW137385   0.909   2.259   7.864 -0.6574  0.5587 -1.2094
 8642SOL    HW237386   0.884   2.254   7.721 -0.3455 -1.5911  0.0103
 8643SOL     OW37387   2.018   3.632   3.571 -0.3269 -0.6739  0.4277
 8643SOL    HW137388   2.014   3.600   3.481  0.1684  3.4566 -1.0776
 8643SOL    HW237389   2.090   3.695   3.561 -1.1426 -0.1766 -2.3888
 8644SOL     OW37390   0.581   1.788  13.650  0.3682  0.6417 -0.5066
 8644SOL    HW137391   0.542   1.719  13.703 -0.6160  1.5944  0.0181
 8644SOL    HW237392   0.580   1.745  13.565  1.0356 -0.7235  0.1833
 8645SOL     OW37393   3.968   2.997   5.767  0.1312  0.2519 -0.4165
 8645SOL    HW137394   4.048   3.003   5.715  0.6540  3.3122  0.7541
 8645SOL    HW237395   3.971   3.073   5.826  1.4988  1.2910 -1.8317
 8646SOL     OW37396   2.762   1.035   8.366 -0.0798 -0.2426 -0.2125
 8646SOL    HW137397   2.845   0.996   8.339  0.7446  0.9782  0.5877
 8646SOL    HW237398   2.797   1.124   8.371 -1.4244  0.2397  0.6719
 8647SOL     OW37399   0.624   4.559   4.264  0.4786 -0.9394 -0.6861
 8647SOL    HW137400   0.666   4.607   4.335  0.2352 -0.3794 -0.9192
 8647SOL    HW237401   0.599   4.476   4.305 -0.0967 -0.8201 -0.7952
 8648SOL     OW37402   4.716   4.520   8.732 -0.0975  0.3682 -0.3912
 8648SOL    HW137403   4.629   4.487   8.714 -0.1027 -0.3148  0.8916
 8648SOL    HW237404   0.017   4.573   8.656  0.7814  0.4807 -0.0503
 8649SOL     OW37405   0.199   1.262  10.804  0.2517  0.2466  0.0754
 8649SOL    HW137406   0.199   1.265  10.900  0.2342  0.1478  0.0779
 8649SOL    HW237407   0.145   1.341  10.792 -1.3411 -0.8271  0.1914
 8650SOL     OW37408   3.425   0.324   2.979 -0.1926 -0.1963  0.8006
 8650SOL    HW137409   3.407   0.404   3.029 -0.5040  0.0687  0.2581
 8650SOL    HW237410   3.495   0.284   3.031  0.9107 -0.4074 -0.8424
 8651SOL     OW37411   2.173   2.393   4.674  0.7715  0.6314  0.3650
 8651SOL    HW137412   2.149   2.379   4.582  0.6870 -2.2275  0.8278
 8651SOL    HW237413   2.267   2.409   4.671  0.6849  1.1582  0.4913
 8652SOL     OW37414   2.198   0.388   4.887  0.2916 -0.0177 -0.6949
 8652SOL    HW137415   2.203   0.483   4.901  2.6771 -0.3067  0.3792
 8652SOL    HW237416   2.291   0.367   4.887  0.7272  1.8796 -1.7005
 8653SOL     OW37417   4.390   1.300   4.907 -0.1738 -0.2786  0.1167
 8653SOL    HW137418   4.326   1.229   4.904  2.0851 -2.3187  0.1027
 8653SOL    HW237419   4.346   1.371   4.860  1.7881  1.3820  0.7767
 8654SOL     OW37420   0.928   3.877  10.350  0.5636  0.1557  0.3217
 8654SOL    HW137421   0.968   3.933  10.416 -0.8681  0.6222  0.8027
 8654SOL    HW237422   0.998   3.857  10.288 -0.1698  0.0105 -0.4625
 8655SOL     OW37423   3.439   4.072   8.710  0.6495  0.1089 -0.2612
 8655SOL    HW137424   3.518   4.122   8.691  0.6487  0.2302  0.0584
 8655SOL    HW237425   3.404   4.125   8.781 -0.4739  0.2636 -0.9386
 8656SOL     OW37426   0.975   2.161   7.471  0.3600 -0.0009  0.2013
 8656SOL    HW137427   0.929   2.101   7.412  3.3888 -1.3575 -0.7858
 8656SOL    HW237428   0.937   2.243   7.439  1.7678  0.0157 -1.4434
 8657SOL     OW37429   3.550   4.687   3.428  0.1833 -0.3880 -0.0684
 8657SOL    HW137430   3.535   4.660   3.337  0.7699 -1.2803  0.1025
 8657SOL    HW237431   3.462   4.674   3.464 -0.6560  0.3301 -1.8423
 8658SOL     OW37432   2.095   1.563   2.988  0.2438  0.0069 -0.4221
 8658SOL    HW137433   2.157   1.533   3.054  0.4024  2.1670  0.3718
 8658SOL    HW237434   2.016   1.533   3.033  0.3035 -0.1230 -0.4028
 8659SOL     OW37435   1.482   2.205   7.310 -0.0645 -0.5578  0.2543
 8659SOL    HW137436   1.534   2.202   7.230  0.1801 -1.2449  0.4385
 8659SOL    HW237437   1.396   2.190   7.271  0.2135 -0.7490 -0.2772
 8660SOL     OW37438   4.210   2.376   6.260 -0.0947 -0.5680  0.2973
 8660SOL    HW137439   4.142   2.439   6.233 -0.4298 -1.7403 -1.5539
 8660SOL    HW237440   4.293   2.424   6.254  0.4860 -1.3250  2.4578
 8661SOL     OW37441   3.277   3.665  16.614  0.4290 -0.7343  0.5042
 8661SOL    HW137442   3.270   3.668  16.709  0.0272  0.3158  0.4451
 8661SOL    HW237443   3.198   3.700  16.573  0.7779 -2.4372 -1.6836
 8662SOL     OW37444   2.502   1.862   8.781  0.4962 -0.1358 -0.1330
 8662SOL    HW137445   2.480   1.778   8.821  0.0233 -1.1689 -2.5931
 8662SOL    HW237446   2.425   1.909   8.813  0.1956 -0.7439  0.0233
 8663SOL     OW37447   1.465   3.673   8.804 -0.9350  0.1329  0.3906
 8663SOL    HW137448   1.506   3.755   8.832  1.3966 -0.4346 -1.3540
 8663SOL    HW237449   1.471   3.615   8.880 -1.9975  0.1663  0.4926
 8664SOL     OW37450   1.057   1.292  10.451 -0.0188 -0.2578 -0.2602
 8664SOL    HW137451   1.019   1.204  10.454  0.4767 -0.4707 -0.3708
 8664SOL    HW237452   1.148   1.276  10.475 -0.2604  1.5033  1.8441
 8665SOL     OW37453   0.258   3.010   4.692 -0.0672 -0.0788  0.5194
 8665SOL    HW137454   0.281   3.035   4.782  0.7881  3.5104 -0.7105
 8665SOL    HW237455   0.173   2.970   4.710 -0.2857  0.8392  1.4850
 8666SOL     OW37456   1.136   2.982   8.141  0.1528 -0.3371 -0.6759
 8666SOL    HW137457   1.197   2.967   8.069  0.8934  0.6571 -0.2616
 8666SOL    HW237458   1.143   3.077   8.129  0.7123  0.0967  3.1383
 8667SOL     OW37459   1.563   0.604   1.903 -0.6197 -0.1182 -0.4112
 8667SOL    HW137460   1.486   0.550   1.922  0.3208 -0.8044  1.3788
 8667SOL    HW237461   1.591   0.631   1.990 -0.2951 -1.7479 -0.0129
 8668SOL     OW37462   0.570   0.127   1.913 -0.5766 -0.5766  0.0570
 8668SOL    HW137463   0.504   0.069   1.876  0.6357 -1.2303 -1.0918
 8668SOL    HW237464   0.591   0.175   1.833 -1.7957 -1.2910 -0.6871
 8669SOL     OW37465   2.885   2.868   3.651  0.0317 -0.5597 -0.9186
 8669SOL    HW137466   2.967   2.824   3.675 -1.7956 -3.9576 -0.8764
 8669SOL    HW237467   2.819   2.818   3.699  2.0600  1.3211  3.7832
 8670SOL     OW37468   4.204   4.044   8.565  0.5682 -0.0490 -0.6182
 8670SOL    HW137469   4.130   3.983   8.570  1.1332 -0.8179 -1.5462
 8670SOL    HW237470   4.181   4.091   8.645  0.5421 -0.8214 -0.1677
 8671SOL     OW37471   1.966   4.650   1.921 -0.0625  1.0405  0.4780
 8671SOL    HW137472   2.061   4.647   1.907  0.0450  0.1625  1.3497
 8671SOL    HW237473   1.944   4.572   1.972 -0.0215  1.0260  0.4737
 8672SOL     OW37474   3.491   2.393   1.931 -0.0285  0.1216  0.0448
 8672SOL    HW137475   3.430   2.421   1.863  0.2904 -0.8249 -0.6240
 8672SOL    HW237476   3.463   2.450   2.003  1.7979  1.1165 -0.0298
 8673SOL     OW37477   4.293   4.557   7.460  0.1803  0.2457 -0.2593
 8673SOL    HW137478   4.347   4.518   7.528  0.1082  2.1919  0.9071
 8673SOL    HW237479   4.299   4.497   7.386  3.3214  0.5908 -0.2866
 8674SOL     OW37480   0.858   1.668   4.589 -0.0585  0.1896 -0.1292
 8674SOL    HW137481   0.944   1.711   4.584  1.1977 -2.5387 -2.3931
 8674SOL    HW237482   0.855   1.605   4.516  1.2866  1.6551 -1.4555
 8675SOL     OW37483   1.775   3.929   8.088 -0.0736 -0.2192 -0.8936
 8675SOL    HW137484   1.819   3.890   8.013 -3.6566 -1.1874 -2.5120
 8675SOL    HW237485   1.834   4.001   8.109 -1.5376 -0.1585  2.9446
 8676SOL     OW37486   2.432   3.583  12.461 -0.0332  0.3560  1.0446
 8676SOL    HW137487   2.448   3.651  12.526  1.4032 -0.4086  1.5026
 8676SOL    HW237488   2.454   3.513  12.523 -0.8911  0.2853  1.2653
 8677SOL     OW37489   2.524   4.051   0.317 -0.1059 -0.4781 -0.5051
 8677SOL    HW137490   2.473   4.105   0.257  2.0006 -1.3012 -3.0428
 8677SOL    HW237491   2.547   3.976   0.262  0.1661 -0.5549 -0.2880
 8678SOL     OW37492   3.608   3.417   3.536 -0.2395  0.1987  0.0090
 8678SOL    HW137493   3.570   3.332   3.561 -2.0047  0.1873 -2.7816
 8678SOL    HW237494   3.660   3.377   3.467  1.6069  0.6764  1.1155
 8679SOL     OW37495   2.092   1.289   6.456 -0.5099 -0.2575 -0.6687
 8679SOL    HW137496   2.106   1.328   6.543  0.6172  1.1378 -1.4781
 8679SOL    HW237497   2.170   1.235   6.459  0.2205  0.9018  1.9749
 8680SOL     OW37498   0.774   1.135   1.874  0.0286  0.0710  0.2020
 8680SOL    HW137499   0.740   1.177   1.953  3.1768  0.6545  1.2552
 8680SOL    HW237500   0.754   1.042   1.884 -1.3095  0.3780  0.3666
 8681SOL     OW37501   0.537   3.430  16.890 -0.6951 -0.3455 -0.3188
 8681SOL    HW137502   0.543   3.369  16.817 -1.3080 -2.1917  1.1698
 8681SOL    HW237503   0.592   3.496  16.848 -0.4956 -0.5908 -0.4425
 8682SOL     OW37504   1.198   3.127   6.208  0.5123 -0.9125  0.0679
 8682SOL    HW137505   1.134   3.177   6.258  0.9376 -1.1618  0.8465
 8682SOL    HW237506   1.278   3.179   6.217  1.6096 -2.6391  0.2973
 8683SOL     OW37507   1.597   0.124   5.502  0.5586 -0.3924 -0.6339
 8683SOL    HW137508   1.636   0.065   5.566  0.7969  1.5278  0.9996
 8683SOL    HW237509   1.632   0.213   5.515  1.2223 -0.8415  0.6961
 8684SOL     OW37510   2.688   2.681  11.371 -0.2538  0.1832 -0.4608
 8684SOL    HW137511   2.654   2.682  11.461 -0.5420  3.8543 -0.6332
 8684SOL    HW237512   2.627   2.751  11.347  1.4149  2.0695  0.7693
 8685SOL     OW37513   4.641   1.359   2.828 -0.3701 -0.7942  0.3376
 8685SOL    HW137514   4.574   1.426   2.836 -0.2055 -0.9051  2.4797
 8685SOL    HW237515   4.648   1.341   2.922 -1.9861 -0.9320  0.4226
 8686SOL     OW37516   2.958   2.944   8.087  0.7239 -0.1505  0.0829
 8686SOL    HW137517   2.876   2.907   8.055  1.0900  0.5535 -1.6350
 8686SOL    HW237518   2.960   2.906   8.176  0.5671 -1.3700 -0.4274
 8687SOL     OW37519   1.633   0.720  10.415 -0.2411  0.0225  0.1699
 8687SOL    HW137520   1.651   0.637  10.371  2.5632  0.0173  1.3083
 8687SOL    HW237521   1.540   0.703  10.429 -0.2626  0.1338  0.1636
 8688SOL     OW37522   3.631   0.789   2.501 -0.2214 -0.0775 -0.2098
 8688SOL    HW137523   3.577   0.814   2.576  1.2355 -2.0874  1.5166
 8688SOL    HW237524   3.666   0.709   2.540 -0.5714  0.1091  0.4792
 8689SOL     OW37525   1.947   1.491   3.891  0.6144  0.5931 -0.1605
 8689SOL    HW137526   1.887   1.515   3.820 -1.5368 -1.0816  1.1079
 8689SOL    HW237527   1.906   1.534   3.966  2.4240 -1.4202  1.9598
 8690SOL     OW37528   3.517   0.685   0.239  0.6071 -0.1650 -1.0057
 8690SOL    HW137529   3.563   0.619   0.187  1.1807 -0.8423  0.3597
 8690SOL    HW237530   3.437   0.636   0.259  0.6843 -0.6544 -1.9077
 8691SOL     OW37531   2.302   2.053   5.162  0.0628 -0.3782 -0.0375
 8691SOL    HW137532   2.354   1.979   5.130  1.0711 -0.2540  1.3077
 8691SOL    HW237533   2.329   2.134   5.118  2.2730 -1.1399 -0.0929
 8692SOL     OW37534   1.185   0.045  17.399  0.2769  0.2733 -0.0944
 8692SOL    HW137535   1.272   0.081  17.383 -0.2707  0.8190 -1.8445
 8692SOL    HW237536   1.200   4.712  17.476 -1.8801  0.7231  0.6566
 8693SOL     OW37537   4.148   3.586   7.160  0.1248 -0.4358 -0.6793
 8693SOL    HW137538   4.146   3.490   7.168 -2.5161 -0.4160 -0.9148
 8693SOL    HW237539   4.229   3.605   7.207 -0.2579 -0.8400  0.1424
 8694SOL     OW37540   1.023   4.057   4.912 -0.2655 -0.3322 -0.5859
 8694SOL    HW137541   1.073   4.085   4.990 -0.5142  0.2518 -0.6352
 8694SOL    HW237542   0.950   4.119   4.912 -0.3425 -0.3783  2.3377
 8695SOL     OW37543   3.186   1.483   7.909 -0.3646 -0.2954  0.2249
 8695SOL    HW137544   3.205   1.532   7.989  1.1653  0.3812 -0.5730
 8695SOL    HW237545   3.271   1.483   7.866 -0.2356  2.1425  0.5309
 8696SOL     OW37546   3.356   3.084   3.412  0.3376 -0.2850  0.5323
 8696SOL    HW137547   3.442   3.045   3.396 -0.8258 -2.6012  0.0251
 8696SOL    HW237548   3.305   3.022   3.360 -1.2486 -0.6339  2.5138
 8697SOL     OW37549   4.571   1.048   5.901 -1.0395  0.2164  0.2910
 8697SOL    HW137550   4.586   1.108   5.974 -1.9723  0.3267  0.3955
 8697SOL    HW237551   4.508   1.093   5.845 -0.0210  1.1909 -0.0631
 8698SOL     OW37552   3.404   4.311   5.097 -0.0687  0.4894 -0.6038
 8698SOL    HW137553   3.325   4.298   5.044 -0.4386 -0.0796  0.0819
 8698SOL    HW237554   3.466   4.256   5.048 -0.6911 -0.9640  0.2278
 8699SOL     OW37555   2.545   2.726   0.477 -0.4216  0.2024  0.1125
 8699SOL    HW137556   2.628   2.712   0.523 -0.6565  2.9456  1.3921
 8699SOL    HW237557   2.484   2.732   0.551 -2.4526  0.8541 -1.5976
 8700SOL     OW37558   0.404   1.572  10.684  0.4922 -0.0360  0.4559
 8700SOL    HW137559   0.449   1.649  10.650 -0.3447  0.0976 -0.3482
 8700SOL    HW237560   0.384   1.604  10.772 -1.5253 -0.6739  0.2131
 8701SOL     OW37561   0.920   2.099   8.203  0.0096  0.3349 -0.0520
 8701SOL    HW137562   0.913   2.099   8.298 -1.0585 -0.5651 -0.1341
 8701SOL    HW237563   0.999   2.153   8.194 -0.6878  1.1727 -1.2031
 8702SOL     OW37564   3.384   0.598   3.048 -0.2808 -0.5860 -0.2199
 8702SOL    HW137565   3.315   0.654   3.012  1.4546  1.0619 -0.9580
 8702SOL    HW237566   3.338   0.565   3.125  1.3944 -0.7393  0.7094
 8703SOL     OW37567   0.553   0.388   5.899  0.2777  0.2524  0.0264
 8703SOL    HW137568   0.483   0.415   5.839  0.4977  0.9280  0.0795
 8703SOL    HW237569   0.516   0.308   5.937  0.5021 -0.9576 -2.3515
 8704SOL     OW37570   3.567   3.616  12.612 -0.1611  0.2490  0.0971
 8704SOL    HW137571   3.628   3.596  12.541 -0.6046 -0.6902 -0.0228
 8704SOL    HW237572   3.632   3.648  12.674 -0.7854  2.5713 -0.4609
 8705SOL     OW37573   2.298   3.733   5.743 -1.1759 -0.0048  0.3031
 8705SOL    HW137574   2.328   3.812   5.697  2.7458 -2.6036 -1.6159
 8705SOL    HW237575   2.379   3.704   5.785 -1.8354 -3.0741 -0.5622
 8706SOL     OW37576   2.964   2.629   8.361 -0.4285  0.0206  0.5493
 8706SOL    HW137577   2.974   2.536   8.340  2.2092  0.6566 -0.8881
 8706SOL    HW237578   2.894   2.637   8.297  0.9385  1.9525 -0.6770
 8707SOL     OW37579   0.539   3.284  11.565 -0.4117 -0.5084 -0.0418
 8707SOL    HW137580   0.443   3.283  11.576 -0.6620  1.6867 -2.0343
 8707SOL    HW237581   0.571   3.285  11.655 -0.5204  1.5444 -0.0293
 8708SOL     OW37582   3.815   0.887  17.389 -0.9056  0.0501 -0.5482
 8708SOL    HW137583   3.812   0.792  17.390  0.0679  0.0098 -2.1458
 8708SOL    HW237584   3.889   0.908  17.446 -2.7816  0.9165  1.5727
 8709SOL     OW37585   3.507   0.374   5.937  0.0652  0.0342 -0.1643
 8709SOL    HW137586   3.570   0.355   5.868  0.4417  2.1373 -0.3763
 8709SOL    HW237587   3.539   0.461   5.957 -0.2696  0.1553 -0.1535
 8710SOL     OW37588   3.783   0.853   4.826  0.1059  0.2371 -0.1433
 8710SOL    HW137589   3.740   0.768   4.836  2.7438 -1.1635 -0.7649
 8710SOL    HW237590   3.831   0.852   4.744  0.2492  0.7631 -0.0718
 8711SOL     OW37591   2.002   4.402  14.695 -0.0965 -0.0211 -0.1708
 8711SOL    HW137592   2.002   4.378  14.602  0.3480  1.9732 -0.6894
 8711SOL    HW237593   1.908   4.417  14.696 -0.1370 -0.1184 -2.0929
 8712SOL     OW37594   4.222   1.145   1.044 -0.5865 -0.1294 -0.0187
 8712SOL    HW137595   4.209   1.181   0.956  1.4640  0.2163 -0.1709
 8712SOL    HW237596   4.308   1.181   1.064 -1.8007  2.3713  0.5927
 8713SOL     OW37597   4.267   0.044   2.160 -0.3808 -0.2314  0.4150
 8713SOL    HW137598   4.314   0.013   2.237 -0.3015  1.0717  0.8979
 8713SOL    HW237599   4.189   0.090   2.189  0.2273  1.5634 -0.7927
 8714SOL     OW37600   4.140   4.077  10.445  0.4659 -0.3138 -0.0322
 8714SOL    HW137601   4.182   4.141  10.388  0.7702 -0.3940  0.1002
 8714SOL    HW237602   4.157   3.991  10.407  1.2037 -0.8839  1.5691
 8715SOL     OW37603   1.124   3.290   9.041  0.5334  0.0892  0.0292
 8715SOL    HW137604   1.149   3.351   8.971  0.4647  2.4684  2.1082
 8715SOL    HW237605   1.181   3.214   9.026  0.2351 -0.6256  2.6496
 8716SOL     OW37606   3.347   1.841   6.266  0.0734  0.1019 -0.7555
 8716SOL    HW137607   3.287   1.777   6.305 -1.3709  1.6142 -0.4515
 8716SOL    HW237608   3.415   1.781   6.238 -1.8444 -0.7904 -3.4825
 8717SOL     OW37609   1.346   3.397   4.684 -0.5462 -0.1212 -0.1138
 8717SOL    HW137610   1.263   3.390   4.731  0.9487  0.5245  2.6168
 8717SOL    HW237611   1.409   3.344   4.734  0.3490  1.3904  0.3383
 8718SOL     OW37612   4.240   3.847  10.677 -0.3843 -0.1917 -0.1189
 8718SOL    HW137613   4.250   3.832  10.771  0.8869  1.2681 -0.0255
 8718SOL    HW237614   4.332   3.852  10.648 -0.8070 -5.7265 -2.4462
 8719SOL     OW37615   2.019   2.124  12.244 -0.0392  0.2033  0.1804
 8719SOL    HW137616   1.975   2.048  12.279  0.2209  0.2934  0.7099
 8719SOL    HW237617   2.030   2.180  12.321  0.0789 -0.8736  0.9456
 8720SOL     OW37618   0.282   3.358   4.302  0.1458  0.6280 -0.0721
 8720SOL    HW137619   0.225   3.430   4.274  0.9030  0.9031 -0.8882
 8720SOL    HW237620   0.338   3.394   4.370 -0.9902  1.1247  0.5950
 8721SOL     OW37621   1.052   4.362   6.330 -0.3967 -0.1010  0.1931
 8721SOL    HW137622   1.123   4.305   6.360 -1.2764 -1.1922  0.2080
 8721SOL    HW237623   1.004   4.297   6.279  1.6349 -0.4787 -1.2551
 8722SOL     OW37624   2.272   2.513  10.090  0.0694 -0.1609  0.3418
 8722SOL    HW137625   2.365   2.514  10.113  0.1175 -2.2352  0.1870
 8722SOL    HW237626   2.283   2.514   9.995 -2.5025 -1.0072  0.0273
 8723SOL     OW37627   3.235   1.193   2.491 -0.0430 -0.3737  0.5848
 8723SOL    HW137628   3.151   1.234   2.473  0.8209  1.4867  0.8393
 8723SOL    HW237629   3.295   1.238   2.431 -0.3631 -0.1398  0.4454
 8724SOL     OW37630   1.113   1.503  17.567 -0.1475  0.0635 -0.0429
 8724SOL    HW137631   1.095   1.579  17.512  0.8667 -0.7613 -1.4981
 8724SOL    HW237632   1.198   1.477  17.531  0.1966 -0.5753  1.2206
 8725SOL     OW37633   0.995   1.563   6.177 -0.0360  0.3768 -0.3252
 8725SOL    HW137634   1.085   1.533   6.193  0.2059  0.9652 -0.6093
 8725SOL    HW237635   0.955   1.553   6.264 -0.5001 -1.9502 -0.8067
 8726SOL     OW37636   4.613   2.338  13.647 -0.5597  1.0222 -0.5630
 8726SOL    HW137637   4.550   2.365  13.581  0.4849  0.2670 -1.8561
 8726SOL    HW237638   4.680   2.405  13.639  0.4119  0.1939  0.5392
 8727SOL     OW37639   2.533   0.480   2.484 -0.5436  0.1022  0.3519
 8727SOL    HW137640   2.585   0.547   2.528 -0.4962 -0.3760  1.0160
 8727SOL    HW237641   2.550   0.505   2.393 -1.9147  0.3065  0.1430
 8728SOL     OW37642   2.853   3.277   4.095  0.4483 -0.4493 -0.1392
 8728SOL    HW137643   2.811   3.300   4.012 -0.0395  0.0469  0.2473
 8728SOL    HW237644   2.809   3.338   4.154  2.0091 -0.4756  1.0730
 8729SOL     OW37645   1.575   2.136  15.216  0.0507  0.4319 -0.4201
 8729SOL    HW137646   1.527   2.067  15.262  0.5688  0.9853  0.9448
 8729SOL    HW237647   1.517   2.210  15.233  0.5804  0.6502  0.4365
 8730SOL     OW37648   2.440   2.911   7.222  0.3399  0.7290 -0.5465
 8730SOL    HW137649   2.382   2.835   7.224  1.0871  0.1316 -1.5415
 8730SOL    HW237650   2.404   2.967   7.291  2.3332  1.5872 -0.2092
 8731SOL     OW37651   3.022   2.877   4.714 -0.1569 -1.1309 -0.0079
 8731SOL    HW137652   3.053   2.789   4.697  1.3609 -0.9043  1.6031
 8731SOL    HW237653   3.032   2.886   4.809 -0.4682 -1.1139  0.0236
 8732SOL     OW37654   3.305   0.102   5.320  0.1185  0.3528 -0.0075
 8732SOL    HW137655   3.257   0.144   5.391  1.9783 -1.8434  2.5446
 8732SOL    HW237656   3.351   0.030   5.362  0.7613  0.5948 -0.2967
 8733SOL     OW37657   2.436   1.288   3.571 -0.6273 -0.4979 -0.3891
 8733SOL    HW137658   2.455   1.225   3.502  4.4553  1.9532 -1.2024
 8733SOL    HW237659   2.473   1.366   3.531 -0.5972 -1.0116 -1.3455
 8734SOL     OW37660   2.663   4.722   6.344 -0.5283 -0.1272 -0.5044
 8734SOL    HW137661   2.744   4.698   6.298  0.8749  1.9348  0.9016
 8734SOL    HW237662   2.665   0.093   6.366  1.5982 -0.4229  0.5208
 8735SOL     OW37663   3.332   1.600  14.312 -0.0714 -0.1495 -0.0210
 8735SOL    HW137664   3.259   1.539  14.299 -0.2351  0.1622 -0.5647
 8735SOL    HW237665   3.327   1.649  14.229 -0.1642 -2.4470 -1.3646
 8736SOL     OW37666   0.122   3.656   4.056 -0.3580 -0.0260  0.1832
 8736SOL    HW137667   0.089   3.632   4.142  0.4247  0.0760  0.5067
 8736SOL    HW237668   0.164   3.739   4.079 -1.0636  0.5919 -0.7169
 8737SOL     OW37669   3.837   3.393   6.340  0.0301 -0.3088 -0.1480
 8737SOL    HW137670   3.783   3.313   6.341 -0.8155  0.2302 -1.2747
 8737SOL    HW237671   3.908   3.350   6.386 -0.1968 -0.8707 -0.3203
 8738SOL     OW37672   4.090   3.244   6.184 -0.0589  0.2985  0.3636
 8738SOL    HW137673   4.043   3.164   6.162 -2.4074  2.5370 -2.6693
 8738SOL    HW237674   4.075   3.251   6.279  1.4083  1.2313  0.5303
 8739SOL     OW37675   4.202   2.784   1.214 -0.0152 -0.5230  0.3563
 8739SOL    HW137676   4.246   2.800   1.130 -0.3835  0.4328  0.3350
 8739SOL    HW237677   4.111   2.809   1.196 -0.9687 -3.0466  1.7856
 8740SOL     OW37678   1.525   2.269  10.525  0.9321 -0.3419 -0.3442
 8740SOL    HW137679   1.568   2.336  10.473  0.2665 -1.5697 -2.4723
 8740SOL    HW237680   1.592   2.254  10.592  0.0122  0.8090  0.8433
 8741SOL     OW37681   2.724   1.608   7.102 -0.1070 -0.3277  0.2172
 8741SOL    HW137682   2.702   1.549   7.029  1.3279 -0.9546  0.2832
 8741SOL    HW237683   2.659   1.676   7.088 -0.7311 -1.0271 -0.2860
 8742SOL     OW37684   2.501   2.965   3.197  0.4034  0.0589 -0.2599
 8742SOL    HW137685   2.448   2.887   3.183  0.7948 -0.3067  0.3244
 8742SOL    HW237686   2.586   2.942   3.159 -1.0505 -1.1698 -2.7243
 8743SOL     OW37687   2.027   4.054   1.900 -0.4148 -0.2521 -0.1694
 8743SOL    HW137688   2.018   4.035   1.993  0.6469 -0.2398 -0.0671
 8743SOL    HW237689   1.933   4.059   1.881  0.0212  2.8821 -1.5562
 8744SOL     OW37690   0.453   2.064   3.238  0.3838  0.5654 -0.3894
 8744SOL    HW137691   0.542   2.031   3.250  0.6221  0.3632 -2.5415
 8744SOL    HW237692   0.472   2.158   3.237 -0.0106  0.6457 -0.5320
 8745SOL     OW37693   3.311   1.590   3.263  0.1178  0.2643 -0.9160
 8745SOL    HW137694   3.220   1.570   3.281  0.2312  0.3206 -0.2611
 8745SOL    HW237695   3.306   1.590   3.167  1.2334  0.2357 -0.9841
 8746SOL     OW37696   1.408   2.034  15.398  0.1984  0.4808  0.1984
 8746SOL    HW137697   1.380   2.097  15.464  1.0489  1.0835 -0.0153
 8746SOL    HW237698   1.370   1.953  15.433 -0.7385  1.2066  0.8719
 8747SOL     OW37699   2.140   4.124   2.329 -0.5433 -0.1889 -0.3763
 8747SOL    HW137700   2.138   4.063   2.402  1.7823  1.1018  0.7937
 8747SOL    HW237701   2.120   4.063   2.258  0.5825 -0.4991 -0.4346
 8748SOL     OW37702   4.175   3.945   3.992 -0.3632  0.0373 -0.1418
 8748SOL    HW137703   4.154   3.891   4.068 -2.8789 -2.0585 -2.3244
 8748SOL    HW237704   4.267   3.921   3.975 -0.9579 -3.7521  1.8615
 8749SOL     OW37705   1.527   3.031   4.278 -0.7732 -0.7045  0.1438
 8749SOL    HW137706   1.614   3.015   4.243 -1.2060 -1.3248 -0.6454
 8749SOL    HW237707   1.476   3.040   4.198 -1.0629  2.1084  0.6478
 8750SOL     OW37708   4.680   4.465   4.797  0.1420  0.0694 -0.7185
 8750SOL    HW137709   4.682   4.483   4.891 -1.4459 -1.4869 -0.3901
 8750SOL    HW237710   4.592   4.428   4.785  0.9921 -2.3210  0.4055
 8751SOL     OW37711   0.055   3.806   2.180  0.1469  0.4565  0.4118
 8751SOL    HW137712   4.696   3.805   2.130  0.1476  0.8085  0.4083
 8751SOL    HW237713   0.126   3.778   2.121  0.0197  0.4301  0.2711
 8752SOL     OW37714   0.799   3.127   8.140  0.3681  0.1550  0.4272
 8752SOL    HW137715   0.846   3.161   8.216 -0.4813  1.0563  0.5467
 8752SOL    HW237716   0.710   3.161   8.152  0.9077  1.8635 -0.4874
 8753SOL     OW37717   3.048   2.702   5.344 -0.0995 -0.4925 -0.2019
 8753SOL    HW137718   3.061   2.698   5.439 -1.0406  1.5116  0.0213
 8753SOL    HW237719   2.955   2.723   5.338  0.5200  3.0488  2.0649
 8754SOL     OW37720   1.280   4.452  13.087  0.2506  0.1723 -0.3906
 8754SOL    HW137721   1.257   4.492  13.171  0.1991  0.5444 -0.5792
 8754SOL    HW237722   1.375   4.438  13.084 -0.0367 -1.8849  0.2603
 8755SOL     OW37723   1.965   1.172  11.170 -0.3100 -0.2236 -0.1902
 8755SOL    HW137724   1.957   1.114  11.246 -0.1309 -0.0688 -0.0537
 8755SOL    HW237725   1.897   1.237  11.189 -1.2358 -1.1223 -0.3741
 8756SOL     OW37726   1.956   4.708   2.506 -0.1947 -0.4000  0.1859
 8756SOL    HW137727   1.912   4.655   2.439 -0.8962  1.0214 -0.5025
 8756SOL    HW237728   2.039   4.662   2.520  0.9142  0.5721 -3.1648
 8757SOL     OW37729   1.533   3.379  14.162  0.2386  0.6582  0.2192
 8757SOL    HW137730   1.584   3.399  14.084 -0.5561 -0.1727 -0.5107
 8757SOL    HW237731   1.491   3.295  14.145  2.7258 -0.9250  1.9061
 8758SOL     OW37732   3.188   3.489   9.105  0.4046 -0.1378  0.4244
 8758SOL    HW137733   3.225   3.414   9.059 -1.0262  0.3664 -1.5729
 8758SOL    HW237734   3.164   3.452   9.190 -1.0330 -0.4346 -0.1009
 8759SOL     OW37735   1.697   1.715   2.965 -0.2416 -0.6468 -0.4176
 8759SOL    HW137736   1.636   1.788   2.979 -0.0635 -1.1190  2.6953
 8759SOL    HW237737   1.750   1.741   2.889 -0.7861  1.1013 -0.1981
 8760SOL     OW37738   4.004   3.140   1.570  0.6148  0.3442 -0.4649
 8760SOL    HW137739   3.932   3.078   1.557 -0.3933  1.0254  1.7491
 8760SOL    HW237740   4.040   3.130   1.482 -0.9037 -1.4853 -0.8628
 8761SOL     OW37741   3.725   1.877   5.234 -0.5212 -0.1507  0.0036
 8761SOL    HW137742   3.735   1.782   5.237  0.6150 -0.0771 -1.3816
 8761SOL    HW237743   3.815   1.905   5.217 -0.8083  0.5307 -0.3842
 8762SOL     OW37744   3.069   2.296   7.901  0.4127  0.6943  0.3645
 8762SOL    HW137745   3.124   2.223   7.930  0.5072  0.6111 -0.0353
 8762SOL    HW237746   3.066   2.275   7.808 -0.2053 -3.6269  1.3635
 8763SOL     OW37747   3.822   2.456  10.227 -0.9117  0.5361 -0.0553
 8763SOL    HW137748   3.767   2.420  10.157 -2.1244  3.2100 -0.4791
 8763SOL    HW237749   3.903   2.407  10.214 -0.0983  1.9978 -0.4538
 8764SOL     OW37750   1.316   4.562   7.722 -0.4392  0.2156 -0.0899
 8764SOL    HW137751   1.228   4.600   7.723  0.9266  3.3547  1.4022
 8764SOL    HW237752   1.370   4.638   7.742 -0.9075  0.7830 -0.9566
 8765SOL     OW37753   1.313   0.799   1.233  0.3408  0.7016 -0.3298
 8765SOL    HW137754   1.290   0.779   1.323 -0.7309 -0.7031 -0.9102
 8765SOL    HW237755   1.263   0.879   1.218  0.4858  1.1328  1.5324
 8766SOL     OW37756   4.686   1.169   9.748  0.0768 -0.0324  0.1182
 8766SOL    HW137757   4.662   1.110   9.819  0.9112  0.8892  1.1660
 8766SOL    HW237758   0.033   1.115   9.710  1.9865  1.9439  0.8033
 8767SOL     OW37759   3.447   0.244  16.032 -0.4070 -0.2438  0.3136
 8767SOL    HW137760   3.540   0.251  16.011 -0.5683 -1.3483 -0.8154
 8767SOL    HW237761   3.421   0.330  15.999  1.7013  0.6772  1.0432
 8768SOL     OW37762   2.022   3.043  17.325 -0.7664  0.4699  0.3755
 8768SOL    HW137763   1.993   3.044  17.416  1.8126 -0.4981  1.1757
 8768SOL    HW237764   1.953   3.103  17.295 -1.7722 -0.8276  0.0936
 8769SOL     OW37765   2.681   2.664   8.683 -0.1740  0.4802 -0.1071
 8769SOL    HW137766   2.707   2.581   8.722  0.8472  0.0319 -1.7751
 8769SOL    HW237767   2.758   2.717   8.706  1.5357 -1.1173 -2.2399
 8770SOL     OW37768   4.071   0.106   9.042  0.2151 -0.3190  0.0573
 8770SOL    HW137769   4.090   0.115   9.135 -0.5601 -1.6485  0.3573
 8770SOL    HW237770   4.143   0.155   9.004 -0.7660  0.5935 -0.6395
 8771SOL     OW37771   0.163   3.942  11.332  0.0662 -0.3355  0.2737
 8771SOL    HW137772   0.109   3.880  11.283 -1.8644  0.2865  1.6496
 8771SOL    HW237773   0.244   3.890  11.335  1.2521  1.5313  0.4134
 8772SOL     OW37774   1.223   1.620  16.728 -0.1068 -0.1526 -0.4886
 8772SOL    HW137775   1.300   1.650  16.775  0.5640  0.4097 -1.9417
 8772SOL    HW237776   1.230   1.526  16.747  0.2536 -0.0217  0.0096
 8773SOL     OW37777   1.869   2.111   6.933  0.4228  0.2239  0.1126
 8773SOL    HW137778   1.863   2.028   6.886 -0.9110 -0.2754  1.1542
 8773SOL    HW237779   1.959   2.142   6.920  0.1350  0.7624 -0.5801
 8774SOL     OW37780   0.909   1.388   8.838  0.1576  0.2263  0.3573
 8774SOL    HW137781   0.873   1.356   8.921  2.6165 -1.1389  0.9173
 8774SOL    HW237782   0.899   1.483   8.846 -3.0820 -0.0986  0.1033
 8775SOL     OW37783   2.295   3.794  14.951  0.0512  0.3475  0.2578
 8775SOL    HW137784   2.366   3.766  15.009  0.7271 -0.9018 -1.1809
 8775SOL    HW237785   2.336   3.784  14.865  0.3073 -0.2526  0.4489
 8776SOL     OW37786   1.873   3.686   0.667 -0.0486  0.1162  0.2098
 8776SOL    HW137787   1.834   3.700   0.754  2.4675 -0.3094  1.4010
 8776SOL    HW237788   1.876   3.777   0.638  0.5671 -0.3011 -1.0236
 8777SOL     OW37789   0.717   0.633   7.940 -0.1170  0.5877  0.1207
 8777SOL    HW137790   0.729   0.633   7.845 -0.0886  0.1183  0.1264
 8777SOL    HW237791   0.762   0.552   7.964 -1.8564 -0.5976 -0.6407
 8778SOL     OW37792   2.460   3.210   8.594  0.1666 -0.1991 -0.2872
 8778SOL    HW137793   2.552   3.200   8.569  0.5261 -0.2166  1.0088
 8778SOL    HW237794   2.422   3.144   8.536  0.7242 -0.4911 -0.3233
 8779SOL     OW37795   3.147   2.424   2.712 -0.2799 -0.6126  0.2440
 8779SOL    HW137796   3.181   2.493   2.768 -0.9518 -1.3667  1.5816
 8779SOL    HW237797   3.057   2.451   2.695 -0.5704  0.0337  2.9699
 8780SOL     OW37798   0.488   0.532  17.002  0.3647 -0.6066  0.1838
 8780SOL    HW137799   0.435   0.483  17.065 -0.3215  1.6851  1.3959
 8780SOL    HW237800   0.429   0.525  16.927 -2.4591  0.3590  2.2830
 8781SOL     OW37801   2.602   3.765   7.594  0.4261 -0.3971 -0.0409
 8781SOL    HW137802   2.698   3.761   7.597  0.5187  0.2132 -2.0009
 8781SOL    HW237803   2.594   3.695   7.529  1.1726  1.8132 -2.4857
 8782SOL     OW37804   1.445   0.546   6.882 -0.0966  0.0179  0.0452
 8782SOL    HW137805   1.417   0.457   6.859  0.1267 -0.4536  1.6499
 8782SOL    HW237806   1.426   0.554   6.975 -1.1901 -0.1048 -0.1687
 8783SOL     OW37807   4.665   1.854   3.666 -0.1693 -0.2551  0.7510
 8783SOL    HW137808   4.691   1.767   3.694  0.5322  0.1322  1.2962
 8783SOL    HW237809   4.599   1.873   3.732  0.9130 -1.4547  2.1657
 8784SOL     OW37810   3.484   3.854  14.455 -0.3791 -0.4457 -0.1916
 8784SOL    HW137811   3.464   3.938  14.496  3.2570  0.6954 -0.7835
 8784SOL    HW237812   3.577   3.843  14.476 -0.2932  1.7929  0.5104
 8785SOL     OW37813   1.945   2.570  10.819  0.3601  0.4616 -0.4187
 8785SOL    HW137814   1.981   2.582  10.907 -0.0066 -0.7409 -0.1069
 8785SOL    HW237815   2.013   2.617  10.771  0.4515  2.8328  2.0950
 8786SOL     OW37816   0.958   3.480   0.477  0.6950 -0.8762 -0.0346
 8786SOL    HW137817   0.879   3.428   0.489 -1.5102  1.8815 -2.7749
 8786SOL    HW237818   0.925   3.523   0.398  0.6927  1.9509  1.4837
 8787SOL     OW37819   4.174   3.644   5.372  0.6244  0.2224  0.2928
 8787SOL    HW137820   4.196   3.634   5.465 -0.3322  0.4777  0.5433
 8787SOL    HW237821   4.092   3.594   5.366  0.5830 -0.1042  3.4977
 8788SOL     OW37822   2.740   4.191   1.775  0.3695  0.0300  0.4508
 8788SOL    HW137823   2.765   4.140   1.698  1.7772 -0.1353  1.0211
 8788SOL    HW237824   2.823   4.234   1.793 -0.3082  1.9745 -1.0358
 8789SOL     OW37825   4.036   3.682   3.255 -0.6419 -0.0228 -0.3156
 8789SOL    HW137826   3.967   3.735   3.216 -0.2312  0.3257 -0.5750
 8789SOL    HW237827   4.020   3.600   3.210  2.2708 -0.3929 -0.7033
 8790SOL     OW37828   1.090   0.104   4.227  0.0819 -0.6044 -0.0992
 8790SOL    HW137829   1.042   0.025   4.252  0.1106 -1.4685 -2.8089
 8790SOL    HW237830   1.165   0.062   4.186  1.5161  1.4141  0.4307
 8791SOL     OW37831   2.487   4.653  12.415 -0.7899 -0.0850  0.1407
 8791SOL    HW137832   2.493   0.026  12.407 -0.9554 -0.2377 -1.7390
 8791SOL    HW237833   2.445   4.615  12.338 -0.1492  0.2718 -0.3798
 8792SOL     OW37834   3.972   4.643   8.242  0.0120  0.3739  0.0275
 8792SOL    HW137835   3.985   4.698   8.319  1.0541 -0.3895  0.4074
 8792SOL    HW237836   3.895   4.680   8.199  0.9174  1.5781 -0.5363
 8793SOL     OW37837   3.227   4.065   7.111 -0.1984 -0.5030 -0.0817
 8793SOL    HW137838   3.294   4.129   7.135 -0.2768 -0.3959 -0.1493
 8793SOL    HW237839   3.257   4.053   7.021  0.3289  0.8965 -0.0920
 8794SOL     OW37840   1.274   3.036   4.658  0.0634  0.8864  0.0724
 8794SOL    HW137841   1.330   3.107   4.690  2.7267 -0.6543 -1.1560
 8794SOL    HW237842   1.332   2.970   4.619  0.4556 -0.0707  2.2741
 8795SOL     OW37843   0.217   4.397   8.821  0.4412 -0.2476 -0.5762
 8795SOL    HW137844   0.141   4.452   8.804  0.0646  0.0601  2.1095
 8795SOL    HW237845   0.284   4.465   8.816 -0.2025  0.4493  0.2205
 8796SOL     OW37846   4.093   3.633   8.275  0.4757  0.5281  0.4103
 8796SOL    HW137847   4.101   3.565   8.208  1.1275  0.2456  0.7757
 8796SOL    HW237848   4.181   3.671   8.266  0.6435 -0.3067 -1.3727
 8797SOL     OW37849   4.717   0.599   7.891  0.2134 -0.0440 -0.0431
 8797SOL    HW137850   4.703   0.694   7.894  0.0936 -0.0444 -0.6261
 8797SOL    HW237851   0.060   0.573   7.956  0.7991 -1.0936 -1.0731
 8798SOL     OW37852   2.785   4.558   4.148  0.2411 -0.2526  0.1992
 8798SOL    HW137853   2.742   4.486   4.102  0.1004  0.5443 -0.9110
 8798SOL    HW237854   2.726   4.634   4.142  0.4450 -0.2017 -1.3290
 8799SOL     OW37855   3.788   0.368  17.207  0.1146 -0.0456 -0.5836
 8799SOL    HW137856   3.756   0.424  17.137 -0.6006 -0.3121 -0.4725
 8799SOL    HW237857   3.771   0.279  17.177  0.4721  0.0227 -0.9831
 8800SOL     OW37858   4.022   4.109   5.349  0.8273  0.4366 -0.1548
 8800SOL    HW137859   4.091   4.173   5.364  1.9585 -0.5812 -1.0594
 8800SOL    HW237860   4.053   4.073   5.267 -0.1662  0.4651 -0.5445
 8801SOL     OW37861   0.263   3.924   6.514 -0.1641  0.9209  0.4981
 8801SOL    HW137862   0.206   3.847   6.516  1.0252  0.0633  0.7251
 8801SOL    HW237863   0.224   3.981   6.580 -0.5407  3.2610 -1.7390
 8802SOL     OW37864   0.836   0.438   3.882 -0.1190 -0.0429  0.0315
 8802SOL    HW137865   0.886   0.519   3.871  0.3113 -0.3698 -0.3891
 8802SOL    HW237866   0.755   0.469   3.842  0.2468 -1.4327 -1.7597
 8803SOL     OW37867   0.187   0.314   1.459  0.0797 -0.1302 -0.1039
 8803SOL    HW137868   0.178   0.267   1.542  1.1858  1.8541  1.1489
 8803SOL    HW237869   0.184   0.240   1.398  0.9180 -0.3550  0.1255
 8804SOL     OW37870   4.671   2.739   4.836  0.0323 -0.7404 -0.0795
 8804SOL    HW137871   4.633   2.797   4.902  1.6178 -0.3186  0.4752
 8804SOL    HW237872   4.593   2.690   4.812 -1.0055  0.0631  1.6103
 8805SOL     OW37873   3.549   4.558  11.544  0.5417  0.5894 -0.8936
 8805SOL    HW137874   3.502   4.595  11.619 -0.1220 -0.1954 -0.9292
 8805SOL    HW237875   3.624   4.616  11.527  0.1335  1.7811  1.4464
 8806SOL     OW37876   0.257   2.147   8.926 -0.3214  0.3310 -0.5600
 8806SOL    HW137877   0.293   2.075   8.874 -0.7746 -0.9779  0.9390
 8806SOL    HW237878   0.211   2.187   8.853 -0.7663  0.2736 -0.3144
 8807SOL     OW37879   2.372   2.186   4.142  0.4977 -0.4642 -0.0209
 8807SOL    HW137880   2.283   2.172   4.175 -0.1793  0.6350 -1.3817
 8807SOL    HW237881   2.413   2.219   4.222 -0.5008 -0.5098  0.5158
 8808SOL     OW37882   4.470   4.589  15.473 -0.1578  0.7212 -0.1833
 8808SOL    HW137883   4.468   4.510  15.527  1.2833 -0.2418 -1.5670
 8808SOL    HW237884   4.555   4.591  15.430 -0.2691 -0.4580 -0.4629
 8809SOL     OW37885   3.014   0.669   3.815 -0.4578  0.3867 -0.3451
 8809SOL    HW137886   3.071   0.594   3.830 -0.8081 -0.0599 -1.2526
 8809SOL    HW237887   2.988   0.672   3.723  0.2370  1.6318 -0.5120
 8810SOL     OW37888   2.149   4.090   0.985 -0.3390 -0.2965  0.3345
 8810SOL    HW137889   2.192   4.013   1.021  0.4067 -0.0258  0.0162
 8810SOL    HW237890   2.161   4.094   0.890 -0.3392 -0.4030  0.3300
 8811SOL     OW37891   3.707   0.887   4.490 -0.2016 -0.2541  0.3327
 8811SOL    HW137892   3.769   0.826   4.450  0.4439 -1.6755  3.4379
 8811SOL    HW237893   3.771   0.927   4.549 -1.2148  1.8626 -0.0010
 8812SOL     OW37894   0.232   3.868   4.178  0.3381 -0.1228  0.0926
 8812SOL    HW137895   0.239   3.850   4.271  0.6225  0.5096  0.1982
 8812SOL    HW237896   0.288   3.946   4.169 -0.5552  0.5532  0.3466
 8813SOL     OW37897   4.089   2.395  11.338  0.1368 -0.3646 -0.2255
 8813SOL    HW137898   4.120   2.329  11.400 -0.5168 -0.2213  0.2479
 8813SOL    HW237899   4.156   2.464  11.339  0.7249 -0.9768  2.2259
 8814SOL     OW37900   2.408   1.934   7.539  0.0362  0.2250 -0.3182
 8814SOL    HW137901   2.483   1.931   7.480 -0.5965  1.7258 -1.2007
 8814SOL    HW237902   2.380   2.025   7.538 -0.5223  0.0662  1.3127
 8815SOL     OW37903   2.455   3.050   6.993 -0.2268  0.3171 -0.9578
 8815SOL    HW137904   2.444   3.002   7.075  0.6594  1.5533 -0.1141
 8815SOL    HW237905   2.479   3.142   7.010 -0.8735  0.4323 -0.6495
 8816SOL     OW37906   0.412   2.983   2.240  0.0495  0.1883 -0.2335
 8816SOL    HW137907   0.479   3.051   2.227  0.1374  0.2761  0.6779
 8816SOL    HW237908   0.433   2.966   2.332 -1.2638  0.0104  0.0305
 8817SOL     OW37909   3.876   4.147   7.283  0.4762 -0.3814 -0.2682
 8817SOL    HW137910   3.802   4.130   7.223 -1.0454 -0.4718  1.6261
 8817SOL    HW237911   3.858   4.240   7.296  0.4033 -0.1538 -1.9557
 8818SOL     OW37912   2.042   1.582  16.474  1.0536  0.3616  0.2904
 8818SOL    HW137913   2.033   1.645  16.403  0.6790  0.1528  0.1501
 8818SOL    HW237914   1.961   1.605  16.521  0.6237 -0.2929 -0.1315
 8819SOL     OW37915   2.420   3.838   5.316  0.3075 -0.3879  0.2132
 8819SOL    HW137916   2.325   3.833   5.303  1.0223 -3.0992 -4.0670
 8819SOL    HW237917   2.452   3.923   5.285  0.2021 -1.3347 -2.5297
 8820SOL     OW37918   1.331   2.546   9.185 -0.4981  0.0186  0.1527
 8820SOL    HW137919   1.297   2.496   9.259 -0.2884  1.3419  1.1564
 8820SOL    HW237920   1.251   2.563   9.135 -1.0803 -0.6215  0.8731
 8821SOL     OW37921   3.605   2.300   7.098 -0.3573 -0.2986  0.0979
 8821SOL    HW137922   3.700   2.312   7.087 -0.3106 -0.2252  0.5438
 8821SOL    HW237923   3.605   2.215   7.143  0.4408 -0.1727  0.3426
 8822SOL     OW37924   0.512   4.423   7.083 -0.4636  0.0555  0.4218
 8822SOL    HW137925   0.545   4.475   7.155  1.0711  0.2472 -0.4314
 8822SOL    HW237926   0.475   4.349   7.132 -0.8144 -0.1495 -0.1480
 8823SOL     OW37927   1.128   0.784   9.106  0.1878 -0.4955  0.2532
 8823SOL    HW137928   1.147   0.726   9.032 -2.2255 -1.9636  0.7931
 8823SOL    HW237929   1.212   0.826   9.126  0.8189 -1.8910  0.5052
 8824SOL     OW37930   1.238   1.204  17.324  0.7734  0.6933 -0.0216
 8824SOL    HW137931   1.186   1.240  17.251 -0.2191 -1.6836 -0.5004
 8824SOL    HW237932   1.172   1.173  17.386  1.1958 -0.6678 -0.2544
 8825SOL     OW37933   0.642   1.837  14.855  0.3978 -0.3821 -0.6143
 8825SOL    HW137934   0.656   1.931  14.863  0.9083 -0.4773 -0.3516
 8825SOL    HW237935   0.625   1.841  14.761  0.9748  1.1963 -0.6414
 8826SOL     OW37936   3.274   1.628   2.982 -0.2592 -0.1579  0.0984
 8826SOL    HW137937   3.280   1.536   2.960 -0.1267 -0.4187  1.1960
 8826SOL    HW237938   3.292   1.672   2.899 -0.9161 -1.1880 -0.5804
 8827SOL     OW37939   2.084   3.868   1.289 -0.3213  0.1006  0.0492
 8827SOL    HW137940   2.017   3.846   1.354 -0.1984 -0.1975  0.0770
 8827SOL    HW237941   2.099   3.957   1.321  0.5346  0.7936 -2.2472
 8828SOL     OW37942   3.893   2.639  11.060 -0.4011  0.0317 -0.1826
 8828SOL    HW137943   3.919   2.704  10.994 -1.0103  0.9812  0.5098
 8828SOL    HW237944   3.980   2.608  11.085 -1.0150 -0.9498  0.6696
 8829SOL     OW37945   1.849   3.773   7.749  0.1566  0.0844 -0.0299
 8829SOL    HW137946   1.849   3.862   7.713 -0.2237 -0.4529 -1.3627
 8829SOL    HW237947   1.943   3.758   7.738  0.1328 -0.9947  1.3391
 8830SOL     OW37948   0.488   1.033   8.374 -0.3032 -0.0593  0.3316
 8830SOL    HW137949   0.473   1.123   8.346  1.7417 -0.6221 -2.6214
 8830SOL    HW237950   0.418   0.982   8.333 -0.2207 -0.7752  1.0738
 8831SOL     OW37951   2.626   2.331   4.705 -0.3509  0.0379  0.2668
 8831SOL    HW137952   2.712   2.291   4.689 -1.2783 -1.3783 -1.0794
 8831SOL    HW237953   2.651   2.396   4.772  1.8442  0.3109 -0.8145
 8832SOL     OW37954   1.904   4.405   6.436  0.1385 -0.4239  0.1891
 8832SOL    HW137955   1.991   4.421   6.398  0.0332  0.6664  0.4240
 8832SOL    HW237956   1.936   4.390   6.524 -0.8180 -1.1870  0.4069
 8833SOL     OW37957   3.675   1.410   7.471  0.0387  0.4082 -0.1771
 8833SOL    HW137958   3.695   1.434   7.381 -0.7002  0.5678 -0.2956
 8833SOL    HW237959   3.752   1.359   7.496 -0.6879 -0.7767 -0.3664
 8834SOL     OW37960   1.139   2.442   2.575 -0.9618 -0.3432 -0.6780
 8834SOL    HW137961   1.056   2.484   2.552 -1.6371 -0.9938  0.5586
 8834SOL    HW237962   1.201   2.509   2.546 -0.7947 -0.5287 -0.7459
 8835SOL     OW37963   2.611   4.298   7.096 -0.3609  0.5557 -0.0223
 8835SOL    HW137964   2.536   4.313   7.155  1.6476  0.1786  2.6458
 8835SOL    HW237965   2.581   4.222   7.047  1.5461 -0.2552  0.0607
 8836SOL     OW37966   1.136   4.275   1.420 -0.0185  0.0647  0.2694
 8836SOL    HW137967   1.110   4.309   1.334 -0.3470 -0.0630  0.3178
 8836SOL    HW237968   1.054   4.264   1.468  1.3248 -3.1687  1.8017
 8837SOL     OW37969   4.252   0.992   4.728  0.2939  0.0928  0.1067
 8837SOL    HW137970   4.245   0.937   4.806 -0.4144 -1.5415 -1.1173
 8837SOL    HW237971   4.319   0.936   4.688 -0.5088  1.3293 -2.9659
 8838SOL     OW37972   0.418   0.784   7.321  0.3939 -0.2227 -0.4451
 8838SOL    HW137973   0.441   0.856   7.263  1.4100  1.3863  1.9604
 8838SOL    HW237974   0.460   0.710   7.276 -1.5271 -0.9647 -1.0053
 8839SOL     OW37975   2.896   3.582   8.522 -0.1444 -0.1639 -0.2420
 8839SOL    HW137976   2.839   3.620   8.456 -0.0551  1.7497  0.7737
 8839SOL    HW237977   2.957   3.537   8.464 -0.6381 -1.0455 -0.0722
 8840SOL     OW37978   1.166   2.994   2.482 -0.4358 -0.2635 -0.0969
 8840SOL    HW137979   1.130   3.069   2.530  2.3003  0.5912  0.6126
 8840SOL    HW237980   1.252   3.029   2.461  0.5005 -2.6288 -0.2595
 8841SOL     OW37981   4.652   3.126   3.053 -0.5187 -0.3627 -0.3998
 8841SOL    HW137982   4.603   3.050   3.086  0.1284  0.0654  1.5929
 8841SOL    HW237983   4.630   3.190   3.120 -0.0204  0.9979 -1.5460
 8842SOL     OW37984   4.327   4.718   6.491  0.0873  0.1562 -0.2359
 8842SOL    HW137985   4.362   0.067   6.546 -0.7260 -0.8465  1.5906
 8842SOL    HW237986   4.277   4.671   6.557 -1.0123 -0.9417 -1.8633
 8843SOL     OW37987   4.439   4.672  14.716 -0.3892  0.7083 -0.4615
 8843SOL    HW137988   4.512   4.634  14.667 -0.7246  1.2944 -1.4159
 8843SOL    HW237989   4.478   0.007  14.783  2.9032 -0.3433 -1.4725
 8844SOL     OW37990   4.689   2.288   6.715  0.3032  0.5112  0.4928
 8844SOL    HW137991   0.007   2.287   6.628  0.6745 -1.1201  0.6863
 8844SOL    HW237992   0.045   2.262   6.764 -0.3661 -1.8605  0.3331
 8845SOL     OW37993   0.833   2.081   3.922 -0.1734  0.6312  0.0092
 8845SOL    HW137994   0.848   2.006   3.980 -1.7394  1.3163  1.3052
 8845SOL    HW237995   0.891   2.062   3.849  2.2055  3.0427  1.2459
 8846SOL     OW37996   1.359   4.427   4.610  0.4738 -0.4165 -0.1042
 8846SOL    HW137997   1.423   4.406   4.678  2.2000  0.3677 -1.4908
 8846SOL    HW237998   1.284   4.380   4.646  1.1674 -2.4360 -1.2905
 8847SOL     OW37999   3.173   2.024   9.370  0.5454  0.2692  0.4458
 8847SOL    HW138000   3.089   1.996   9.408  0.4215  0.5713  0.3957
 8847SOL    HW238001   3.234   2.007   9.441  1.9265 -0.0785 -0.8335
 8848SOL     OW38002   2.158   4.326   1.952 -1.0064 -0.2847 -0.6512
 8848SOL    HW138003   2.140   4.346   2.043  1.0733 -0.9805 -0.0842
 8848SOL    HW238004   2.115   4.241   1.951 -0.4240 -0.5923  2.4222
 8849SOL     OW38005   2.055   4.449  16.525 -0.0652  0.4067 -0.3107
 8849SOL    HW138006   2.144   4.423  16.502 -0.0205  0.2751  0.0090
 8849SOL    HW238007   2.044   4.537  16.488  0.2938  0.0923 -1.1485
 8850SOL     OW38008   0.698   1.556  10.156  0.4933  0.0885  0.0661
 8850SOL    HW138009   0.701   1.462  10.139  2.3280  0.4110 -1.3101
 8850SOL    HW238010   0.629   1.561  10.223 -1.6705 -2.7886 -1.9220
 8851SOL     OW38011   0.596   1.651   4.673 -0.7522 -0.2579 -0.5110
 8851SOL    HW138012   0.612   1.717   4.740 -1.1438 -3.3782  2.6639
 8851SOL    HW238013   0.675   1.676   4.625  0.0220 -0.1856  0.8056
 8852SOL     OW38014   2.619   3.939   8.339 -0.0641  0.2770  0.0837
 8852SOL    HW138015   2.543   3.883   8.324  1.1586 -1.2964 -0.1879
 8852SOL    HW238016   2.670   3.893   8.405 -1.7137 -0.2049  1.0436
 8853SOL     OW38017   0.174   1.143   3.554 -0.0848 -0.4678  0.1292
 8853SOL    HW138018   0.081   1.129   3.569  0.1305 -1.2376  0.7483
 8853SOL    HW238019   0.190   1.228   3.512 -0.7461 -0.3176  0.1812
 8854SOL     OW38020   1.175   1.733   8.584  0.5970  0.3199  0.1834
 8854SOL    HW138021   1.205   1.755   8.496 -1.9462  1.1635 -0.4821
 8854SOL    HW238022   1.092   1.690   8.566 -0.3082  1.8824  0.5707
 8855SOL     OW38023   2.086   4.602   4.520 -0.3896 -0.2660  0.3873
 8855SOL    HW138024   2.016   4.581   4.458 -0.5919  2.9393 -0.4508
 8855SOL    HW238025   2.067   4.555   4.602  0.3313  1.5119  1.5684
 8856SOL     OW38026   4.163   0.733  14.626 -0.1082 -0.0584 -0.1043
 8856SOL    HW138027   4.143   0.781  14.706 -0.3360 -1.0897  0.4606
 8856SOL    HW238028   4.252   0.764  14.612 -0.2636 -0.1342 -1.3052
 8857SOL     OW38029   1.343   0.421   3.435 -0.2737  0.5505 -0.2126
 8857SOL    HW138030   1.382   0.442   3.350 -0.2174  0.4566 -0.2102
 8857SOL    HW238031   1.376   0.332   3.443 -0.5596  0.2824 -2.0270
 8858SOL     OW38032   4.705   0.500  15.884  0.0152  0.1181 -0.1039
 8858SOL    HW138033   4.696   0.569  15.950  2.6403  0.6220 -0.2781
 8858SOL    HW238034   4.687   0.541  15.799  3.0429  1.9029  0.1095
 8859SOL     OW38035   4.558   0.250   8.558 -0.4100 -0.4807 -0.1361
 8859SOL    HW138036   4.612   0.276   8.632  0.8039 -0.3073 -1.0736
 8859SOL    HW238037   4.476   0.296   8.575 -1.4502 -2.2270 -0.3945
 8860SOL     OW38038   2.001   0.926   1.734  0.2117 -0.0799  0.1528
 8860SOL    HW138039   1.932   0.868   1.767  1.3912 -0.8128  1.3306
 8860SOL    HW238040   1.963   0.980   1.665  3.1632  1.1115 -0.5350
 8861SOL     OW38041   3.238   4.475   8.765 -0.1744 -1.1136 -0.2775
 8861SOL    HW138042   3.163   4.535   8.761 -0.9586 -2.2249 -2.2115
 8861SOL    HW238043   3.244   4.452   8.673  3.6398  0.8512 -0.5202
 8862SOL     OW38044   2.756   0.505   4.151  0.0913  0.0880  0.0074
 8862SOL    HW138045   2.763   0.568   4.079 -1.2750  1.3578  0.9666
 8862SOL    HW238046   2.787   0.423   4.112  0.9170  0.2979  0.2238
 8863SOL     OW38047   0.002   4.154  13.820 -0.0513  0.2700  0.0162
 8863SOL    HW138048   0.058   4.224  13.788 -0.6030  0.1315 -1.2356
 8863SOL    HW238049   4.640   4.195  13.798  0.5956  3.0000  2.5844
 8864SOL     OW38050   2.766   4.347   7.965 -0.3163 -0.1116  0.1277
 8864SOL    HW138051   2.717   4.421   8.001 -0.0827 -0.4735  1.2169
 8864SOL    HW238052   2.715   4.270   7.991  1.0198 -0.8382  0.6287
 8865SOL     OW38053   0.440   2.234   1.122  0.0167  0.0735  0.6668
 8865SOL    HW138054   0.508   2.232   1.189  0.9427  1.3293 -0.2263
 8865SOL    HW238055   0.465   2.310   1.070 -2.5419 -0.2654 -1.0924
 8866SOL     OW38056   0.641   3.576   0.488 -0.2486 -0.0306  0.0547
 8866SOL    HW138057   0.569   3.606   0.544 -1.3985 -1.5253 -0.6060
 8866SOL    HW238058   0.597   3.543   0.410  0.2052 -0.3795 -0.0543
 8867SOL     OW38059   1.638   3.560   5.803 -0.1934  0.1082 -0.1140
 8867SOL    HW138060   1.585   3.565   5.724  0.0575  0.8857 -0.2362
 8867SOL    HW238061   1.690   3.493   5.758 -1.4208 -1.5384  0.9394
 8868SOL     OW38062   3.438   2.249   0.205 -0.3194 -0.1754  0.0698
 8868SOL    HW138063   3.429   2.164   0.161  0.2294 -0.3769  0.3390
 8868SOL    HW238064   3.354   2.290   0.185  0.4069  1.1774 -0.2093
 8869SOL     OW38065   1.846   2.577   0.323  0.5581  0.8472 -0.2428
 8869SOL    HW138066   1.918   2.537   0.371 -1.6723  0.0230  2.4541
 8869SOL    HW238067   1.829   2.505   0.263  0.5721 -0.0900  0.8946
 8870SOL     OW38068   1.616   1.525   5.713  0.1528  0.2542  0.4675
 8870SOL    HW138069   1.556   1.455   5.739  1.4678 -0.6487  1.0699
 8870SOL    HW238070   1.696   1.498   5.759  0.5455  0.4183 -0.1135
 8871SOL     OW38071   0.107   0.512   7.108  0.0794  0.3249 -0.4111
 8871SOL    HW138072   0.042   0.562   7.157  0.7413  2.9350 -2.2124
 8871SOL    HW238073   0.191   0.530   7.149  0.5140 -1.5474 -0.4727
 8872SOL     OW38074   2.210   1.748  10.923  0.1658 -0.0991 -0.0198
 8872SOL    HW138075   2.188   1.797  11.002 -0.7198 -0.1756 -0.2123
 8872SOL    HW238076   2.280   1.803  10.888  0.5182 -0.5951 -0.0872
 8873SOL     OW38077   3.225   0.739  16.200 -0.4528 -0.2489  0.3107
 8873SOL    HW138078   3.131   0.746  16.185 -0.3270 -0.7817 -0.7349
 8873SOL    HW238079   3.243   0.811  16.260  0.1273  0.5313 -0.8082
 8874SOL     OW38080   2.311   2.855   5.763  0.9296 -0.6279  0.1346
 8874SOL    HW138081   2.222   2.890   5.759  1.8119  1.6258  0.1065
 8874SOL    HW238082   2.320   2.829   5.854  2.5199 -0.2589  0.0951
 8875SOL     OW38083   4.143   2.074   1.406 -0.4953 -0.4212 -0.2825
 8875SOL    HW138084   4.227   2.104   1.370  0.4205 -2.6870 -0.0049
 8875SOL    HW238085   4.093   2.077   1.324 -1.2117  0.7596  0.1906
 8876SOL     OW38086   4.596   0.040   3.175 -0.0179  0.0601  0.1807
 8876SOL    HW138087   4.631   0.120   3.214 -0.0716 -0.0192  0.3911
 8876SOL    HW238088   4.670   4.708   3.202  0.0668  0.1500  0.1299
 8877SOL     OW38089   3.698   1.127   3.605  0.1843  1.1435  1.3536
 8877SOL    HW138090   3.612   1.111   3.565  0.7694 -0.8617  0.8895
 8877SOL    HW238091   3.715   1.043   3.648 -1.8167  0.6878  1.2924
 8878SOL     OW38092   3.166   1.974   7.412  0.5257 -0.0561 -0.5974
 8878SOL    HW138093   3.147   1.933   7.327  0.6460 -0.5623 -0.3757
 8878SOL    HW238094   3.091   1.929   7.450  1.6780  0.5236  2.3454
 8879SOL     OW38095   1.430   0.991   6.748 -0.3381 -0.3196  0.2744
 8879SOL    HW138096   1.419   1.084   6.769 -1.3811 -1.1438  3.3568
 8879SOL    HW238097   1.377   0.987   6.668 -1.1685  1.4506  0.7250
 8880SOL     OW38098   1.495   4.558   3.618 -0.3747 -0.1459  0.4724
 8880SOL    HW138099   1.554   4.613   3.566  0.0760  1.0865  2.3015
 8880SOL    HW238100   1.412   4.566   3.570  0.3002 -0.2769 -0.7250
 8881SOL     OW38101   3.564   4.189   9.021 -0.1267 -0.1262  0.2987
 8881SOL    HW138102   3.479   4.192   8.977 -0.7125  0.2981  1.4546
 8881SOL    HW238103   3.557   4.271   9.070 -0.8581 -0.3413  0.5543
 8882SOL     OW38104   1.856   4.010   7.603  0.3762  0.0288 -0.0761
 8882SOL    HW138105   1.847   4.099   7.638  0.3723  0.4486 -1.1340
 8882SOL    HW238106   1.931   4.028   7.546 -0.8826  0.9897 -1.3989
 8883SOL     OW38107   4.209   4.311   8.430 -0.0653 -0.8208  0.1524
 8883SOL    HW138108   4.154   4.263   8.368 -0.1077 -0.9242  0.2710
 8883SOL    HW238109   4.242   4.245   8.491 -0.3431  0.6693  1.9230
 8884SOL     OW38110   3.260   0.124   3.849 -0.1036  0.4769 -0.2906
 8884SOL    HW138111   3.307   0.043   3.827 -0.2870 -0.3069  2.1529
 8884SOL    HW238112   3.209   0.134   3.768  1.4730  0.4535 -1.2831
 8885SOL     OW38113   3.600   3.131   9.071 -0.2466  0.2165 -0.3417
 8885SOL    HW138114   3.568   3.221   9.069 -1.4638 -0.1263  3.0339
 8885SOL    HW238115   3.691   3.144   9.097  0.8307  0.2840 -4.2080
 8886SOL     OW38116   4.582   3.705   9.393  0.4921 -0.1016 -0.0654
 8886SOL    HW138117   4.506   3.674   9.345  0.4292 -0.1505  0.0665
 8886SOL    HW238118   4.593   3.794   9.361 -0.5498  0.0817  0.0886
 8887SOL     OW38119   2.544   1.861   3.068 -0.2383  0.8019 -0.1411
 8887SOL    HW138120   2.611   1.890   3.129  0.2514 -0.0447 -0.2875
 8887SOL    HW238121   2.484   1.810   3.123  0.7063  0.3660  0.4805
 8888SOL     OW38122   1.159   3.731   7.322 -0.5088 -0.3395 -0.4547
 8888SOL    HW138123   1.238   3.677   7.313  1.9868  3.1286  0.5709
 8888SOL    HW238124   1.107   3.652   7.305 -1.3080 -0.0182  0.5000
 8889SOL     OW38125   3.339   3.153   3.959  0.2406 -0.1481 -0.1032
 8889SOL    HW138126   3.364   3.229   4.011 -2.1486  0.6649 -0.1635
 8889SOL    HW238127   3.244   3.153   3.964  0.2024 -0.8466 -0.7947
 8890SOL     OW38128   2.658   1.467   7.667 -0.7216 -0.3643  0.0568
 8890SOL    HW138129   2.599   1.512   7.606 -0.8533  2.1500  2.0520
 8890SOL    HW238130   2.732   1.458   7.607 -1.1649 -1.0738 -0.3873
 8891SOL     OW38131   0.794   3.004   1.553 -0.0596 -0.0006 -0.3566
 8891SOL    HW138132   0.838   3.070   1.607 -2.1816 -0.6495  2.1566
 8891SOL    HW238133   0.700   3.020   1.565  0.1701  1.4594 -0.5055
 8892SOL     OW38134   3.677   0.596  17.023 -0.1287  0.1671  0.6099
 8892SOL    HW138135   3.597   0.645  17.005 -1.5383 -1.9991  1.1001
 8892SOL    HW238136   3.742   0.663  17.046  0.6908 -0.9083  1.4119
 8893SOL     OW38137   3.839   4.722   6.311 -0.2405 -0.5021 -0.2789
 8893SOL    HW138138   3.899   4.654   6.341  0.4881  1.1699  1.9905
 8893SOL    HW238139   3.794   0.013   6.394 -0.2337  0.6632 -0.4617
 8894SOL     OW38140   3.620   2.770   2.797  0.4496  0.6364 -0.9258
 8894SOL    HW138141   3.545   2.814   2.759  0.4043 -0.2724 -1.8965
 8894SOL    HW238142   3.579   2.697   2.843  0.3950  0.2855 -1.5335
 8895SOL     OW38143   0.135   1.324   7.726 -0.4952  0.0559  0.3860
 8895SOL    HW138144   0.229   1.335   7.745 -0.4501  1.4264 -0.6686
 8895SOL    HW238145   0.112   1.417   7.727 -1.3965 -0.1428 -2.3354
 8896SOL     OW38146   0.286   0.074   9.070  0.3395 -0.3817  0.2441
 8896SOL    HW138147   0.308   4.711   9.109 -1.0633 -1.0016 -0.2916
 8896SOL    HW238148   0.271   0.121   9.153 -1.2170 -0.5283  0.0472
 8897SOL     OW38149   3.849   2.445   3.137 -0.1322  0.5082 -0.0796
 8897SOL    HW138150   3.939   2.453   3.166 -0.1278  1.0324 -0.2440
 8897SOL    HW238151   3.864   2.510   3.068 -0.0500  0.6808  0.1025
 8898SOL     OW38152   4.175   1.114   1.390 -0.3681 -0.6842 -0.6396
 8898SOL    HW138153   4.178   1.024   1.357  3.1077  0.1844 -2.6997
 8898SOL    HW238154   4.264   1.137   1.362 -0.6856  1.1417 -0.1406
 8899SOL     OW38155   4.069   2.213   0.974 -0.5917 -0.1437 -0.3177
 8899SOL    HW138156   4.092   2.156   0.900  1.1113  0.1397 -0.0107
 8899SOL    HW238157   4.088   2.150   1.043  0.1873  0.9691  0.4789
 8900SOL     OW38158   3.214   0.494   3.428  0.9396  0.1173  0.0242
 8900SOL    HW138159   3.296   0.528   3.393  0.0093  0.3678 -1.9231
 8900SOL    HW238160   3.153   0.514   3.357  0.9273  0.6494  0.1903
 8901SOL     OW38161   3.100   2.340   0.259  0.2726  0.2356  0.3503
 8901SOL    HW138162   3.132   2.358   0.170 -0.8213  0.6603  0.0452
 8901SOL    HW238163   3.019   2.391   0.259  0.1350  0.0193  1.0110
 8902SOL     OW38164   3.754   1.228   6.049 -0.1215 -0.1089  0.3358
 8902SOL    HW138165   3.741   1.274   6.132  0.0531 -0.3644  0.5038
 8902SOL    HW238166   3.800   1.298   6.003 -2.0456  0.5072 -0.6699
 8903SOL     OW38167   2.588   3.699   6.637 -0.0449  0.4141  0.4229
 8903SOL    HW138168   2.526   3.771   6.642 -0.7437 -0.2543  1.4258
 8903SOL    HW238169   2.667   3.750   6.620 -0.5953  1.6524  1.6357
 8904SOL     OW38170   3.466   1.210   4.512 -0.1856 -0.0967 -0.6581
 8904SOL    HW138171   3.479   1.300   4.481  1.2126  0.0170  0.2473
 8904SOL    HW238172   3.535   1.222   4.578 -0.1759 -1.7574 -0.3647
 8905SOL     OW38173   4.207   1.395   7.807 -0.0813 -0.3815  0.2707
 8905SOL    HW138174   4.205   1.315   7.755  1.2736 -0.2016 -0.0593
 8905SOL    HW238175   4.167   1.369   7.890 -0.9552 -2.0578 -0.7042
 8906SOL     OW38176   4.137   4.560   1.400  0.4799 -0.3487 -0.4616
 8906SOL    HW138177   4.048   4.524   1.410  0.5927 -0.8383 -1.1868
 8906SOL    HW238178   4.173   4.515   1.323  0.9277 -0.0961 -0.3944
 8907SOL     OW38179   0.468   3.357   9.334 -0.1895  0.4940 -0.0695
 8907SOL    HW138180   0.508   3.305   9.264 -0.1649  0.9673 -0.4072
 8907SOL    HW238181   0.416   3.417   9.280 -1.1431  0.3867  0.7286
 8908SOL     OW38182   1.393   0.817   8.504 -0.4001  0.0587  0.1412
 8908SOL    HW138183   1.338   0.788   8.432 -1.5123  1.3895  0.4616
 8908SOL    HW238184   1.333   0.858   8.566 -0.6712  1.5500 -1.1203
 8909SOL     OW38185   0.414   1.328   6.900 -0.0340 -0.2799  0.2201
 8909SOL    HW138186   0.371   1.401   6.856  1.2252 -0.6541 -1.6450
 8909SOL    HW238187   0.346   1.312   6.966  1.0102  1.6236  1.7269
 8910SOL     OW38188   4.185   3.115   4.940  0.5400 -0.3738 -0.4499
 8910SOL    HW138189   4.201   3.104   5.034 -0.6136  1.7438 -0.0126
 8910SOL    HW238190   4.160   3.025   4.918  1.7823 -1.5207  2.7229
 8911SOL     OW38191   3.777   2.628   3.607 -0.5845  0.3144  0.2347
 8911SOL    HW138192   3.764   2.660   3.517  1.6779 -0.4049 -0.3350
 8911SOL    HW238193   3.700   2.666   3.650 -2.9808 -4.2537 -0.0594
 8912SOL     OW38194   2.413   4.652   7.084 -0.4026 -0.4810  0.5222
 8912SOL    HW138195   2.401   4.709   7.160  0.2414  1.1537 -0.5938
 8912SOL    HW238196   2.335   4.670   7.031  0.0287 -0.1271  0.0067
 8913SOL     OW38197   4.689   1.057   2.223 -0.2269 -0.0211 -0.3076
 8913SOL    HW138198   4.695   0.977   2.274  0.0490 -1.1362 -2.0846
 8913SOL    HW238199   0.009   1.039   2.139 -0.2131 -2.4646  0.2398
 8914SOL     OW38200   4.170   3.009  12.978  0.0681  0.5044 -0.1582
 8914SOL    HW138201   4.221   2.929  12.982 -1.4476 -0.4267  0.5629
 8914SOL    HW238202   4.081   2.976  12.965  0.0973 -0.2787  1.7992
 8915SOL     OW38203   2.255   1.378  10.465 -0.1340 -0.2296 -0.8582
 8915SOL    HW138204   2.251   1.425  10.549  0.6398 -2.4578  0.4269
 8915SOL    HW238205   2.206   1.298  10.483 -1.1565  0.9211  1.5502
 8916SOL     OW38206   3.091   4.191  17.175 -0.3127 -0.4115  0.2885
 8916SOL    HW138207   3.004   4.231  17.170 -0.0067  0.0147 -1.5409
 8916SOL    HW238208   3.130   4.252  17.238  0.5254 -0.3566 -0.2849
 8917SOL     OW38209   4.576   1.797   7.782 -0.3260 -0.5061  0.0058
 8917SOL    HW138210   4.565   1.868   7.718  1.0490 -3.0571 -3.0806
 8917SOL    HW238211   4.495   1.746   7.791 -1.9902  2.5393  2.5939
 8918SOL     OW38212   2.710   1.151   4.080  0.6955 -0.4542  0.4140
 8918SOL    HW138213   2.701   1.064   4.118  1.7244 -0.0584  1.5551
 8918SOL    HW238214   2.791   1.150   4.029 -1.7753  2.4845 -3.6163
 8919SOL     OW38215   3.028   1.368   6.078 -0.1227 -0.7695 -0.3743
 8919SOL    HW138216   2.954   1.429   6.081 -1.4936 -2.4689  0.4688
 8919SOL    HW238217   3.037   1.354   5.984  0.0323  1.5861 -0.7121
 8920SOL     OW38218   0.608   0.535   3.785  0.0130  0.3829 -0.2243
 8920SOL    HW138219   0.527   0.494   3.814  0.7693 -1.2557 -0.4361
 8920SOL    HW238220   0.574   0.623   3.770 -2.0039 -0.4552 -0.5272
 8921SOL     OW38221   2.333   4.353   7.196  0.1035  0.1851 -0.0483
 8921SOL    HW138222   2.316   4.399   7.279  1.3381  1.2185 -0.3731
 8921SOL    HW238223   2.312   4.421   7.133 -3.2304 -0.7718  0.0344
 8922SOL     OW38224   2.917   0.926  13.050  0.2902  0.0978  0.3317
 8922SOL    HW138225   2.920   0.967  13.137  1.3407 -1.6411  1.1139
 8922SOL    HW238226   2.910   1.011  13.006  0.0979  0.3198  0.7856
 8923SOL     OW38227   1.910   4.173   6.793 -0.0700 -0.1822  0.1661
 8923SOL    HW138228   1.945   4.108   6.854 -1.5437 -2.0975 -1.0433
 8923SOL    HW238229   1.833   4.204   6.841 -0.6157 -2.1465  0.5665
 8924SOL     OW38230   1.397   2.721  15.216 -0.3246  0.1038 -0.0817
 8924SOL    HW138231   1.437   2.663  15.151  0.9724  0.7050  0.1670
 8924SOL    HW238232   1.435   2.685  15.296  2.1340  3.0224  0.0664
 8925SOL     OW38233   1.479   1.196   0.098 -0.1510  0.2356  0.3053
 8925SOL    HW138234   1.521   1.166   0.017 -1.3053 -2.6292  0.7590
 8925SOL    HW238235   1.537   1.268   0.125 -0.2925  0.6137 -0.3951
 8926SOL     OW38236   4.051   1.135   4.163 -0.4738  0.2347 -0.5920
 8926SOL    HW138237   3.993   1.110   4.236 -1.6352  0.3971 -1.4626
 8926SOL    HW238238   4.001   1.190   4.103 -1.0565 -0.2010 -0.5101
 8927SOL     OW38239   0.857   3.635   6.878 -0.0455  0.9867 -0.3918
 8927SOL    HW138240   0.874   3.549   6.917  1.2167  1.5751  0.3708
 8927SOL    HW238241   0.946   3.668   6.886  0.5504 -1.1451  1.9661
 8928SOL     OW38242   1.388   3.774   5.464 -0.5631 -0.0183  0.5377
 8928SOL    HW138243   1.370   3.771   5.370  1.4852 -0.1774  0.1566
 8928SOL    HW238244   1.429   3.859   5.479 -2.1532  1.3179 -2.7354
 8929SOL     OW38245   2.708   1.898   6.357 -0.0453  0.8262  0.0376
 8929SOL    HW138246   2.636   1.961   6.361  1.0810  2.0829  0.4611
 8929SOL    HW238247   2.657   1.823   6.326  3.2794 -1.4513  0.0524
 8930SOL     OW38248   2.291   1.621   0.183  0.1378 -0.6248 -0.0010
 8930SOL    HW138249   2.216   1.680   0.179  1.1844  0.6471 -0.7246
 8930SOL    HW238250   2.304   1.615   0.089  0.5881 -0.3740  0.0450
 8931SOL     OW38251   1.124   2.881  15.924 -0.1459  0.2386 -0.1226
 8931SOL    HW138252   1.053   2.876  15.988 -0.2269  0.1942 -0.2165
 8931SOL    HW238253   1.076   2.847  15.848  1.9723 -1.5661 -0.6643
 8932SOL     OW38254   4.567   2.620   1.745  0.1142 -0.0714  0.0507
 8932SOL    HW138255   4.559   2.618   1.649 -0.1189 -0.5963  0.0804
 8932SOL    HW238256   4.602   2.532   1.762  2.4350  0.6602 -0.9804
 8933SOL     OW38257   1.138   1.230   6.790 -0.0963  0.9603 -0.0758
 8933SOL    HW138258   1.131   1.156   6.850 -0.5839  0.5513 -0.6347
 8933SOL    HW238259   1.180   1.199   6.710  1.4796  0.7357  0.8413
 8934SOL     OW38260   2.098   1.124   2.780 -0.7083  0.3763 -0.1241
 8934SOL    HW138261   2.020   1.165   2.742 -1.1294 -0.0659  0.2592
 8934SOL    HW238262   2.069   1.135   2.871 -0.4528 -0.2349  0.0337
 8935SOL     OW38263   2.141   1.223  13.434  0.1536  0.2043  0.2104
 8935SOL    HW138264   2.151   1.306  13.480 -1.7953  0.0239  0.9538
 8935SOL    HW238265   2.067   1.248  13.379 -1.5316 -0.0142  2.3497
 8936SOL     OW38266   2.892   0.653   7.660 -0.4201 -0.2074 -0.2067
 8936SOL    HW138267   2.928   0.734   7.623 -0.7613 -0.1465 -0.4121
 8936SOL    HW238268   2.804   0.674   7.693 -0.7859 -1.7643 -0.1963
 8937SOL     OW38269   1.800   2.794   1.144  0.0069  0.1067  0.1089
 8937SOL    HW138270   1.778   2.841   1.063 -0.0290  0.2572  0.2069
 8937SOL    HW238271   1.883   2.837   1.163  0.5434  0.0635 -2.1154
 8938SOL     OW38272   1.628   1.229   5.539  0.6656  0.5161  0.1391
 8938SOL    HW138273   1.659   1.143   5.566 -1.5813 -0.3961 -0.2291
 8938SOL    HW238274   1.553   1.246   5.596 -1.0555  0.4773 -2.0973
 8939SOL     OW38275   4.649   3.462   8.792  0.5110 -0.0450  0.1068
 8939SOL    HW138276   4.566   3.468   8.745  1.6495  1.2684 -1.7801
 8939SOL    HW238277   4.615   3.410   8.864 -2.7273 -0.1834 -1.5511
 8940SOL     OW38278   0.765   1.880  14.555 -0.3403  0.1868  0.0641
 8940SOL    HW138279   0.763   1.804  14.497  1.9676 -0.7517  1.2425
 8940SOL    HW238280   0.740   1.952  14.496 -0.3577  0.0955 -0.0406
 8941SOL     OW38281   1.959   0.716   6.939 -0.4560  0.2413  0.0965
 8941SOL    HW138282   1.966   0.739   7.032  2.9867  0.8555 -0.3101
 8941SOL    HW238283   1.993   0.627   6.945  0.1181  0.3657 -1.3847
 8942SOL     OW38284   2.793   1.624   4.591  0.3290  0.0500 -0.2307
 8942SOL    HW138285   2.730   1.577   4.537 -0.5266  2.6276 -1.4597
 8942SOL    HW238286   2.835   1.553   4.641  1.0998  1.8600  1.6818
 8943SOL     OW38287   3.401   2.341   5.224  0.5028  0.2172 -0.3257
 8943SOL    HW138288   3.459   2.331   5.148  0.0849 -0.3884 -0.5598
 8943SOL    HW238289   3.381   2.434   5.210  3.0114  0.7230 -0.5543
 8944SOL     OW38290   4.540   1.162   9.499 -0.0645  0.7744  0.6746
 8944SOL    HW138291   4.476   1.097   9.530  0.8155 -0.7198 -0.6963
 8944SOL    HW238292   4.604   1.154   9.570 -0.4039  1.0930  1.0217
 8945SOL     OW38293   2.284   0.894   9.387 -0.2897 -0.4953 -0.7179
 8945SOL    HW138294   2.357   0.857   9.436 -0.9762 -0.9117 -0.0026
 8945SOL    HW238295   2.211   0.857   9.437 -1.2343  1.9374 -0.3189
 8946SOL     OW38296   1.879   1.931  10.478  0.4055  0.0297 -0.3182
 8946SOL    HW138297   1.879   1.939  10.383  2.2770  1.7621 -0.1560
 8946SOL    HW238298   1.916   1.844  10.489  1.5688  0.3760 -1.5876
 8947SOL     OW38299   1.297   1.304  16.505  0.6684  0.4351  0.2368
 8947SOL    HW138300   1.245   1.366  16.456 -0.4803  0.4793  1.5028
 8947SOL    HW238301   1.362   1.280  16.439  0.0270 -0.1627 -0.1710
 8948SOL     OW38302   3.582   2.291  11.944  0.0068 -0.5846  0.3266
 8948SOL    HW138303   3.539   2.227  11.888  1.1001 -1.2596  0.2448
 8948SOL    HW238304   3.508   2.348  11.962 -0.3895 -0.4522 -1.8107
 8949SOL     OW38305   4.465   3.759   8.233  0.3806  0.2258  0.2868
 8949SOL    HW138306   4.498   3.755   8.323  2.0235 -0.2973 -0.3363
 8949SOL    HW238307   4.553   3.770   8.195  0.7352 -1.5915  0.5710
 8950SOL     OW38308   2.596   0.398   7.749  0.2125  0.2859 -0.0676
 8950SOL    HW138309   2.550   0.414   7.832  2.3531 -0.7945  1.3255
 8950SOL    HW238310   2.683   0.436   7.759 -0.4679  1.9030 -0.3186
 8951SOL     OW38311   0.687   1.854   5.292  0.3733 -0.3157 -0.2739
 8951SOL    HW138312   0.681   1.821   5.202  0.1168  0.1648 -0.4345
 8951SOL    HW238313   0.769   1.902   5.283 -0.3716  0.9770 -0.1484
 8952SOL     OW38314   2.080   2.738   2.860  0.6972 -0.1447  0.6799
 8952SOL    HW138315   2.030   2.670   2.814 -1.0045  2.4010 -1.2213
 8952SOL    HW238316   2.166   2.700   2.843 -0.1138 -3.5076  4.0967
 8953SOL     OW38317   1.927   4.190   6.158  0.0315 -0.1728 -0.2292
 8953SOL    HW138318   1.848   4.173   6.210  0.8397 -1.5083  0.5703
 8953SOL    HW238319   1.903   4.268   6.107  0.3159  1.3568  1.9524
 8954SOL     OW38320   3.987   1.690   2.664 -0.0530 -0.3449 -0.8580
 8954SOL    HW138321   4.073   1.658   2.691 -0.8525 -2.9313 -1.4335
 8954SOL    HW238322   4.019   1.750   2.597  2.3242  0.0021  0.5802
 8955SOL     OW38323   1.435   2.890   5.508 -0.2418 -0.1262  0.1135
 8955SOL    HW138324   1.386   2.971   5.524 -0.1012 -0.2958  1.4365
 8955SOL    HW238325   1.481   2.913   5.427  0.4713 -0.0004  0.5522
 8956SOL     OW38326   3.396   1.966   0.075 -0.0880 -0.0780 -0.0611
 8956SOL    HW138327   3.364   1.956  17.676 -0.7677 -0.7662  0.2569
 8956SOL    HW238328   3.485   1.929   0.070 -0.9790 -2.1894 -0.3286
 8957SOL     OW38329   3.643   0.257   9.739 -0.0230 -0.5187 -1.1419
 8957SOL    HW138330   3.551   0.241   9.718 -0.5779 -0.4445  1.1967
 8957SOL    HW238331   3.669   0.320   9.672 -0.1096  2.0113  1.1747
 8958SOL     OW38332   4.665   3.575   7.547  0.1363  0.0447 -0.3359
 8958SOL    HW138333   4.670   3.617   7.633  2.3445  3.4709 -2.1594
 8958SOL    HW238334   4.680   3.483   7.571 -1.3543  0.1990  1.1829
 8959SOL     OW38335   2.954   2.247  15.106 -0.3144 -0.6682 -0.8987
 8959SOL    HW138336   2.926   2.170  15.057  1.7370 -2.5273  0.8343
 8959SOL    HW238337   2.929   2.317  15.045 -1.9824 -0.9465 -0.5354
 8960SOL     OW38338   0.692   4.615   5.861 -0.3303  0.8064  0.0152
 8960SOL    HW138339   0.779   4.611   5.822 -0.3551 -0.4684  0.1168
 8960SOL    HW238340   0.693   4.697   5.911 -0.3535  1.3446 -0.8582
 8961SOL     OW38341   2.845   3.916   1.001 -0.2168  0.2262  0.3403
 8961SOL    HW138342   2.881   3.987   0.948  1.0252 -0.2275  0.5587
 8961SOL    HW238343   2.917   3.909   1.064  0.6599 -0.9326 -0.7982
 8962SOL     OW38344   0.370   2.408   2.682 -0.3174 -0.0403  0.3343
 8962SOL    HW138345   0.328   2.400   2.596  0.7304 -2.3340  0.0217
 8962SOL    HW238346   0.314   2.479   2.712  0.1995  0.8804 -0.9004
 8963SOL     OW38347   0.118   0.874   1.565  0.2666  0.4684 -0.1185
 8963SOL    HW138348   0.124   0.824   1.646  2.5343  0.6862 -0.1596
 8963SOL    HW238349   0.042   0.837   1.521 -0.4735  0.0447  1.5120
 8964SOL     OW38350   0.404   3.426   0.367 -0.6096  0.6734  0.1686
 8964SOL    HW138351   0.405   3.514   0.331 -1.5496 -0.3423 -2.3102
 8964SOL    HW238352   0.361   3.378   0.296  1.1105 -0.6842  0.0424
 8965SOL     OW38353   1.007   4.150   9.243  0.5474 -0.2882  0.7591
 8965SOL    HW138354   1.067   4.199   9.299  2.7145  0.3780 -2.1022
 8965SOL    HW238355   1.018   4.196   9.160 -0.1703 -1.4528  0.0230
 8966SOL     OW38356   1.591   2.752  11.038  0.2521  0.4162  0.1314
 8966SOL    HW138357   1.643   2.674  11.057 -0.7239 -0.2198  0.2087
 8966SOL    HW238358   1.626   2.780  10.954 -0.4275 -0.1175 -0.3365
 8967SOL     OW38359   3.456   3.261   3.202 -0.2674 -0.1754  0.0456
 8967SOL    HW138360   3.547   3.262   3.232  0.1264  2.3088 -1.2715
 8967SOL    HW238361   3.410   3.226   3.279 -0.1886 -0.2654  0.0524
 8968SOL     OW38362   0.563   2.967   4.647  0.5327  0.2533 -0.0595
 8968SOL    HW138363   0.548   2.889   4.701  0.6948  0.0689 -0.2801
 8968SOL    HW238364   0.480   3.011   4.662  0.2529 -0.3440  0.1495
 8969SOL     OW38365   0.395   2.322   7.510 -0.3256 -0.0202  0.3792
 8969SOL    HW138366   0.307   2.284   7.517 -0.9866  1.8585  2.5601
 8969SOL    HW238367   0.440   2.255   7.459  2.1110  0.9496  1.2441
 8970SOL     OW38368   0.808   0.567   7.635 -0.1813 -0.0537  0.2632
 8970SOL    HW138369   0.865   0.534   7.565 -0.4897  1.0746 -0.5053
 8970SOL    HW238370   0.728   0.579   7.583 -0.9782  0.3120  1.5770
 8971SOL     OW38371   2.151   1.787   4.465  0.0251  0.5441 -0.3643
 8971SOL    HW138372   2.115   1.864   4.508 -1.1672  0.0452 -0.4780
 8971SOL    HW238373   2.199   1.820   4.390  0.3691  1.7397  0.3884
 8972SOL     OW38374   3.236   0.692  13.275  0.3133  0.3197 -0.1097
 8972SOL    HW138375   3.330   0.678  13.266  0.3174 -0.0124  0.4012
 8972SOL    HW238376   3.204   0.607  13.307 -0.3233 -0.0580 -1.7706
 8973SOL     OW38377   4.670   2.733   0.205 -0.0573 -0.3641 -0.0666
 8973SOL    HW138378   4.575   2.727   0.211 -0.0887  0.3700  0.1363
 8973SOL    HW238379   4.690   2.648   0.166  0.4817 -0.5353  0.5890
 8974SOL     OW38380   3.501   1.929   3.566 -0.3291 -0.0168 -0.2343
 8974SOL    HW138381   3.549   1.881   3.634 -1.9297 -0.5713  0.5075
 8974SOL    HW238382   3.441   1.984   3.616  0.8952  0.1672  1.0268
 8975SOL     OW38383   2.119   2.028  10.586 -0.7011  0.1042  0.0733
 8975SOL    HW138384   2.189   2.025  10.520 -0.9967  2.5722 -0.3886
 8975SOL    HW238385   2.040   2.026  10.531 -0.7195 -3.5019  0.2465
 8976SOL     OW38386   1.009   0.189   4.535  0.0792 -0.4721 -0.1729
 8976SOL    HW138387   1.095   0.194   4.492 -0.7279  0.2113 -1.7069
 8976SOL    HW238388   1.023   0.104   4.576 -1.7074 -1.5960 -1.8842
 8977SOL     OW38389   0.142   2.932  10.699  0.4659  0.6825 -0.5811
 8977SOL    HW138390   0.149   3.015  10.747  1.2361  0.6987 -0.7298
 8977SOL    HW238391   0.104   2.960  10.615  0.2060  0.7099 -0.4561
 8978SOL     OW38392   3.605   0.543  17.686 -0.1182  0.3544 -0.3535
 8978SOL    HW138393   3.582   0.456   0.025  2.4824 -0.7724 -1.6163
 8978SOL    HW238394   3.557   0.528  17.605 -1.1772 -2.5242  0.8040
 8979SOL     OW38395   1.827   1.218   4.788  0.5653  0.0667 -0.2646
 8979SOL    HW138396   1.847   1.234   4.696  4.7464 -1.5209  0.3659
 8979SOL    HW238397   1.897   1.264   4.835  1.2061 -1.4666  0.2883
 8980SOL     OW38398   1.669   0.969   5.646  0.1309  0.1310 -0.0162
 8980SOL    HW138399   1.607   0.918   5.697  1.2962 -1.5617 -0.2911
 8980SOL    HW238400   1.729   0.904   5.609  0.1114  0.0567  0.0848
 8981SOL     OW38401   1.363   1.493   1.629 -0.1893  0.0222  0.7991
 8981SOL    HW138402   1.310   1.542   1.692  2.4442  0.6775  2.5219
 8981SOL    HW238403   1.448   1.492   1.673  0.5974  0.4341 -0.7335
 8982SOL     OW38404   4.239   3.791   1.251 -0.0223 -0.1472  0.2015
 8982SOL    HW138405   4.273   3.792   1.340 -0.9540 -1.7446  0.5711
 8982SOL    HW238406   4.188   3.871   1.260  1.7231  1.0234 -0.3037
 8983SOL     OW38407   2.199   1.126   8.239 -0.1564  0.3740 -0.4813
 8983SOL    HW138408   2.203   1.043   8.191  0.3118 -1.1596  2.2286
 8983SOL    HW238409   2.134   1.122   8.309  1.4860  0.6299  1.0540
 8984SOL     OW38410   3.941   2.863   2.431  0.0123  0.1495 -0.2141
 8984SOL    HW138411   3.996   2.788   2.410 -0.1846 -0.2788  0.7961
 8984SOL    HW238412   3.863   2.840   2.381  0.9876 -1.3201 -1.0572
 8985SOL     OW38413   3.275   1.924  12.988  0.0523  0.3647  0.3475
 8985SOL    HW138414   3.286   2.011  12.950  1.1868  1.1406  2.4498
 8985SOL    HW238415   3.297   1.865  12.915  2.4409 -0.3888  1.6902
 8986SOL     OW38416   0.902   3.180   7.598  0.1161  0.5314 -0.5016
 8986SOL    HW138417   0.827   3.199   7.653  0.9149  1.9857  0.0850
 8986SOL    HW238418   0.972   3.187   7.663 -0.1576  0.4039 -0.1949
 8987SOL     OW38419   1.968   1.950   4.195  0.5057  0.6082  0.1990
 8987SOL    HW138420   1.919   1.919   4.271 -1.4362 -0.2231 -1.3959
 8987SOL    HW238421   1.900   1.946   4.127  0.2967 -3.5082  0.6676
 8988SOL     OW38422   3.528   3.368   3.860 -0.1171  0.0050 -0.0507
 8988SOL    HW138423   3.463   3.338   3.797  0.8683 -0.1774 -0.9849
 8988SOL    HW238424   3.475   3.376   3.940  0.4389 -0.5800  0.3754
 8989SOL     OW38425   0.947   2.333  12.606 -0.1935  0.5103 -0.1394
 8989SOL    HW138426   0.923   2.254  12.654  0.6003 -0.0067 -0.6108
 8989SOL    HW238427   0.863   2.349  12.562 -0.2673  1.2970  0.2751
 8990SOL     OW38428   0.253   4.343   5.655 -0.3975  0.4467  0.1093
 8990SOL    HW138429   0.202   4.379   5.728 -1.0017 -0.0524 -0.0696
 8990SOL    HW238430   0.342   4.350   5.688  0.5369 -2.9797 -1.6824
 8991SOL     OW38431   3.714   2.159   4.444  0.4214  0.1819 -0.3717
 8991SOL    HW138432   3.806   2.184   4.447  0.5456 -0.5946  2.2233
 8991SOL    HW238433   3.698   2.094   4.512  1.4538  1.0634  0.7146
 8992SOL     OW38434   1.219   2.132  14.921 -0.7161 -0.8479 -0.0993
 8992SOL    HW138435   1.160   2.207  14.924  0.6975  0.2244  1.0448
 8992SOL    HW238436   1.302   2.173  14.897 -0.0481 -2.0893  0.0927
 8993SOL     OW38437   4.297   0.547   1.272 -0.2737  0.0751 -0.5648
 8993SOL    HW138438   4.314   0.612   1.204 -0.7912  0.0279 -0.7465
 8993SOL    HW238439   4.277   0.596   1.351  0.4003 -0.0481 -0.3235
 8994SOL     OW38440   2.518   4.048   7.028 -0.0116 -0.0942 -0.1645
 8994SOL    HW138441   2.570   3.981   7.072  3.6323  2.3658 -0.8061
 8994SOL    HW238442   2.461   3.993   6.973  1.8092 -2.1831  0.0520
 8995SOL     OW38443   2.047   2.831  10.514 -0.0691 -0.0329  0.0501
 8995SOL    HW138444   2.035   2.842  10.420 -0.5953  1.0930  0.2456
 8995SOL    HW238445   2.098   2.751  10.525  1.1013  0.8221  0.8742
 8996SOL     OW38446   0.067   0.641   8.696 -0.4704  0.2157  0.1663
 8996SOL    HW138447   0.142   0.647   8.754  0.2535  0.3028 -0.7796
 8996SOL    HW238448   0.026   0.554   8.703  0.3922 -0.2662 -0.8230
 8997SOL     OW38449   3.457   2.807   2.345 -0.2021 -0.2252 -0.2305
 8997SOL    HW138450   3.381   2.799   2.287 -1.1612  0.5776  0.9177
 8997SOL    HW238451   3.496   2.884   2.304  0.3784  1.2121  3.0155
 8998SOL     OW38452   2.869   3.273  15.238 -0.2832 -0.3606 -0.6543
 8998SOL    HW138453   2.890   3.348  15.183  0.2842 -0.0338  0.0167
 8998SOL    HW238454   2.773   3.275  15.243 -0.2691 -1.2130 -0.0177
 8999SOL     OW38455   3.103   4.497   9.065  0.0189  0.0484  0.0533
 8999SOL    HW138456   3.128   4.587   9.042  1.6220 -0.9015 -1.9116
 8999SOL    HW238457   3.030   4.486   9.005 -1.7607  2.0742  1.8569
 9000SOL     OW38458   1.284   4.613  17.620 -0.1001  0.1131 -0.0766
 9000SOL    HW138459   1.346   4.548  17.655  2.3470  3.2450  1.3994
 9000SOL    HW238460   1.204   4.561  17.611  0.8290 -1.4142  0.4136
 9001SOL     OW38461   0.331   1.376  15.375 -0.1065 -0.4234  0.1410
 9001SOL    HW138462   0.396   1.318  15.414 -0.3985 -1.3281 -0.7171
 9001SOL    HW238463   0.371   1.463  15.373 -0.9001 -0.0926 -1.7534
 9002SOL     OW38464   1.537   3.354   6.694  0.5664  0.3245 -0.1405
 9002SOL    HW138465   1.499   3.276   6.654 -2.1541  0.9012  1.3846
 9002SOL    HW238466   1.626   3.336   6.663  0.7841 -2.3627  2.0858
 9003SOL     OW38467   1.142   0.575   5.199  0.0531 -0.0731  0.8745
 9003SOL    HW138468   1.066   0.526   5.231 -0.6499 -0.2805 -1.1151
 9003SOL    HW238469   1.196   0.503   5.167  1.6996  0.9040  1.4561
 9004SOL     OW38470   4.519   4.251   5.394  0.2559 -0.6811  0.1226
 9004SOL    HW138471   4.529   4.262   5.488 -2.0183 -1.1752  0.4052
 9004SOL    HW238472   4.609   4.272   5.368  0.7011 -3.3782 -0.5148
 9005SOL     OW38473   4.034   3.904   8.963 -0.4653 -0.2152  0.0461
 9005SOL    HW138474   4.026   3.812   8.989  1.1059 -0.6875 -1.1475
 9005SOL    HW238475   4.092   3.890   8.888 -0.5174  0.3090 -0.0956
 9006SOL     OW38476   2.313   0.092   4.916  0.1118  0.1346 -0.0034
 9006SOL    HW138477   2.301   0.069   4.824  0.9831 -0.1994 -0.0295
 9006SOL    HW238478   2.381   0.158   4.900  0.9673 -0.7377  0.0455
 9007SOL     OW38479   3.891   3.923   4.441  0.3025 -0.2394 -0.2904
 9007SOL    HW138480   3.934   3.860   4.499  0.1800  0.4850  0.5826
 9007SOL    HW238481   3.896   3.865   4.365 -1.3406  1.0871 -1.4060
 9008SOL     OW38482   1.428   0.676   0.327 -0.1481 -0.1441 -0.2543
 9008SOL    HW138483   1.394   0.755   0.369 -1.8721 -0.5095 -0.9500
 9008SOL    HW238484   1.491   0.718   0.268  1.6689  1.2050  2.6382
 9009SOL     OW38485   4.240   1.975   2.469 -0.2265 -0.3997 -0.4387
 9009SOL    HW138486   4.227   2.030   2.391  0.1499  0.1510 -0.1180
 9009SOL    HW238487   4.179   1.902   2.460 -2.0477  0.9302  1.2834
 9010SOL     OW38488   0.613   1.061  15.154 -0.2919 -0.0515  0.5805
 9010SOL    HW138489   0.553   1.060  15.229 -0.3304 -1.2657  0.5308
 9010SOL    HW238490   0.612   1.151  15.123  1.0552  0.0063  0.6853
 9011SOL     OW38491   1.739   2.879  11.885 -0.1382  0.3551 -0.0836
 9011SOL    HW138492   1.655   2.844  11.855 -0.8457  2.9115 -1.1024
 9011SOL    HW238493   1.702   2.947  11.940  0.7875  1.1017 -0.3866
 9012SOL     OW38494   4.012   1.044   7.611 -0.3341  0.0019  0.1252
 9012SOL    HW138495   4.025   0.965   7.662 -1.1833  1.4498  2.5941
 9012SOL    HW238496   4.083   1.034   7.547  0.2582  0.0032  0.7867
 9013SOL     OW38497   1.741   0.507   6.906  0.1718  0.0872 -0.9066
 9013SOL    HW138498   1.679   0.560   6.854  1.4110  1.7675 -0.6558
 9013SOL    HW238499   1.705   0.513   6.995  1.3364  1.0419 -0.5072
 9014SOL     OW38500   0.075   0.642   9.390  0.6826  0.2251 -0.3698
 9014SOL    HW138501   0.103   0.664   9.479 -2.2134  0.4173  0.4916
 9014SOL    HW238502   0.118   0.559   9.370  0.8578  0.3531 -0.5179
 9015SOL     OW38503   1.588   3.033   6.820  0.2377  0.4986  0.2397
 9015SOL    HW138504   1.677   3.036   6.856 -0.3042  1.8060  1.4314
 9015SOL    HW238505   1.552   2.967   6.879 -0.1012 -0.9039 -1.5362
 9016SOL     OW38506   3.711   0.128   5.571 -0.0575 -0.0160 -0.0161
 9016SOL    HW138507   3.743   0.048   5.612 -1.0317 -0.0950  0.5770
 9016SOL    HW238508   3.763   0.143   5.492 -1.5327  3.1429 -0.4099
 9017SOL     OW38509   0.093   3.699   0.302 -0.6686 -0.2498  0.4766
 9017SOL    HW138510   0.131   3.782   0.272 -0.9324  0.6117  2.5487
 9017SOL    HW238511   0.043   3.671   0.226  0.4754 -1.0736  0.0217
 9018SOL     OW38512   2.808   3.908   4.392  0.4099  0.5018 -0.4825
 9018SOL    HW138513   2.799   3.816   4.417  1.0208  0.1230 -1.6639
 9018SOL    HW238514   2.786   3.953   4.474 -1.0949 -2.9743  1.0216
 9019SOL     OW38515   0.413   4.447  17.602  0.0271 -0.3038 -0.5499
 9019SOL    HW138516   0.413   4.363  17.556  0.2211 -0.1615 -0.8092
 9019SOL    HW238517   0.494   4.482  17.563  0.2535 -0.9131 -0.6294
 9020SOL     OW38518   1.420   3.426   0.213  0.0490  0.7307 -0.3278
 9020SOL    HW138519   1.392   3.417   0.304 -2.6392 -2.2936 -1.4679
 9020SOL    HW238520   1.353   3.485   0.177 -1.3441 -1.0455 -0.6458
 9021SOL     OW38521   3.881   2.369   7.064  0.2892  0.1061  0.0385
 9021SOL    HW138522   3.886   2.464   7.053  3.7554  0.0786  1.2537
 9021SOL    HW238523   3.944   2.332   7.002 -0.2700 -0.2433 -0.3236
 9022SOL     OW38524   3.391   2.784   2.613 -0.0657  0.1232  0.1353
 9022SOL    HW138525   3.423   2.787   2.523  1.1062  0.5416  0.5693
 9022SOL    HW238526   3.298   2.797   2.596 -0.5285 -1.3645  1.5284
 9023SOL     OW38527   2.042   0.747  10.663 -0.4534 -0.3262 -0.2256
 9023SOL    HW138528   1.995   0.801  10.727  0.3410 -1.2386  1.1216
 9023SOL    HW238529   2.052   0.665  10.712 -0.0094  0.2843  0.7103
 9024SOL     OW38530   0.390   2.312   8.056 -0.3102  0.0124  0.3953
 9024SOL    HW138531   0.459   2.294   8.120  2.2765 -1.1673 -2.7318
 9024SOL    HW238532   0.320   2.252   8.084 -0.6541  0.1592 -0.1612
 9025SOL     OW38533   0.318   2.843  16.297  0.2578  0.2379 -0.3490
 9025SOL    HW138534   0.309   2.751  16.319  1.6128  0.4789  1.2370
 9025SOL    HW238535   0.315   2.831  16.203  0.2286 -1.1780 -0.1641
 9026SOL     OW38536   4.479   3.350  13.580 -0.4895 -0.1878  0.2644
 9026SOL    HW138537   4.393   3.389  13.570 -0.5761 -1.0472 -2.4636
 9026SOL    HW238538   4.493   3.338  13.674  1.0208  1.0115  0.2021
 9027SOL     OW38539   3.387   0.663   3.723 -0.5998 -0.5186 -0.1669
 9027SOL    HW138540   3.423   0.583   3.686  1.6923  1.6237 -2.5588
 9027SOL    HW238541   3.374   0.637   3.814  0.6092  1.5854  0.6164
 9028SOL     OW38542   0.654   1.933  13.361 -0.6038 -0.3678 -0.2241
 9028SOL    HW138543   0.622   1.935  13.271  2.4716  1.4046 -1.2873
 9028SOL    HW238544   0.621   1.846  13.384 -0.4716  0.3848  2.7858
 9029SOL     OW38545   2.213   1.455   7.312  0.5180 -0.1558 -0.8869
 9029SOL    HW138546   2.254   1.390   7.369  0.9262  0.6491 -0.2628
 9029SOL    HW238547   2.152   1.495   7.374  1.5998 -1.6437  1.1290
 9030SOL     OW38548   1.444   2.091   0.799  0.4297  0.4332 -0.6408
 9030SOL    HW138549   1.439   2.076   0.893 -0.1965 -0.1481 -0.7707
 9030SOL    HW238550   1.364   2.048   0.768 -0.3821  0.9662  0.7375
 9031SOL     OW38551   0.213   0.112   2.389 -0.1214 -0.4645 -0.1614
 9031SOL    HW138552   0.242   0.196   2.354  0.0724 -1.0420 -1.4274
 9031SOL    HW238553   0.167   0.079   2.311 -2.8290 -0.5682  1.5027
 9032SOL     OW38554   1.040   3.990   1.786 -0.0079  1.0133  0.1263
 9032SOL    HW138555   1.061   4.008   1.694 -0.8277  1.7183  0.0863
 9032SOL    HW238556   0.948   4.011   1.800 -0.3345 -0.0384 -0.4167
 9033SOL     OW38557   3.773   4.216  15.330 -0.1197 -0.0824  0.1389
 9033SOL    HW138558   3.745   4.159  15.401 -0.9280 -1.4685 -1.3170
 9033SOL    HW238559   3.797   4.300  15.370  1.4956 -1.5319  2.2514
 9034SOL     OW38560   1.408   4.044   4.760  0.3820  0.0097 -0.0789
 9034SOL    HW138561   1.478   3.993   4.802  0.6556 -0.1148 -0.6860
 9034SOL    HW238562   1.408   4.129   4.804  0.1584 -0.9273  1.7519
 9035SOL     OW38563   1.383   4.121   4.050 -0.1451  0.3373  0.1334
 9035SOL    HW138564   1.338   4.047   4.010 -1.3431  1.3826 -0.4366
 9035SOL    HW238565   1.437   4.149   3.977 -0.8895 -0.2007 -0.6262
 9036SOL     OW38566   3.932   1.241   3.929  0.3054 -0.0835  0.3183
 9036SOL    HW138567   3.895   1.237   3.841  0.2553 -1.4197  0.4044
 9036SOL    HW238568   3.893   1.326   3.953  1.1338  0.0801  1.0947
 9037SOL     OW38569   1.820   1.920   5.294  0.4388 -1.0099 -0.2382
 9037SOL    HW138570   1.893   1.944   5.236  0.4086  0.7283  0.4524
 9037SOL    HW238571   1.776   1.874   5.223 -0.1844 -0.9272  0.1007
 9038SOL     OW38572   2.692   0.707   4.283 -0.3498 -0.5238 -0.8797
 9038SOL    HW138573   2.729   0.629   4.242 -0.7062 -0.1545 -1.8998
 9038SOL    HW238574   2.614   0.670   4.325  1.0694 -1.3122  1.0959
 9039SOL     OW38575   3.486   1.536  16.954  0.5114 -0.1664  0.0393
 9039SOL    HW138576   3.472   1.467  17.018  1.7196 -0.3646  0.1006
 9039SOL    HW238577   3.398   1.572  16.960 -0.7603 -3.4678  0.8778
 9040SOL     OW38578   0.364   2.970   7.356  0.2496  0.2423  0.3530
 9040SOL    HW138579   0.435   2.921   7.397  0.1519  0.1428  0.4054
 9040SOL    HW238580   0.400   3.057   7.341  1.0705 -0.8860 -4.3336
 9041SOL     OW38581   3.606   2.721   7.716  0.0863 -0.2329 -0.1897
 9041SOL    HW138582   3.567   2.793   7.766 -1.5086 -1.6643  0.6439
 9041SOL    HW238583   3.576   2.646   7.767  1.8837 -1.9141 -1.6495
 9042SOL     OW38584   1.244   3.782  12.731 -0.2566 -0.0173  0.1278
 9042SOL    HW138585   1.238   3.877  12.730  1.9219  0.1133 -0.9582
 9042SOL    HW238586   1.298   3.771  12.809 -0.6504  1.0206  0.5500
 9043SOL     OW38587   4.323   0.344  12.166 -0.0040  0.6320  0.5989
 9043SOL    HW138588   4.396   0.310  12.218 -0.0076 -2.3508 -1.3634
 9043SOL    HW238589   4.283   0.262  12.138  1.3275  0.1425  0.1136
 9044SOL     OW38590   3.800   0.884  16.237 -0.4569  0.0110 -0.0171
 9044SOL    HW138591   3.735   0.954  16.238 -2.7744 -2.1697 -1.2227
 9044SOL    HW238592   3.868   0.924  16.291 -0.4642 -1.2132  0.8915
 9045SOL     OW38593   4.577   1.783   7.439 -0.2576  0.5498 -0.1467
 9045SOL    HW138594   4.545   1.864   7.478 -0.7735  0.7143 -0.9138
 9045SOL    HW238595   4.654   1.815   7.392  1.2254  0.7771  2.4394
 9046SOL     OW38596   2.107   0.376   1.650 -0.2035 -0.7750 -0.1147
 9046SOL    HW138597   2.022   0.366   1.607 -0.2567  1.7619 -0.5683
 9046SOL    HW238598   2.084   0.432   1.724 -2.0164 -0.8431 -0.6189
 9047SOL     OW38599   4.360   2.683   6.251 -0.8299  0.2610 -0.1238
 9047SOL    HW138600   4.266   2.688   6.265 -0.5982 -0.2334  1.5890
 9047SOL    HW238601   4.397   2.719   6.331 -0.0615 -0.3626 -0.1952
 9048SOL     OW38602   3.897   2.953   2.755  0.1100 -0.3961 -0.1993
 9048SOL    HW138603   3.896   2.999   2.671 -1.8972 -0.8686 -0.4103
 9048SOL    HW238604   3.853   2.870   2.741  0.0886 -0.2757 -0.8421
 9049SOL     OW38605   2.281   3.724   7.987  0.2052 -0.0968 -0.2403
 9049SOL    HW138606   2.348   3.761   7.930 -1.3270  1.5120 -0.9814
 9049SOL    HW238607   2.286   3.633   7.958 -3.3254 -0.1668 -0.6233
 9050SOL     OW38608   3.838   2.511  10.813 -0.5010 -0.2962 -0.7205
 9050SOL    HW138609   3.780   2.504  10.889  2.7234  0.4240  1.7836
 9050SOL    HW238610   3.920   2.525  10.859 -1.3942 -0.3767  0.8837
 9051SOL     OW38611   4.019   3.950   3.480  0.5990  0.0835 -0.3096
 9051SOL    HW138612   3.963   4.020   3.445  0.5664  0.8120  1.2187
 9051SOL    HW238613   4.024   3.965   3.574  0.8246 -1.8983 -0.0021
 9052SOL     OW38614   4.430   0.121   1.651  0.4201  0.5074  0.5373
 9052SOL    HW138615   4.404   0.119   1.743  1.2986  0.5799  0.7908
 9052SOL    HW238616   4.371   0.193   1.629 -0.7326 -0.7549 -0.5185
 9053SOL     OW38617   3.873   3.004  11.581 -0.1789 -0.2682  0.3574
 9053SOL    HW138618   3.806   3.057  11.537  0.5871  0.4023 -0.0033
 9053SOL    HW238619   3.956   3.029  11.541  0.3465 -1.7747  0.5312
 9054SOL     OW38620   0.275   3.902   4.743 -0.0544  0.0525 -0.2029
 9054SOL    HW138621   0.337   3.968   4.774  2.1040 -2.4728  0.8629
 9054SOL    HW238622   0.329   3.852   4.682  0.0243 -0.5389  0.3614
 9055SOL     OW38623   1.901   2.817  14.788 -0.6379 -0.6645 -0.1661
 9055SOL    HW138624   1.927   2.828  14.697 -1.4840  0.8048 -0.2349
 9055SOL    HW238625   1.863   2.729  14.781 -1.7963 -0.1803 -0.0794
 9056SOL     OW38626   1.107   2.916   4.418  0.3426  0.4312  0.5650
 9056SOL    HW138627   1.192   2.929   4.460  0.0691  0.9698  0.9466
 9056SOL    HW238628   1.079   3.006   4.403  0.8035  0.6728  1.1627
 9057SOL     OW38629   0.710   2.039  14.357 -0.0779 -0.1757 -0.3309
 9057SOL    HW138630   0.706   2.056  14.263 -3.5767  1.5811  0.1549
 9057SOL    HW238631   0.621   2.055  14.386  0.5191  2.3479  0.1005
 9058SOL     OW38632   0.475   1.983   6.493 -0.1659  0.0368 -0.2536
 9058SOL    HW138633   0.476   2.059   6.436 -3.2922  0.8085  0.7311
 9058SOL    HW238634   0.556   1.999   6.541 -0.3205  1.2071 -0.3935
 9059SOL     OW38635   3.980   3.275   3.532  0.0575 -0.1542 -0.0892
 9059SOL    HW138636   4.026   3.337   3.589 -0.6903 -1.6197  2.1129
 9059SOL    HW238637   3.983   3.192   3.580 -1.0299 -1.2126 -1.8629
 9060SOL     OW38638   4.667   1.761   4.564  0.6916 -0.3639 -0.4544
 9060SOL    HW138639   4.672   1.850   4.527  1.6887  0.3221  1.3323
 9060SOL    HW238640   0.024   1.726   4.522  0.6836 -1.0248  0.0821
 9061SOL     OW38641   4.475   2.309   4.317 -0.2048 -0.3254  0.4894
 9061SOL    HW138642   4.457   2.227   4.272 -2.8949  0.4093  0.2593
 9061SOL    HW238643   4.387   2.346   4.325  0.4008  1.5054 -1.0111
 9062SOL     OW38644   0.214   1.223   7.067 -0.3922  0.3456 -0.3127
 9062SOL    HW138645   0.213   1.141   7.116 -1.7174  0.7555  0.3445
 9062SOL    HW238646   0.132   1.226   7.019  0.1027  0.3653 -1.1539
 9063SOL     OW38647   3.664   3.689   9.066  0.5970  0.4962 -0.0617
 9063SOL    HW138648   3.616   3.717   9.144 -0.3184 -1.2784  0.0295
 9063SOL    HW238649   3.641   3.748   8.994 -0.6660 -0.4845 -0.4630
 9064SOL     OW38650   1.405   4.258   8.453 -0.4605  0.7535 -0.3055
 9064SOL    HW138651   1.465   4.328   8.478 -1.7363  1.4984  0.6502
 9064SOL    HW238652   1.459   4.179   8.462  0.1379  1.0622 -1.2344
 9065SOL     OW38653   4.357   1.088   4.153  0.0498  0.0817  0.2076
 9065SOL    HW138654   4.266   1.118   4.156  0.5667  1.9984 -3.0864
 9065SOL    HW238655   4.370   1.043   4.070  1.5525  1.1884 -0.1615
 9066SOL     OW38656   1.455   4.058   2.284  0.6129  0.5624 -0.2473
 9066SOL    HW138657   1.427   4.090   2.198 -0.2016  2.1456  0.6187
 9066SOL    HW238658   1.407   3.976   2.297  0.5646  0.9870  2.2369
 9067SOL     OW38659   0.459   1.096  17.407 -0.1674  0.1620  0.5637
 9067SOL    HW138660   0.552   1.116  17.414  0.3799 -2.1841  0.0579
 9067SOL    HW238661   0.441   1.098  17.313 -0.3590 -1.3307  0.5724
 9068SOL     OW38662   4.033   2.272   4.159 -0.0297  0.6569 -0.3230
 9068SOL    HW138663   4.092   2.198   4.174  0.0652  0.9865  0.9158
 9068SOL    HW238664   4.023   2.291   4.252  1.0753 -1.3607  0.2102
 9069SOL     OW38665   1.035   2.029   3.720  0.3520  0.3896  0.3128
 9069SOL    HW138666   1.062   2.046   3.630  0.7213 -1.2566  0.1136
 9069SOL    HW238667   1.073   1.941   3.715  1.4793  0.8625  0.8044
 9070SOL     OW38668   1.214   2.460   3.937 -0.2799 -0.1601 -0.3262
 9070SOL    HW138669   1.197   2.498   3.851  2.4178  3.1220  0.5859
 9070SOL    HW238670   1.241   2.534   3.991  0.3688 -1.0298  0.5608
 9071SOL     OW38671   0.821   1.718   8.097  0.3819  0.1231 -0.6121
 9071SOL    HW138672   0.767   1.692   8.023  1.7821 -0.6833 -1.3499
 9071SOL    HW238673   0.896   1.757   8.053  0.2674  0.4667 -0.5042
 9072SOL     OW38674   1.919   3.775   0.227 -0.7543  0.6444  0.2337
 9072SOL    HW138675   1.892   3.793   0.137 -4.6021 -3.4521  0.5746
 9072SOL    HW238676   1.948   3.685   0.211  1.4513  1.0891  1.7476
 9073SOL     OW38677   0.642   0.526  11.707  0.4284 -0.5307 -0.0994
 9073SOL    HW138678   0.568   0.514  11.648 -0.5672  0.7218  0.9147
 9073SOL    HW238679   0.605   0.576  11.779  1.6262  0.8489 -0.4278
 9074SOL     OW38680   0.576   3.995   1.394 -0.6457  0.1375 -0.1398
 9074SOL    HW138681   0.645   3.935   1.423 -0.7866  0.7152  1.3668
 9074SOL    HW238682   0.527   4.000   1.476  0.7235  0.5824  0.6514
 9075SOL     OW38683   4.388   2.079   8.687 -0.1136 -0.2292 -0.2960
 9075SOL    HW138684   4.381   2.029   8.768 -1.7732  2.5732  1.2828
 9075SOL    HW238685   4.408   2.167   8.719  0.9947 -0.4274 -0.4438
 9076SOL     OW38686   2.040   0.582   3.472 -0.2260 -0.0582  0.4711
 9076SOL    HW138687   2.057   0.495   3.510 -0.3094 -0.6146 -0.7877
 9076SOL    HW238688   2.131   0.611   3.475  0.3144 -1.4934 -1.9681
 9077SOL     OW38689   3.355   3.995   0.628 -0.5825 -0.5985 -0.4599
 9077SOL    HW138690   3.319   3.919   0.674 -1.6952 -0.6429 -1.4054
 9077SOL    HW238691   3.373   3.957   0.542  1.8222  0.2751 -0.3178
 9078SOL     OW38692   0.762   1.231   7.690  0.2721 -0.3088 -0.5815
 9078SOL    HW138693   0.678   1.185   7.698 -0.2189  0.6684 -0.0651
 9078SOL    HW238694   0.810   1.168   7.637  2.4984  2.8195 -2.2576
 9079SOL     OW38695   0.288   4.476   4.088  0.1336  0.6718 -0.1832
 9079SOL    HW138696   0.299   4.456   4.181 -0.3523  2.3249  0.2358
 9079SOL    HW238697   0.203   4.437   4.068  0.3668 -1.6352  3.2992
 9080SOL     OW38698   1.240   2.048  13.344 -0.1325 -0.4508  0.4766
 9080SOL    HW138699   1.304   2.066  13.413 -1.0237  1.0703  0.9252
 9080SOL    HW238700   1.166   2.107  13.360 -1.5137 -1.9447 -0.4287
 9081SOL     OW38701   3.811   2.032   6.370 -0.3958  0.2813 -0.1932
 9081SOL    HW138702   3.827   2.105   6.430 -1.5568  0.9800 -0.7173
 9081SOL    HW238703   3.807   2.083   6.288 -2.0862 -1.4753 -1.2122
 9082SOL     OW38704   0.317   0.558  13.382 -0.1289 -0.1742  0.4847
 9082SOL    HW138705   0.362   0.576  13.465 -3.0061  1.1787  1.7341
 9082SOL    HW238706   0.224   0.552  13.400 -0.4018  0.9018 -0.5825
 9083SOL     OW38707   2.071   0.246  17.549  0.1735  0.2072 -0.1710
 9083SOL    HW138708   2.163   0.255  17.526  0.8791 -1.0490  2.1466
 9083SOL    HW238709   2.032   0.235  17.462 -1.1744  0.4973  0.3945
 9084SOL     OW38710   3.945   2.950   5.002  0.1038  0.0111  0.3332
 9084SOL    HW138711   3.924   3.042   5.018 -1.2841 -0.3287  0.4462
 9084SOL    HW238712   3.956   2.920   5.093  0.9220 -0.5364  0.0559
 9085SOL     OW38713   1.449   2.365  14.824 -0.3108 -0.0107 -0.3273
 9085SOL    HW138714   1.500   2.306  14.879 -0.1921  1.9916  1.7409
 9085SOL    HW238715   1.455   2.322  14.739 -0.9709  1.0281 -0.9107
 9086SOL     OW38716   3.115   0.561   9.423  0.4904 -0.0889 -0.3588
 9086SOL    HW138717   3.192   0.508   9.443  0.3789 -0.8750 -1.9807
 9086SOL    HW238718   3.049   0.504   9.381 -0.7738  1.7032 -0.8063
 9087SOL     OW38719   1.539   4.671   0.905  0.0428  0.3448  0.3590
 9087SOL    HW138720   1.584   0.019   0.858 -0.6992  1.7472  1.7545
 9087SOL    HW238721   1.500   4.718   0.979  0.6026 -1.7301  1.9861
 9088SOL     OW38722   3.869   2.013   2.255 -0.3937 -0.0271  0.3573
 9088SOL    HW138723   3.957   2.044   2.237 -0.4347 -2.0246 -3.1687
 9088SOL    HW238724   3.826   2.012   2.170  1.8135 -0.9987 -0.7254
 9089SOL     OW38725   4.240   3.791   6.827 -0.3246 -0.4015 -0.2474
 9089SOL    HW138726   4.335   3.791   6.812 -0.1402 -0.5557  0.9628
 9089SOL    HW238727   4.232   3.876   6.869  1.2209  0.3138 -1.3850
 9090SOL     OW38728   0.636   3.145  12.167 -0.8033 -0.3263 -0.2332
 9090SOL    HW138729   0.680   3.067  12.200 -1.2838 -0.7041 -0.4907
 9090SOL    HW238730   0.653   3.123  12.075  1.0076  1.5944 -0.3480
 9091SOL     OW38731   1.296   4.450  13.369  0.4654  0.0802  1.2898
 9091SOL    HW138732   1.387   4.428  13.349  0.2800 -0.9178  1.5076
 9091SOL    HW238733   1.308   4.516  13.436 -1.0248  0.5969  1.0412
 9092SOL     OW38734   0.446   4.052  13.795  0.1870  0.2793 -0.4099
 9092SOL    HW138735   0.426   4.127  13.850 -0.6742  0.2659 -0.7110
 9092SOL    HW238736   0.428   3.987  13.863  0.0196  0.2675 -0.4646
 9093SOL     OW38737   3.831   4.223  16.410  0.6353  0.3202  0.1238
 9093SOL    HW138738   3.824   4.215  16.505 -0.3964  0.0324  0.0277
 9093SOL    HW238739   3.745   4.184  16.390  0.8640  1.0003 -2.1744
 9094SOL     OW38740   2.526   2.032   8.321  0.1048  0.0933 -0.0575
 9094SOL    HW138741   2.495   1.961   8.378 -3.7797  2.1571  0.3743
 9094SOL    HW238742   2.459   2.098   8.309 -0.4237 -0.3618  0.3525
 9095SOL     OW38743   1.204   4.521   8.669  0.3573 -0.4902 -0.3231
 9095SOL    HW138744   1.138   4.590   8.670  0.3815 -0.4763  0.9469
 9095SOL    HW238745   1.165   4.440   8.638 -1.3712  0.4956 -0.6737
 9096SOL     OW38746   2.885   2.273   6.304 -0.2011 -0.0236 -0.3602
 9096SOL    HW138747   2.842   2.348   6.264 -0.3342  0.4822  0.7425
 9096SOL    HW238748   2.860   2.200   6.247 -0.0761 -0.7229  0.4728
 9097SOL     OW38749   4.281   2.753  13.010 -0.5594  0.1503  0.0778
 9097SOL    HW138750   4.298   2.736  12.917  2.9790  2.6251  0.3067
 9097SOL    HW238751   4.316   2.677  13.056  0.2283  0.0662 -0.6509
 9098SOL     OW38752   0.144   3.577   7.836  0.5986  0.3053 -0.1471
 9098SOL    HW138753   0.208   3.605   7.902  1.3560  1.5907 -1.4244
 9098SOL    HW238754   0.083   3.650   7.827  1.3288  0.7227 -1.6588
 9099SOL     OW38755   1.384   3.934   2.849 -0.2028  0.4183 -0.3502
 9099SOL    HW138756   1.317   4.001   2.858 -0.6656 -0.1841  0.6629
 9099SOL    HW238757   1.355   3.877   2.778 -1.2549  1.5724 -0.8281
 9100SOL     OW38758   2.754   2.490   4.923  0.1554  0.9481 -0.3558
 9100SOL    HW138759   2.765   2.547   4.999  0.3852  0.6256 -0.1480
 9100SOL    HW238760   2.834   2.532   4.889  1.5652 -0.7905  0.8123
 9101SOL     OW38761   1.553   3.632   0.611  0.2958  0.4044 -0.1503
 9101SOL    HW138762   1.594   3.566   0.667 -0.9083 -1.4032 -1.3851
 9101SOL    HW238763   1.460   3.632   0.632 -0.0225  1.1116 -1.5763
 9102SOL     OW38764   4.241   0.344   6.107 -0.2845  0.3968 -0.5367
 9102SOL    HW138765   4.175   0.278   6.126 -1.5535  1.3184 -1.7133
 9102SOL    HW238766   4.231   0.413   6.172 -0.6985 -0.8576  0.7131
 9103SOL     OW38767   1.593   3.929   8.890 -1.0606  0.0058  0.1937
 9103SOL    HW138768   1.687   3.915   8.900 -1.4679 -2.8666 -0.0454
 9103SOL    HW238769   1.574   3.966   8.976  0.9260  0.0146  0.6420
 9104SOL     OW38770   1.901   3.182   1.065  0.4961 -0.0891  0.1444
 9104SOL    HW138771   1.940   3.269   1.070  0.1667  0.0895 -0.3861
 9104SOL    HW238772   1.974   3.132   1.101  0.3613  0.0081  0.5477
 9105SOL     OW38773   0.650   0.290   2.119 -0.2889 -0.1421  0.1759
 9105SOL    HW138774   0.739   0.256   2.110 -0.1734  1.0020 -2.8508
 9105SOL    HW238775   0.606   0.243   2.048  0.0821  2.0216 -1.4789
 9106SOL     OW38776   1.029   2.768   4.648 -0.0322  0.3345 -0.0228
 9106SOL    HW138777   1.081   2.778   4.568 -1.7657  0.1329 -1.1590
 9106SOL    HW238778   0.997   2.854   4.674  0.9128  1.0381 -1.1868
 9107SOL     OW38779   3.662   2.083  10.345  0.6515  0.4684 -0.2355
 9107SOL    HW138780   3.632   2.154  10.289 -1.0049 -1.1092 -1.3756
 9107SOL    HW238781   3.755   2.066  10.326  0.3355 -0.1936 -1.2324
 9108SOL     OW38782   1.027   0.669   1.140  0.1285 -0.3018  0.4951
 9108SOL    HW138783   0.994   0.685   1.228 -1.7383  1.0510 -0.4515
 9108SOL    HW238784   1.117   0.701   1.139  0.4556 -1.1995  1.2733
 9109SOL     OW38785   0.123   3.423   5.444 -0.5163 -0.0061 -0.4073
 9109SOL    HW138786   0.209   3.385   5.460 -0.4735 -0.4031 -1.5860
 9109SOL    HW238787   0.089   3.372   5.371 -2.3958  0.6025  0.0301
 9110SOL     OW38788   1.226   4.293   2.911  0.1106  0.3559  0.2894
 9110SOL    HW138789   1.222   4.262   3.002  1.5920  0.6898  0.4673
 9110SOL    HW238790   1.201   4.385   2.921 -0.7252  0.1823 -0.1582
 9111SOL     OW38791   2.351   4.106   3.908  0.0113 -0.4155 -0.2645
 9111SOL    HW138792   2.264   4.090   3.943  0.7083 -0.1964  1.5816
 9111SOL    HW238793   2.386   4.017   3.913  2.1488  0.4239 -0.2990
 9112SOL     OW38794   4.059   3.351   5.927 -0.1920 -0.2110 -0.5863
 9112SOL    HW138795   4.123   3.422   5.924 -1.4620  0.9671  0.1355
 9112SOL    HW238796   4.094   3.310   6.006  1.2349  0.5487 -0.8228
 9113SOL     OW38797   3.157   1.441   8.498 -0.1802  0.8145 -0.2034
 9113SOL    HW138798   3.079   1.392   8.471  0.1946 -0.2248  0.6147
 9113SOL    HW238799   3.202   1.412   8.419 -0.5473 -0.6321  0.1167
 9114SOL     OW38800   0.998   2.952  11.000 -0.4381  0.0889  0.1702
 9114SOL    HW138801   1.002   2.985  11.090  1.1993 -0.6137  0.3508
 9114SOL    HW238802   0.910   2.917  10.988 -1.3737  1.5237  2.7575
 9115SOL     OW38803   0.692   2.893   7.233 -0.3840  0.5878  0.1752
 9115SOL    HW138804   0.778   2.909   7.274 -0.1741 -3.0746  1.1349
 9115SOL    HW238805   0.669   2.984   7.216  1.3400  0.9458 -0.2563
 9116SOL     OW38806   2.624   0.592   5.852  0.2005  0.3348 -0.5457
 9116SOL    HW138807   2.634   0.612   5.945  2.5989 -0.5596 -0.6251
 9116SOL    HW238808   2.534   0.619   5.835 -0.9140 -0.5040  3.9978
 9117SOL     OW38809   4.117   1.443   7.431  0.1506 -0.7931 -0.1381
 9117SOL    HW138810   4.090   1.463   7.341 -0.8000 -1.4258  0.0065
 9117SOL    HW238811   4.086   1.521   7.475 -1.2659 -1.0838 -0.6225
 9118SOL     OW38812   3.994   1.265   1.157 -0.2479  0.2375  0.4794
 9118SOL    HW138813   4.018   1.358   1.158  1.1739 -0.1256  0.5954
 9118SOL    HW238814   4.071   1.231   1.111  0.2648 -0.1373  1.6019
 9119SOL     OW38815   0.142   1.391  14.634 -0.2941 -0.1437  0.1442
 9119SOL    HW138816   0.086   1.318  14.607  1.5190 -2.2837  2.2561
 9119SOL    HW238817   0.082   1.458  14.602  0.4227 -0.0505 -0.9796
 9120SOL     OW38818   4.382   1.501  13.045  0.3507  0.0848 -0.6691
 9120SOL    HW138819   4.313   1.454  13.000  0.2332  0.9287 -1.3548
 9120SOL    HW238820   4.365   1.480  13.137  0.7701 -0.1603 -0.6410
 9121SOL     OW38821   2.912   0.322   6.904  0.2362  0.3669  0.4972
 9121SOL    HW138822   2.835   0.369   6.872 -0.1860 -0.3423  0.4884
 9121SOL    HW238823   2.979   0.390   6.896 -0.2443  0.8374  0.4191
 9122SOL     OW38824   4.193   4.286  16.081 -0.3886 -0.1927 -0.4198
 9122SOL    HW138825   4.151   4.337  16.151 -1.1077  1.7869 -2.2728
 9122SOL    HW238826   4.116   4.250  16.038  1.0476 -1.1930 -2.1212
 9123SOL     OW38827   3.510   2.726  13.758 -0.2340  0.1067 -0.1876
 9123SOL    HW138828   3.581   2.733  13.821 -1.7926  2.7351  1.2872
 9123SOL    HW238829   3.460   2.802  13.787  0.0487  0.1388  0.2254
 9124SOL     OW38830   2.003   1.045   7.023  0.4248  0.1682 -0.3451
 9124SOL    HW138831   2.015   1.123   7.078  0.3976 -0.4222  0.4969
 9124SOL    HW238832   1.909   1.048   7.007  0.6333  0.8837 -1.4485
 9125SOL     OW38833   2.668   3.139   5.031  0.0459  0.2242  0.7147
 9125SOL    HW138834   2.732   3.089   5.081  1.2676  1.3285  0.2386
 9125SOL    HW238835   2.609   3.174   5.098 -0.0761 -0.7256  1.1012
 9126SOL     OW38836   3.611   2.113   1.133 -0.0961 -0.3070 -0.2084
 9126SOL    HW138837   3.567   2.197   1.120 -0.8726 -1.2234 -3.6620
 9126SOL    HW238838   3.588   2.069   1.051  0.6405  0.1454 -0.6632
 9127SOL     OW38839   1.159   0.293   1.024 -0.2142  0.0570  0.1657
 9127SOL    HW138840   1.147   0.314   1.117 -0.9567  0.5855 -0.0456
 9127SOL    HW238841   1.167   0.384   0.997  2.4461  0.0253  0.8885
 9128SOL     OW38842   0.641   0.428  17.288 -1.0725  0.0239  0.4938
 9128SOL    HW138843   0.634   0.357  17.223 -0.1542  0.5739 -0.2126
 9128SOL    HW238844   0.712   0.397  17.344 -1.7304  0.4378  1.5520
 9129SOL     OW38845   0.891   0.380   1.469 -0.5316 -0.4720  0.2788
 9129SOL    HW138846   0.887   0.356   1.377 -1.0056 -1.5693  0.5811
 9129SOL    HW238847   0.889   0.293   1.511  1.8223 -0.8891 -0.5037
 9130SOL     OW38848   1.405   0.423   8.623 -0.4210 -0.2899  0.0646
 9130SOL    HW138849   1.328   0.476   8.606 -0.4399  0.2662  1.8378
 9130SOL    HW238850   1.425   0.457   8.711 -2.3022  0.6507  0.1122
 9131SOL     OW38851   1.255   1.989  10.435 -0.5686 -0.0105  0.7127
 9131SOL    HW138852   1.314   2.040  10.379  1.7598 -1.9981  1.3451
 9131SOL    HW238853   1.302   1.988  10.518  1.3850  0.8769 -0.3789
 9132SOL     OW38854   0.547   3.106   1.611  0.4782 -0.0789 -0.7007
 9132SOL    HW138855   0.550   3.199   1.590  2.5513 -0.0085 -0.0767
 9132SOL    HW238856   0.470   3.082   1.560  0.6376 -0.9324 -0.5441
 9133SOL     OW38857   0.210   0.029   0.216  0.6481  0.0647  0.0741
 9133SOL    HW138858   0.257   0.105   0.251 -0.2125  0.4908  0.3030
 9133SOL    HW238859   0.128   0.074   0.197  1.3140  1.5294  0.6214
 9134SOL     OW38860   1.922   4.064  10.120 -0.2656 -0.5050  0.0797
 9134SOL    HW138861   2.004   4.025  10.091 -0.6291 -0.4371 -1.0692
 9134SOL    HW238862   1.955   4.153  10.126 -1.8649 -0.1869  3.6488
 9135SOL     OW38863   1.773   0.543  10.877 -0.1070 -0.0106  0.3776
 9135SOL    HW138864   1.866   0.522  10.865  0.1042 -0.0258  1.9914
 9135SOL    HW238865   1.752   0.621  10.827 -1.6474 -0.5262  0.2138
 9136SOL     OW38866   4.594   0.272  16.484  0.8615  0.4862 -0.0020
 9136SOL    HW138867   4.580   0.306  16.396  0.0711  2.0782  0.7286
 9136SOL    HW238868   4.629   0.185  16.463 -1.5452 -0.2406 -1.0354
 9137SOL     OW38869   3.611   2.461  10.439 -0.1035  0.1100  0.2528
 9137SOL    HW138870   3.543   2.465  10.373  1.1057  0.8214 -0.9485
 9137SOL    HW238871   3.694   2.430  10.401 -0.2302  0.8373 -0.6026
 9138SOL     OW38872   4.628   1.744  12.214 -0.1032  0.2225 -0.3440
 9138SOL    HW138873   4.630   1.651  12.194  0.1148  0.1608 -0.0467
 9138SOL    HW238874   4.541   1.767  12.182 -0.1339 -0.1776 -0.5321
 9139SOL     OW38875   4.041   3.321   1.757 -0.4326 -0.3770  0.2608
 9139SOL    HW138876   3.954   3.296   1.789 -0.9786 -1.7518 -2.2448
 9139SOL    HW238877   4.035   3.267   1.678  0.0400 -0.4869  0.2994
 9140SOL     OW38878   0.592   2.966   5.535 -0.3551 -0.4115  0.4212
 9140SOL    HW138879   0.500   2.992   5.539 -0.2061  0.3073 -0.6974
 9140SOL    HW238880   0.594   2.899   5.602 -0.0926 -0.4762  0.3511
 9141SOL     OW38881   1.166   3.516   7.052  0.0899  0.4526 -0.1359
 9141SOL    HW138882   1.232   3.484   6.990  0.0069  0.5787 -0.2908
 9141SOL    HW238883   1.228   3.540   7.120 -0.2007 -2.0834  1.0197
 9142SOL     OW38884   0.224   4.558   4.643  0.2756  1.0664  0.2879
 9142SOL    HW138885   0.214   4.473   4.686 -3.3847  1.1111 -0.4772
 9142SOL    HW238886   0.240   4.615   4.718  1.4332 -0.0890  0.9176
 9143SOL     OW38887   3.888   3.817  10.302  0.0711 -0.0021  0.2022
 9143SOL    HW138888   3.800   3.780  10.297  0.4296 -0.7631 -0.5644
 9143SOL    HW238889   3.879   3.888  10.238 -1.8735 -1.3020 -0.9500
 9144SOL     OW38890   4.169   3.536   6.877  0.1900  0.5861  0.2705
 9144SOL    HW138891   4.201   3.625   6.861  1.0120 -0.1115 -2.0490
 9144SOL    HW238892   4.166   3.542   6.972  0.8081 -0.2716  0.3475
 9145SOL     OW38893   4.187   2.487  14.896 -0.2304 -0.2057 -0.3984
 9145SOL    HW138894   4.251   2.523  14.836  0.0198  0.1971  0.1097
 9145SOL    HW238895   4.214   2.396  14.906 -1.0398 -0.5949 -1.7543
 9146SOL     OW38896   0.052   1.275   6.725 -0.2001  0.0849  0.3202
 9146SOL    HW138897   4.710   1.333   6.684  0.1702 -1.2489 -2.1084
 9146SOL    HW238898   0.004   1.245   6.802  0.6947  1.5704  1.4803
 9147SOL     OW38899   1.584   2.327   7.936  0.4340  0.1152 -0.8769
 9147SOL    HW138900   1.496   2.361   7.951  0.0281 -0.2411 -2.5567
 9147SOL    HW238901   1.627   2.375   8.007 -0.0112  1.9188 -1.8296
 9148SOL     OW38902   1.288   3.846   2.320 -0.3370 -0.4183 -0.4169
 9148SOL    HW138903   1.283   3.751   2.304 -0.0421 -0.4127 -0.5406
 9148SOL    HW238904   1.223   3.861   2.388  1.0882 -0.4249  0.9393
 9149SOL     OW38905   4.385   2.693   3.446 -0.1961 -0.2723  0.1187
 9149SOL    HW138906   4.315   2.696   3.381 -0.8312 -0.5305  0.7810
 9149SOL    HW238907   4.355   2.745   3.520  0.7062 -0.1727  0.4163
 9150SOL     OW38908   2.223   2.481   8.081  0.1821 -0.3970 -0.1848
 9150SOL    HW138909   2.306   2.437   8.062 -0.2126 -1.3777  0.3728
 9150SOL    HW238910   2.219   2.540   8.005  0.2246 -0.8143 -0.5104
 9151SOL     OW38911   3.542   1.734  14.012  0.2712 -0.1210  0.1629
 9151SOL    HW138912   3.596   1.680  14.070  0.9174  0.2431 -0.1024
 9151SOL    HW238913   3.556   1.683  13.932 -0.2786 -0.5620  0.3414
 9152SOL     OW38914   1.886   3.481   4.738 -1.1767 -0.3766  0.0206
 9152SOL    HW138915   1.930   3.536   4.674 -1.5112  0.1623  0.2547
 9152SOL    HW238916   1.910   3.390   4.720 -3.3042 -0.7306 -1.0487
 9153SOL     OW38917   4.429   4.221   7.241 -0.3243  0.2326  0.0639
 9153SOL    HW138918   4.369   4.217   7.315  0.0326  1.3175  0.4058
 9153SOL    HW238919   4.439   4.316   7.236 -0.9436  0.1714 -2.3673
 9154SOL     OW38920   3.711   0.342   5.760  0.1130  0.2858  0.5118
 9154SOL    HW138921   3.801   0.375   5.763  0.6530 -1.1265 -0.1666
 9154SOL    HW238922   3.721   0.283   5.685 -0.1237 -0.1581  0.8250
 9155SOL     OW38923   0.693   1.869  17.385  0.5252  0.1321 -0.8589
 9155SOL    HW138924   0.713   1.962  17.372  0.2274 -0.0980 -2.9172
 9155SOL    HW238925   0.609   1.868  17.339  0.9051 -1.3125 -1.5155
 9156SOL     OW38926   1.924   0.594  12.113  0.1690  0.2391  0.2900
 9156SOL    HW138927   1.879   0.611  12.030 -1.0716 -1.5220  0.5966
 9156SOL    HW238928   1.877   0.651  12.175 -1.2717  0.4852 -1.0146
 9157SOL     OW38929   2.933   4.472   8.841 -0.3371  0.3376 -0.2967
 9157SOL    HW138930   2.899   4.494   8.754  1.4164 -0.2876 -1.1426
 9157SOL    HW238931   2.941   4.378   8.829 -0.3673  0.2587  0.3537
 9158SOL     OW38932   3.192   1.680   2.200  0.7972  0.2638 -0.0879
 9158SOL    HW138933   3.242   1.620   2.145 -2.3845 -0.4202 -2.1960
 9158SOL    HW238934   3.168   1.734   2.125 -0.1627 -1.3246 -0.9192
 9159SOL     OW38935   1.909   0.107   5.269 -0.4968  0.4009 -0.1899
 9159SOL    HW138936   1.839   0.142   5.215  0.1141  2.8227  0.6017
 9159SOL    HW238937   1.956   0.055   5.203  1.4019 -0.4759  1.8426
 9160SOL     OW38938   1.115   2.618  12.603  0.0229 -0.4313 -0.2497
 9160SOL    HW138939   1.027   2.602  12.570  0.5062  0.5081 -1.9443
 9160SOL    HW238940   1.157   2.533  12.588  1.6638  0.1182  1.2160
 9161SOL     OW38941   1.651   1.482  13.774  0.1434  0.2504 -0.0417
 9161SOL    HW138942   1.679   1.472  13.865 -0.5613  0.9952  0.2550
 9161SOL    HW238943   1.562   1.446  13.774  0.3643 -0.3084  0.6313
 9162SOL     OW38944   1.356   0.073   0.331  0.1333  0.1066  0.5483
 9162SOL    HW138945   1.436   0.028   0.306  0.4307  0.4640  0.8716
 9162SOL    HW238946   1.380   0.090   0.421  0.5082 -0.9260  0.6457
 9163SOL     OW38947   3.271   2.308  16.546 -0.3126 -0.4913  0.3078
 9163SOL    HW138948   3.227   2.392  16.536  0.9280 -0.0007 -0.9093
 9163SOL    HW238949   3.243   2.269  16.462  0.6944 -1.3544  0.3736
 9164SOL     OW38950   1.510   1.946   8.694  0.1613  0.7422 -0.5303
 9164SOL    HW138951   1.438   2.010   8.693 -0.1909  0.3680  0.5088
 9164SOL    HW238952   1.516   1.928   8.788 -1.8035  0.2046 -0.5034
 9165SOL     OW38953   2.661   3.596   4.845  0.6934  0.3978  0.0546
 9165SOL    HW138954   2.634   3.611   4.935  1.5485 -2.4860  0.7804
 9165SOL    HW238955   2.666   3.500   4.845  0.3494  0.3793 -0.4584
 9166SOL     OW38956   0.766   4.078   7.281 -0.5064  0.0711  0.1282
 9166SOL    HW138957   0.695   4.063   7.343  0.9126 -1.2194  1.4292
 9166SOL    HW238958   0.804   3.990   7.291 -0.9932 -0.1441  0.0715
 9167SOL     OW38959   2.623   0.877  17.393 -0.7582  0.3332 -0.2432
 9167SOL    HW138960   2.680   0.920  17.457 -1.0033 -0.8604  0.7862
 9167SOL    HW238961   2.604   0.795  17.439  0.1768  0.2260 -0.0455
 9168SOL     OW38962   0.618   3.953   1.142 -0.1720  0.1581 -0.2785
 9168SOL    HW138963   0.689   4.016   1.129  0.5721 -0.3830  1.0943
 9168SOL    HW238964   0.606   3.954   1.237  2.0923  1.3155 -0.0193
 9169SOL     OW38965   3.140   3.199  12.385 -0.3484  0.1442  0.4785
 9169SOL    HW138966   3.121   3.209  12.292 -1.9355  1.5496  0.9620
 9169SOL    HW238967   3.145   3.289  12.416 -0.7794 -0.0908  1.2406
 9170SOL     OW38968   0.299   2.700   6.680 -0.3295  0.0090 -0.6788
 9170SOL    HW138969   0.320   2.793   6.680  0.9306 -0.2708 -1.6217
 9170SOL    HW238970   0.372   2.665   6.731  1.5029 -0.6816 -3.7795
 9171SOL     OW38971   1.753   0.449   5.865  0.2712 -0.4076 -0.1095
 9171SOL    HW138972   1.797   0.386   5.808  1.6915  1.3029 -0.8849
 9171SOL    HW238973   1.828   0.503   5.888 -1.0354  0.4220  2.1860
 9172SOL     OW38974   2.534   1.444   6.576 -0.0625  0.1059 -0.2538
 9172SOL    HW138975   2.469   1.374   6.582  1.0500 -0.9893 -0.8933
 9172SOL    HW238976   2.491   1.511   6.630 -0.0163  0.2802 -0.4318
 9173SOL     OW38977   1.265   2.996   6.440  0.3428 -0.7240  0.0862
 9173SOL    HW138978   1.239   2.906   6.461 -2.3543  0.2390  0.9409
 9173SOL    HW238979   1.238   2.996   6.349 -1.3551 -1.4752  0.5932
 9174SOL     OW38980   3.930   1.608   5.575 -0.2808  0.4881 -0.3762
 9174SOL    HW138981   3.987   1.589   5.501  0.8821 -0.0342  0.6391
 9174SOL    HW238982   3.841   1.588   5.547  0.3418 -1.3390 -1.0582
 9175SOL     OW38983   0.519   4.091   6.848 -0.2944 -0.2963  0.4829
 9175SOL    HW138984   0.612   4.109   6.860 -0.7616  2.3989  0.1589
 9175SOL    HW238985   0.483   4.168   6.892 -0.8015  0.4679 -1.2678
 9176SOL     OW38986   2.109   2.455   4.949  1.2405  0.8783 -0.0404
 9176SOL    HW138987   2.147   2.440   4.862 -1.7020 -1.5542 -0.8836
 9176SOL    HW238988   2.030   2.503   4.927 -0.2083 -1.8959 -0.9275
 9177SOL     OW38989   1.002   0.935   8.318  0.0631  0.0662  0.4171
 9177SOL    HW138990   0.924   0.988   8.337  0.4808  1.2042 -1.0537
 9177SOL    HW238991   1.070   0.978   8.369  1.2416 -0.0880 -1.0265
 9178SOL     OW38992   1.836   1.476   7.828 -0.0758 -0.1522 -0.1629
 9178SOL    HW138993   1.925   1.502   7.850 -0.7029  0.4511  1.6746
 9178SOL    HW238994   1.800   1.437   7.907 -2.6174 -1.0044 -1.7486
 9179SOL     OW38995   1.504   4.081  15.535 -0.5173  0.7132  0.1673
 9179SOL    HW138996   1.548   4.086  15.450  0.5487 -1.2355  0.6020
 9179SOL    HW238997   1.529   3.993  15.562  1.3448  1.0271 -0.5211
 9180SOL     OW38998   3.696   0.563   4.816 -0.2954 -0.1583 -0.5266
 9180SOL    HW138999   3.673   0.505   4.743  1.0116  0.2873 -1.2942
 9180SOL    HW239000   3.779   0.527   4.848 -1.4753 -0.3741  2.2305
 9181SOL     OW39001   4.640   2.740   3.368 -0.4866 -0.6104 -0.2930
 9181SOL    HW139002   4.546   2.736   3.385 -0.5982 -0.2499 -0.8350
 9181SOL    HW239003   4.671   2.678   3.434 -2.3749 -0.2489  0.9404
 9182SOL     OW39004   1.066   1.825   2.851 -0.3917 -0.0354 -0.2770
 9182SOL    HW139005   1.065   1.731   2.869 -0.6914 -0.1693 -1.0192
 9182SOL    HW239006   1.051   1.828   2.757 -0.8223 -0.8167 -0.2318
 9183SOL     OW39007   1.392   0.646   6.633  0.2423  0.4938 -0.9418
 9183SOL    HW139008   1.433   0.635   6.719 -2.6513 -1.2140  0.2111
 9183SOL    HW239009   1.459   0.698   6.588 -1.4113  2.8192 -0.6954
 9184SOL     OW39010   4.063   2.546   8.755  0.3774  0.2566  0.5616
 9184SOL    HW139011   4.138   2.591   8.795  1.0768  1.3946 -2.0056
 9184SOL    HW239012   4.061   2.584   8.667 -3.2888 -0.5355  0.3306
 9185SOL     OW39013   2.519   0.113   4.412  0.0639  0.0792  0.3126
 9185SOL    HW139014   2.427   0.133   4.432  0.3372 -0.8518  2.4931
 9185SOL    HW239015   2.560   0.199   4.402 -0.3154  0.1439 -0.6745
 9186SOL     OW39016   0.048   1.197   4.384 -0.4376 -0.0415  0.6676
 9186SOL    HW139017   0.032   1.128   4.320  2.1131  0.1376 -0.1814
 9186SOL    HW239018   4.712   1.160   4.450  2.4886 -3.4611  1.2689
 9187SOL     OW39019   3.730   1.571   7.185  0.3536 -0.1228  0.0014
 9187SOL    HW139020   3.731   1.646   7.244  0.7834  1.2192 -1.6898
 9187SOL    HW239021   3.809   1.523   7.209 -0.2077 -1.0493  0.0232
 9188SOL     OW39022   1.487   2.719  14.800  0.1019  0.3239  0.0527
 9188SOL    HW139023   1.520   2.685  14.717  1.3467  2.4117 -0.3030
 9188SOL    HW239024   1.450   2.806  14.786 -1.0321 -0.3704 -1.2368
 9189SOL     OW39025   2.099   3.462  15.572  0.7042  0.0049 -0.5390
 9189SOL    HW139026   2.088   3.493  15.662 -0.4976 -0.9091 -0.3737
 9189SOL    HW239027   2.165   3.520  15.534 -0.5875  2.8644  1.5089
 9190SOL     OW39028   3.617   3.637   4.824 -0.1025  0.0232 -0.2018
 9190SOL    HW139029   3.606   3.581   4.748  0.7724  0.0915 -0.3786
 9190SOL    HW239030   3.552   3.706   4.818 -0.6567 -0.2250  2.8908
 9191SOL     OW39031   0.984   0.065   6.518  0.6172  0.6134  1.0936
 9191SOL    HW139032   0.923   0.099   6.583 -2.0800  0.2382 -1.2491
 9191SOL    HW239033   0.948   4.701   6.497 -1.7362  1.7022  0.7148
 9192SOL     OW39034   1.443   1.966   3.304 -0.1051 -0.0192 -0.0580
 9192SOL    HW139035   1.427   2.059   3.287  0.7021  0.1478  0.0873
 9192SOL    HW239036   1.356   1.926   3.304  0.2898 -0.8826 -0.2627
 9193SOL     OW39037   2.801   1.087  16.736 -0.3762 -0.6333 -0.7103
 9193SOL    HW139038   2.707   1.068  16.735 -0.4600 -0.4232  2.6639
 9193SOL    HW239039   2.831   0.996  16.735  1.1802 -0.1078 -0.9446
 9194SOL     OW39040   4.379   2.676   4.086 -0.5808  0.1103  0.3473
 9194SOL    HW139041   4.343   2.592   4.060  1.6924 -0.4452 -1.0054
 9194SOL    HW239042   4.391   2.666   4.180  0.6306  0.9298  0.2866
 9195SOL     OW39043   4.224   2.656   5.778 -0.5386 -0.3247  0.0152
 9195SOL    HW139044   4.245   2.570   5.740  0.6749  0.0229 -0.0825
 9195SOL    HW239045   4.130   2.670   5.767 -0.3193  1.6861  0.8052
 9196SOL     OW39046   1.012   3.880   4.723 -0.1310 -0.6366 -0.4123
 9196SOL    HW139047   1.022   3.953   4.784  0.9961 -0.6045 -0.6474
 9196SOL    HW239048   1.043   3.926   4.645  0.0386  1.5290  0.9563
 9197SOL     OW39049   4.333   3.931  13.535  0.6149 -0.3694  0.2349
 9197SOL    HW139050   4.328   3.835  13.533 -0.4665 -0.2915 -0.6726
 9197SOL    HW239051   4.284   3.959  13.613  1.9350 -1.1418  1.3380
 9198SOL     OW39052   2.428   0.348   6.421  0.6298 -0.0785 -0.3324
 9198SOL    HW139053   2.402   0.437   6.445  0.2801  0.2456 -1.8855
 9198SOL    HW239054   2.354   0.295   6.449 -0.9432  1.7902 -0.9216
 9199SOL     OW39055   0.948   2.436   8.987  0.8098 -0.0912 -0.3770
 9199SOL    HW139056   1.011   2.401   8.924 -1.2452  0.2230 -2.5920
 9199SOL    HW239057   0.863   2.432   8.943 -0.1030 -2.3680  1.5928
 9200SOL     OW39058   3.581   3.038   2.260 -0.2749  0.1142 -0.0911
 9200SOL    HW139059   3.662   3.079   2.291 -1.3642  1.0995  1.3851
 9200SOL    HW239060   3.619   3.019   2.173  1.4533  0.1954  0.6394
 9201SOL     OW39061   2.277   3.236  16.582 -0.0680  0.4827 -0.2373
 9201SOL    HW139062   2.342   3.166  16.581 -1.6143 -0.9440  0.3547
 9201SOL    HW239063   2.218   3.201  16.649  1.8101  0.6690  1.5121
 9202SOL     OW39064   1.443   1.943   9.238 -0.2373  0.3863  0.2975
 9202SOL    HW139065   1.495   1.995   9.178 -1.6756  0.6158 -0.7409
 9202SOL    HW239066   1.377   1.904   9.181  0.5088 -2.0147  1.0528
 9203SOL     OW39067   2.225   2.206   1.564  0.2130 -0.4947 -0.4673
 9203SOL    HW139068   2.276   2.273   1.610 -0.8062 -2.0545  2.9128
 9203SOL    HW239069   2.281   2.130   1.578 -1.3926 -1.2625  1.8243
 9204SOL     OW39070   3.195   3.042   3.661 -0.2932 -0.3914  0.5025
 9204SOL    HW139071   3.234   3.017   3.577  0.0928  0.1800  0.5061
 9204SOL    HW239072   3.169   2.958   3.698  1.5228 -0.6697  1.1602
 9205SOL     OW39073   2.677   0.136   6.832 -0.0312  0.2051 -1.0200
 9205SOL    HW139074   2.677   0.229   6.808 -3.6478  0.7817  1.1911
 9205SOL    HW239075   2.723   0.142   6.916 -1.0104  1.7537 -0.5963
 9206SOL     OW39076   0.645   0.491   2.898 -0.5737 -0.1486 -0.0349
 9206SOL    HW139077   0.713   0.495   2.965 -0.0165 -0.7797 -0.5558
 9206SOL    HW239078   0.598   0.409   2.915  0.9069 -1.3566 -1.6925
 9207SOL     OW39079   4.578   0.389   5.894 -0.2539  0.2667 -0.2680
 9207SOL    HW139080   4.617   0.475   5.911  3.4433 -2.3059  4.2161
 9207SOL    HW239081   4.630   0.349   5.824 -0.6723 -2.8686  1.2362
 9208SOL     OW39082   1.605   1.872   6.753  0.3745 -0.4081 -0.3009
 9208SOL    HW139083   1.665   1.875   6.678  0.0076 -1.5851 -0.6493
 9208SOL    HW239084   1.663   1.851   6.826 -1.0599  0.3318  1.0482
 9209SOL     OW39085   0.462   4.334   4.356 -0.5537 -0.0393  0.0897
 9209SOL    HW139086   0.427   4.261   4.408  1.2912 -0.4320  0.7813
 9209SOL    HW239087   0.393   4.396   4.379 -1.0248  0.5020 -2.7633
 9210SOL     OW39088   4.322   0.429   4.303 -0.3693 -0.4306 -0.1026
 9210SOL    HW139089   4.234   0.462   4.286  0.4786  1.7363 -0.2308
 9210SOL    HW239090   4.299   0.341   4.334 -0.7684 -0.0525  0.6647
 9211SOL     OW39091   2.587   1.693   3.731 -0.1366 -0.3698 -0.4245
 9211SOL    HW139092   2.679   1.720   3.740 -0.8132  2.7310 -2.8668
 9211SOL    HW239093   2.563   1.678   3.822 -0.7762  1.2315 -0.3197
 9212SOL     OW39094   2.047   3.215   1.683 -0.2973 -0.2757  0.2767
 9212SOL    HW139095   2.060   3.248   1.772 -0.5594  1.0306 -0.1667
 9212SOL    HW239096   1.976   3.278   1.666 -0.7044 -1.1589 -1.2641
 9213SOL     OW39097   0.717   4.447   3.236 -0.7293 -0.2261  0.4276
 9213SOL    HW139098   0.775   4.506   3.284 -0.6030  0.3497 -0.4360
 9213SOL    HW239099   0.758   4.445   3.149  0.5346  0.4111  1.0071
 9214SOL     OW39100   0.722   4.337   8.424 -0.2209 -0.5197 -0.3113
 9214SOL    HW139101   0.645   4.300   8.467  1.7508 -0.8277  2.9345
 9214SOL    HW239102   0.779   4.322   8.500  1.1621 -0.2629 -1.2969
 9215SOL     OW39103   3.996   1.802   1.558 -0.1957  0.0704 -0.1465
 9215SOL    HW139104   3.907   1.767   1.555  0.7094 -2.1059 -1.5395
 9215SOL    HW239105   4.049   1.733   1.599 -3.2978 -0.9338  2.2503
 9216SOL     OW39106   4.347   3.906   7.695 -0.0186  0.0321  0.0433
 9216SOL    HW139107   4.361   4.001   7.690 -1.0016  0.1355 -0.7188
 9216SOL    HW239108   4.323   3.891   7.604  1.8502  0.2015 -0.4724
 9217SOL     OW39109   4.177   3.989   6.309 -0.3078 -0.5630 -0.9810
 9217SOL    HW139110   4.113   3.932   6.352 -2.9546  1.0126 -2.8087
 9217SOL    HW239111   4.247   3.924   6.308 -1.2301 -1.5838  1.5995
 9218SOL     OW39112   4.243   4.541   1.982 -0.0486  0.2107 -0.5634
 9218SOL    HW139113   4.262   4.619   2.035  1.2409 -0.2759 -0.3069
 9218SOL    HW239114   4.204   4.578   1.903 -0.1963  2.0420  0.3525
 9219SOL     OW39115   2.364   3.892   1.870 -0.0705  0.3092 -0.3923
 9219SOL    HW139116   2.365   3.824   1.938  0.7367 -0.0232 -0.7400
 9219SOL    HW239117   2.431   3.945   1.914 -0.9589  0.6931  0.4925
 9220SOL     OW39118   1.864   1.936   8.392  0.2270  0.0266 -0.0771
 9220SOL    HW139119   1.814   1.869   8.438  0.6910 -0.2690 -0.0161
 9220SOL    HW239120   1.806   1.964   8.320  0.8876 -0.7290 -0.8996
 9221SOL     OW39121   4.375   4.225   6.767  0.2705 -0.7052  0.4949
 9221SOL    HW139122   4.282   4.247   6.764  0.6399  0.6113 -1.4940
 9221SOL    HW239123   4.390   4.182   6.683 -1.4361 -0.0309 -0.1383
 9222SOL     OW39124   0.633   3.869  13.675  0.4416 -0.2687  0.2484
 9222SOL    HW139125   0.724   3.885  13.699  0.3991  0.4228 -0.0627
 9222SOL    HW239126   0.578   3.940  13.708  0.1645  0.0428 -0.8966
 9223SOL     OW39127   2.472   4.552   9.377 -0.5260  0.4969 -0.3133
 9223SOL    HW139128   2.495   4.539   9.469  1.9911  0.0442 -1.0296
 9223SOL    HW239129   2.503   4.640   9.356  0.7154 -0.2166 -1.4349
 9224SOL     OW39130   4.533   0.368  15.543  0.0960  1.2032 -0.0796
 9224SOL    HW139131   4.582   0.442  15.579  1.4990  0.3860 -0.3069
 9224SOL    HW239132   4.444   0.400  15.558  0.1417  0.4470  1.7438
 9225SOL     OW39133   0.689   3.494   6.711  0.5094  0.1535  0.1009
 9225SOL    HW139134   0.751   3.421   6.716  0.4942  0.3088  2.4780
 9225SOL    HW239135   0.743   3.569   6.734 -1.7147  1.4830  1.0292
 9226SOL     OW39136   3.317   1.059   4.346 -0.2406 -0.3165  0.1659
 9226SOL    HW139137   3.359   1.128   4.398  0.3474 -1.6942  1.5060
 9226SOL    HW239138   3.352   0.978   4.383  0.9877 -0.7989 -2.0772
 9227SOL     OW39139   3.567   1.045   0.361 -0.5497 -0.6267  0.1222
 9227SOL    HW139140   3.478   1.072   0.337 -0.0066  1.6042  0.7151
 9227SOL    HW239141   3.539   0.965   0.406 -0.6632  0.0757  1.2853
 9228SOL     OW39142   2.499   4.112   2.295 -0.2690 -0.0220  0.1082
 9228SOL    HW139143   2.539   4.134   2.379 -0.0788  1.3121 -0.3431
 9228SOL    HW239144   2.475   4.020   2.311  0.6793 -0.7438 -2.5453
 9229SOL     OW39145   0.723   0.756   6.995  0.1642  0.3014  0.0010
 9229SOL    HW139146   0.690   0.691   7.056  0.6170 -0.1633 -0.2468
 9229SOL    HW239147   0.751   0.691   6.930  0.7899 -0.6375  1.2153
 9230SOL     OW39148   2.491   3.231   5.211 -0.1898 -0.0013  0.4108
 9230SOL    HW139149   2.410   3.273   5.181  0.1981  0.1239 -0.4536
 9230SOL    HW239150   2.514   3.298   5.276 -1.0780  2.1750 -1.5318
 9231SOL     OW39151   4.665   2.873  13.151 -0.8261  0.0299  0.2475
 9231SOL    HW139152   0.031   2.859  13.185 -0.5654  0.6554 -0.1886
 9231SOL    HW239153   4.625   2.795  13.189 -1.8003 -0.5919 -2.0908
 9232SOL     OW39154   2.641   4.500  17.620  0.0946 -0.3387 -0.5121
 9232SOL    HW139155   2.676   4.588  17.612 -1.3520  0.0117 -2.8991
 9232SOL    HW239156   2.681   4.471   0.012  1.8175  2.3645 -0.4109
 9233SOL     OW39157   0.581   1.715   7.453 -0.1523  0.4258 -0.1790
 9233SOL    HW139158   0.663   1.757   7.428 -0.5770  2.3625  1.6776
 9233SOL    HW239159   0.594   1.624   7.429  0.0616  0.0255  1.4745
 9234SOL     OW39160   2.340   0.422  10.101  0.4427  0.4187  0.2569
 9234SOL    HW139161   2.428   0.391  10.127 -0.0852  0.5375  2.1838
 9234SOL    HW239162   2.358   0.455  10.013  3.2053  0.8002  0.9551
 9235SOL     OW39163   2.824   4.303   5.535 -0.2121 -0.1914 -0.0757
 9235SOL    HW139164   2.807   4.397   5.536 -1.6472 -0.4263 -3.2746
 9235SOL    HW239165   2.891   4.283   5.600  0.5230  1.4900 -0.3305
 9236SOL     OW39166   1.614   0.466  14.678 -0.1860  0.0865  0.5195
 9236SOL    HW139167   1.629   0.520  14.600 -2.1241 -0.7787 -0.4482
 9236SOL    HW239168   1.650   0.383  14.648 -0.1876 -0.0181  0.8042
 9237SOL     OW39169   1.002   2.555   3.338 -0.0816 -0.0318  0.2464
 9237SOL    HW139170   1.029   2.464   3.347  1.1300  0.3409  0.3035
 9237SOL    HW239171   1.055   2.615   3.390 -0.4709 -1.4288  2.2197
 9238SOL     OW39172   4.720   1.983   0.938  0.3546  0.5307  0.2783
 9238SOL    HW139173   0.087   2.013   0.958  0.1483  1.3703 -0.0564
 9238SOL    HW239174   0.015   1.980   0.844 -4.8332  1.0269 -0.6992
 9239SOL     OW39175   0.482   3.135   2.872  0.7133 -0.1265  0.5128
 9239SOL    HW139176   0.570   3.156   2.904  0.4952 -1.4898  1.9785
 9239SOL    HW239177   0.447   3.102   2.954 -3.2189 -0.7071 -1.4232
 9240SOL     OW39178   0.297   2.056   2.028  0.1922  0.8564  0.3408
 9240SOL    HW139179   0.297   1.960   2.018  1.2872  0.6169  2.4666
 9240SOL    HW239180   0.227   2.054   2.093 -0.1787 -0.2989 -0.0798
 9241SOL     OW39181   1.018   2.034  17.447 -0.3370  0.2343  0.4093
 9241SOL    HW139182   1.049   2.021  17.357 -0.3806  2.6142  0.0524
 9241SOL    HW239183   0.982   2.122  17.436 -0.5130  0.1466  0.2983
 9242SOL     OW39184   3.118   4.030  15.125 -0.0332  0.4618 -0.1386
 9242SOL    HW139185   3.081   4.090  15.061 -1.1955 -0.4027 -0.2789
 9242SOL    HW239186   3.041   3.986  15.164  1.9044 -0.6691  2.4220
 9243SOL     OW39187   2.128   3.193   6.596 -0.2613  0.1508  0.0753
 9243SOL    HW139188   2.142   3.175   6.689 -2.4748 -0.8937  0.2131
 9243SOL    HW239189   2.108   3.104   6.568  0.5954  0.4743 -1.5685
 9244SOL     OW39190   3.158   2.381   1.058  0.1536 -0.0115  0.6257
 9244SOL    HW139191   3.249   2.361   1.081  0.3467  0.1666  0.0076
 9244SOL    HW239192   3.170   2.388   0.963 -0.1049  1.5952  0.7269
 9245SOL     OW39193   1.398   1.707  16.907  0.6645  0.0491 -0.1579
 9245SOL    HW139194   1.400   1.631  16.965 -0.1566  0.7808  0.8365
 9245SOL    HW239195   1.324   1.761  16.936  0.7873  0.7753 -1.2010
 9246SOL     OW39196   0.215   1.027  15.809 -0.2300  0.2488  0.1501
 9246SOL    HW139197   0.180   0.959  15.752  0.5669 -0.9108  1.0439
 9246SOL    HW239198   0.307   1.003  15.821 -0.2312 -0.3540 -1.0673
 9247SOL     OW39199   3.018   1.305   0.808 -1.4304  0.0512 -0.2520
 9247SOL    HW139200   2.987   1.360   0.737 -0.4048  0.1901 -0.5925
 9247SOL    HW239201   2.959   1.324   0.881  0.3033  1.0420  0.8919
 9248SOL     OW39202   3.775   1.534   6.517 -0.7358  0.2454 -0.4494
 9248SOL    HW139203   3.812   1.574   6.596 -2.0524  0.0538  0.2590
 9248SOL    HW239204   3.684   1.563   6.519 -0.5908  0.6062  0.6858
 9249SOL     OW39205   2.447   2.347   6.375  0.4796  0.0894  0.6611
 9249SOL    HW139206   2.477   2.393   6.454 -1.8469 -0.3628  1.8229
 9249SOL    HW239207   2.400   2.412   6.324  0.3961 -1.1787 -0.8777
 9250SOL     OW39208   3.253   0.060   9.009 -0.0712  0.1210 -0.0838
 9250SOL    HW139209   3.187   0.092   8.948 -2.3115 -1.4621  1.5238
 9250SOL    HW239210   3.266   0.143   9.056 -0.9499  0.3351 -0.2151
 9251SOL     OW39211   4.499   2.365  14.428 -0.6343  0.0656 -0.3065
 9251SOL    HW139212   4.469   2.351  14.517  0.1054  2.7333  0.3775
 9251SOL    HW239213   4.456   2.449  14.408 -0.8424  0.1823  0.6452
 9252SOL     OW39214   3.111   2.032   2.659 -0.0539  0.0791  0.0433
 9252SOL    HW139215   3.138   2.046   2.568 -1.6003  1.0113 -0.2562
 9252SOL    HW239216   3.192   1.993   2.694 -0.5658  0.8586  2.0803
 9253SOL     OW39217   4.372   3.621   8.932 -0.1099  0.4030 -0.0101
 9253SOL    HW139218   4.382   3.535   8.892 -0.9497  0.9117 -1.3567
 9253SOL    HW239219   4.462   3.649   8.946  0.3802 -1.0627 -0.2782
 9254SOL     OW39220   0.272   3.697  10.533 -0.4886 -0.1341  0.2404
 9254SOL    HW139221   0.275   3.767  10.467  0.6225  0.4317  0.8955
 9254SOL    HW239222   0.258   3.746  10.614  0.0238 -0.7428  0.6913
 9255SOL     OW39223   2.217   2.752   3.239 -0.2467 -0.4138 -0.5846
 9255SOL    HW139224   2.206   2.827   3.296  1.7353  0.1160 -0.9026
 9255SOL    HW239225   2.240   2.685   3.303  0.8202 -0.6014 -1.1557
 9256SOL     OW39226   0.003   3.903   8.179 -0.2971  0.0781  0.2076
 9256SOL    HW139227   4.653   3.965   8.174 -0.2391  0.1931  0.7337
 9256SOL    HW239228   0.076   3.963   8.163  0.0497 -1.0257 -2.2942
 9257SOL     OW39229   0.700   1.121  16.590  0.7228 -1.1826  0.2411
 9257SOL    HW139230   0.783   1.091  16.625  0.1716 -1.7587  1.0402
 9257SOL    HW239231   0.722   1.168  16.509  0.8065  1.0551  1.5503
 9258SOL     OW39232   3.657   0.116  16.577  0.0392  0.2366 -0.2865
 9258SOL    HW139233   3.658   0.210  16.563 -1.3713  0.2420 -0.3326
 9258SOL    HW239234   3.569   0.099  16.543 -0.1428  1.0752 -0.2193
 9259SOL     OW39235   2.827   0.454   6.511  0.2010  0.2330 -0.4320
 9259SOL    HW139236   2.889   0.408   6.454  0.5037 -0.2243  0.2671
 9259SOL    HW239237   2.879   0.526   6.548 -0.5146 -0.3782  1.7694
 9260SOL     OW39238   3.844   1.229   0.785  0.0471 -0.0107 -0.1407
 9260SOL    HW139239   3.844   1.246   0.691 -0.0283  1.2382  0.0806
 9260SOL    HW239240   3.938   1.223   0.799 -0.1949 -3.1594  0.1737
 9261SOL     OW39241   0.448   1.642   7.724 -0.2712 -0.8813 -1.1947
 9261SOL    HW139242   0.439   1.664   7.631 -0.2010 -0.7064 -1.1605
 9261SOL    HW239243   0.368   1.680   7.759 -0.1669 -1.1588 -0.6636
 9262SOL     OW39244   1.621   4.395   9.022  0.2735 -0.2733  0.3332
 9262SOL    HW139245   1.531   4.396   9.056  0.0408 -0.7340 -0.2810
 9262SOL    HW239246   1.634   4.300   9.032 -2.2600 -0.6733 -0.0868
 9263SOL     OW39247   1.645   2.724   4.020 -0.1020 -0.2184  0.0941
 9263SOL    HW139248   1.647   2.803   4.074  1.1545 -2.1278  2.8162
 9263SOL    HW239249   1.711   2.659   4.045  0.4577  0.2665 -0.1283
 9264SOL     OW39250   0.938   3.775   2.851  0.1536 -0.0806 -0.1868
 9264SOL    HW139251   1.004   3.843   2.866 -0.0059 -0.6842  3.1707
 9264SOL    HW239252   0.889   3.776   2.933 -1.0280 -2.3834 -0.8555
 9265SOL     OW39253   2.414   4.568   4.445 -0.7429 -0.5655  0.1906
 9265SOL    HW139254   2.374   4.579   4.531 -0.0531 -3.8162  0.9296
 9265SOL    HW239255   2.498   4.534   4.476 -1.1101 -1.3649  0.3251
 9266SOL     OW39256   0.686   1.550   3.968  0.0232 -0.2760  0.2060
 9266SOL    HW139257   0.689   1.483   3.900  0.2808  1.3221 -1.3493
 9266SOL    HW239258   0.776   1.558   3.999  0.2806 -2.3435 -0.0632
 9267SOL     OW39259   1.110   4.234  13.309 -0.3960 -0.0234  0.2965
 9267SOL    HW139260   1.039   4.228  13.372 -2.1527 -0.2420 -1.6933
 9267SOL    HW239261   1.166   4.298  13.353 -0.7409 -1.1561  2.3596
 9268SOL     OW39262   2.477   0.907  16.785 -0.4129 -0.3857  0.2303
 9268SOL    HW139263   2.475   0.994  16.744  0.9739 -0.0150  0.9650
 9268SOL    HW239264   2.542   0.863  16.729 -0.0825  0.3323  0.0487
 9269SOL     OW39265   1.966   2.235   6.176  0.2091  0.4643  0.0114
 9269SOL    HW139266   2.008   2.319   6.188  1.1693 -0.1376  0.8043
 9269SOL    HW239267   1.885   2.240   6.227  1.0124 -2.4651  1.5468
 9270SOL     OW39268   2.524   3.625   2.385  0.3637 -0.2453  0.5965
 9270SOL    HW139269   2.525   3.581   2.470 -0.2354 -1.9482 -0.2741
 9270SOL    HW239270   2.468   3.565   2.335 -1.8421  1.0894  1.4557
 9271SOL     OW39271   1.804   1.034   6.134 -0.6072  0.1188  0.6563
 9271SOL    HW139272   1.877   1.096   6.143  2.4503 -3.0693 -2.5768
 9271SOL    HW239273   1.844   0.952   6.162 -0.1848 -0.0415 -0.4325
 9272SOL     OW39274   0.055   0.426   7.657  0.0948  0.0213  0.3916
 9272SOL    HW139275   0.113   0.495   7.625 -0.0817 -0.4846 -1.0469
 9272SOL    HW239276   0.007   0.478   7.721  0.1881  1.3139 -0.5944
 9273SOL     OW39277   1.848   0.511   8.144 -0.1874  0.3529 -0.4231
 9273SOL    HW139278   1.825   0.509   8.051 -0.3503 -2.2734 -0.3226
 9273SOL    HW239279   1.787   0.444   8.177  2.1819 -2.6353 -2.1378
 9274SOL     OW39280   2.731   0.438   3.373  0.5155  0.1009  0.0783
 9274SOL    HW139281   2.722   0.466   3.464  0.8344  1.6764 -0.3833
 9274SOL    HW239282   2.643   0.411   3.346  0.6814 -2.3752  1.9855
 9275SOL     OW39283   2.305   1.279   0.173  0.3319  0.7496  0.4826
 9275SOL    HW139284   2.306   1.194   0.217  0.8351 -0.1514 -1.2763
 9275SOL    HW239285   2.317   1.252   0.082  1.5349  2.1771  0.2050
 9276SOL     OW39286   4.026   0.782   4.379  0.6461  0.0770  0.4393
 9276SOL    HW139287   4.092   0.849   4.363 -0.3508  1.1467  0.8272
 9276SOL    HW239288   4.069   0.715   4.325 -0.9510 -1.4672  1.0654
 9277SOL     OW39289   3.198   4.494  15.925 -0.4797  0.1589  0.2199
 9277SOL    HW139290   3.208   4.570  15.981 -0.4049 -0.0497  0.4891
 9277SOL    HW239291   3.109   4.473  15.955 -1.5740  1.5235 -2.0433
 9278SOL     OW39292   4.429   3.506   6.154 -0.1314 -0.4077  0.2078
 9278SOL    HW139293   4.398   3.473   6.238  0.0402  1.6886  1.0929
 9278SOL    HW239294   4.514   3.543   6.180  0.2536 -0.1592 -1.4449
 9279SOL     OW39295   2.770   4.137   0.426 -0.5457  0.2200  0.0003
 9279SOL    HW139296   2.698   4.101   0.376 -2.9307  2.9661  1.4471
 9279SOL    HW239297   2.841   4.148   0.362  0.1862  0.7208  0.8941
 9280SOL     OW39298   3.920   0.919   5.261  0.2944 -0.4284 -0.2417
 9280SOL    HW139299   3.862   0.856   5.304 -0.8053  0.8331  0.1082
 9280SOL    HW239300   3.900   0.898   5.170  2.4965  0.2578 -0.8741
 9281SOL     OW39301   3.050   3.407   5.194  0.2629 -0.2801 -0.2013
 9281SOL    HW139302   3.089   3.367   5.115  2.9662  0.6549  0.6446
 9281SOL    HW239303   2.960   3.414   5.164  0.6458 -0.4935 -1.4234
 9282SOL     OW39304   1.093   1.776   2.571 -0.4247  0.2320  0.4889
 9282SOL    HW139305   1.027   1.716   2.537 -0.2025  0.2523  0.0181
 9282SOL    HW239306   1.175   1.728   2.558 -1.3939 -1.4514  0.6492
 9283SOL     OW39307   0.642   0.274  11.158 -0.2912 -0.0945 -0.5844
 9283SOL    HW139308   0.614   0.293  11.069 -0.1660  0.2469 -0.5494
 9283SOL    HW239309   0.582   0.335  11.201 -1.2822  0.9545 -3.4122
 9284SOL     OW39310   4.035   4.174   1.495 -0.2519 -0.5962  0.2265
 9284SOL    HW139311   3.976   4.140   1.562 -3.0720  0.6418 -1.6597
 9284SOL    HW239312   3.975   4.224   1.439 -0.0460 -0.9776 -0.3388
 9285SOL     OW39313   3.105   1.299   4.844 -0.3324  0.1316  0.3138
 9285SOL    HW139314   3.047   1.306   4.920  2.2471  0.1086  2.3117
 9285SOL    HW239315   3.085   1.214   4.806  0.7274  0.3626 -0.7660
 9286SOL     OW39316   0.959   2.678   9.115 -0.4133  0.5847  0.2860
 9286SOL    HW139317   0.930   2.757   9.070 -0.7408  0.9346  1.1122
 9286SOL    HW239318   0.940   2.612   9.049  3.4801 -1.0946  0.8292
 9287SOL     OW39319   0.111   2.664   7.014 -0.4146  0.5426  0.0409
 9287SOL    HW139320   0.154   2.584   6.984 -2.5805 -0.0000 -1.6074
 9287SOL    HW239321   0.146   2.685   7.101  0.4083 -0.5650 -0.0265
 9288SOL     OW39322   4.393   2.943   5.797 -0.3137  0.0083  0.1622
 9288SOL    HW139323   4.369   2.854   5.823 -0.4479 -0.3959 -1.3705
 9288SOL    HW239324   4.384   2.982   5.884 -0.0721  0.7982 -0.1700
 9289SOL     OW39325   3.651   4.367   3.430 -0.0418  0.0649  0.0466
 9289SOL    HW139326   3.564   4.331   3.416  0.6583 -0.6776 -2.4748
 9289SOL    HW239327   3.692   4.347   3.345  2.2068  1.1718  0.8629
 9290SOL     OW39328   2.858   4.054   1.576  0.2554  0.6956  0.1520
 9290SOL    HW139329   2.879   4.084   1.488  1.2053 -2.3896 -0.6951
 9290SOL    HW239330   2.903   3.970   1.585 -0.7511  0.0257 -1.0631
 9291SOL     OW39331   3.044   4.302   5.689  0.1848 -0.0961  0.6041
 9291SOL    HW139332   3.090   4.327   5.769 -1.5625  1.8132  0.9956
 9291SOL    HW239333   3.095   4.341   5.618 -2.4851 -2.0962 -2.3939
 9292SOL     OW39334   3.709   3.155  11.429  0.6586  0.3272 -0.6231
 9292SOL    HW139335   3.634   3.171  11.371  2.2544  1.1334 -2.4214
 9292SOL    HW239336   3.771   3.226  11.414  0.7074  0.1224 -1.3766
 9293SOL     OW39337   3.816   0.526   3.127 -0.4073 -0.4494  0.8217
 9293SOL    HW139338   3.800   0.602   3.071  2.2399  0.0302  0.6842
 9293SOL    HW239339   3.852   0.573   3.202  1.0292 -0.2260  0.0041
 9294SOL     OW39340   1.360   1.721   7.169 -0.4336  0.1354  0.4122
 9294SOL    HW139341   1.385   1.720   7.261 -0.1997 -2.5195  0.3122
 9294SOL    HW239342   1.367   1.630   7.140 -0.5503  0.6306 -1.1733
 9295SOL     OW39343   0.964   1.410   0.538  0.7666  0.1774 -0.3900
 9295SOL    HW139344   0.972   1.401   0.443  2.6783  0.6923 -0.2886
 9295SOL    HW239345   1.051   1.373   0.557  0.2907  0.4377  2.3470
 9296SOL     OW39346   2.193   4.551   0.755  0.5161 -0.2619  0.1363
 9296SOL    HW139347   2.272   4.512   0.793 -0.7322 -2.3225  0.5877
 9296SOL    HW239348   2.159   4.477   0.706 -1.3113  0.5506  0.1611
 9297SOL     OW39349   1.591   2.609  14.556  0.1013 -0.4082  0.0766
 9297SOL    HW139350   1.525   2.543  14.532 -1.2783  1.0143 -0.0483
 9297SOL    HW239351   1.569   2.684  14.501 -1.1637  0.1215  1.3060
 9298SOL     OW39352   0.305   1.769   2.862  0.8660 -0.3435  0.4203
 9298SOL    HW139353   0.311   1.829   2.936 -3.0900 -1.1046  1.3234
 9298SOL    HW239354   0.252   1.826   2.807 -1.2736 -2.5030  0.2400
 9299SOL     OW39355   0.493   2.562   5.012 -0.4918  0.0689 -0.1205
 9299SOL    HW139356   0.466   2.614   5.087  1.0567  0.1064  0.4187
 9299SOL    HW239357   0.417   2.505   5.006  0.8369 -1.4837 -2.4670
 9300SOL     OW39358   1.322   1.551   2.678  0.1051  0.2634 -0.1610
 9300SOL    HW139359   1.346   1.643   2.669 -1.6937  0.7544  0.0986
 9300SOL    HW239360   1.279   1.555   2.763 -1.8185 -1.1434 -1.0780
 9301SOL     OW39361   3.887   0.691   0.816 -0.5797  0.2885  0.3169
 9301SOL    HW139362   3.865   0.777   0.780 -1.4656 -0.2062 -0.3169
 9301SOL    HW239363   3.924   0.642   0.743  0.1274 -0.2542  1.0369
 9302SOL     OW39364   4.258   4.079   5.669  0.8485  0.0108 -0.0207
 9302SOL    HW139365   4.321   4.016   5.703  1.3872  0.4154 -0.2844
 9302SOL    HW239366   4.223   4.119   5.748  0.1140 -0.8234  0.0757
 9303SOL     OW39367   0.258   1.007   6.345  0.8153  0.4175  0.3019
 9303SOL    HW139368   0.347   0.996   6.314  0.2645  2.1720 -1.8903
 9303SOL    HW239369   0.256   0.970   6.434  0.6733 -1.5251 -0.5058
 9304SOL     OW39370   2.298   0.267   0.952 -0.5352 -0.1539 -0.3513
 9304SOL    HW139371   2.381   0.302   0.917 -0.1452 -0.7231  0.0019
 9304SOL    HW239372   2.299   0.210   0.875  1.1019 -0.1671 -0.3342
 9305SOL     OW39373   2.907   2.694  17.313 -0.3039 -0.4639 -0.5168
 9305SOL    HW139374   2.854   2.770  17.335  1.7679  0.6666  0.5932
 9305SOL    HW239375   2.839   2.642  17.271 -1.4529 -0.1982  1.0338
 9306SOL     OW39376   0.542   0.565   9.537  0.5656  0.4294  0.6092
 9306SOL    HW139377   0.476   0.571   9.468  0.2936 -0.6518  0.7726
 9306SOL    HW239378   0.617   0.541   9.483  0.0710 -0.5743  0.3728
 9307SOL     OW39379   2.840   4.308  17.145 -0.6226 -0.3144 -0.0824
 9307SOL    HW139380   2.772   4.366  17.178 -1.3646 -2.0865  1.4991
 9307SOL    HW239381   2.874   4.365  17.077  0.8423 -3.0569 -1.6535
 9308SOL     OW39382   3.394   1.181   8.016 -0.5964 -0.0552  0.1444
 9308SOL    HW139383   3.383   1.264   7.970  2.0426  0.3226  0.1978
 9308SOL    HW239384   3.440   1.134   7.947  0.6719 -0.4035  1.2214
 9309SOL     OW39385   4.720   0.899   5.284 -0.0494 -0.1485  0.1407
 9309SOL    HW139386   4.714   0.833   5.354 -1.1160  1.5965  1.6900
 9309SOL    HW239387   0.024   0.839   5.213 -1.8096 -1.6714  0.7601
 9310SOL     OW39388   2.674   0.986   9.021  0.0457 -0.4640  0.1742
 9310SOL    HW139389   2.761   1.023   9.036  0.8979 -2.7681  0.9207
 9310SOL    HW239390   2.683   0.914   9.083 -0.7099 -1.1815 -0.5419
 9311SOL     OW39391   0.196   2.594   2.809  0.5194  0.2133 -0.2553
 9311SOL    HW139392   0.214   2.576   2.901  1.3737  3.1914  0.1679
 9311SOL    HW239393   0.100   2.602   2.805  0.4424 -0.3295  0.7068
 9312SOL     OW39394   0.192   4.502  10.823  0.7988 -0.1745  0.1669
 9312SOL    HW139395   0.258   4.434  10.810 -1.9814 -2.5565 -1.5324
 9312SOL    HW239396   0.249   4.570  10.859  0.8308  0.9327 -1.9377
 9313SOL     OW39397   0.023   2.371   6.038  0.2207  0.7396  0.3828
 9313SOL    HW139398   4.718   2.368   5.946 -0.6777  0.4891  0.6537
 9313SOL    HW239399   4.688   2.436   6.080 -1.0564 -0.4982  0.5679
 9314SOL     OW39400   0.827   4.449  15.185 -0.2186 -0.0475  0.5589
 9314SOL    HW139401   0.824   4.357  15.212 -1.5846  0.5488  2.3966
 9314SOL    HW239402   0.821   4.493  15.270  0.8233  1.5073 -0.1847
 9315SOL     OW39403   3.124   0.716   8.209 -0.5248 -0.3831  0.1144
 9315SOL    HW139404   3.170   0.795   8.181  1.6987 -1.6933  0.1041
 9315SOL    HW239405   3.049   0.748   8.259 -0.6261 -2.4772  1.3078
 9316SOL     OW39406   0.296   2.014   7.776  0.4491  0.6322  0.4498
 9316SOL    HW139407   0.217   2.055   7.810 -2.0269 -2.3215 -1.8057
 9316SOL    HW239408   0.360   2.085   7.765 -0.0209  0.9850  0.0096
 9317SOL     OW39409   3.413   1.923  15.484  0.6515 -0.2316 -1.1654
 9317SOL    HW139410   3.504   1.951  15.472  0.8621  0.0263  1.1383
 9317SOL    HW239411   3.388   1.906  15.393 -2.3565  0.0490 -0.3864
 9318SOL     OW39412   0.900   1.839   8.353 -0.5371  0.6411  0.1257
 9318SOL    HW139413   0.964   1.895   8.309 -1.0653  0.6092 -0.6794
 9318SOL    HW239414   0.867   1.790   8.278  2.1101 -2.2272  0.8155
 9319SOL     OW39415   2.916   0.353   2.370 -0.2553  0.1447 -0.3036
 9319SOL    HW139416   2.935   0.438   2.410  2.6583 -0.7034  0.0838
 9319SOL    HW239417   2.878   0.372   2.284 -2.2521  1.1296  0.7959
 9320SOL     OW39418   4.486   3.369  10.525 -0.5454  0.1666  0.0310
 9320SOL    HW139419   4.531   3.432  10.582 -0.9544  1.5525 -1.1518
 9320SOL    HW239420   4.555   3.353  10.462  0.4998  1.4051  0.8592
 9321SOL     OW39421   0.602   2.503   4.101 -0.5973 -0.1270  0.1239
 9321SOL    HW139422   0.659   2.579   4.092 -2.3905  1.0087 -1.7036
 9321SOL    HW239423   0.653   2.438   4.150  3.4708  1.1148 -2.4423
 9322SOL     OW39424   4.015   0.538   0.999  0.1415  0.1864 -0.0081
 9322SOL    HW139425   3.966   0.603   0.948  2.2390  1.7654  0.0085
 9322SOL    HW239426   3.964   0.459   0.980  0.7403  0.2364 -1.8901
 9323SOL     OW39427   2.248   0.264  11.658  0.6228 -0.3736 -0.3008
 9323SOL    HW139428   2.215   0.249  11.747 -0.1221  1.0062 -0.3459
 9323SOL    HW239429   2.223   0.355  11.642 -2.4918 -1.0479  0.7493
 9324SOL     OW39430   1.733   1.952  16.291  0.1672 -0.1885  0.0161
 9324SOL    HW139431   1.769   1.897  16.222  0.4438  0.8264 -0.6456
 9324SOL    HW239432   1.764   1.900  16.365  1.7394 -1.9786 -1.8980
 9325SOL     OW39433   0.311   1.951   3.681  0.3782 -1.0100 -0.0584
 9325SOL    HW139434   0.381   2.013   3.700 -0.5785 -0.0243  0.2261
 9325SOL    HW239435   0.320   1.942   3.587 -2.0920 -0.2720 -0.3742
 9326SOL     OW39436   2.678   0.896   5.425 -0.1671 -0.4604 -0.0012
 9326SOL    HW139437   2.583   0.894   5.415 -0.0348  2.1187 -1.8039
 9326SOL    HW239438   2.687   0.886   5.520 -0.1185  0.3411  0.0767
 9327SOL     OW39439   4.215   1.213   3.851 -0.1016 -0.2634  0.0495
 9327SOL    HW139440   4.127   1.200   3.886  0.1970 -0.2554  0.8172
 9327SOL    HW239441   4.266   1.131   3.858 -1.0437 -0.8973 -0.6089
 9328SOL     OW39442   3.033   4.571   8.382 -0.1413 -0.2639 -0.1922
 9328SOL    HW139443   2.984   4.512   8.325 -0.4393 -0.6941  0.5109
 9328SOL    HW239444   3.053   4.528   8.465  0.3566  0.4575  0.0648
 9329SOL     OW39445   4.445   0.863   1.411 -0.0926  0.0749  0.1877
 9329SOL    HW139446   4.519   0.803   1.417  0.7164  0.9557 -1.0473
 9329SOL    HW239447   4.367   0.807   1.407 -0.0575  0.0029  0.4618
 9330SOL     OW39448   0.675   0.779   0.109 -0.2186 -0.0717  0.7334
 9330SOL    HW139449   0.770   0.786   0.111 -0.1083 -1.8414  1.6402
 9330SOL    HW239450   0.669   0.687   0.082 -3.2560  0.5570 -0.7026
 9331SOL     OW39451   0.775   0.006   6.851 -0.1863 -0.0131 -0.4144
 9331SOL    HW139452   0.852   4.677   6.827 -0.0768 -0.2682  0.4961
 9331SOL    HW239453   0.702   4.671   6.827 -1.1409 -0.4001  3.3914
 9332SOL     OW39454   1.117   0.573   7.811  0.1360 -0.7739 -0.0944
 9332SOL    HW139455   1.186   0.507   7.813 -0.1540 -1.0903 -0.9604
 9332SOL    HW239456   1.042   0.527   7.774  0.8696 -2.3102  0.3575
 9333SOL     OW39457   3.448   1.176  13.442 -0.0683  0.0780  0.2565
 9333SOL    HW139458   3.526   1.186  13.386 -2.0045  1.1625 -2.2400
 9333SOL    HW239459   3.391   1.138  13.376 -1.3418  1.6192  0.4685
 9334SOL     OW39460   3.134   0.081   6.254 -0.1990  0.3835  0.1704
 9334SOL    HW139461   3.194   0.039   6.316  0.6252 -0.1589 -1.0049
 9334SOL    HW239462   3.192   0.133   6.199  0.3276  0.7620  1.0751
 9335SOL     OW39463   0.183   1.330   9.543 -0.7393  0.0070  0.8356
 9335SOL    HW139464   0.113   1.366   9.488  0.3419 -0.7393 -1.0375
 9335SOL    HW239465   0.192   1.246   9.498  2.2838  0.6012  0.3316
 9336SOL     OW39466   3.902   1.735   8.920 -0.1485 -0.1177  0.2033
 9336SOL    HW139467   3.827   1.778   8.960 -0.7128 -0.5060 -0.4381
 9336SOL    HW239468   3.930   1.811   8.869  0.8182 -1.0817 -0.7082
 9337SOL     OW39469   2.007   0.718   9.417 -0.7085 -0.4155 -0.0872
 9337SOL    HW139470   1.963   0.773   9.482 -1.4683 -0.7990 -0.2777
 9337SOL    HW239471   1.955   0.637   9.422  1.3858 -1.7690 -0.1490
 9338SOL     OW39472   0.599   1.294  15.423 -0.1519 -0.5818 -0.5244
 9338SOL    HW139473   0.617   1.349  15.347  0.9700 -0.5747 -0.2468
 9338SOL    HW239474   0.685   1.254  15.438  0.8446  1.4589 -0.8818
 9339SOL     OW39475   1.146   2.917   3.114  0.1362  0.6532  0.2459
 9339SOL    HW139476   1.111   2.973   3.183  0.1209  0.4378  0.4133
 9339SOL    HW239477   1.237   2.947   3.111  0.2568 -0.0188 -3.3329
 9340SOL     OW39478   2.914   3.855   1.929  0.0887  0.0437  0.6935
 9340SOL    HW139479   2.822   3.836   1.908  0.1730  0.4297 -0.0132
 9340SOL    HW239480   2.953   3.782   1.880  1.4732  0.6886  0.8504
 9341SOL     OW39481   1.204   1.377   6.177  0.2715 -0.6383  0.6609
 9341SOL    HW139482   1.210   1.376   6.082 -0.7205 -1.7198  0.6108
 9341SOL    HW239483   1.150   1.300   6.194 -0.0405 -1.0840 -2.3937
 9342SOL     OW39484   0.948   0.998   3.214  0.3841 -0.1824 -0.1258
 9342SOL    HW139485   1.032   0.966   3.182 -0.8195 -2.1879 -1.3106
 9342SOL    HW239486   0.962   1.025   3.304  1.9895 -0.7380 -0.2140
 9343SOL     OW39487   2.143   0.406   7.567 -0.1068 -0.4755 -0.1995
 9343SOL    HW139488   2.139   0.404   7.471  1.7441  0.6407 -0.3180
 9343SOL    HW239489   2.072   0.346   7.589  1.0134 -1.5332  0.4800
 9344SOL     OW39490   0.590   4.653   1.198  0.1146  0.1747 -0.3252
 9344SOL    HW139491   0.539   4.573   1.190  0.5942 -0.1140 -0.4733
 9344SOL    HW239492   0.535   4.701   1.259 -0.3527 -0.7112 -0.0622
 9345SOL     OW39493   3.222   2.682   8.476  0.6201  0.2021 -0.0845
 9345SOL    HW139494   3.139   2.672   8.429  1.1587 -2.3091 -0.4939
 9345SOL    HW239495   3.281   2.638   8.414  0.6831 -0.6868  0.6079
 9346SOL     OW39496   3.098   0.508   5.127  0.6927  0.0444 -0.1591
 9346SOL    HW139497   3.091   0.417   5.098 -2.3779 -0.5088  2.3607
 9346SOL    HW239498   3.168   0.547   5.074  1.4534 -0.9721  0.0992
 9347SOL     OW39499   3.700   1.690   2.375  0.9300  0.8908  0.0507
 9347SOL    HW139500   3.638   1.682   2.302 -1.0011  1.8472  1.6049
 9347SOL    HW239501   3.785   1.657   2.345  1.9541  2.1545  1.5456
 9348SOL     OW39502   0.199   0.336  11.534  0.0803 -0.1214 -0.1955
 9348SOL    HW139503   0.244   0.283  11.468 -0.3333 -0.5090 -0.1658
 9348SOL    HW239504   0.118   0.359  11.489 -0.7578 -1.1451  0.7877
 9349SOL     OW39505   2.334   0.355  15.858 -0.6424 -0.3708  0.4308
 9349SOL    HW139506   2.241   0.351  15.881 -0.9267 -0.6499 -0.7350
 9349SOL    HW239507   2.322   0.374  15.765  0.8079  2.4152  0.8393
 9350SOL     OW39508   2.370   2.957   4.122  0.2128 -0.0871 -0.1778
 9350SOL    HW139509   2.306   3.027   4.133 -2.1618 -2.3139  0.0017
 9350SOL    HW239510   2.349   2.900   4.196 -1.1389 -0.3339 -0.7642
 9351SOL     OW39511   1.405   3.139   0.158  0.7455  0.0295 -0.5593
 9351SOL    HW139512   1.329   3.153   0.102  0.1889 -0.3292  0.0923
 9351SOL    HW239513   1.416   3.228   0.190 -2.4553 -0.2187  1.2684
 9352SOL     OW39514   2.233   2.693   7.260 -0.1033 -0.6173 -0.0083
 9352SOL    HW139515   2.222   2.611   7.211  0.9633 -0.5726 -0.3328
 9352SOL    HW239516   2.159   2.684   7.319 -0.9825 -1.5141 -1.2428
 9353SOL     OW39517   4.263   4.239   2.935 -0.6606 -0.4143  0.3446
 9353SOL    HW139518   4.309   4.156   2.927  0.6539  0.1562  1.9367
 9353SOL    HW239519   4.236   4.254   2.845  1.0275 -0.2970 -0.1321
 9354SOL     OW39520   2.537   2.077   3.433  0.0129 -0.6529  0.4857
 9354SOL    HW139521   2.495   2.068   3.347 -0.2515  1.4026  0.4059
 9354SOL    HW239522   2.628   2.086   3.405  0.0431  0.6481  1.0084
 9355SOL     OW39523   3.138   3.467   6.679  0.4011 -0.5096 -0.4908
 9355SOL    HW139524   3.105   3.415   6.606  1.4411  0.9516 -1.9874
 9355SOL    HW239525   3.149   3.394   6.741 -0.9644 -0.6006 -0.3481
 9356SOL     OW39526   0.325   1.649   3.199 -0.4472 -0.6186  0.2007
 9356SOL    HW139527   0.309   1.741   3.181  2.3369  0.1899  2.0248
 9356SOL    HW239528   0.312   1.635   3.293 -0.3984 -0.4066  0.2380
 9357SOL     OW39529   4.187   3.841   9.288 -0.0314 -0.2676 -0.0042
 9357SOL    HW139530   4.100   3.864   9.255 -0.9461 -0.6789  2.1271
 9357SOL    HW239531   4.166   3.759   9.333  1.0648 -1.0220 -0.8523
 9358SOL     OW39532   2.417   2.498   4.919 -0.3174 -0.2537 -0.7788
 9358SOL    HW139533   2.426   2.547   4.838 -0.5218  1.1014  0.0238
 9358SOL    HW239534   2.414   2.573   4.978  0.9174 -0.1627 -0.8447
 9359SOL     OW39535   0.386   3.305   4.770  0.1788  0.1116 -0.0572
 9359SOL    HW139536   0.408   3.217   4.802 -1.7006  0.0277  1.0161
 9359SOL    HW239537   0.295   3.313   4.799 -0.8670 -0.6863 -3.1269
 9360SOL     OW39538   1.316   1.534   6.361 -0.3518 -0.2746 -0.0630
 9360SOL    HW139539   1.306   1.456   6.307 -2.2038 -0.9243  1.2206
 9360SOL    HW239540   1.237   1.519   6.414  1.0883 -1.3520  1.7599
 9361SOL     OW39541   3.438   2.436   8.794  0.0318 -0.5816 -0.3846
 9361SOL    HW139542   3.382   2.420   8.870  0.0360 -1.2932 -0.5327
 9361SOL    HW239543   3.394   2.380   8.729 -0.2494 -0.0380 -0.6699
 9362SOL     OW39544   1.903   3.706   9.274  0.6105  0.3184  0.7364
 9362SOL    HW139545   1.922   3.736   9.363  0.7313  0.2293  0.7404
 9362SOL    HW239546   1.835   3.639   9.282 -0.2498  1.1172  0.0375
 9363SOL     OW39547   4.521   0.306   3.837  0.2931  0.3130 -0.9712
 9363SOL    HW139548   4.578   0.273   3.907  1.1978  3.1214 -0.3913
 9363SOL    HW239549   4.459   0.360   3.886  0.5106 -0.2151 -0.1119
 9364SOL     OW39550   4.566   0.374   6.173 -0.2775  0.0336 -0.1118
 9364SOL    HW139551   4.599   0.361   6.084 -0.7576  1.8941 -0.5836
 9364SOL    HW239552   4.477   0.341   6.159  0.6645 -2.5898  0.1018
 9365SOL     OW39553   1.407   1.754   1.129 -0.1094  0.4132 -0.1460
 9365SOL    HW139554   1.413   1.844   1.096 -1.1794  0.0737 -1.2743
 9365SOL    HW239555   1.314   1.740   1.112 -0.3606  0.3384  1.3137
 9366SOL     OW39556   3.773   0.403   7.938 -0.1655  0.2225 -0.3370
 9366SOL    HW139557   3.712   0.355   7.994  1.9171 -0.2603  1.4759
 9366SOL    HW239558   3.850   0.347   7.944  0.8207  1.7624  1.2251
 9367SOL     OW39559   1.629   0.161   0.760 -0.0618  0.0672  0.1193
 9367SOL    HW139560   1.629   0.153   0.664  1.9890  1.9227 -0.0246
 9367SOL    HW239561   1.678   0.241   0.774 -1.4358  1.2971 -2.0927
 9368SOL     OW39562   2.937   1.937  15.102 -0.3593 -0.1146  0.7225
 9368SOL    HW139563   2.878   1.961  15.031  1.3220  0.7776 -0.3821
 9368SOL    HW239564   2.936   1.841  15.101 -0.6055 -0.1172  2.0726
 9369SOL     OW39565   3.496   4.566  13.500  0.0268  0.2205  0.1052
 9369SOL    HW139566   3.422   4.625  13.488 -0.4331 -0.1618  1.0756
 9369SOL    HW239567   3.451   4.489  13.535  0.2645  0.5733  1.1860
 9370SOL     OW39568   0.321   1.887   3.401  0.5621 -0.4340 -0.0134
 9370SOL    HW139569   0.387   1.820   3.384 -0.2923 -0.6024 -2.5566
 9370SOL    HW239570   0.366   1.951   3.346 -0.4977  0.1316 -0.2203
 9371SOL     OW39571   2.053   1.870  15.514  0.4819  0.3542 -0.3478
 9371SOL    HW139572   1.982   1.908  15.463  1.4242  1.1447 -1.0572
 9371SOL    HW239573   2.074   1.948  15.565  1.1068  0.7103 -1.1483
 9372SOL     OW39574   1.196   4.049   4.574 -0.0994 -0.2489  0.3213
 9372SOL    HW139575   1.275   4.024   4.622 -1.4541 -1.5785  1.8655
 9372SOL    HW239576   1.232   4.060   4.486 -0.2833  2.3879  0.5735
 9373SOL     OW39577   4.292   2.852  10.681  0.4609 -0.1404 -0.0511
 9373SOL    HW139578   4.387   2.857  10.670  0.5455  0.2311  0.8790
 9373SOL    HW239579   4.260   2.859  10.591  0.1356  0.5597  0.1144
 9374SOL     OW39580   4.467   3.664   4.600 -0.1540 -0.3218  0.2175
 9374SOL    HW139581   4.397   3.716   4.639  0.3056  1.0344 -0.7771
 9374SOL    HW239582   4.415   3.587   4.578  0.0413 -0.5791  0.6505
 9375SOL     OW39583   0.468   0.559   6.295  0.2244 -0.5170 -0.3071
 9375SOL    HW139584   0.374   0.551   6.314 -0.2328  0.7502 -2.0873
 9375SOL    HW239585   0.496   0.556   6.386 -0.0482  1.0555 -0.1709
 9376SOL     OW39586   4.206   2.173   5.280 -0.2418  0.2584 -0.0368
 9376SOL    HW139587   4.223   2.130   5.364 -1.4734 -0.9838 -0.4217
 9376SOL    HW239588   4.161   2.252   5.310  0.5493  1.0512 -0.9404
 9377SOL     OW39589   4.596   2.991   6.556 -0.1913  0.0934  0.6580
 9377SOL    HW139590   4.620   2.994   6.463 -1.1140  2.5099  0.4781
 9377SOL    HW239591   4.680   3.021   6.591 -0.3618  0.7115  0.5350
 9378SOL     OW39592   0.990   3.686   3.408 -0.4998  0.0155  0.0619
 9378SOL    HW139593   0.998   3.734   3.325 -2.6460 -1.2714 -0.8854
 9378SOL    HW239594   1.083   3.673   3.427 -0.1458  1.1863 -0.9085
 9379SOL     OW39595   2.701   4.690   4.563 -0.4188 -0.1423  0.4172
 9379SOL    HW139596   2.627   4.704   4.503  1.0855 -1.1030 -1.6914
 9379SOL    HW239597   2.682   4.599   4.589  0.4038 -0.2275  0.7129
 9380SOL     OW39598   3.914   1.553   8.014  0.2632 -0.5730 -0.4215
 9380SOL    HW139599   3.886   1.561   8.105  1.5173  2.6678 -0.2956
 9380SOL    HW239600   3.968   1.475   8.023 -0.3647 -0.9476  0.0796
 9381SOL     OW39601   4.033   3.454  13.247 -0.2966 -0.2563 -0.1076
 9381SOL    HW139602   4.026   3.442  13.152 -1.9916  1.8518 -0.2616
 9381SOL    HW239603   4.128   3.449  13.253 -0.4143  0.9892  2.9250
 9382SOL     OW39604   4.079   0.352   4.984 -0.1122 -0.5036 -0.3731
 9382SOL    HW139605   4.089   0.438   4.942  0.4992 -0.3837  0.0292
 9382SOL    HW239606   4.148   0.299   4.946 -2.4271 -2.5189 -1.7967
 9383SOL     OW39607   0.903   1.782   1.648 -0.2239  0.2834  0.2603
 9383SOL    HW139608   0.850   1.850   1.690 -0.0750  0.4627  0.1636
 9383SOL    HW239609   0.833   1.725   1.620  1.5862 -1.3519 -0.9029
 9384SOL     OW39610   3.344   3.115   2.397 -0.2367  0.0324 -0.6110
 9384SOL    HW139611   3.410   3.158   2.450 -0.3591  1.3249 -1.4990
 9384SOL    HW239612   3.399   3.074   2.330  2.2431  3.0784 -0.4177
 9385SOL     OW39613   2.129   3.861   6.216  0.2003  0.0065  0.2763
 9385SOL    HW139614   2.190   3.788   6.229  1.9726  1.2564 -0.9205
 9385SOL    HW239615   2.050   3.833   6.263  0.7363 -1.3792  0.3484
 9386SOL     OW39616   3.258   1.982   7.965 -0.3594 -0.0421  0.2129
 9386SOL    HW139617   3.174   1.987   8.011 -0.0538  2.3027  0.5130
 9386SOL    HW239618   3.316   1.929   8.020 -1.0944 -1.3671 -0.2842
 9387SOL     OW39619   4.448   1.570   6.221 -0.1157  0.1096  0.6820
 9387SOL    HW139620   4.380   1.625   6.183  0.7710 -1.3675 -3.0218
 9387SOL    HW239621   4.390   1.497   6.240 -0.2416  0.1915  0.6145
 9388SOL     OW39622   3.997   2.815   1.770  0.3942 -0.3811  0.2210
 9388SOL    HW139623   3.979   2.832   1.863  0.2541 -0.5431  0.2242
 9388SOL    HW239624   4.087   2.783   1.767  1.2274  1.7478  2.1788
 9389SOL     OW39625   3.463   0.480   2.517 -0.0304  0.6309 -0.7620
 9389SOL    HW139626   3.437   0.411   2.578 -0.9000  1.0065 -0.7004
 9389SOL    HW239627   3.544   0.511   2.558 -0.9455 -1.4940  2.6801
 9390SOL     OW39628   3.391   1.905  10.199 -0.3617  0.3931  0.1267
 9390SOL    HW139629   3.481   1.878  10.184 -0.7213 -0.8815  0.2130
 9390SOL    HW239630   3.335   1.828  10.190  2.9843 -2.1383  1.1501
 9391SOL     OW39631   0.736   0.201   3.994 -0.0088  0.4767 -0.4552
 9391SOL    HW139632   0.776   0.271   3.942  1.2123 -0.6563 -1.0234
 9391SOL    HW239633   0.705   0.245   4.073  1.4814 -0.5249  0.6998
 9392SOL     OW39634   1.036   2.656   3.076 -0.1889  0.0738 -0.0366
 9392SOL    HW139635   1.009   2.627   3.163  0.0895  1.5274  0.5333
 9392SOL    HW239636   1.096   2.724   3.106 -1.9952  2.4995 -1.9460
 9393SOL     OW39637   4.196   2.806   7.889  0.5044  0.2284  0.4141
 9393SOL    HW139638   4.231   2.887   7.851  0.7316 -0.4035 -0.7054
 9393SOL    HW239639   4.237   2.749   7.824 -1.4955 -2.1857  1.2365
 9394SOL     OW39640   2.540   4.198   0.594 -0.4588  0.0514  0.5981
 9394SOL    HW139641   2.558   4.175   0.685  1.5168  1.1700  0.4968
 9394SOL    HW239642   2.622   4.166   0.557 -1.1730 -0.2461 -0.7157
 9395SOL     OW39643   1.083   0.637   4.490  0.7529 -0.0192  0.0240
 9395SOL    HW139644   1.163   0.665   4.533  0.3132 -1.8118  2.0401
 9395SOL    HW239645   1.033   0.586   4.555  0.0692 -0.2015 -0.6442
 9396SOL     OW39646   0.787   0.271   6.700 -0.6044  0.2454  0.6881
 9396SOL    HW139647   0.813   0.233   6.784 -0.6092 -0.6673  0.2740
 9396SOL    HW239648   0.703   0.231   6.678 -1.0642  1.0418  0.9876
 9397SOL     OW39649   0.537   4.699   7.482  0.7188 -0.0378  0.2896
 9397SOL    HW139650   0.494   4.674   7.400 -1.1946  3.4766  0.2289
 9397SOL    HW239651   0.461   4.711   7.540  0.4088 -1.5199  0.1949
 9398SOL     OW39652   0.501   4.045   1.652  0.5852  0.0977  0.7810
 9398SOL    HW139653   0.459   4.023   1.735 -0.8177  1.9378  0.5690
 9398SOL    HW239654   0.454   4.124   1.626 -0.0613 -0.2956  0.7546
 9399SOL     OW39655   0.271   0.065  12.629 -0.1414 -0.2841  0.5357
 9399SOL    HW139656   0.347   0.116  12.603 -0.1928 -0.0999  0.7537
 9399SOL    HW239657   0.217   0.138  12.657 -1.7772 -1.4515  0.4552
 9400SOL     OW39658   0.729   4.192   4.982  0.3188  0.0036 -0.6155
 9400SOL    HW139659   0.648   4.185   5.033  1.9633  2.9677  2.3817
 9400SOL    HW239660   0.798   4.179   5.048  2.1770 -0.0048 -2.5575
 9401SOL     OW39661   3.933   2.884  10.879  0.2473 -0.4545  0.4554
 9401SOL    HW139662   3.921   2.976  10.855 -2.1344 -0.7706  0.4960
 9401SOL    HW239663   3.908   2.837  10.800 -1.5660  0.7485  0.3190
 9402SOL     OW39664   2.621   2.764   5.758  0.3061  0.4416 -0.0807
 9402SOL    HW139665   2.649   2.683   5.801  0.1063 -0.4790 -1.6698
 9402SOL    HW239666   2.557   2.728   5.697  1.0851 -1.2295  0.0798
 9403SOL     OW39667   4.137   0.496   5.234  0.2567 -0.0024  0.4765
 9403SOL    HW139668   4.092   0.447   5.165 -1.6899  1.5702  0.6226
 9403SOL    HW239669   4.168   0.423   5.287  1.5695 -0.0763 -0.4002
 9404SOL     OW39670   2.885   0.238   8.399  0.1712 -0.2473 -0.1121
 9404SOL    HW139671   2.856   0.256   8.488 -0.0604 -0.2618 -0.1846
 9404SOL    HW239672   2.825   0.173   8.362  1.0219 -0.0288 -1.8492
 9405SOL     OW39673   2.543   1.502   3.442 -0.2989  0.2388 -0.0458
 9405SOL    HW139674   2.580   1.507   3.353  1.0925 -1.3502  0.4339
 9405SOL    HW239675   2.528   1.595   3.459  1.2106  0.3544  0.6781
 9406SOL     OW39676   2.939   2.300   8.284  0.4822  0.6673  0.2659
 9406SOL    HW139677   3.023   2.340   8.262  0.6144  1.1689  1.6480
 9406SOL    HW239678   2.967   2.222   8.333 -1.6143  0.3487  0.9627
 9407SOL     OW39679   4.382   1.638  11.923  0.1250  0.0500  0.2723
 9407SOL    HW139680   4.419   1.699  11.860 -0.6814  0.1705 -0.0947
 9407SOL    HW239681   4.371   1.568  11.858 -0.4604  0.4668 -0.0824
 9408SOL     OW39682   4.616   3.341   3.859 -0.2767 -0.1261 -0.3004
 9408SOL    HW139683   4.690   3.331   3.799  1.1984  0.9568  1.3273
 9408SOL    HW239684   4.570   3.260   3.836  0.5081 -0.8561  0.7236
 9409SOL     OW39685   2.240   4.703   6.230  0.5670  0.5818 -0.4299
 9409SOL    HW139686   2.320   4.651   6.222  0.4023  0.0475  1.4177
 9409SOL    HW239687   2.235   0.032   6.149 -0.5019  0.4158 -0.4585
 9410SOL     OW39688   2.494   4.092   3.610  0.4653  0.4958  0.1026
 9410SOL    HW139689   2.430   4.063   3.675 -0.5283 -0.2326 -1.1835
 9410SOL    HW239690   2.559   4.023   3.627 -0.1881 -0.6534 -2.0464
 9411SOL     OW39691   3.341   2.237   6.248  0.1595 -0.2950 -0.3620
 9411SOL    HW139692   3.259   2.203   6.285 -0.7501  1.1084 -1.0849
 9411SOL    HW239693   3.312   2.315   6.202 -0.3531 -0.5503 -0.4723
 9412SOL     OW39694   0.551   1.845  11.043 -0.0344  0.4973 -0.0402
 9412SOL    HW139695   0.487   1.906  11.082 -0.9658 -1.0085  0.7722
 9412SOL    HW239696   0.599   1.819  11.122  0.1571  1.0340  0.0256
 9413SOL     OW39697   0.748   3.037   2.058 -0.0528  0.0624 -0.2887
 9413SOL    HW139698   0.837   3.069   2.046 -0.2555  0.2646 -1.2394
 9413SOL    HW239699   0.718   3.069   2.143 -0.8119 -3.4080  0.7407
 9414SOL     OW39700   2.773   1.891   3.241  0.7576  0.2639 -0.3277
 9414SOL    HW139701   2.788   1.970   3.293  0.6644  0.6915 -0.9551
 9414SOL    HW239702   2.844   1.891   3.177  1.5522 -2.5549  0.5250
 9415SOL     OW39703   1.094   0.308  11.452 -0.2944 -0.6680 -0.0487
 9415SOL    HW139704   1.097   0.403  11.452  2.4277 -0.7661 -0.2817
 9415SOL    HW239705   1.175   0.288  11.404 -0.3821 -0.3615 -0.3220
 9416SOL     OW39706   1.465   2.911   4.500 -0.0464  0.2784 -0.1051
 9416SOL    HW139707   1.494   2.831   4.457 -0.4255 -0.1248  0.3886
 9416SOL    HW239708   1.479   2.966   4.423 -1.2071 -0.3964 -0.7969
 9417SOL     OW39709   4.277   1.230   1.636 -0.1407  0.3058 -0.2194
 9417SOL    HW139710   4.206   1.261   1.579 -0.9828 -1.0409  0.1110
 9417SOL    HW239711   4.344   1.216   1.570  0.3539  1.0541  0.1200
 9418SOL     OW39712   4.675   3.883  10.671  0.2418 -0.3012 -0.6319
 9418SOL    HW139713   0.029   3.916  10.622  2.0192 -1.4759  1.3204
 9418SOL    HW239714   4.688   3.936  10.750 -1.6292  1.4509 -1.5006
 9419SOL     OW39715   3.453   2.635   0.531  0.2247 -0.2548  0.6990
 9419SOL    HW139716   3.370   2.664   0.495 -0.1193 -2.0839  0.0271
 9419SOL    HW239717   3.421   2.641   0.621 -2.5639 -2.3540 -0.1878
 9420SOL     OW39718   0.573   3.823   8.268  0.1310  0.1774  0.1161
 9420SOL    HW139719   0.651   3.768   8.271  1.3104  1.8738  0.5261
 9420SOL    HW239720   0.517   3.783   8.201  1.4518 -1.1613 -0.1777
 9421SOL     OW39721   4.448   0.669   0.202  0.3445 -0.1092 -0.3022
 9421SOL    HW139722   4.363   0.713   0.194  0.4841  0.2504  0.1778
 9421SOL    HW239723   4.482   0.675   0.113  2.8860 -1.2059  0.6128
 9422SOL     OW39724   3.818   2.628   6.808  0.0048  0.0725 -0.5492
 9422SOL    HW139725   3.894   2.570   6.808 -0.5464 -0.6366 -0.6713
 9422SOL    HW239726   3.760   2.574   6.755  0.1509  1.4011 -2.0796
 9423SOL     OW39727   0.534   0.959   7.115 -0.1351  0.5472  0.1360
 9423SOL    HW139728   0.590   0.889   7.081  0.5300  1.5066 -0.7009
 9423SOL    HW239729   0.593   1.029   7.141 -0.3259  1.1356 -1.0066
 9424SOL     OW39730   1.993   0.320   2.954 -0.1183 -0.0112  0.1049
 9424SOL    HW139731   1.953   0.240   2.989  1.0977 -0.3572  0.7162
 9424SOL    HW239732   2.083   0.308   2.985  0.7412 -0.7195 -2.5904
 9425SOL     OW39733   1.217   4.560  10.568  0.3941  0.1689  0.2118
 9425SOL    HW139734   1.285   4.493  10.568  0.7249  0.5081 -0.3622
 9425SOL    HW239735   1.145   4.513  10.610  1.4101 -0.1921  1.5404
 9426SOL     OW39736   0.573   4.188   8.613  0.2802  1.0838 -0.0502
 9426SOL    HW139737   0.478   4.179   8.612  0.5341 -1.8242  1.1162
 9426SOL    HW239738   0.598   4.119   8.675  0.2902  1.8327  0.7845
 9427SOL     OW39739   0.375   2.945   8.655 -0.9174 -0.3522  0.5850
 9427SOL    HW139740   0.323   2.899   8.721 -0.2282 -1.9068  0.0562
 9427SOL    HW239741   0.404   3.023   8.702 -0.2065  0.4882 -1.2427
 9428SOL     OW39742   0.457   4.536  11.416 -0.4092 -0.7391 -0.6296
 9428SOL    HW139743   0.551   4.546  11.403  0.1761  0.0259  4.3697
 9428SOL    HW239744   0.449   4.595  11.491  0.8376  0.1729 -1.2148
 9429SOL     OW39745   0.383   1.610   8.411  0.5729  0.0474 -0.0960
 9429SOL    HW139746   0.310   1.653   8.366  0.8887  0.7174  0.0379
 9429SOL    HW239747   0.449   1.637   8.347  1.0904 -1.1393 -0.0522
 9430SOL     OW39748   3.111   1.129  10.730  0.0508 -0.0994 -0.0014
 9430SOL    HW139749   3.099   1.096  10.641 -1.0582 -0.8627  0.4211
 9430SOL    HW239750   3.143   1.055  10.781  1.8983  0.4929 -0.3298
 9431SOL     OW39751   3.039   2.585   3.588  0.1062 -0.5033  0.2478
 9431SOL    HW139752   2.959   2.573   3.640 -0.6823  1.2630 -0.5446
 9431SOL    HW239753   3.003   2.543   3.510 -0.1252  0.8958 -0.3968
 9432SOL     OW39754   2.803   0.075  15.326 -0.0918 -0.0735  0.3168
 9432SOL    HW139755   2.819   0.033  15.410  1.1913  1.8992  1.0419
 9432SOL    HW239756   2.714   0.107  15.343  0.2690  0.0065  1.9850
 9433SOL     OW39757   0.116   2.588  10.379 -0.0045 -0.2017  0.2389
 9433SOL    HW139758   0.136   2.536  10.456  2.2094 -1.1539 -0.9484
 9433SOL    HW239759   0.024   2.611  10.386  0.3517  0.6311  2.0949
 9434SOL     OW39760   3.462   1.019   3.496  0.2400 -0.0095 -0.1062
 9434SOL    HW139761   3.408   1.003   3.574 -0.3768 -0.8210 -0.7048
 9434SOL    HW239762   3.409   1.096   3.476  1.2084  0.2412 -1.6842
 9435SOL     OW39763   0.320   4.069   3.114 -0.2743 -0.1549 -0.2746
 9435SOL    HW139764   0.392   4.100   3.059  0.0049  0.3906  0.4016
 9435SOL    HW239765   0.317   4.143   3.175 -1.0629 -1.6589  1.4736
 9436SOL     OW39766   3.930   0.960   2.536  0.1236  0.2399  0.6734
 9436SOL    HW139767   3.960   0.916   2.616  0.4799  1.5092  1.2410
 9436SOL    HW239768   3.898   1.041   2.575  3.2915  2.1718 -0.7020
 9437SOL     OW39769   1.740   4.518  13.426  0.2794 -0.8715  0.2216
 9437SOL    HW139770   1.704   4.544  13.510 -2.8526 -0.9832 -1.0477
 9437SOL    HW239771   1.663   4.467  13.398 -0.1713  0.3066 -0.7022
 9438SOL     OW39772   4.078   4.124  15.775  0.3680 -0.4718  0.3536
 9438SOL    HW139773   4.032   4.148  15.856  2.0614 -0.0705  1.2017
 9438SOL    HW239774   4.116   4.211  15.760 -0.9400  0.1784  0.7426
 9439SOL     OW39775   0.727   1.649  17.585  0.2783 -0.5922  0.4546
 9439SOL    HW139776   0.684   1.734  17.572  3.0407  0.5223 -1.2686
 9439SOL    HW239777   0.810   1.689  17.611 -1.0129  2.2682  0.1915
 9440SOL     OW39778   1.969   2.385   6.564 -0.4553 -0.1126 -0.0916
 9440SOL    HW139779   1.910   2.433   6.622  0.4174  2.3293 -1.2573
 9440SOL    HW239780   1.912   2.386   6.487 -2.2690 -0.2382  1.2578
 9441SOL     OW39781   2.140   3.462  15.078 -0.4343 -0.1830  0.1833
 9441SOL    HW139782   2.208   3.530  15.070 -0.1469 -0.5103 -0.1682
 9441SOL    HW239783   2.127   3.428  14.989 -0.7156  1.0321 -0.2516
 9442SOL     OW39784   1.501   0.184   4.170  0.4029 -0.2173 -0.2899
 9442SOL    HW139785   1.520   0.265   4.123  1.3929  0.3011  1.0383
 9442SOL    HW239786   1.577   0.187   4.227  0.8502  0.3293 -0.9212
 9443SOL     OW39787   4.296   4.313   3.250 -0.0975  0.7558  0.0010
 9443SOL    HW139788   4.309   4.407   3.237 -1.9380  0.9310 -0.5335
 9443SOL    HW239789   4.218   4.292   3.198  0.8237 -2.0011 -0.2807
 9444SOL     OW39790   0.541   1.217   8.999  0.0243 -0.3249  0.8193
 9444SOL    HW139791   0.603   1.145   9.006 -1.1753 -1.7721 -3.1226
 9444SOL    HW239792   0.540   1.224   8.903 -0.6586  3.3517  1.0622
 9445SOL     OW39793   3.269   1.739   7.185  0.2923  0.1270  0.5234
 9445SOL    HW139794   3.255   1.648   7.159  1.5589  0.0473  0.1111
 9445SOL    HW239795   3.328   1.763   7.113  1.4438 -0.9591  1.0946
 9446SOL     OW39796   2.186   2.966   3.398  0.0255 -0.0120 -0.0053
 9446SOL    HW139797   2.272   3.001   3.422  0.3046 -0.4591 -0.3561
 9446SOL    HW239798   2.165   3.018   3.320  1.8461 -0.6510 -0.9275
 9447SOL     OW39799   1.350   2.983  16.264  0.2699 -0.1495  0.2097
 9447SOL    HW139800   1.366   2.925  16.338  1.4022  0.2261  0.2545
 9447SOL    HW239801   1.351   2.922  16.190  0.6205  0.2760 -0.1388
 9448SOL     OW39802   1.646   4.273  11.321  0.7087  0.3818 -0.4844
 9448SOL    HW139803   1.645   4.299  11.413  0.9691  1.7419 -0.8571
 9448SOL    HW239804   1.649   4.358  11.276 -0.8573  0.6504 -0.0595
 9449SOL     OW39805   2.190   0.910  16.738 -0.4372 -0.4753  0.4132
 9449SOL    HW139806   2.194   1.001  16.766  1.6150 -0.3704 -0.2477
 9449SOL    HW239807   2.276   0.877  16.764  0.4687 -0.8802 -3.0610
 9450SOL     OW39808   2.616   1.110   9.308  0.6673  0.0963  0.1232
 9450SOL    HW139809   2.541   1.133   9.253  0.6847 -0.7078 -0.2226
 9450SOL    HW239810   2.630   1.023   9.272  1.1229 -0.0060  0.5464
 9451SOL     OW39811   3.224   1.416   4.416  0.1116 -0.0564  0.3993
 9451SOL    HW139812   3.311   1.457   4.418 -0.3620  0.8650  2.5143
 9451SOL    HW239813   3.248   1.326   4.438  0.6874  0.2695  1.1210
 9452SOL     OW39814   2.743   4.504  11.912 -0.0778  0.3352  0.0594
 9452SOL    HW139815   2.708   4.551  11.836  2.3892 -0.4334 -1.5417
 9452SOL    HW239816   2.779   4.575  11.964 -1.4278  0.7904  0.3658
 9453SOL     OW39817   0.228   0.611   4.352  0.1418  0.1637  0.4597
 9453SOL    HW139818   0.222   0.665   4.431  1.0169 -0.5917  1.0372
 9453SOL    HW239819   0.323   0.611   4.344  0.1211 -1.2197  0.1868
 9454SOL     OW39820   2.233   4.118   2.998  0.5202 -0.2840  0.0087
 9454SOL    HW139821   2.318   4.109   3.041  0.7201 -0.1802 -0.3699
 9454SOL    HW239822   2.269   4.124   2.909  3.1757  2.1000  1.2354
 9455SOL     OW39823   2.752   4.393   0.138  0.0781  0.5943  0.1632
 9455SOL    HW139824   2.815   4.332   0.177  1.0798  1.3316 -0.2947
 9455SOL    HW239825   2.739   4.461   0.204 -2.1699 -1.3317  1.7247
 9456SOL     OW39826   3.611   3.115   8.322 -0.4584  0.1916  0.2390
 9456SOL    HW139827   3.705   3.104   8.314 -0.6226 -0.9723 -0.0331
 9456SOL    HW239828   3.600   3.187   8.384 -1.5931  1.1776 -1.1116
 9457SOL     OW39829   1.275   2.567   6.063  0.1903 -0.1053  0.2862
 9457SOL    HW139830   1.206   2.519   6.109 -0.5581  0.7451  0.0542
 9457SOL    HW239831   1.251   2.550   5.972  2.2538  3.0747 -0.8236
 9458SOL     OW39832   1.619   1.231   7.736  0.3121 -0.3901  0.1689
 9458SOL    HW139833   1.702   1.233   7.688 -0.1135 -3.2642 -0.7339
 9458SOL    HW239834   1.598   1.138   7.720  1.1804 -0.5561 -0.0255
 9459SOL     OW39835   3.749   1.816  16.215  0.4730 -0.2100 -0.4097
 9459SOL    HW139836   3.824   1.858  16.172 -0.1581 -1.5940 -2.8896
 9459SOL    HW239837   3.689   1.887  16.194  1.8787  0.5379 -1.9015
 9460SOL     OW39838   2.408   4.468   3.031 -0.2104 -0.8448  0.0565
 9460SOL    HW139839   2.322   4.497   3.064 -0.1788 -0.0449 -0.5631
 9460SOL    HW239840   2.408   4.498   2.940  0.2479  1.4139  0.7931
 9461SOL     OW39841   2.841   4.605   7.244 -0.3704  0.8259  0.1066
 9461SOL    HW139842   2.832   4.682   7.189  0.2732  1.4813  0.9202
 9461SOL    HW239843   2.923   4.615   7.293  0.3904 -1.6755 -0.6267
 9462SOL     OW39844   1.791   3.192   7.630 -0.1054 -0.5666 -0.1662
 9462SOL    HW139845   1.810   3.283   7.654 -1.2472 -0.3512 -0.0849
 9462SOL    HW239846   1.732   3.175   7.704  1.9000  0.8374  1.7483
 9463SOL     OW39847   2.005   3.637   4.512 -0.1622 -0.3689 -0.4346
 9463SOL    HW139848   1.938   3.630   4.445 -0.5319 -2.7336  0.2004
 9463SOL    HW239849   2.066   3.570   4.483 -0.7319 -0.8045 -0.6174
 9464SOL     OW39850   3.290   0.674   4.653  0.4823  0.2086 -0.0226
 9464SOL    HW139851   3.251   0.761   4.660 -2.0842 -0.8525 -1.0533
 9464SOL    HW239852   3.382   0.694   4.670  0.2831  1.2027 -0.0948
 9465SOL     OW39853   1.603   2.501   3.828  0.3214  0.8195 -0.3626
 9465SOL    HW139854   1.585   2.534   3.916 -0.2121 -0.8863  0.1605
 9465SOL    HW239855   1.579   2.578   3.776  0.2989  1.4216  0.5376
 9466SOL     OW39856   0.421   3.667   5.488  0.0424 -0.4415 -0.0249
 9466SOL    HW139857   0.477   3.679   5.412  0.0914  1.4148  0.2998
 9466SOL    HW239858   0.377   3.752   5.495 -1.0019 -1.2030  2.7998
 9467SOL     OW39859   2.246   0.826   8.580  0.5909 -0.0515 -0.0578
 9467SOL    HW139860   2.234   0.919   8.599 -1.8853 -0.2589 -0.5676
 9467SOL    HW239861   2.342   0.821   8.585  0.5553 -0.6973 -0.0454
 9468SOL     OW39862   2.769   2.656   1.877 -0.4986 -0.5133  0.6148
 9468SOL    HW139863   2.765   2.570   1.919 -0.6372 -1.1027 -0.6133
 9468SOL    HW239864   2.701   2.659   1.810 -0.5133  0.2897  0.6639
 9469SOL     OW39865   2.443   0.738  11.775 -0.3816  0.4749  0.0594
 9469SOL    HW139866   2.408   0.776  11.695 -1.4462 -0.7728 -0.0817
 9469SOL    HW239867   2.442   0.645  11.752  1.8896  0.9304 -1.8182
 9470SOL     OW39868   2.401   2.660   5.602 -0.9044 -0.0310 -0.2231
 9470SOL    HW139869   2.342   2.719   5.649  0.0396  1.2909 -0.6982
 9470SOL    HW239870   2.342   2.598   5.560  0.6063 -0.7582 -1.2778
 9471SOL     OW39871   1.284   3.831  17.326  0.5378  0.1547 -0.0885
 9471SOL    HW139872   1.233   3.779  17.388 -0.2525  1.5058  0.4083
 9471SOL    HW239873   1.315   3.762  17.267  2.6990  0.1300  1.0849
 9472SOL     OW39874   3.381   3.792   4.912  0.4255  0.3627 -0.7947
 9472SOL    HW139875   3.372   3.849   4.835  1.6892  0.0517 -1.1600
 9472SOL    HW239876   3.311   3.729   4.893  1.4808 -0.4712 -1.8639
 9473SOL     OW39877   0.110   0.996  11.110  0.4826 -0.6272  0.5736
 9473SOL    HW139878   0.036   1.016  11.166 -1.3229  0.6999 -2.2958
 9473SOL    HW239879   0.127   1.087  11.084  0.9289 -0.9579 -0.3188
 9474SOL     OW39880   1.169   0.845   9.979  0.3399  0.2419  0.3202
 9474SOL    HW139881   1.154   0.779   9.911  1.6091  0.4391 -0.1556
 9474SOL    HW239882   1.192   0.796  10.058  1.2689  0.5395  0.2381
 9475SOL     OW39883   4.405   2.741   9.664 -0.0329  0.0302  0.0847
 9475SOL    HW139884   4.488   2.740   9.711 -1.1102  2.1474  2.0121
 9475SOL    HW239885   4.429   2.704   9.579 -2.8180  0.7236 -1.0111
 9476SOL     OW39886   0.444   0.174   3.175  0.2285  0.0483 -0.9829
 9476SOL    HW139887   0.377   0.108   3.157 -1.9443  1.6295  1.2633
 9476SOL    HW239888   0.478   0.194   3.088 -1.8796  1.7471 -1.4246
 9477SOL     OW39889   1.851   3.437   3.644 -0.0248  0.0404 -0.2045
 9477SOL    HW139890   1.916   3.368   3.626 -0.6550 -0.5342 -0.2877
 9477SOL    HW239891   1.905   3.516   3.641 -0.6732  0.4177 -2.0461
 9478SOL     OW39892   1.411   3.027   4.027  0.5255  0.2328  0.0980
 9478SOL    HW139893   1.438   3.036   3.936 -2.0097  1.6336 -0.5199
 9478SOL    HW239894   1.321   2.994   4.021  0.9038 -0.9019  0.4981
 9479SOL     OW39895   1.514   1.382   2.268  0.3013  0.0455 -0.4573
 9479SOL    HW139896   1.589   1.412   2.216  0.8372  0.7131  0.6990
 9479SOL    HW239897   1.504   1.446   2.338  0.1290 -0.3937 -0.0815
 9480SOL     OW39898   4.301   3.643   1.861 -0.0722 -0.4533  0.1857
 9480SOL    HW139899   4.210   3.616   1.864 -0.0507 -0.7976 -1.9946
 9480SOL    HW239900   4.332   3.580   1.926 -1.4756 -1.9942 -0.6317
 9481SOL     OW39901   0.162   3.701   6.033 -0.2970 -0.1112  0.0350
 9481SOL    HW139902   0.212   3.742   6.104 -1.1152  0.8064  0.0866
 9481SOL    HW239903   0.231   3.647   5.995  0.0924 -0.9607  1.9698
 9482SOL     OW39904   0.300   3.201  10.450 -0.3245  0.1023 -0.5815
 9482SOL    HW139905   0.249   3.156  10.518 -1.9511  1.8784 -0.6380
 9482SOL    HW239906   0.257   3.285  10.465 -1.5777 -0.6548  0.1447
 9483SOL     OW39907   3.279   1.409   8.749 -0.1812 -0.2559  0.1319
 9483SOL    HW139908   3.226   1.420   8.671 -2.2281  0.3250  1.6076
 9483SOL    HW239909   3.221   1.344   8.787  0.3205 -0.4513  0.5694
 9484SOL     OW39910   3.123   1.342   3.683  0.6401 -0.1753 -0.4391
 9484SOL    HW139911   3.207   1.363   3.725  0.4354  0.6354 -0.4450
 9484SOL    HW239912   3.067   1.383   3.748  1.0532  0.7832 -0.6773
 9485SOL     OW39913   0.466   1.686   4.058  0.2701  0.0434  0.5417
 9485SOL    HW139914   0.548   1.652   4.024 -0.1192 -0.2086 -0.1435
 9485SOL    HW239915   0.421   1.711   3.977  0.3903  1.6397  0.9539
 9486SOL     OW39916   0.581   0.279   3.628 -0.2673  0.2326 -0.4057
 9486SOL    HW139917   0.551   0.359   3.583 -1.9107 -0.4694 -0.5569
 9486SOL    HW239918   0.509   0.286   3.691 -0.0060  1.4308 -0.2443
 9487SOL     OW39919   3.995   0.350  11.981  0.5995  0.4979 -0.0642
 9487SOL    HW139920   4.019   0.397  12.061  0.3628 -0.6213  0.6592
 9487SOL    HW239921   3.900   0.349  11.988  0.7003 -1.5033  0.9198
 9488SOL     OW39922   1.046   2.099  10.155 -0.4846  0.4348  0.3241
 9488SOL    HW139923   1.091   2.176  10.120 -1.6419  1.2098  0.5564
 9488SOL    HW239924   0.995   2.141  10.224  2.6020  2.9699  1.0527
 9489SOL     OW39925   0.813   1.176   4.248 -0.6190 -0.3794  0.0450
 9489SOL    HW139926   0.737   1.172   4.190 -1.0619  0.6713  0.5553
 9489SOL    HW239927   0.868   1.119   4.194  0.5803  1.9902 -1.1811
 9490SOL     OW39928   0.531   4.441   3.960 -0.4219  0.4929  0.4526
 9490SOL    HW139929   0.446   4.468   3.996 -0.6184  0.5888 -0.0964
 9490SOL    HW239930   0.594   4.488   4.015  0.1025  0.3997 -0.0738
 9491SOL     OW39931   2.501   2.050   4.540 -0.0155  0.1206  0.1688
 9491SOL    HW139932   2.588   2.016   4.560  0.7027  1.6269 -0.3853
 9491SOL    HW239933   2.471   2.056   4.631  0.1654  0.7361  0.1926
 9492SOL     OW39934   0.724   1.236   2.138 -0.1689  0.0085  0.4328
 9492SOL    HW139935   0.804   1.262   2.184  0.2065 -0.6338  0.1448
 9492SOL    HW239936   0.692   1.189   2.215 -2.1143  1.7034  0.6596
 9493SOL     OW39937   2.573   1.015  13.238  0.2530  0.4918 -0.0551
 9493SOL    HW139938   2.576   0.972  13.152 -0.5754  0.2787  0.0237
 9493SOL    HW239939   2.479   1.012  13.253  0.4027 -1.2094  0.5162
 9494SOL     OW39940   4.324   2.257   1.648  0.1585  0.1498 -0.1580
 9494SOL    HW139941   4.297   2.339   1.608 -1.0907 -0.1996 -0.0233
 9494SOL    HW239942   4.369   2.212   1.576 -0.7335 -2.5323  0.9657
 9495SOL     OW39943   1.520   4.414   2.274 -0.1427  0.7681 -0.3769
 9495SOL    HW139944   1.463   4.342   2.249 -0.1920  1.0419 -1.0786
 9495SOL    HW239945   1.525   4.465   2.192 -2.5492  1.1938 -0.2757
 9496SOL     OW39946   1.487   1.113   2.369 -0.4686 -0.5741  0.4453
 9496SOL    HW139947   1.544   1.073   2.303  0.2161  2.8009 -1.0373
 9496SOL    HW239948   1.502   1.207   2.358 -0.5501 -0.4698  1.2376
 9497SOL     OW39949   3.288   0.007   3.481  1.1921 -0.1490 -0.3367
 9497SOL    HW139950   3.227   0.008   3.407  2.2337 -3.4372 -1.2476
 9497SOL    HW239951   3.332   0.091   3.471 -0.2010  0.4811 -1.1571
 9498SOL     OW39952   2.823   4.012  15.562  0.3866  0.3043  0.2625
 9498SOL    HW139953   2.835   4.066  15.485 -3.0465  3.7704  2.1760
 9498SOL    HW239954   2.834   4.079  15.630 -1.1362  1.9725 -1.1653
 9499SOL     OW39955   0.473   1.732   6.846 -0.6645  0.3061  0.3957
 9499SOL    HW139956   0.560   1.757   6.878  0.0893 -1.0795 -0.5563
 9499SOL    HW239957   0.417   1.804   6.874 -1.0392 -0.0297  0.5055
 9500SOL     OW39958   0.902   2.898  17.681  0.7429  0.5088  0.3514
 9500SOL    HW139959   0.945   2.887  17.596 -2.2783  0.3794 -1.1596
 9500SOL    HW239960   0.919   2.814   0.033  1.8787  0.8012  0.4740
 9501SOL     OW39961   3.805   3.179   2.360  0.4506 -0.6015 -0.6003
 9501SOL    HW139962   3.823   3.192   2.453  1.6972  3.1739 -1.3270
 9501SOL    HW239963   3.870   3.113   2.335  0.0299 -1.7780  1.4133
 9502SOL     OW39964   1.570   3.639   6.810 -0.7148 -0.1029  0.5936
 9502SOL    HW139965   1.599   3.564   6.758  0.1642 -1.3786  2.9546
 9502SOL    HW239966   1.651   3.678   6.844 -0.1881 -0.9767  0.3464
 9503SOL     OW39967   3.514   0.326  16.321 -0.4420 -0.1005  0.1526
 9503SOL    HW139968   3.574   0.372  16.380  0.3865  1.9804 -2.2979
 9503SOL    HW239969   3.490   0.398  16.263  0.7813  1.4548  1.5690
 9504SOL     OW39970   1.348   0.545   4.888 -0.0103 -0.3897  0.5853
 9504SOL    HW139971   1.440   0.548   4.861  0.0129  0.3635  0.7484
 9504SOL    HW239972   1.324   0.457   4.857  1.4210 -0.4500 -0.3471
 9505SOL     OW39973   3.620   4.260   4.661  0.0448  0.5670  0.2323
 9505SOL    HW139974   3.638   4.337   4.607 -0.0484  0.4690  0.0605
 9505SOL    HW239975   3.595   4.192   4.599 -2.3394  0.9659  0.7380
 9506SOL     OW39976   2.067   3.958   2.148 -0.8572 -0.1163 -0.3573
 9506SOL    HW139977   2.087   3.865   2.134 -0.3548 -0.2879  1.5382
 9506SOL    HW239978   1.977   3.955   2.181 -0.4586  1.1931  0.8361
 9507SOL     OW39979   0.975   3.212   0.975 -0.3534 -0.1590  0.0012
 9507SOL    HW139980   1.043   3.186   0.912 -1.0148 -0.6142 -0.5199
 9507SOL    HW239981   0.955   3.124   1.007 -2.7009  0.6050  0.6101
 9508SOL     OW39982   4.161   2.553  10.228 -0.1720 -0.1413 -0.3952
 9508SOL    HW139983   4.072   2.583  10.209  0.2433  1.3512  0.0507
 9508SOL    HW239984   4.200   2.584  10.146  1.0179 -0.3858  0.0884
 9509SOL     OW39985   2.201   0.392   3.638 -0.3531 -0.4462 -0.2255
 9509SOL    HW139986   2.229   0.439   3.716  2.0174 -1.7774 -0.2769
 9509SOL    HW239987   2.262   0.318   3.642  1.2662  0.8422 -1.2712
 9510SOL     OW39988   1.828   3.408  16.633  0.1956 -0.0661  0.1202
 9510SOL    HW139989   1.828   3.337  16.696  1.1477 -1.0213 -0.9648
 9510SOL    HW239990   1.913   3.394  16.591  0.0720 -0.5678  0.0434
 9511SOL     OW39991   1.063   1.799   2.117 -0.5681  0.1129 -0.2128
 9511SOL    HW139992   0.987   1.741   2.122  2.2313 -3.3128  2.6100
 9511SOL    HW239993   1.030   1.884   2.146 -2.3779 -0.1341 -1.5902
 9512SOL     OW39994   2.101   3.787   4.295  0.2387 -0.1815 -0.2457
 9512SOL    HW139995   2.049   3.862   4.324  0.3522 -0.7850  1.5008
 9512SOL    HW239996   2.119   3.735   4.373 -2.5397 -2.8832 -1.4008
 9513SOL     OW39997   1.989   0.514   5.522 -0.1836  0.1066  0.2947
 9513SOL    HW139998   1.968   0.470   5.439 -1.6730  0.0136  0.7153
 9513SOL    HW239999   1.900   0.533   5.553 -0.7882  2.8670 -3.0628
 9514SOL     OW40000   0.718   3.851   1.631  0.4552 -0.2553  0.6543
 9514SOL    HW140001   0.733   3.762   1.597 -2.5208 -0.3481 -0.3921
 9514SOL    HW240002   0.624   3.845   1.643  0.5644 -0.0260  1.6297
 9515SOL     OW40003   0.896   3.094   8.808 -1.0890  0.0648 -0.1153
 9515SOL    HW140004   0.832   3.140   8.862  0.7286  0.6604  1.5440
 9515SOL    HW240005   0.940   3.177   8.792  0.7900 -0.9392 -0.1956
 9516SOL     OW40006   3.974   4.717   3.998  0.9502 -0.5367 -0.1038
 9516SOL    HW140007   3.884   0.026   4.005  0.6110 -1.5869  0.2712
 9516SOL    HW240008   3.961   4.623   3.986 -1.0207 -0.5457  2.1210
 9517SOL     OW40009   2.266   2.868  17.541 -0.4179  0.3438  0.7556
 9517SOL    HW140010   2.224   2.795  17.587 -0.8823 -1.1415 -2.0319
 9517SOL    HW240011   2.189   2.922  17.526 -0.1755  0.5570  0.2846
 9518SOL     OW40012   2.983   3.604   8.040  0.0215 -0.1410  0.3917
 9518SOL    HW140013   3.017   3.568   8.122 -0.1501 -2.1291 -0.3988
 9518SOL    HW240014   3.016   3.544   7.973 -1.5563  1.6456 -2.0203
 9519SOL     OW40015   1.995   0.660   4.495 -0.2300 -0.5009 -0.5653
 9519SOL    HW140016   2.001   0.734   4.434  0.2948 -0.1092 -0.0409
 9519SOL    HW240017   1.932   0.603   4.451 -1.9138  0.9111 -0.0087
 9520SOL     OW40018   1.588   3.804   4.846  0.4961 -0.5103  0.1870
 9520SOL    HW140019   1.616   3.755   4.769  0.9150 -2.4182  1.5411
 9520SOL    HW240020   1.641   3.754   4.908 -0.5198 -1.2056  0.5035
 9521SOL     OW40021   1.269   4.667  16.704  1.2102  0.3504 -0.6466
 9521SOL    HW140022   1.334   4.597  16.698 -1.0325 -1.5271 -2.7932
 9521SOL    HW240023   1.183   4.624  16.701  0.9531  0.8323 -0.3390
 9522SOL     OW40024   4.190   2.272   5.997 -1.1176  0.3646  0.0053
 9522SOL    HW140025   4.191   2.288   6.091 -0.6339  1.4410 -0.1891
 9522SOL    HW240026   4.123   2.333   5.965  0.1978  1.1266 -1.3038
 9523SOL     OW40027   3.171   1.998   5.757  0.1320 -0.1178 -0.6607
 9523SOL    HW140028   3.165   1.923   5.698  0.0457 -0.2427 -0.4924
 9523SOL    HW240029   3.260   1.981   5.787  0.7535  0.7296 -2.0320
 9524SOL     OW40030   2.059   1.307   4.650  0.0773  0.3761  0.2137
 9524SOL    HW140031   2.127   1.315   4.717  2.3508 -0.7459 -1.9663
 9524SOL    HW240032   2.038   1.396   4.622  1.3110  0.1580 -1.3510
 9525SOL     OW40033   4.140   1.838   5.928 -0.2408 -0.5756 -0.0987
 9525SOL    HW140034   4.180   1.831   6.015  1.1154  0.1071 -0.6650
 9525SOL    HW240035   4.212   1.816   5.869 -0.7702  1.4467 -1.5002
 9526SOL     OW40036   1.156   3.158  11.657 -0.0468  0.3862 -0.0220
 9526SOL    HW140037   1.168   3.071  11.617 -0.7357 -0.2182  1.0870
 9526SOL    HW240038   1.092   3.142  11.726 -1.2435  1.6103 -0.8460
 9527SOL     OW40039   1.553   2.845   5.745 -0.9519 -0.4571 -0.1261
 9527SOL    HW140040   1.531   2.856   5.653 -1.8136 -0.5591  0.0630
 9527SOL    HW240041   1.533   2.927   5.790  2.3223  0.3599 -0.2153
 9528SOL     OW40042   2.434   3.739   8.310  0.2052 -0.4958 -0.1901
 9528SOL    HW140043   2.399   3.667   8.258 -0.1039 -0.7630  0.3845
 9528SOL    HW240044   2.357   3.773   8.356  1.2259  0.3022  0.9490
 9529SOL     OW40045   2.793   1.676   7.388  0.1689 -0.3994 -0.1939
 9529SOL    HW140046   2.801   1.595   7.437  0.2110 -0.9555 -1.1111
 9529SOL    HW240047   2.781   1.647   7.297  2.4966  0.2397 -0.6998
 9530SOL     OW40048   1.728   0.191  17.216  0.0165 -0.0195  0.1414
 9530SOL    HW140049   1.744   0.284  17.229  2.0315 -0.2310 -0.8433
 9530SOL    HW240050   1.636   0.187  17.241  0.0690 -0.6162  0.2412
 9531SOL     OW40051   3.339   4.378  13.637 -0.2025  0.8723 -0.0276
 9531SOL    HW140052   3.357   4.432  13.715 -4.0518  2.3111 -0.1353
 9531SOL    HW240053   3.251   4.408  13.615 -0.4714  1.6035  2.0354
 9532SOL     OW40054   1.091   3.072   5.285 -0.2299  0.7770  0.1501
 9532SOL    HW140055   1.088   3.004   5.352 -0.0675 -0.2279 -0.8632
 9532SOL    HW240056   1.001   3.102   5.294 -0.4395  0.2697 -0.2327
 9533SOL     OW40057   0.904   2.012   5.261  0.3885 -0.4664  0.3249
 9533SOL    HW140058   0.939   2.086   5.211  0.1528  0.0474  0.9227
 9533SOL    HW240059   0.981   1.957   5.275  1.1426  0.6517  0.6456
 9534SOL     OW40060   2.573   1.948  14.586 -0.2864 -0.3259 -0.2625
 9534SOL    HW140061   2.644   2.006  14.559 -1.5161  1.2831 -0.0420
 9534SOL    HW240062   2.508   2.016  14.604 -0.3873  0.1962 -2.6594
 9535SOL     OW40063   4.494   0.210   2.788  0.0264  0.0369 -0.4001
 9535SOL    HW140064   4.564   0.200   2.723  1.3913 -1.2665  1.2643
 9535SOL    HW240065   4.504   0.130   2.839  3.7786  0.0827 -1.0215
 9536SOL     OW40066   3.306   0.486   0.265 -0.6875  0.0751 -0.0754
 9536SOL    HW140067   3.239   0.532   0.316 -0.2557  0.5887  0.0248
 9536SOL    HW240068   3.300   0.402   0.311  1.4623  0.8316  1.5616
 9537SOL     OW40069   1.332   0.807   4.796  0.0265 -0.0822  0.3174
 9537SOL    HW140070   1.314   0.733   4.854  1.5768  0.3948  1.4038
 9537SOL    HW240071   1.426   0.816   4.811  0.1330  1.4897 -1.3151
 9538SOL     OW40072   0.686   1.252   4.486  0.0630 -0.3918  0.1159
 9538SOL    HW140073   0.659   1.164   4.513 -1.0602 -0.2766 -0.6054
 9538SOL    HW240074   0.749   1.228   4.419  1.0871  0.5849  0.7350
 9539SOL     OW40075   0.531   1.424   2.618  0.3186  0.0346 -0.0543
 9539SOL    HW140076   0.594   1.362   2.654 -0.2595 -0.4173  0.1773
 9539SOL    HW240077   0.533   1.493   2.684 -1.4847 -2.0303  2.1785
 9540SOL     OW40078   0.939   2.225  10.564  0.0408  0.3101  0.1738
 9540SOL    HW140079   0.929   2.215  10.469  1.6052  1.1524 -0.0833
 9540SOL    HW240080   0.931   2.320  10.568  1.4049  0.3570  1.8634
 9541SOL     OW40081   3.974   1.352  16.166  0.0525 -0.2497 -0.1982
 9541SOL    HW140082   3.967   1.262  16.133  1.4172  0.7820 -3.3350
 9541SOL    HW240083   4.062   1.378  16.137  0.4314 -1.8537 -0.5017
 9542SOL     OW40084   2.934   0.560  12.517  0.3170  0.0175 -0.0951
 9542SOL    HW140085   2.895   0.611  12.589  0.0988  0.8528 -0.8064
 9542SOL    HW240086   2.887   0.584  12.437 -0.1938 -1.5350 -0.2468
 9543SOL     OW40087   3.350   4.056   1.114 -0.2445 -0.0911  0.4902
 9543SOL    HW140088   3.331   4.090   1.027 -2.8685  1.8372  1.8235
 9543SOL    HW240089   3.355   3.961   1.103  2.2212  0.0417  0.4785
 9544SOL     OW40090   0.213   3.983  15.521 -0.6572  0.1590 -0.0858
 9544SOL    HW140091   0.142   4.043  15.543  0.7276  1.9910 -0.6744
 9544SOL    HW240092   0.181   3.895  15.541 -1.1419 -0.0920 -1.9520
 9545SOL     OW40093   1.080   3.956   5.371  0.5978 -0.1801 -0.1517
 9545SOL    HW140094   1.078   3.926   5.280 -0.7214  1.5166 -0.6893
 9545SOL    HW240095   1.009   3.907   5.411  2.3779 -2.1295  0.6503
 9546SOL     OW40096   2.475   3.082  11.910 -0.3462 -0.2719 -0.1263
 9546SOL    HW140097   2.560   3.115  11.938  1.3030 -2.2553 -2.7606
 9546SOL    HW240098   2.456   3.018  11.978  0.2956  0.2580  0.5534
 9547SOL     OW40099   2.053   3.191  15.160  0.2215 -0.0301 -0.3567
 9547SOL    HW140100   2.066   3.176  15.067 -1.0623  2.6914 -0.9401
 9547SOL    HW240101   2.081   3.281  15.173  1.3446 -0.2176 -1.4344
 9548SOL     OW40102   3.565   1.947   6.485 -0.3926  0.0266 -0.5026
 9548SOL    HW140103   3.495   1.949   6.420 -1.2433 -2.2564  0.3480
 9548SOL    HW240104   3.640   1.954   6.426 -0.3907 -2.4373 -0.8231
 9549SOL     OW40105   0.877   0.462   7.203  0.4484  0.1528 -0.1280
 9549SOL    HW140106   0.934   0.529   7.166  1.0293 -0.9399 -1.1917
 9549SOL    HW240107   0.905   0.383   7.158  0.7449  0.4472 -0.4652
 9550SOL     OW40108   4.706   4.213  17.262  0.3043 -0.9348  0.0385
 9550SOL    HW140109   4.713   4.292  17.209  0.1930 -1.5421 -0.8654
 9550SOL    HW240110   4.612   4.197  17.259  0.3061 -1.0097  0.3263
 9551SOL     OW40111   2.800   1.050   0.554  0.1586  0.1307 -0.7845
 9551SOL    HW140112   2.779   1.143   0.548 -0.8129 -0.0716 -0.5512
 9551SOL    HW240113   2.709   1.024   0.539 -0.1510  0.8298 -0.0898
 9552SOL     OW40114   4.642   1.418   1.709  0.8724 -0.2925  0.0576
 9552SOL    HW140115   4.655   1.375   1.624  1.0877 -0.8165  0.3577
 9552SOL    HW240116   4.711   1.485   1.705 -0.1805  0.6834 -1.9868
 9553SOL     OW40117   1.589   4.467   8.498 -0.2367  0.6845 -0.2110
 9553SOL    HW140118   1.661   4.451   8.438  0.3715  1.0279  0.4253
 9553SOL    HW240119   1.622   4.467   8.588  0.5051  0.9400 -0.4896
 9554SOL     OW40120   2.665   1.993   6.765  0.1701 -0.0721 -0.3574
 9554SOL    HW140121   2.728   2.030   6.827 -2.2136  0.8884  1.4923
 9554SOL    HW240122   2.701   1.909   6.735  0.9859  1.2885 -3.2197
 9555SOL     OW40123   1.134   2.871  15.075 -0.0401 -0.1784  0.3772
 9555SOL    HW140124   1.225   2.902  15.074 -0.2794  0.4081 -2.6038
 9555SOL    HW240125   1.150   2.795  15.131 -1.1210  0.1377  1.0979
 9556SOL     OW40126   0.670   3.127   2.300 -0.2744  0.4879 -0.2028
 9556SOL    HW140127   0.650   3.124   2.393  0.4606 -3.8562 -0.2057
 9556SOL    HW240128   0.740   3.193   2.298  0.4789 -0.2713  2.0772
 9557SOL     OW40129   1.585   0.593   5.336 -0.0965  0.2228 -0.1304
 9557SOL    HW140130   1.558   0.540   5.411  0.6044 -2.6363 -1.9093
 9557SOL    HW240131   1.499   0.635   5.332 -0.7897 -0.9543  1.9762
 9558SOL     OW40132   4.494   2.199   7.822 -0.0728 -0.0091  0.1009
 9558SOL    HW140133   4.487   2.294   7.812 -0.3181 -0.1533 -1.0601
 9558SOL    HW240134   4.412   2.175   7.866  0.4173 -1.6569  0.1141
 9559SOL     OW40135   1.729   4.396   7.281 -0.0388  0.5253  0.3287
 9559SOL    HW140136   1.654   4.385   7.223 -1.4503 -0.6143  2.3576
 9559SOL    HW240137   1.755   4.485   7.258 -0.5756  0.0014 -2.3317
 9560SOL     OW40138   4.406   3.495   7.637 -0.3204 -0.4413  0.1879
 9560SOL    HW140139   4.443   3.413   7.605 -3.5112 -1.4741 -0.8097
 9560SOL    HW240140   4.480   3.551   7.610 -0.0376 -1.4354 -1.1146
 9561SOL     OW40141   4.419   2.004   3.633 -0.3537 -0.2867  0.0100
 9561SOL    HW140142   4.470   1.938   3.587  0.4125  1.2049 -1.2980
 9561SOL    HW240143   4.349   1.950   3.669 -0.5620 -1.3952 -2.0577
 9562SOL     OW40144   1.963   0.935   3.737 -0.4934 -0.3413 -0.1959
 9562SOL    HW140145   1.974   1.002   3.804  0.1500  2.0187 -2.6751
 9562SOL    HW240146   1.885   0.889   3.767  0.1948  1.0135  3.7443
 9563SOL     OW40147   2.978   1.932  15.392  0.4841  0.0380  0.2319
 9563SOL    HW140148   2.977   1.929  15.296 -0.3368  1.4411  0.2030
 9563SOL    HW240149   2.919   1.862  15.422 -0.0859 -0.0466 -1.0817
 9564SOL     OW40150   3.867   2.535  17.008  0.4677  0.2674 -0.6566
 9564SOL    HW140151   3.796   2.487  16.965  0.6398  1.5872 -2.3941
 9564SOL    HW240152   3.837   2.626  17.006  1.9277  0.7531 -0.4365
 9565SOL     OW40153   1.382   0.369  17.098 -0.4514 -0.0677 -0.0641
 9565SOL    HW140154   1.310   0.402  17.043 -0.5060  0.6693  0.4473
 9565SOL    HW240155   1.431   0.449  17.112 -0.6385 -0.3660  2.3026
   4.72217   4.72217  17.69082
